<LesHouchesEvents version="3.0">
<header>
<!--
#*********************************************************************
#                                                                    *
#                        MadGraph5_aMC@NLO                           *
#                                                                    *
#                           Going Beyond                             *
#                                                                    *
#                   http://madgraph.hep.uiuc.edu                     *
#                   http://madgraph.phys.ucl.ac.be                   *
#                   http://amcatnlo.cern.ch                          *
#                                                                    *
#                     The MadGraph5_aMC@NLO team                     *
#                                                                    *
#....................................................................*
#                                                                    *
# This file contains all the information necessary to reproduce      *
# the events generated:                                              *
#                                                                    *
# 1. software version                                                *
# 2. proc_card          : code generation info including model       *
# 3. param_card         : model primary parameters in the LH format  *
# 4. run_card           : running parameters (collider and cuts)     *
# 5. pythia_card        : present only if pythia has been run        *
# 6. pgs_card           : present only if pgs has been run           *
# 7. delphes_cards      : present only if delphes has been run       *
#                                                                    *
#                                                                    *
#*********************************************************************
-->
<MGVersion>
#5.2.2.3
</MGVersion>
<MG5ProcCard>
#************************************************************
#*                     MadGraph5_aMC@NLO                    *
#*                                                          *
#*                *                       *                 *
#*                  *        * *        *                   *
#*                    * * * * 5 * * * *                     *
#*                  *        * *        *                   *
#*                *                       *                 *
#*                                                          *
#*                                                          *
#*         VERSION 2.2.3                 2015-02-10         *
#*                                                          *
#*    The MadGraph5_aMC@NLO Development Team - Find us at   *
#*    https://server06.fynu.ucl.ac.be/projects/madgraph     *
#*                                                          *
#************************************************************
#*                                                          *
#*               Command File for MadGraph5_aMC@NLO         *
#*                                                          *
#*     run as ./bin/mg5_aMC  filename                       *
#*                                                          *
#************************************************************
set group_subprocesses Auto
set ignore_six_quark_processes False
set loop_optimized_output True
set gauge unitary
set complex_mass_scheme False
import model sm
define p = g u c d s u~ c~ d~ s~
define j = g u c d s u~ c~ d~ s~
define l+ = e+ mu+
define l- = e- mu-
define vl = ve vm vt
define vl~ = ve~ vm~ vt~
import model Zprime_UFO
generate p p > zph, zph > j j
add process p p > zph, zph > b b~
output Dijet_signal
</MG5ProcCard>
<MGProcCard>
#*********************************************************************
#                        MadGraph/MadEvent                           *
#                   http://madgraph.hep.uiuc.edu                     *
#                                                                    *
#                          proc_card.dat                             *
#*********************************************************************
#                                                                    *
#            This Files is generated by MADGRAPH 5                   *
#                                                                    *
# WARNING: This Files is generated for MADEVENT (compatibility issue)*
#          This files is NOT a valid MG4 proc_card.dat               *
#          Running this in MG4 will NEVER reproduce the result of MG5*
#                                                                    *
#*********************************************************************
#*********************************************************************
# Process(es) requested : mg2 input                                  *
#*********************************************************************
# Begin PROCESS # This is TAG. Do not modify this line
p p > zph , zph > j j           #Process
# Be carefull the coupling are here in MG5 convention
          
end_coup           # End the couplings input

done               # this tells MG there are no more procs
# End PROCESS  # This is TAG. Do not modify this line
#*********************************************************************
# Model information                                                  *
#*********************************************************************
# Begin MODEL  # This is TAG. Do not modify this line
Zprime_UFO
# End   MODEL  # This is TAG. Do not modify this line
#*********************************************************************
# Start multiparticle definitions                                    *
#*********************************************************************
# Begin MULTIPARTICLES # This is TAG. Do not modify this line

# End  MULTIPARTICLES # This is TAG. Do not modify this line
</MGProcCard>
<MGRunCard>
#*********************************************************************
#                       MadGraph5_aMC@NLO                            *
#                                                                    *
#                     run_card.dat MadEvent                          *
#                                                                    *
#  This file is used to set the parameters of the run.               *
#                                                                    *
#  Some notation/conventions:                                        *
#                                                                    *
#   Lines starting with a '# ' are info or comments                  *
#                                                                    *
#   mind the format:   value    = variable     ! comment             *
#*********************************************************************
#
#*******************                                                 
# Running parameters
#*******************                                                 
#                                                                    
#*********************************************************************
# Tag name for the run (one word)                                    *
#*********************************************************************
  tag_1     = run_tag ! name of the run 
#*********************************************************************
# Run to generate the grid pack                                      *
#*********************************************************************
  .false.     = gridpack  !True = setting up the grid pack
#*********************************************************************
# Number of events and rnd seed                                      *
# Warning: Do not generate more than 1M events in a single run       *
# If you want to run Pythia, avoid more than 50k events in a run.    *
#*********************************************************************
  2000 = nevents ! Number of unweighted events requested 
 2469 = iseed   ! rnd seed (0=assigned automatically=default))
#*********************************************************************
# Collider type and energy                                           *
# lpp: 0=No PDF, 1=proton, -1=antiproton, 2=photon from proton,      *
#                                         3=photon from electron     *
#*********************************************************************
        1     = lpp1    ! beam 1 type 
        1     = lpp2    ! beam 2 type
     4000     = ebeam1  ! beam 1 total energy in GeV
     4000     = ebeam2  ! beam 2 total energy in GeV
#*********************************************************************
# Beam polarization from -100 (left-handed) to 100 (right-handed)    *
#*********************************************************************
        0     = polbeam1 ! beam polarization for beam 1
        0     = polbeam2 ! beam polarization for beam 2
#*********************************************************************
# PDF CHOICE: this automatically fixes also alpha_s and its evol.    *
#*********************************************************************
 'nn23lo1'    = pdlabel     ! PDF set                                     
 230000    = lhaid     ! if pdlabel=lhapdf, this is the lhapdf number
#*********************************************************************
# Renormalization and factorization scales                           *
#*********************************************************************
 F        = fixed_ren_scale  ! if .true. use fixed ren scale
 F        = fixed_fac_scale  ! if .true. use fixed fac scale
 91.1880  = scale            ! fixed ren scale
 91.1880  = dsqrt_q2fact1    ! fixed fact scale for pdf1
 91.1880  = dsqrt_q2fact2    ! fixed fact scale for pdf2
 1        = scalefact        ! scale factor for event-by-event scales
#*********************************************************************
# Matching - Warning! ickkw > 1 is still beta
#*********************************************************************
 0        = ickkw            ! 0 no matching, 1 MLM, 2 CKKW matching
 1        = highestmult      ! for ickkw=2, highest mult group
 1        = ktscheme         ! for ickkw=1, 1 Durham kT, 2 Pythia pTE
 1        = alpsfact         ! scale factor for QCD emission vx
 F        = chcluster        ! cluster only according to channel diag
 T        = pdfwgt           ! for ickkw=1, perform pdf reweighting
 5        = asrwgtflavor     ! highest quark flavor for a_s reweight
 T        = clusinfo         ! include clustering tag in output
 3.0      = lhe_version       ! Change the way clustering information pass to shower.        
#*********************************************************************
#**********************************************************
#
#**********************************************************
# Automatic ptj and mjj cuts if xqcut > 0
# (turn off for VBF and single top processes)
#**********************************************************
   T  = auto_ptj_mjj  ! Automatic setting of ptj and mjj
#**********************************************************
#                                                                    
#**********************************
# BW cutoff (M+/-bwcutoff*Gamma)
#**********************************
  15  = bwcutoff      ! (M+/-bwcutoff*Gamma)
#**********************************************************
# Apply pt/E/eta/dr/mij cuts on decay products or not
# (note that etmiss/ptll/ptheavy/ht/sorted cuts always apply)
#**********************************************************
   T  = cut_decays    ! Cut decay products 
#*************************************************************
# Number of helicities to sum per event (0 = all helicities)
# 0 gives more stable result, but longer run time (needed for
# long decay chains e.g.).
# Use >=2 if most helicities contribute, e.g. pure QCD.
#*************************************************************
   0  = nhel          ! Number of helicities used per event
#*******************                                                 
# Standard Cuts
#*******************                                                 
#                                                                    
#*********************************************************************
# Minimum and maximum pt's (for max, -1 means no cut)                *
#*********************************************************************
 20  = ptj       ! minimum pt for the jets 
  0  = ptb       ! minimum pt for the b 
 10  = pta       ! minimum pt for the photons 
 10  = ptl       ! minimum pt for the charged leptons 
  0  = misset    ! minimum missing Et (sum of neutrino's momenta)
  0  = ptheavy   ! minimum pt for one heavy final state
 1.0 = ptonium   ! minimum pt for the quarkonium states
 -1  = ptjmax    ! maximum pt for the jets
 -1  = ptbmax    ! maximum pt for the b
 -1  = ptamax    ! maximum pt for the photons
 -1  = ptlmax    ! maximum pt for the charged leptons
 -1  = missetmax ! maximum missing Et (sum of neutrino's momenta)
#*********************************************************************
# Minimum and maximum E's (in the center of mass frame)              *
#*********************************************************************
  0  = ej     ! minimum E for the jets 
  0  = eb     ! minimum E for the b 
  0  = ea     ! minimum E for the photons 
  0  = el     ! minimum E for the charged leptons 
 -1   = ejmax ! maximum E for the jets
 -1   = ebmax ! maximum E for the b
 -1   = eamax ! maximum E for the photons
 -1   = elmax ! maximum E for the charged leptons
#*********************************************************************
# Maximum and minimum absolute rapidity (for max, -1 means no cut)   *
#*********************************************************************
   5  = etaj    ! max rap for the jets 
  -1  = etab    ! max rap for the b
 2.5  = etaa    ! max rap for the photons 
 2.5  = etal    ! max rap for the charged leptons 
 0.6  = etaonium ! max rap for the quarkonium states
   0  = etajmin ! min rap for the jets
   0  = etabmin ! min rap for the b
   0  = etaamin ! min rap for the photons
   0  = etalmin ! main rap for the charged leptons
#*********************************************************************
# Minimum and maximum DeltaR distance                                *
#*********************************************************************
 0.4 = drjj    ! min distance between jets 
 0   = drbb    ! min distance between b's 
 0.4 = drll    ! min distance between leptons 
 0.4 = draa    ! min distance between gammas 
 0   = drbj    ! min distance between b and jet 
 0.4 = draj    ! min distance between gamma and jet 
 0.4 = drjl    ! min distance between jet and lepton 
 0   = drab    ! min distance between gamma and b 
 0   = drbl    ! min distance between b and lepton 
 0.4 = dral    ! min distance between gamma and lepton 
 -1  = drjjmax ! max distance between jets
 -1  = drbbmax ! max distance between b's
 -1  = drllmax ! max distance between leptons
 -1  = draamax ! max distance between gammas
 -1  = drbjmax ! max distance between b and jet
 -1  = drajmax ! max distance between gamma and jet
 -1  = drjlmax ! max distance between jet and lepton
 -1  = drabmax ! max distance between gamma and b
 -1  = drblmax ! max distance between b and lepton
 -1  = dralmax ! maxdistance between gamma and lepton
#*********************************************************************
# Minimum and maximum invariant mass for pairs                       *
# WARNING: for four lepton final state mmll cut require to have      *
#          different lepton masses for each flavor!                  *           
#*********************************************************************
 0   = mmjj    ! min invariant mass of a jet pair 
 0   = mmbb    ! min invariant mass of a b pair 
 0   = mmaa    ! min invariant mass of gamma gamma pair
 0   = mmll    ! min invariant mass of l+l- (same flavour) lepton pair
 -1  = mmjjmax ! max invariant mass of a jet pair
 -1  = mmbbmax ! max invariant mass of a b pair
 -1  = mmaamax ! max invariant mass of gamma gamma pair
 -1  = mmllmax ! max invariant mass of l+l- (same flavour) lepton pair
#*********************************************************************
# Minimum and maximum invariant mass for all letpons                 *
#*********************************************************************
 0   = mmnl    ! min invariant mass for all letpons (l+- and vl) 
 -1  = mmnlmax ! max invariant mass for all letpons (l+- and vl) 
#*********************************************************************
# Minimum and maximum pt for 4-momenta sum of leptons                *
#*********************************************************************
 0   = ptllmin  ! Minimum pt for 4-momenta sum of leptons(l and vl)
 -1  = ptllmax  ! Maximum pt for 4-momenta sum of leptons(l and vl)
#*********************************************************************
# Inclusive cuts                                                     *
#*********************************************************************
 0  = xptj ! minimum pt for at least one jet  
 0  = xptb ! minimum pt for at least one b 
 0  = xpta ! minimum pt for at least one photon 
 0  = xptl ! minimum pt for at least one charged lepton 
#*********************************************************************
# Control the pt's of the jets sorted by pt                          *
#*********************************************************************
 0   = ptj1min ! minimum pt for the leading jet in pt
 0   = ptj2min ! minimum pt for the second jet in pt
 0   = ptj3min ! minimum pt for the third jet in pt
 0   = ptj4min ! minimum pt for the fourth jet in pt
 -1  = ptj1max ! maximum pt for the leading jet in pt 
 -1  = ptj2max ! maximum pt for the second jet in pt
 -1  = ptj3max ! maximum pt for the third jet in pt
 -1  = ptj4max ! maximum pt for the fourth jet in pt
 0   = cutuse  ! reject event if fails any (0) / all (1) jet pt cuts
#*********************************************************************
# Control the pt's of leptons sorted by pt                           *
#*********************************************************************
 0   = ptl1min ! minimum pt for the leading lepton in pt
 0   = ptl2min ! minimum pt for the second lepton in pt
 0   = ptl3min ! minimum pt for the third lepton in pt
 0   = ptl4min ! minimum pt for the fourth lepton in pt
 -1  = ptl1max ! maximum pt for the leading lepton in pt 
 -1  = ptl2max ! maximum pt for the second lepton in pt
 -1  = ptl3max ! maximum pt for the third lepton in pt
 -1  = ptl4max ! maximum pt for the fourth lepton in pt
#*********************************************************************
# Control the Ht(k)=Sum of k leading jets                            *
#*********************************************************************
 0   = htjmin ! minimum jet HT=Sum(jet pt)
 -1  = htjmax ! maximum jet HT=Sum(jet pt)
 0   = ihtmin  !inclusive Ht for all partons (including b)
 -1  = ihtmax  !inclusive Ht for all partons (including b)
 0   = ht2min ! minimum Ht for the two leading jets
 0   = ht3min ! minimum Ht for the three leading jets
 0   = ht4min ! minimum Ht for the four leading jets
 -1  = ht2max ! maximum Ht for the two leading jets
 -1  = ht3max ! maximum Ht for the three leading jets
 -1  = ht4max ! maximum Ht for the four leading jets
#***********************************************************************
# Photon-isolation cuts, according to hep-ph/9801442                   *
# When ptgmin=0, all the other parameters are ignored                  *
# When ptgmin>0, pta and draj are not going to be used                 *
#***********************************************************************
   0 = ptgmin ! Min photon transverse momentum
 0.4 = R0gamma ! Radius of isolation code
 1.0 = xn ! n parameter of eq.(3.4) in hep-ph/9801442
 1.0 = epsgamma ! epsilon_gamma parameter of eq.(3.4) in hep-ph/9801442
 .true. = isoEM ! isolate photons from EM energy (photons and leptons)
#*********************************************************************
# WBF cuts                                                           *
#*********************************************************************
 0   = xetamin ! minimum rapidity for two jets in the WBF case  
 0   = deltaeta ! minimum rapidity for two jets in the WBF case 
#*********************************************************************
# KT DURHAM CUT                                                      *
#*********************************************************************
 -1    =  ktdurham        
 0.4  =  dparameter 
#*********************************************************************
# maximal pdg code for quark to be considered as a light jet         *
# (otherwise b cuts are applied)                                     *
#*********************************************************************
 4 = maxjetflavor    ! Maximum jet pdg code
#*********************************************************************
# Jet measure cuts                                                   *
#*********************************************************************
 0   = xqcut   ! minimum kt jet measure between partons
#*********************************************************************
#
#*********************************************************************
# Store info for systematics studies                                 *
# WARNING: If use_syst is T, matched Pythia output is                *
#          meaningful ONLY if plotted taking matchscale              *
#          reweighting into account!                                 *
#*********************************************************************
   F  = use_syst      ! Enable systematics studies
#
#**************************************
# Parameter of the systematics study
#  will be used by SysCalc (if installed)
#**************************************                                  
#
0.5 1 2 = sys_scalefact  # factorization/renormalization scale factor
0.5 1 2 = sys_alpsfact  # \alpha_s emission scale factors
30 50 = sys_matchscale # variation of merging scale
# PDF sets and number of members (0 or none for all members).
CT10nlo.LHgrid = sys_pdf # matching scales
# MSTW2008nlo68cl.LHgrid 1  = sys_pdf
</MGRunCard>
<slha>
######################################################################
## PARAM_CARD AUTOMATICALY GENERATED BY MG5 FOLLOWING UFO MODEL   ####
######################################################################
##                                                                  ##
##  Width set on Auto will be computed following the information    ##
##        present in the decay.py files of the model.               ##
##        See  arXiv:1402.1178 for more details.                    ##
##                                                                  ##
######################################################################

###################################
## INFORMATION FOR CKMBLOCK
###################################
Block ckmblock 
    1 2.277360e-01 # cabi 

###################################
## INFORMATION FOR FRBLOCK
###################################
Block frblock 
    1 1.400000e+00 # gz 

###################################
## INFORMATION FOR MASS
###################################
Block mass 
    1 5.040000e-03 # MD 
    2 2.550000e-03 # MU 
    3 1.010000e-01 # MS 
    4 1.270000e+00 # MC 
    5 4.700000e+00 # MB 
    6 1.720000e+02 # MT 
   11 5.110000e-04 # Me 
   13 1.056600e-01 # MM 
   15 1.777000e+00 # MTA 
   23 9.118760e+01 # MZ 
   25 1.200000e+02 # MH 
  10030 8.000000e+02 # MZph 
  10031 3.000000e+02 # MZpl 
## Dependent parameters, given by model restrictions.
## Those values should be edited following the 
## analytical expression. MG5 ignores those values 
## but they are important for interfacing the output of MG5
## to external program such as Pythia.
  12 0.000000 # ve : 0.0 
  14 0.000000 # vm : 0.0 
  16 0.000000 # vt : 0.0 
  21 0.000000 # g : 0.0 
  22 0.000000 # a : 0.0 
  24 79.824360 # w+ : cmath.sqrt(MZ__exp__2/2. + cmath.sqrt(MZ__exp__4/4. - (aEW*cmath.pi*MZ__exp__2)/(Gf*sqrt__2))) 

###################################
## INFORMATION FOR SMINPUTS
###################################
Block sminputs 
    1 1.279000e+02 # aEWM1 
    2 1.166370e-05 # Gf 
    3 1.184000e-01 # aS 

###################################
## INFORMATION FOR YUKAWA
###################################
Block yukawa 
    1 5.040000e-03 # ymdo 
    2 2.550000e-03 # ymup 
    3 1.010000e-01 # yms 
    4 1.270000e+00 # ymc 
    5 4.700000e+00 # ymb 
    6 1.720000e+02 # ymt 
   11 5.110000e-04 # yme 
   13 1.056600e-01 # ymm 
   15 1.777000e+00 # ymtau 

###################################
## INFORMATION FOR DECAY
###################################
DECAY   6 1.508336e+00 # WT 
DECAY  23 2.495200e+00 # WZ 
DECAY  24 2.085000e+00 # WW 
DECAY  25 5.753088e-03 # WH 
## Dependent parameters, given by model restrictions.
## Those values should be edited following the 
## analytical expression. MG5 ignores those values 
## but they are important for interfacing the output of MG5
## to external program such as Pythia.
DECAY  1 0.000000 # d : 0.0 
DECAY  2 0.000000 # u : 0.0 
DECAY  3 0.000000 # s : 0.0 
DECAY  4 0.000000 # c : 0.0 
DECAY  5 0.000000 # b : 0.0 
DECAY  11 0.000000 # e- : 0.0 
DECAY  12 0.000000 # ve : 0.0 
DECAY  13 0.000000 # mu- : 0.0 
DECAY  14 0.000000 # vm : 0.0 
DECAY  15 0.000000 # ta- : 0.0 
DECAY  16 0.000000 # vt : 0.0 
DECAY  21 0.000000 # g : 0.0 
DECAY  22 0.000000 # a : 0.0 
DECAY  10030 0.308725 # zph : (gz__exp__2*MZph*(5 + cmath.sqrt(1 - (4*MT__exp__2)/MZph__exp__2)))/(144.*cmath.pi) 
DECAY  10031 0.132629 # zpl : (5*gz__exp__2*MZpl)/(144.*cmath.pi) 
#===========================================================
# QUANTUM NUMBERS OF NEW STATE(S) (NON SM PDG CODE)
#===========================================================

Block QNUMBERS 10030  # zph 
        1 0  # 3 times electric charge
        2 3  # number of spin states (2S+1)
        3 1  # colour rep (1: singlet, 3: triplet, 8: octet)
        4 0  # Particle/Antiparticle distinction (0=own anti)
Block QNUMBERS 10031  # zpl 
        1 0  # 3 times electric charge
        2 3  # number of spin states (2S+1)
        3 1  # colour rep (1: singlet, 3: triplet, 8: octet)
        4 0  # Particle/Antiparticle distinction (0=own anti)
</slha>
## END BANNER##
<MGGenerationInfo>
#  Number of Events        :         4073
#  Integrated weight (pb)  :  0.10864E+02
#  Max wgt                 :  0.35506E-02
#  Average wgt             :  0.26673E-02
</MGGenerationInfo>
</header>
<init>
     2212     2212  0.40000000000E+04  0.40000000000E+04 0 0  247000  247000 2   1
  0.10850172448E+02  0.19398278669E-01  0.35505860000E-02   0
</init>
<event>
 5   0  0.3416160E-02  0.8093360E+03  0.7818609E-02  0.9546601E-01
       -2   -1    0    0    0  501  0.00000000000E+00  0.00000000000E+00  0.16937111229E+03  0.16937111231E+03  0.25500000920E-02 0. -1.
        2   -1    0    0  501    0  0.00000000000E+00  0.00000000000E+00 -0.96684844332E+03  0.96684844333E+03  0.25500000920E-02 0.  1.
    10030    2    1    2    0    0  0.00000000000E+00  0.00000000000E+00 -0.79747733103E+03  0.11362195556E+04  0.80933601496E+03 0.  0.
        1    1    3    3  502    0  0.37971029170E+03  0.38628453807E+02 -0.58753008049E+03  0.70061662739E+03  0.50400001928E-02 0.  1.
       -1    1    3    3    0  502 -0.37971029170E+03 -0.38628453807E+02 -0.20994725054E+03  0.43560292825E+03  0.50400001928E-02 0. -1.
</event>
<event>
 5   0  0.3416160E-02  0.8104855E+03  0.7818609E-02  0.9544963E-01
       -2   -1    0    0    0  501  0.00000000000E+00  0.00000000000E+00  0.96013286151E+02  0.96013286185E+02  0.25500000920E-02 0.  1.
        2   -1    0    0  501    0  0.00000000000E+00  0.00000000000E+00 -0.17104057637E+04  0.17104057637E+04  0.25500000920E-02 0. -1.
    10030    2    1    2    0    0  0.00000000000E+00  0.00000000000E+00 -0.16143924776E+04  0.18064190499E+04  0.81048547935E+03 0.  0.
        1    1    3    3  502    0  0.36190947051E+03 -0.17298765697E+03 -0.93558976076E+03  0.10179545151E+04  0.50400001928E-02 0.  1.
       -1    1    3    3    0  502 -0.36190947051E+03  0.17298765697E+03 -0.67880271682E+03  0.78846453484E+03  0.50400001928E-02 0. -1.
</event>
<event>
 5   0  0.3550586E-02  0.5800139E+03  0.7818609E-02  0.9947761E-01
        2   -1    0    0  501    0  0.00000000000E+00  0.00000000000E+00  0.16004705974E+04  0.16004705974E+04  0.25500000920E-02 0. -1.
       -2   -1    0    0    0  501  0.00000000000E+00  0.00000000000E+00 -0.52549564492E+02  0.52549564554E+02  0.25500000920E-02 0.  1.
    10030    2    1    2    0    0  0.00000000000E+00  0.00000000000E+00  0.15479210329E+04  0.16530201619E+04  0.58001390648E+03 0.  0.
        3    1    3    3  502    0 -0.16737647865E+03  0.22208927868E+03  0.10083776514E+04  0.10460229593E+04  0.10100000352E+00 0.  1.
       -3    1    3    3    0  502  0.16737647865E+03 -0.22208927868E+03  0.53954338146E+03  0.60699720262E+03  0.10100000352E+00 0. -1.
</event>
<event>
 5   0  0.3416160E-02  0.8005817E+03  0.7818609E-02  0.9559175E-01
        2   -1    0    0  501    0  0.00000000000E+00  0.00000000000E+00  0.24086653865E+04  0.24086653865E+04  0.25500000920E-02 0. -1.
       -2   -1    0    0    0  501  0.00000000000E+00  0.00000000000E+00 -0.66523466376E+02  0.66523466424E+02  0.25500000920E-02 0.  1.
    10030    2    1    2    0    0  0.00000000000E+00  0.00000000000E+00  0.23421419201E+04  0.24751888529E+04  0.80058171578E+03 0.  0.
        1    1    3    3  502    0 -0.15635468089E+03  0.34756677206E+03  0.15495194295E+04  0.15957004448E+04  0.50400001928E-02 0. -1.
       -1    1    3    3    0  502  0.15635468089E+03 -0.34756677206E+03  0.79262249065E+03  0.87948840810E+03  0.50400001928E-02 0.  1.
</event>
<event>
 5   0  0.3550586E-02  0.7919324E+03  0.7818609E-02  0.9571769E-01
       -2   -1    0    0    0  501  0.00000000000E+00  0.00000000000E+00  0.16675243356E+03  0.16675243358E+03  0.25500000920E-02 0. -1.
        2   -1    0    0  501    0  0.00000000000E+00  0.00000000000E+00 -0.94025157368E+03  0.94025157368E+03  0.25500000920E-02 0.  1.
    10030    2    1    2    0    0  0.00000000000E+00  0.00000000000E+00 -0.77349914011E+03  0.11070040073E+04  0.79193241653E+03 0.  0.
        3    1    3    3  502    0 -0.25201520250E+03 -0.39571958126E+02  0.36574797777E+02  0.25771171529E+03  0.10100000352E+00 0. -1.
       -3    1    3    3    0  502  0.25201520250E+03  0.39571958126E+02 -0.81007393789E+03  0.84929229198E+03  0.10100000352E+00 0.  1.
</event>
<event>
 5   0  0.1989298E-02  0.8043172E+03  0.7818609E-02  0.9553789E-01
        1   -1    0    0  501    0  0.00000000000E+00  0.00000000000E+00  0.19653595255E+04  0.19653595255E+04  0.50400001928E-02 0.  1.
       -1   -1    0    0    0  501  0.00000000000E+00  0.00000000000E+00 -0.82291073945E+02  0.82291074099E+02  0.50400001928E-02 0. -1.
    10030    2    1    2    0    0  0.00000000000E+00  0.00000000000E+00  0.18830684516E+04  0.20476505996E+04  0.80431721654E+03 0.  0.
        1    1    3    3  502    0  0.37552492025E+03  0.10281969404E+03  0.11979013088E+04  0.12595865992E+04  0.50400001928E-02 0.  1.
       -1    1    3    3    0  502 -0.37552492025E+03 -0.10281969404E+03  0.68516714273E+03  0.78806400039E+03  0.50400001928E-02 0. -1.
</event>
<event>
 5   0  0.2129257E-02  0.7953564E+03  0.7818609E-02  0.9566763E-01
       -1   -1    0    0    0  501  0.00000000000E+00  0.00000000000E+00  0.42404735425E+03  0.42404735428E+03  0.50400001928E-02 0. -1.
        1   -1    0    0  501    0  0.00000000000E+00  0.00000000000E+00 -0.37294876223E+03  0.37294876226E+03  0.50400001928E-02 0.  1.
    10030    2    1    2    0    0  0.00000000000E+00  0.00000000000E+00  0.51098592029E+02  0.79699611654E+03  0.79535636269E+03 0.  0.
        3    1    3    3  502    0 -0.39201760899E+03 -0.14357324383E+02 -0.39884541570E+02  0.39430283460E+03  0.10100000352E+00 0. -1.
       -3    1    3    3    0  502  0.39201760899E+03  0.14357324383E+02  0.90983133598E+02  0.40269328194E+03  0.10100000352E+00 0.  1.
</event>
<event>
 5   0  0.3416160E-02  0.8097003E+03  0.7818609E-02  0.9546081E-01
       -2   -1    0    0    0  501  0.00000000000E+00  0.00000000000E+00  0.46917515615E+03  0.46917515616E+03  0.25500000920E-02 0.  1.
        2   -1    0    0  501    0  0.00000000000E+00  0.00000000000E+00 -0.34934429354E+03  0.34934429355E+03  0.25500000920E-02 0. -1.
    10030    2    1    2    0    0  0.00000000000E+00  0.00000000000E+00  0.11983086261E+03  0.81851944971E+03  0.80970034823E+03 0.  0.
        1    1    3    3  502    0 -0.18349641848E+02  0.31862538006E+03  0.31171642898E+03  0.44612327253E+03  0.50400001928E-02 0.  1.
       -1    1    3    3    0  502  0.18349641848E+02 -0.31862538006E+03 -0.19188556637E+03  0.37239617718E+03  0.50400001928E-02 0. -1.
</event>
<event>
 5   0  0.1358000E-02  0.5151872E+03  0.7818609E-02  0.1009889E+00
       -4   -1    0    0    0  501  0.00000000000E+00  0.00000000000E+00  0.23480324562E+03  0.23480668018E+03  0.12699999809E+01 0.  1.
        4   -1    0    0  501    0  0.00000000000E+00  0.00000000000E+00 -0.28258908141E+03  0.28259193519E+03  0.12699999809E+01 0. -1.
    10030    2    1    2    0    0  0.00000000000E+00  0.00000000000E+00 -0.47785835787E+02  0.51739861536E+03  0.51518719033E+03 0.  0.
        3    1    3    3  502    0  0.15071582234E+03 -0.92299246795E+01 -0.23348468857E+03  0.27805675789E+03  0.10100000352E+00 0. -1.
       -3    1    3    3    0  502 -0.15071582234E+03  0.92299246795E+01  0.18569885278E+03  0.23934185747E+03  0.10100000352E+00 0.  1.
</event>
<event>
 5   0  0.3416160E-02  0.8136064E+03  0.7818609E-02  0.9540529E-01
       -2   -1    0    0    0  501  0.00000000000E+00  0.00000000000E+00  0.29933239417E+03  0.29933239418E+03  0.25500000920E-02 0.  1.
        2   -1    0    0  501    0  0.00000000000E+00  0.00000000000E+00 -0.55285972617E+03  0.55285972618E+03  0.25500000920E-02 0. -1.
    10030    2    1    2    0    0  0.00000000000E+00  0.00000000000E+00 -0.25352733200E+03  0.85219212036E+03  0.81360635564E+03 0.  0.
        1    1    3    3  502    0 -0.23813160759E+03 -0.93863906502E+02  0.20441456766E+03  0.32757046720E+03  0.50400001928E-02 0.  1.
       -1    1    3    3    0  502  0.23813160759E+03  0.93863906502E+02 -0.45794189966E+03  0.52462165317E+03  0.50400001928E-02 0. -1.
</event>
<event>
 5   0  0.1358000E-02  0.8013431E+03  0.7818609E-02  0.9558075E-01
       -4   -1    0    0    0  501  0.00000000000E+00  0.00000000000E+00  0.16205278514E+03  0.16205776153E+03  0.12699999809E+01 0.  1.
        4   -1    0    0  501    0  0.00000000000E+00  0.00000000000E+00 -0.99063000649E+03  0.99063082057E+03  0.12699999809E+01 0. -1.
    10030    2    1    2    0    0  0.00000000000E+00  0.00000000000E+00 -0.82857722135E+03  0.11526885821E+04  0.80134309479E+03 0.  0.
        2    1    3    3  502    0 -0.29888138117E+02  0.23830555502E+03 -0.87561243227E+03  0.90795372675E+03  0.25500000920E-02 0. -1.
       -2    1    3    3    0  502  0.29888138117E+02 -0.23830555502E+03  0.47035210924E+02  0.24473485535E+03  0.25500000920E-02 0.  1.
</event>
<event>
 5   0  0.3404132E-02  0.8293942E+03  0.7818609E-02  0.9518418E-01
       -2   -1    0    0    0  501  0.00000000000E+00  0.00000000000E+00  0.41704287269E+03  0.41704287270E+03  0.25500000920E-02 0. -1.
        2   -1    0    0  501    0  0.00000000000E+00  0.00000000000E+00 -0.41236453518E+03  0.41236453519E+03  0.25500000920E-02 0.  1.
    10030    2    1    2    0    0  0.00000000000E+00  0.00000000000E+00  0.46783375073E+01  0.82940740789E+03  0.82939421352E+03 0.  0.
        5    1    3    3  502    0 -0.25209706341E+03 -0.19439372664E+03  0.26806834785E+03  0.41620257021E+03  0.46999998093E+01 0. -1.
       -5    1    3    3    0  502  0.25209706341E+03  0.19439372664E+03 -0.26339001034E+03  0.41320483768E+03  0.46999998093E+01 0.  1.
</event>
<event>
 5   0  0.2077795E-02  0.7971782E+03  0.7818609E-02  0.9564111E-01
       -1   -1    0    0    0  501  0.00000000000E+00  0.00000000000E+00  0.14910039874E+03  0.14910039882E+03  0.50400001928E-02 0.  1.
        1   -1    0    0  501    0  0.00000000000E+00  0.00000000000E+00 -0.10655454507E+04  0.10655454507E+04  0.50400001928E-02 0. -1.
    10030    2    1    2    0    0  0.00000000000E+00  0.00000000000E+00 -0.91644505193E+03  0.12146458495E+04  0.79717815230E+03 0.  0.
        5    1    3    3  502    0 -0.34915953907E+03 -0.17172447171E+03 -0.32671295212E+03  0.50809951878E+03  0.46999998093E+01 0.  1.
       -5    1    3    3    0  502  0.34915953907E+03  0.17172447171E+03 -0.58973209982E+03  0.70654633072E+03  0.46999998093E+01 0. -1.
</event>
<event>
 5   0  0.1358000E-02  0.7913803E+03  0.7818609E-02  0.9572578E-01
        3   -1    0    0  501    0  0.00000000000E+00  0.00000000000E+00  0.42858809505E+03  0.42858810696E+03  0.10100000352E+00 0.  1.
       -3   -1    0    0    0  501  0.00000000000E+00  0.00000000000E+00 -0.36531740162E+03  0.36531741558E+03  0.10100000352E+00 0. -1.
    10030    2    1    2    0    0  0.00000000000E+00  0.00000000000E+00  0.63270693434E+02  0.79390552254E+03  0.79138031190E+03 0.  0.
        1    1    3    3  502    0 -0.37773605697E+03 -0.54275053856E+02 -0.73294724847E+02  0.38859030730E+03  0.50400001928E-02 0. -1.
       -1    1    3    3    0  502  0.37773605697E+03  0.54275053856E+02  0.13656541828E+03  0.40531521524E+03  0.50400001928E-02 0.  1.
</event>
<event>
 5   0  0.1989298E-02  0.7901931E+03  0.7818609E-02  0.9574322E-01
       -1   -1    0    0    0  501  0.00000000000E+00  0.00000000000E+00  0.11224602691E+03  0.11224602703E+03  0.50400001928E-02 0. -1.
        1   -1    0    0  501    0  0.00000000000E+00  0.00000000000E+00 -0.13907065270E+04  0.13907065270E+04  0.50400001928E-02 0.  1.
    10030    2    1    2    0    0  0.00000000000E+00  0.00000000000E+00 -0.12784605001E+04  0.15029525541E+04  0.79019309629E+03 0.  0.
        1    1    3    3  502    0  0.10541564274E+03  0.16206882468E+03  0.16127733139E+02  0.19400738509E+03  0.50400001928E-02 0. -1.
       -1    1    3    3    0  502 -0.10541564274E+03 -0.16206882468E+03 -0.12945882333E+04  0.13089451690E+04  0.50400001928E-02 0.  1.
</event>
<event>
 5   0  0.2129257E-02  0.8102114E+03  0.7818609E-02  0.9545353E-01
        1   -1    0    0  501    0  0.00000000000E+00  0.00000000000E+00  0.96000379613E+03  0.96000379615E+03  0.50400001928E-02 0. -1.
       -1   -1    0    0    0  501  0.00000000000E+00  0.00000000000E+00 -0.17094788327E+03  0.17094788334E+03  0.50400001928E-02 0.  1.
    10030    2    1    2    0    0  0.00000000000E+00  0.00000000000E+00  0.78905591286E+03  0.11309516795E+04  0.81021137224E+03 0.  0.
        3    1    3    3  502    0 -0.36775852476E+03 -0.16494129430E+03  0.45137688161E+03  0.60513887873E+03  0.10100000352E+00 0.  1.
       -3    1    3    3    0  502  0.36775852476E+03  0.16494129430E+03  0.33767903126E+03  0.52581280076E+03  0.10100000352E+00 0. -1.
</event>
<event>
 5   0  0.2129257E-02  0.7879971E+03  0.7818609E-02  0.9577555E-01
        1   -1    0    0  501    0  0.00000000000E+00  0.00000000000E+00  0.42772765553E+03  0.42772765556E+03  0.50400001928E-02 0.  1.
       -1   -1    0    0    0  501  0.00000000000E+00  0.00000000000E+00 -0.36292919548E+03  0.36292919552E+03  0.50400001928E-02 0. -1.
    10030    2    1    2    0    0  0.00000000000E+00  0.00000000000E+00  0.64798460048E+02  0.79065685108E+03  0.78799709120E+03 0.  0.
        3    1    3    3  502    0 -0.22518781657E+02 -0.95394047884E+02 -0.35050084804E+03  0.36394776353E+03  0.10100000352E+00 0. -1.
       -3    1    3    3    0  502  0.22518781657E+02  0.95394047884E+02  0.41529930809E+03  0.42670908755E+03  0.10100000352E+00 0.  1.
</event>
<event>
 5   0  0.3416160E-02  0.8055788E+03  0.7818609E-02  0.9551977E-01
       -2   -1    0    0    0  501  0.00000000000E+00  0.00000000000E+00  0.32201229159E+03  0.32201229160E+03  0.25500000920E-02 0. -1.
        2   -1    0    0  501    0  0.00000000000E+00  0.00000000000E+00 -0.50382946624E+03  0.50382946624E+03  0.25500000920E-02 0.  1.
    10030    2    1    2    0    0  0.00000000000E+00  0.00000000000E+00 -0.18181717465E+03  0.82584175785E+03  0.80557875097E+03 0.  0.
        1    1    3    3  502    0 -0.10901451696E+03  0.20259961955E+03  0.24802594898E+03  0.33830111164E+03  0.50400001928E-02 0. -1.
       -1    1    3    3    0  502  0.10901451696E+03 -0.20259961955E+03 -0.42984312362E+03  0.48754064620E+03  0.50400001928E-02 0.  1.
</event>
<event>
 5   0  0.2132540E-02  0.7711474E+03  0.7818609E-02  0.9602745E-01
       -1   -1    0    0    0  501  0.00000000000E+00  0.00000000000E+00  0.40303802651E+03  0.40303802654E+03  0.50400001928E-02 0.  1.
        1   -1    0    0  501    0  0.00000000000E+00  0.00000000000E+00 -0.36886609059E+03  0.36886609062E+03  0.50400001928E-02 0. -1.
    10030    2    1    2    0    0  0.00000000000E+00  0.00000000000E+00  0.34171935921E+02  0.77190411717E+03  0.77114735615E+03 0.  0.
        4    1    3    3  502    0  0.31126908459E+02 -0.30240105805E+03 -0.22031794883E+03  0.37544226695E+03  0.12699999809E+01 0. -1.
       -4    1    3    3    0  502 -0.31126908459E+02  0.30240105805E+03  0.25448988475E+03  0.39646185022E+03  0.12699999809E+01 0.  1.
</event>
<event>
 5   0  0.1989298E-02  0.7932094E+03  0.7818609E-02  0.9569899E-01
        1   -1    0    0  501    0  0.00000000000E+00  0.00000000000E+00  0.82865613623E+03  0.82865613624E+03  0.50400001928E-02 0. -1.
       -1   -1    0    0    0  501  0.00000000000E+00  0.00000000000E+00 -0.18981974082E+03  0.18981974089E+03  0.50400001928E-02 0.  1.
    10030    2    1    2    0    0  0.00000000000E+00  0.00000000000E+00  0.63883639541E+03  0.10184758771E+04  0.79320941257E+03 0.  0.
        1    1    3    3  502    0  0.17387450434E+03  0.13220908171E+03 -0.10562775459E+03  0.24262894944E+03  0.50400001928E-02 0.  1.
       -1    1    3    3    0  502 -0.17387450434E+03 -0.13220908171E+03  0.74446415000E+03  0.77584692769E+03  0.50400001928E-02 0. -1.
</event>
<event>
 5   0  0.3467240E-02  0.7961002E+03  0.7818609E-02  0.9565679E-01
       -2   -1    0    0    0  501  0.00000000000E+00  0.00000000000E+00  0.23461604621E+03  0.23461604622E+03  0.25500000920E-02 0. -1.
        2   -1    0    0  501    0  0.00000000000E+00  0.00000000000E+00 -0.67533259858E+03  0.67533259858E+03  0.25500000920E-02 0.  1.
    10030    2    1    2    0    0  0.00000000000E+00  0.00000000000E+00 -0.44071655237E+03  0.90994864480E+03  0.79610015491E+03 0.  0.
        2    1    3    3  502    0  0.18669367305E+03  0.20860782909E+03 -0.54379535892E+03  0.61162500464E+03  0.25500000920E-02 0.  1.
       -2    1    3    3    0  502 -0.18669367305E+03 -0.20860782909E+03  0.10307880654E+03  0.29832364016E+03  0.25500000920E-02 0. -1.
</event>
<event>
 5   0  0.2129257E-02  0.7806437E+03  0.7818609E-02  0.9588465E-01
       -1   -1    0    0    0  501  0.00000000000E+00  0.00000000000E+00  0.14539749557E+03  0.14539749566E+03  0.50400001928E-02 0. -1.
        1   -1    0    0  501    0  0.00000000000E+00  0.00000000000E+00 -0.10478250481E+04  0.10478250481E+04  0.50400001928E-02 0.  1.
    10030    2    1    2    0    0  0.00000000000E+00  0.00000000000E+00 -0.90242755256E+03  0.11932225438E+04  0.78064367763E+03 0.  0.
        3    1    3    3  502    0 -0.19611746540E+03  0.24614177568E+03 -0.98318678046E+02  0.32971867801E+03  0.10100000352E+00 0. -1.
       -3    1    3    3    0  502  0.19611746540E+03 -0.24614177568E+03 -0.80410887451E+03  0.86350386579E+03  0.10100000352E+00 0.  1.
</event>
<event>
 5   0  0.1358000E-02  0.8058235E+03  0.7818609E-02  0.9551626E-01
        3   -1    0    0  501    0  0.00000000000E+00  0.00000000000E+00  0.96728327302E+03  0.96728327829E+03  0.10100000352E+00 0.  1.
       -3   -1    0    0    0  501  0.00000000000E+00  0.00000000000E+00 -0.16782865021E+03  0.16782868060E+03  0.10100000352E+00 0. -1.
    10030    2    1    2    0    0  0.00000000000E+00  0.00000000000E+00  0.79945462281E+03  0.11351119589E+04  0.80582347031E+03 0.  0.
        1    1    3    3  502    0  0.11595471517E+03  0.16564031334E+03 -0.91189223816E+02  0.22180550927E+03  0.50400001928E-02 0. -1.
       -1    1    3    3    0  502 -0.11595471517E+03 -0.16564031334E+03  0.89064384663E+03  0.91330644963E+03  0.50400001928E-02 0.  1.
</event>
<event>
 5   0  0.3550586E-02  0.7861236E+03  0.7818609E-02  0.9580323E-01
        2   -1    0    0  501    0  0.00000000000E+00  0.00000000000E+00  0.36870126514E+03  0.36870126515E+03  0.25500000920E-02 0.  1.
       -2   -1    0    0    0  501  0.00000000000E+00  0.00000000000E+00 -0.41903182795E+03  0.41903182796E+03  0.25500000920E-02 0. -1.
    10030    2    1    2    0    0  0.00000000000E+00  0.00000000000E+00 -0.50330562816E+02  0.78773309311E+03  0.78612356562E+03 0.  0.
        3    1    3    3  502    0  0.28962253956E+03  0.24112271745E+03 -0.13709076970E+03  0.40101779216E+03  0.10100000352E+00 0. -1.
       -3    1    3    3    0  502 -0.28962253956E+03 -0.24112271745E+03  0.86760206883E+02  0.38671530095E+03  0.10100000352E+00 0.  1.
</event>
<event>
 5   0  0.1989298E-02  0.8404912E+03  0.7818609E-02  0.9503189E-01
        1   -1    0    0  501    0  0.00000000000E+00  0.00000000000E+00  0.10706033765E+04  0.10706033765E+04  0.50400001928E-02 0.  1.
       -1   -1    0    0    0  501  0.00000000000E+00  0.00000000000E+00 -0.16495965861E+03  0.16495965869E+03  0.50400001928E-02 0. -1.
    10030    2    1    2    0    0  0.00000000000E+00  0.00000000000E+00  0.90564371786E+03  0.12355630352E+04  0.84049120768E+03 0.  0.
        1    1    3    3  502    0 -0.23763328023E+03 -0.14760432868E+00  0.96235179816E+03  0.99125707115E+03  0.50400001928E-02 0.  1.
       -1    1    3    3    0  502  0.23763328023E+03  0.14760432868E+00 -0.56708080297E+02  0.24430596403E+03  0.50400001928E-02 0. -1.
</event>
<event>
 5   0  0.3467240E-02  0.7785645E+03  0.7818609E-02  0.9591573E-01
       -2   -1    0    0    0  501  0.00000000000E+00  0.00000000000E+00  0.44370405536E+03  0.44370405536E+03  0.25500000920E-02 0.  1.
        2   -1    0    0  501    0  0.00000000000E+00  0.00000000000E+00 -0.34153550108E+03  0.34153550109E+03  0.25500000920E-02 0. -1.
    10030    2    1    2    0    0  0.00000000000E+00  0.00000000000E+00  0.10216855427E+03  0.78523955646E+03  0.77856454295E+03 0.  0.
        2    1    3    3  502    0 -0.17601069794E+03  0.34173276974E+03 -0.10921547648E+02  0.38455211859E+03  0.25500000920E-02 0. -1.
       -2    1    3    3    0  502  0.17601069794E+03 -0.34173276974E+03  0.11309010192E+03  0.40068743787E+03  0.25500000920E-02 0.  1.
</event>
<event>
 5   0  0.2063692E-02  0.7905908E+03  0.7818609E-02  0.9573737E-01
        1   -1    0    0  501    0  0.00000000000E+00  0.00000000000E+00  0.45677647600E+03  0.45677647603E+03  0.50400001928E-02 0.  1.
       -1   -1    0    0    0  501  0.00000000000E+00  0.00000000000E+00 -0.34208954826E+03  0.34208954830E+03  0.50400001928E-02 0. -1.
    10030    2    1    2    0    0  0.00000000000E+00  0.00000000000E+00  0.11468692774E+03  0.79886602433E+03  0.79059081289E+03 0.  0.
        2    1    3    3  502    0 -0.12193154409E+03 -0.37333577549E+03  0.10266328772E+03  0.40593922372E+03  0.25500000920E-02 0.  1.
       -2    1    3    3    0  502  0.12193154409E+03  0.37333577549E+03  0.12023640019E+02  0.39292680060E+03  0.25500000920E-02 0. -1.
</event>
<event>
 5   0  0.3550586E-02  0.8226089E+03  0.7818609E-02  0.9527856E-01
       -2   -1    0    0    0  501  0.00000000000E+00  0.00000000000E+00  0.54600149965E+03  0.54600149965E+03  0.25500000920E-02 0.  1.
        2   -1    0    0  501    0  0.00000000000E+00  0.00000000000E+00 -0.30983676395E+03  0.30983676396E+03  0.25500000920E-02 0. -1.
    10030    2    1    2    0    0  0.00000000000E+00  0.00000000000E+00  0.23616473569E+03  0.85583826362E+03  0.82260886883E+03 0.  0.
        3    1    3    3  502    0 -0.22397341056E+03 -0.34471956652E+03  0.13187140681E+03  0.43172415535E+03  0.10100000352E+00 0.  1.
       -3    1    3    3    0  502  0.22397341056E+03  0.34471956652E+03  0.10429332889E+03  0.42411410827E+03  0.10100000352E+00 0. -1.
</event>
<event>
 5   0  0.3404132E-02  0.7989625E+03  0.7818609E-02  0.9561520E-01
        2   -1    0    0  501    0  0.00000000000E+00  0.00000000000E+00  0.10494758120E+04  0.10494758120E+04  0.25500000920E-02 0.  1.
       -2   -1    0    0    0  501  0.00000000000E+00  0.00000000000E+00 -0.15206187571E+03  0.15206187573E+03  0.25500000920E-02 0. -1.
    10030    2    1    2    0    0  0.00000000000E+00  0.00000000000E+00  0.89741393629E+03  0.12015376877E+04  0.79896247847E+03 0.  0.
        5    1    3    3  502    0 -0.33351970857E+03  0.39865273493E+02  0.77383061576E+03  0.84359975576E+03  0.46999998093E+01 0.  1.
       -5    1    3    3    0  502  0.33351970857E+03 -0.39865273493E+02  0.12358332052E+03  0.35793793197E+03  0.46999998093E+01 0. -1.
</event>
<event>
 5   0  0.2063692E-02  0.8185212E+03  0.7818609E-02  0.9533589E-01
        1   -1    0    0  501    0  0.00000000000E+00  0.00000000000E+00  0.19098687320E+04  0.19098687320E+04  0.50400001928E-02 0. -1.
       -1   -1    0    0    0  501  0.00000000000E+00  0.00000000000E+00 -0.87699352390E+02  0.87699352534E+02  0.50400001928E-02 0.  1.
    10030    2    1    2    0    0  0.00000000000E+00  0.00000000000E+00  0.18221693796E+04  0.19975680845E+04  0.81852123026E+03 0.  0.
        2    1    3    3  502    0  0.31621117574E+03 -0.15022002232E+03  0.39373780507E+03  0.52686338069E+03  0.25500000920E-02 0.  1.
       -2    1    3    3    0  502 -0.31621117574E+03  0.15022002232E+03  0.14284315745E+04  0.14707047038E+04  0.25500000920E-02 0. -1.
</event>
<event>
 5   0  0.3550586E-02  0.7547915E+03  0.7818609E-02  0.9627863E-01
       -2   -1    0    0    0  501  0.00000000000E+00  0.00000000000E+00  0.81932505010E+02  0.81932505050E+02  0.25500000920E-02 0. -1.
        2   -1    0    0  501    0  0.00000000000E+00  0.00000000000E+00 -0.17383523450E+04  0.17383523450E+04  0.25500000920E-02 0.  1.
    10030    2    1    2    0    0  0.00000000000E+00  0.00000000000E+00 -0.16564198400E+04  0.18202848501E+04  0.75479152686E+03 0.  0.
        3    1    3    3  502    0 -0.25482670501E+02  0.13604591096E+03  0.18511409750E+02  0.13964432991E+03  0.10100000352E+00 0. -1.
       -3    1    3    3    0  502  0.25482670501E+02 -0.13604591096E+03 -0.16749312498E+04  0.16806405202E+04  0.10100000352E+00 0.  1.
</event>
<event>
 5   0  0.3416160E-02  0.8229750E+03  0.7818609E-02  0.9527345E-01
       -2   -1    0    0    0  501  0.00000000000E+00  0.00000000000E+00  0.24652170522E+03  0.24652170523E+03  0.25500000920E-02 0. -1.
        2   -1    0    0  501    0  0.00000000000E+00  0.00000000000E+00 -0.68684395821E+03  0.68684395821E+03  0.25500000920E-02 0.  1.
    10030    2    1    2    0    0  0.00000000000E+00  0.00000000000E+00 -0.44032225299E+03  0.93336566345E+03  0.82297495419E+03 0.  0.
        1    1    3    3  502    0 -0.77204171524E+02  0.20445329041E+03 -0.61558337761E+03  0.65322624478E+03  0.50400001928E-02 0.  1.
       -1    1    3    3    0  502  0.77204171524E+02 -0.20445329041E+03  0.17526112462E+03  0.28013941866E+03  0.50400001928E-02 0. -1.
</event>
<event>
 5   0  0.2129257E-02  0.7569398E+03  0.7818609E-02  0.9624525E-01
        1   -1    0    0  501    0  0.00000000000E+00  0.00000000000E+00  0.22381973788E+03  0.22381973794E+03  0.50400001928E-02 0.  1.
       -1   -1    0    0    0  501  0.00000000000E+00  0.00000000000E+00 -0.63997696682E+03  0.63997696684E+03  0.50400001928E-02 0. -1.
    10030    2    1    2    0    0  0.00000000000E+00  0.00000000000E+00 -0.41615722894E+03  0.86379670478E+03  0.75693983115E+03 0.  0.
        3    1    3    3  502    0 -0.10009561219E+03  0.27473387351E+03 -0.48229583130E+03  0.56400985091E+03  0.10100000352E+00 0. -1.
       -3    1    3    3    0  502  0.10009561219E+03 -0.27473387351E+03  0.66138602355E+02  0.29978685387E+03  0.10100000352E+00 0.  1.
</event>
<event>
 5   0  0.3550586E-02  0.8155135E+03  0.7818609E-02  0.9537830E-01
       -2   -1    0    0    0  501  0.00000000000E+00  0.00000000000E+00  0.94811938718E+02  0.94811938753E+02  0.25500000920E-02 0. -1.
        2   -1    0    0  501    0  0.00000000000E+00  0.00000000000E+00 -0.17536351607E+04  0.17536351607E+04  0.25500000920E-02 0.  1.
    10030    2    1    2    0    0  0.00000000000E+00  0.00000000000E+00 -0.16588232220E+04  0.18484470995E+04  0.81551345649E+03 0.  0.
        3    1    3    3  502    0 -0.42127391588E+02 -0.46068067456E+02 -0.17427397911E+04  0.17438574981E+04  0.10100000352E+00 0.  1.
       -3    1    3    3    0  502  0.42127391588E+02  0.46068067456E+02  0.83916569062E+02  0.10458960142E+03  0.10100000352E+00 0. -1.
</event>
<event>
 5   0  0.2132540E-02  0.8051911E+03  0.7818609E-02  0.9552533E-01
        1   -1    0    0  501    0  0.00000000000E+00  0.00000000000E+00  0.11304384194E+04  0.11304384194E+04  0.50400001928E-02 0. -1.
       -1   -1    0    0    0  501  0.00000000000E+00  0.00000000000E+00 -0.14338080284E+03  0.14338080293E+03  0.50400001928E-02 0.  1.
    10030    2    1    2    0    0  0.00000000000E+00  0.00000000000E+00  0.98705761653E+03  0.12738192223E+04  0.80519107844E+03 0.  0.
        4    1    3    3  502    0  0.24735663263E+03 -0.16151346909E+02 -0.83330628435E+01  0.24802665693E+03  0.12699999809E+01 0.  1.
       -4    1    3    3    0  502 -0.24735663263E+03  0.16151346909E+02  0.99539067938E+03  0.10257925654E+04  0.12699999809E+01 0. -1.
</event>
<event>
 5   0  0.1989298E-02  0.8194187E+03  0.7818609E-02  0.9532327E-01
        1   -1    0    0  501    0  0.00000000000E+00  0.00000000000E+00  0.25349142185E+03  0.25349142190E+03  0.50400001928E-02 0.  1.
       -1   -1    0    0    0  501  0.00000000000E+00  0.00000000000E+00 -0.66219888491E+03  0.66219888493E+03  0.50400001928E-02 0. -1.
    10030    2    1    2    0    0  0.00000000000E+00  0.00000000000E+00 -0.40870746306E+03  0.91569030682E+03  0.81941866445E+03 0.  0.
        1    1    3    3  502    0  0.21581740666E+03 -0.20099742975E+03 -0.52216971292E+03  0.59969853169E+03  0.50400001928E-02 0. -1.
       -1    1    3    3    0  502 -0.21581740666E+03  0.20099742975E+03  0.11346224986E+03  0.31599177514E+03  0.50400001928E-02 0.  1.
</event>
<event>
 5   0  0.2129257E-02  0.7948590E+03  0.7818609E-02  0.9567488E-01
        1   -1    0    0  501    0  0.00000000000E+00  0.00000000000E+00  0.96346476447E+03  0.96346476448E+03  0.50400001928E-02 0. -1.
       -1   -1    0    0    0  501  0.00000000000E+00  0.00000000000E+00 -0.16393979300E+03  0.16393979308E+03  0.50400001928E-02 0.  1.
    10030    2    1    2    0    0  0.00000000000E+00  0.00000000000E+00  0.79952497147E+03  0.11274045576E+04  0.79485901669E+03 0.  0.
        3    1    3    3  502    0  0.27506793625E+02 -0.37807188056E+03  0.23041574356E+03  0.44360612670E+03  0.10100000352E+00 0.  1.
       -3    1    3    3    0  502 -0.27506793625E+02  0.37807188056E+03  0.56910922791E+03  0.68379843087E+03  0.10100000352E+00 0. -1.
</event>
<event>
 5   0  0.3343036E-02  0.8164360E+03  0.7818609E-02  0.9536527E-01
        2   -1    0    0  501    0  0.00000000000E+00  0.00000000000E+00  0.13029575850E+04  0.13029575850E+04  0.25500000920E-02 0.  1.
       -2   -1    0    0    0  501  0.00000000000E+00  0.00000000000E+00 -0.12789512891E+03  0.12789512893E+03  0.25500000920E-02 0. -1.
    10030    2    1    2    0    0  0.00000000000E+00  0.00000000000E+00  0.11750624560E+04  0.14308527139E+04  0.81643598233E+03 0.  0.
        4    1    3    3  502    0  0.35722141063E+03 -0.13668115843E+03  0.33751375116E+03  0.51010393098E+03  0.12699999809E+01 0.  1.
       -4    1    3    3    0  502 -0.35722141063E+03  0.13668115843E+03  0.83754870489E+03  0.92074878291E+03  0.12699999809E+01 0. -1.
</event>
<event>
 5   0  0.3343036E-02  0.7891835E+03  0.7818609E-02  0.9575807E-01
        2   -1    0    0  501    0  0.00000000000E+00  0.00000000000E+00  0.28874733462E+03  0.28874733463E+03  0.25500000920E-02 0. -1.
       -2   -1    0    0    0  501  0.00000000000E+00  0.00000000000E+00 -0.53923496683E+03  0.53923496683E+03  0.25500000920E-02 0.  1.
    10030    2    1    2    0    0  0.00000000000E+00  0.00000000000E+00 -0.25048763220E+03  0.82798230147E+03  0.78918352596E+03 0.  0.
        4    1    3    3  502    0  0.16046935438E+03 -0.24391853108E+02  0.25209873231E+03  0.29983455425E+03  0.12699999809E+01 0. -1.
       -4    1    3    3    0  502 -0.16046935438E+03  0.24391853108E+02 -0.50258636451E+03  0.52814774721E+03  0.12699999809E+01 0.  1.
</event>
<event>
 5   0  0.1358000E-02  0.7998118E+03  0.7818609E-02  0.9560290E-01
       -4   -1    0    0    0  501  0.00000000000E+00  0.00000000000E+00  0.52952419394E+03  0.52952571691E+03  0.12699999809E+01 0. -1.
        4   -1    0    0  501    0  0.00000000000E+00  0.00000000000E+00 -0.30201263913E+03  0.30201530937E+03  0.12699999809E+01 0.  1.
    10030    2    1    2    0    0  0.00000000000E+00  0.00000000000E+00  0.22751155480E+03  0.83154102628E+03  0.79981183463E+03 0.  0.
        4    1    3    3  502    0 -0.16578442162E+03  0.10968948860E+03 -0.24700680851E+03  0.31706503230E+03  0.12699999809E+01 0.  1.
       -4    1    3    3    0  502  0.16578442162E+03 -0.10968948860E+03  0.47451836331E+03  0.51447599398E+03  0.12699999809E+01 0. -1.
</event>
<event>
 5   0  0.2129257E-02  0.7988687E+03  0.7818609E-02  0.9561656E-01
        1   -1    0    0  501    0  0.00000000000E+00  0.00000000000E+00  0.93983823516E+03  0.93983823517E+03  0.50400001928E-02 0.  1.
       -1   -1    0    0    0  501  0.00000000000E+00  0.00000000000E+00 -0.16976092401E+03  0.16976092408E+03  0.50400001928E-02 0. -1.
    10030    2    1    2    0    0  0.00000000000E+00  0.00000000000E+00  0.77007731115E+03  0.11095991593E+04  0.79886871830E+03 0.  0.
        3    1    3    3  502    0 -0.21475439732E+03  0.10320279983E+03  0.83032542088E+03  0.86383481280E+03  0.10100000352E+00 0.  1.
       -3    1    3    3    0  502  0.21475439732E+03 -0.10320279983E+03 -0.60248109727E+02  0.24576434645E+03  0.10100000352E+00 0. -1.
</event>
<event>
 5   0  0.2077795E-02  0.7914001E+03  0.7818609E-02  0.9572549E-01
       -1   -1    0    0    0  501  0.00000000000E+00  0.00000000000E+00  0.99648306088E+02  0.99648306215E+02  0.50400001928E-02 0. -1.
        1   -1    0    0  501    0  0.00000000000E+00  0.00000000000E+00 -0.15713115941E+04  0.15713115941E+04  0.50400001928E-02 0.  1.
    10030    2    1    2    0    0  0.00000000000E+00  0.00000000000E+00 -0.14716632880E+04  0.16709599003E+04  0.79140012332E+03 0.  0.
        5    1    3    3  502    0 -0.84917655287E+02 -0.30312766448E+03 -0.22971668779E+03  0.38972969581E+03  0.46999998093E+01 0. -1.
       -5    1    3    3    0  502  0.84917655287E+02  0.30312766448E+03 -0.12419466002E+04  0.12812302045E+04  0.46999998093E+01 0.  1.
</event>
<event>
 5   0  0.3467240E-02  0.7983126E+03  0.7818609E-02  0.9562463E-01
       -2   -1    0    0    0  501  0.00000000000E+00  0.00000000000E+00  0.14891032669E+03  0.14891032671E+03  0.25500000920E-02 0. -1.
        2   -1    0    0  501    0  0.00000000000E+00  0.00000000000E+00 -0.10699442300E+04  0.10699442300E+04  0.25500000920E-02 0.  1.
    10030    2    1    2    0    0  0.00000000000E+00  0.00000000000E+00 -0.92103390332E+03  0.12188545567E+04  0.79831258249E+03 0.  0.
        2    1    3    3  502    0  0.31790754314E+03 -0.24041557909E+03 -0.49329451741E+03  0.63419581957E+03  0.25500000920E-02 0.  1.
       -2    1    3    3    0  502 -0.31790754314E+03  0.24041557909E+03 -0.42773938591E+03  0.58465873714E+03  0.25500000920E-02 0. -1.
</event>
<event>
 5   0  0.3550586E-02  0.7896313E+03  0.7818609E-02  0.9575148E-01
        2   -1    0    0  501    0  0.00000000000E+00  0.00000000000E+00  0.78245999762E+03  0.78245999762E+03  0.25500000920E-02 0. -1.
       -2   -1    0    0    0  501  0.00000000000E+00  0.00000000000E+00 -0.19921708548E+03  0.19921708550E+03  0.25500000920E-02 0.  1.
    10030    2    1    2    0    0  0.00000000000E+00  0.00000000000E+00  0.58324291214E+03  0.98167708312E+03  0.78963130698E+03 0.  0.
        3    1    3    3  502    0 -0.70992968085E+01 -0.39203893637E+03  0.23418487933E+03  0.45671380049E+03  0.10100000352E+00 0. -1.
       -3    1    3    3    0  502  0.70992968085E+01  0.39203893637E+03  0.34905803280E+03  0.52496328263E+03  0.10100000352E+00 0.  1.
</event>
<event>
 5   0  0.3416160E-02  0.7381698E+03  0.7818609E-02  0.9654095E-01
        2   -1    0    0  501    0  0.00000000000E+00  0.00000000000E+00  0.25242234040E+04  0.25242234040E+04  0.25500000920E-02 0.  1.
       -2   -1    0    0    0  501  0.00000000000E+00  0.00000000000E+00 -0.53966560769E+02  0.53966560829E+02  0.25500000920E-02 0. -1.
    10030    2    1    2    0    0  0.00000000000E+00  0.00000000000E+00  0.24702568432E+04  0.25781899648E+04  0.73816977940E+03 0.  0.
        1    1    3    3  502    0  0.24411113277E+03  0.18630867762E+03  0.19502537714E+04  0.19742823865E+04  0.50400001928E-02 0.  1.
       -1    1    3    3    0  502 -0.24411113277E+03 -0.18630867762E+03  0.52000307179E+03  0.60390757835E+03  0.50400001928E-02 0. -1.
</event>
<event>
 5   0  0.3467240E-02  0.9064643E+03  0.7818609E-02  0.9417537E-01
        2   -1    0    0  501    0  0.00000000000E+00  0.00000000000E+00  0.67601973870E+03  0.67601973871E+03  0.25500000920E-02 0. -1.
       -2   -1    0    0    0  501  0.00000000000E+00  0.00000000000E+00 -0.30386597393E+03  0.30386597394E+03  0.25500000920E-02 0.  1.
    10030    2    1    2    0    0  0.00000000000E+00  0.00000000000E+00  0.37215376477E+03  0.97988571265E+03  0.90646433202E+03 0.  0.
        2    1    3    3  502    0 -0.89762868690E+01 -0.37079408804E+03  0.46765664963E+03  0.59688488958E+03  0.25500000920E-02 0. -1.
       -2    1    3    3    0  502  0.89762868690E+01  0.37079408804E+03 -0.95502884861E+02  0.38300082308E+03  0.25500000920E-02 0.  1.
</event>
<event>
 5   0  0.3550586E-02  0.7978049E+03  0.7818609E-02  0.9563200E-01
       -2   -1    0    0    0  501  0.00000000000E+00  0.00000000000E+00  0.36908995982E+03  0.36908995983E+03  0.25500000920E-02 0. -1.
        2   -1    0    0  501    0  0.00000000000E+00  0.00000000000E+00 -0.43112301830E+03  0.43112301830E+03  0.25500000920E-02 0.  1.
    10030    2    1    2    0    0  0.00000000000E+00  0.00000000000E+00 -0.62033058479E+02  0.80021297813E+03  0.79780493231E+03 0.  0.
        3    1    3    3  502    0  0.16605776647E+03 -0.10154753693E+03  0.31822414847E+03  0.37303311238E+03  0.10100000352E+00 0. -1.
       -3    1    3    3    0  502 -0.16605776647E+03  0.10154753693E+03 -0.38025720695E+03  0.42717986575E+03  0.10100000352E+00 0.  1.
</event>
<event>
 5   0  0.2129257E-02  0.7359578E+03  0.7818609E-02  0.9657642E-01
        1   -1    0    0  501    0  0.00000000000E+00  0.00000000000E+00  0.28223386198E+03  0.28223386203E+03  0.50400001928E-02 0.  1.
       -1   -1    0    0    0  501  0.00000000000E+00  0.00000000000E+00 -0.47977404439E+03  0.47977404442E+03  0.50400001928E-02 0. -1.
    10030    2    1    2    0    0  0.00000000000E+00  0.00000000000E+00 -0.19754018241E+03  0.76200790645E+03  0.73595782883E+03 0.  0.
        3    1    3    3  502    0  0.32793263757E+03  0.15733900681E+03 -0.41000057129E+02  0.36602785787E+03  0.10100000352E+00 0.  1.
       -3    1    3    3    0  502 -0.32793263757E+03 -0.15733900681E+03 -0.15654012528E+03  0.39598004858E+03  0.10100000352E+00 0. -1.
</event>
<event>
 5   0  0.3404132E-02  0.8039291E+03  0.7818609E-02  0.9554347E-01
       -2   -1    0    0    0  501  0.00000000000E+00  0.00000000000E+00  0.10954062535E+03  0.10954062538E+03  0.25500000920E-02 0.  1.
        2   -1    0    0  501    0  0.00000000000E+00  0.00000000000E+00 -0.14750281435E+04  0.14750281435E+04  0.25500000920E-02 0. -1.
    10030    2    1    2    0    0  0.00000000000E+00  0.00000000000E+00 -0.13654875182E+04  0.15845687689E+04  0.80392911449E+03 0.  0.
        5    1    3    3  502    0  0.16037970145E+03  0.36679089792E+03 -0.61178108248E+03  0.73113295256E+03  0.46999998093E+01 0. -1.
       -5    1    3    3    0  502 -0.16037970145E+03 -0.36679089792E+03 -0.75370643571E+03  0.85343581637E+03  0.46999998093E+01 0.  1.
</event>
<event>
 5   0  0.2077795E-02  0.9152651E+03  0.7818609E-02  0.9406698E-01
       -1   -1    0    0    0  501  0.00000000000E+00  0.00000000000E+00  0.10341787281E+03  0.10341787293E+03  0.50400001928E-02 0. -1.
        1   -1    0    0  501    0  0.00000000000E+00  0.00000000000E+00 -0.20250614859E+04  0.20250614859E+04  0.50400001928E-02 0.  1.
    10030    2    1    2    0    0  0.00000000000E+00  0.00000000000E+00 -0.19216436131E+04  0.21284793589E+04  0.91526510108E+03 0.  0.
        5    1    3    3  502    0 -0.26998952959E+03 -0.97083133170E+02 -0.17898539354E+04  0.18127103135E+04  0.46999998093E+01 0.  1.
       -5    1    3    3    0  502  0.26998952959E+03  0.97083133170E+02 -0.13178967776E+03  0.31576904534E+03  0.46999998093E+01 0. -1.
</event>
<event>
 5   0  0.2129257E-02  0.5534692E+03  0.7818609E-02  0.1000694E+00
        1   -1    0    0  501    0  0.00000000000E+00  0.00000000000E+00  0.43349092690E+03  0.43349092693E+03  0.50400001928E-02 0.  1.
       -1   -1    0    0    0  501  0.00000000000E+00  0.00000000000E+00 -0.17666355581E+03  0.17666355589E+03  0.50400001928E-02 0. -1.
    10030    2    1    2    0    0  0.00000000000E+00  0.00000000000E+00  0.25682737109E+03  0.61015448282E+03  0.55346923525E+03 0.  0.
        3    1    3    3  502    0 -0.34376069420E+02  0.10895468766E+03 -0.14945078263E+03  0.18811800749E+03  0.10100000352E+00 0. -1.
       -3    1    3    3    0  502  0.34376069420E+02 -0.10895468766E+03  0.40627815372E+03  0.42203647533E+03  0.10100000352E+00 0.  1.
</event>
<event>
 5   0  0.3550586E-02  0.8475601E+03  0.7818609E-02  0.9493618E-01
        2   -1    0    0  501    0  0.00000000000E+00  0.00000000000E+00  0.17208558925E+04  0.17208558925E+04  0.25500000920E-02 0.  1.
       -2   -1    0    0    0  501  0.00000000000E+00  0.00000000000E+00 -0.10436058882E+03  0.10436058885E+03  0.25500000920E-02 0. -1.
    10030    2    1    2    0    0  0.00000000000E+00  0.00000000000E+00  0.16164953036E+04  0.18252164813E+04  0.84756010816E+03 0.  0.
        3    1    3    3  502    0  0.20160411353E+03  0.84379836795E+02  0.26361829671E+02  0.22013434924E+03  0.10100000352E+00 0. -1.
       -3    1    3    3    0  502 -0.20160411353E+03 -0.84379836795E+02  0.15901334740E+04  0.16050821321E+04  0.10100000352E+00 0.  1.
</event>
<event>
 5   0  0.1989298E-02  0.7975280E+03  0.7818609E-02  0.9563602E-01
        1   -1    0    0  501    0  0.00000000000E+00  0.00000000000E+00  0.68771280112E+03  0.68771280114E+03  0.50400001928E-02 0.  1.
       -1   -1    0    0    0  501  0.00000000000E+00  0.00000000000E+00 -0.23121966282E+03  0.23121966287E+03  0.50400001928E-02 0. -1.
    10030    2    1    2    0    0  0.00000000000E+00  0.00000000000E+00  0.45649313831E+03  0.91893246401E+03  0.79752798578E+03 0.  0.
        1    1    3    3  502    0 -0.39588515146E+03  0.39896283420E+02  0.19784973365E+03  0.44436615950E+03  0.50400001928E-02 0. -1.
       -1    1    3    3    0  502  0.39588515146E+03 -0.39896283420E+02  0.25864340466E+03  0.47456630451E+03  0.50400001928E-02 0.  1.
</event>
<event>
 5   0  0.2129257E-02  0.8148597E+03  0.7818609E-02  0.9538754E-01
       -1   -1    0    0    0  501  0.00000000000E+00  0.00000000000E+00  0.74739330493E+03  0.74739330494E+03  0.50400001928E-02 0. -1.
        1   -1    0    0  501    0  0.00000000000E+00  0.00000000000E+00 -0.22210407273E+03  0.22210407278E+03  0.50400001928E-02 0.  1.
    10030    2    1    2    0    0  0.00000000000E+00  0.00000000000E+00  0.52528923220E+03  0.96949737773E+03  0.81485973514E+03 0.  0.
        3    1    3    3  502    0 -0.35580939827E+03  0.14932386595E+02  0.27154533798E+02  0.35715638448E+03  0.10100000352E+00 0.  1.
       -3    1    3    3    0  502  0.35580939827E+03 -0.14932386595E+02  0.49813469840E+03  0.61234099325E+03  0.10100000352E+00 0. -1.
</event>
<event>
 5   0  0.2063692E-02  0.8022962E+03  0.7818609E-02  0.9556699E-01
        1   -1    0    0  501    0  0.00000000000E+00  0.00000000000E+00  0.79677045485E+03  0.79677045486E+03  0.50400001928E-02 0.  1.
       -1   -1    0    0    0  501  0.00000000000E+00  0.00000000000E+00 -0.20196507237E+03  0.20196507243E+03  0.50400001928E-02 0. -1.
    10030    2    1    2    0    0  0.00000000000E+00  0.00000000000E+00  0.59480538248E+03  0.99873552729E+03  0.80229621117E+03 0.  0.
        2    1    3    3  502    0  0.24427448342E+03 -0.93875926262E+02 -0.81073783464E+02  0.27396290105E+03  0.25500000920E-02 0. -1.
       -2    1    3    3    0  502 -0.24427448342E+03  0.93875926262E+02  0.67587916594E+03  0.72477262624E+03  0.25500000920E-02 0.  1.
</event>
<event>
 5   0  0.2077795E-02  0.7863534E+03  0.7818609E-02  0.9579983E-01
        1   -1    0    0  501    0  0.00000000000E+00  0.00000000000E+00  0.12723889771E+04  0.12723889771E+04  0.50400001928E-02 0. -1.
       -1   -1    0    0    0  501  0.00000000000E+00  0.00000000000E+00 -0.12149423151E+03  0.12149423161E+03  0.50400001928E-02 0.  1.
    10030    2    1    2    0    0  0.00000000000E+00  0.00000000000E+00  0.11508947456E+04  0.13938832087E+04  0.78635340918E+03 0.  0.
        5    1    3    3  502    0 -0.86278473958E+02 -0.94029635273E+01  0.12551464368E+04  0.12581522398E+04  0.46999998093E+01 0. -1.
       -5    1    3    3    0  502  0.86278473958E+02  0.94029635273E+01 -0.10425169122E+03  0.13573096888E+03  0.46999998093E+01 0.  1.
</event>
<event>
 5   0  0.3343036E-02  0.7922905E+03  0.7818609E-02  0.9571244E-01
       -2   -1    0    0    0  501  0.00000000000E+00  0.00000000000E+00  0.15486529876E+03  0.15486529878E+03  0.25500000920E-02 0. -1.
        2   -1    0    0  501    0  0.00000000000E+00  0.00000000000E+00 -0.10133389786E+04  0.10133389787E+04  0.25500000920E-02 0.  1.
    10030    2    1    2    0    0  0.00000000000E+00  0.00000000000E+00 -0.85847367989E+03  0.11682042774E+04  0.79229046110E+03 0.  0.
        4    1    3    3  502    0 -0.28004860811E+03  0.21372717280E+03 -0.69636696213E+03  0.78040700032E+03  0.12699999809E+01 0.  1.
       -4    1    3    3    0  502  0.28004860811E+03 -0.21372717280E+03 -0.16210671776E+03  0.38779727711E+03  0.12699999809E+01 0. -1.
</event>
<event>
 5   0  0.3416160E-02  0.8068577E+03  0.7818609E-02  0.9550144E-01
        2   -1    0    0  501    0  0.00000000000E+00  0.00000000000E+00  0.15589336049E+04  0.15589336049E+04  0.25500000920E-02 0.  1.
       -2   -1    0    0    0  501  0.00000000000E+00  0.00000000000E+00 -0.10440138918E+03  0.10440138921E+03  0.25500000920E-02 0. -1.
    10030    2    1    2    0    0  0.00000000000E+00  0.00000000000E+00  0.14545322157E+04  0.16633349941E+04  0.80685769258E+03 0.  0.
        1    1    3    3  502    0 -0.80624813032E+02  0.32255276887E+03  0.11983269798E+04  0.12435948696E+04  0.50400001928E-02 0.  1.
       -1    1    3    3    0  502  0.80624813032E+02 -0.32255276887E+03  0.25620523593E+03  0.41974012452E+03  0.50400001928E-02 0. -1.
</event>
<event>
 5   0  0.2132540E-02  0.7813484E+03  0.7818609E-02  0.9587414E-01
       -1   -1    0    0    0  501  0.00000000000E+00  0.00000000000E+00  0.90683898474E+03  0.90683898475E+03  0.50400001928E-02 0. -1.
        1   -1    0    0  501    0  0.00000000000E+00  0.00000000000E+00 -0.16830589704E+03  0.16830589712E+03  0.50400001928E-02 0.  1.
    10030    2    1    2    0    0  0.00000000000E+00  0.00000000000E+00  0.73853308770E+03  0.10751448819E+04  0.78134844684E+03 0.  0.
        4    1    3    3  502    0  0.82275535589E+02  0.18107642511E+03 -0.93423111729E+02  0.21974400149E+03  0.12699999809E+01 0.  1.
       -4    1    3    3    0  502 -0.82275535589E+02 -0.18107642511E+03  0.83195619943E+03  0.85540088038E+03  0.12699999809E+01 0. -1.
</event>
<event>
 5   0  0.3467240E-02  0.1037342E+04  0.7818609E-02  0.9268511E-01
       -2   -1    0    0    0  501  0.00000000000E+00  0.00000000000E+00  0.33788777721E+03  0.33788777722E+03  0.25500000920E-02 0. -1.
        2   -1    0    0  501    0  0.00000000000E+00  0.00000000000E+00 -0.79618038903E+03  0.79618038903E+03  0.25500000920E-02 0.  1.
    10030    2    1    2    0    0  0.00000000000E+00  0.00000000000E+00 -0.45829261182E+03  0.11340681663E+04  0.10373420302E+04 0.  0.
        2    1    3    3  502    0  0.28635911512E+03 -0.63976191373E+01  0.24358183112E+03  0.37599811276E+03  0.25500000920E-02 0. -1.
       -2    1    3    3    0  502 -0.28635911512E+03  0.63976191373E+01 -0.70187444294E+03  0.75807005349E+03  0.25500000920E-02 0.  1.
</event>
<event>
 5   0  0.2077795E-02  0.7831725E+03  0.7818609E-02  0.9584699E-01
        1   -1    0    0  501    0  0.00000000000E+00  0.00000000000E+00  0.34535852493E+03  0.34535852496E+03  0.50400001928E-02 0.  1.
       -1   -1    0    0    0  501  0.00000000000E+00  0.00000000000E+00 -0.44400173695E+03  0.44400173697E+03  0.50400001928E-02 0. -1.
    10030    2    1    2    0    0  0.00000000000E+00  0.00000000000E+00 -0.98643212018E+02  0.78936026194E+03  0.78317248410E+03 0.  0.
        5    1    3    3  502    0 -0.15314912129E+03 -0.19707413654E+03  0.25476533387E+03  0.35667959569E+03  0.46999998093E+01 0.  1.
       -5    1    3    3    0  502  0.15314912129E+03  0.19707413654E+03 -0.35340854588E+03  0.43268066625E+03  0.46999998093E+01 0. -1.
</event>
<event>
 5   0  0.3467240E-02  0.7981471E+03  0.7818609E-02  0.9562703E-01
       -2   -1    0    0    0  501  0.00000000000E+00  0.00000000000E+00  0.23021446246E+03  0.23021446247E+03  0.25500000920E-02 0.  1.
        2   -1    0    0  501    0  0.00000000000E+00  0.00000000000E+00 -0.69178837182E+03  0.69178837183E+03  0.25500000920E-02 0. -1.
    10030    2    1    2    0    0  0.00000000000E+00  0.00000000000E+00 -0.46157390937E+03  0.92200283430E+03  0.79814707457E+03 0.  0.
        2    1    3    3  502    0 -0.28429137738E+03 -0.27456781768E+03 -0.16698367728E+03  0.42906016156E+03  0.25500000920E-02 0. -1.
       -2    1    3    3    0  502  0.28429137738E+03  0.27456781768E+03 -0.29459023209E+03  0.49294267273E+03  0.25500000920E-02 0.  1.
</event>
<event>
 5   0  0.2063692E-02  0.7987730E+03  0.7818609E-02  0.9561795E-01
       -1   -1    0    0    0  501  0.00000000000E+00  0.00000000000E+00  0.35948704855E+03  0.35948704858E+03  0.50400001928E-02 0. -1.
        1   -1    0    0  501    0  0.00000000000E+00  0.00000000000E+00 -0.44371436014E+03  0.44371436017E+03  0.50400001928E-02 0.  1.
    10030    2    1    2    0    0  0.00000000000E+00  0.00000000000E+00 -0.84227311593E+02  0.80320140875E+03  0.79877297338E+03 0.  0.
        2    1    3    3  502    0  0.17713685367E+03  0.33158706684E+03 -0.17770230512E+03  0.41581913986E+03  0.25500000920E-02 0.  1.
       -2    1    3    3    0  502 -0.17713685367E+03 -0.33158706684E+03  0.93474993525E+02  0.38738226888E+03  0.25500000920E-02 0. -1.
</event>
<event>
 5   0  0.2063692E-02  0.7787860E+03  0.7818609E-02  0.9591241E-01
        1   -1    0    0  501    0  0.00000000000E+00  0.00000000000E+00  0.59313230318E+03  0.59313230321E+03  0.50400001928E-02 0. -1.
       -1   -1    0    0    0  501  0.00000000000E+00  0.00000000000E+00 -0.25563758906E+03  0.25563758911E+03  0.50400001928E-02 0.  1.
    10030    2    1    2    0    0  0.00000000000E+00  0.00000000000E+00  0.33749471413E+03  0.84876989231E+03  0.77878600914E+03 0.  0.
        2    1    3    3  502    0 -0.70011374565E+02  0.15621912685E+03  0.54992038818E+03  0.57595003386E+03  0.25500000920E-02 0. -1.
       -2    1    3    3    0  502  0.70011374565E+02 -0.15621912685E+03 -0.21242567405E+03  0.27281985845E+03  0.25500000920E-02 0.  1.
</event>
<event>
 5   0  0.2063692E-02  0.8078378E+03  0.7818609E-02  0.9548741E-01
       -1   -1    0    0    0  501  0.00000000000E+00  0.00000000000E+00  0.22915852892E+03  0.22915852898E+03  0.50400001928E-02 0.  1.
        1   -1    0    0  501    0  0.00000000000E+00  0.00000000000E+00 -0.71195462090E+03  0.71195462091E+03  0.50400001928E-02 0. -1.
    10030    2    1    2    0    0  0.00000000000E+00  0.00000000000E+00 -0.48279609197E+03  0.94111314989E+03  0.80783778971E+03 0.  0.
        2    1    3    3  502    0  0.28477273097E+03 -0.39994831901E+01 -0.57507620039E+03  0.64173525728E+03  0.25500000920E-02 0. -1.
       -2    1    3    3    0  502 -0.28477273097E+03  0.39994831901E+01  0.92280108414E+02  0.29937789262E+03  0.25500000920E-02 0.  1.
</event>
<event>
 5   0  0.3467240E-02  0.7521120E+03  0.7818609E-02  0.9632043E-01
        2   -1    0    0  501    0  0.00000000000E+00  0.00000000000E+00  0.24535355358E+04  0.24535355358E+04  0.25500000920E-02 0. -1.
       -2   -1    0    0    0  501  0.00000000000E+00  0.00000000000E+00 -0.57638500672E+02  0.57638500728E+02  0.25500000920E-02 0.  1.
    10030    2    1    2    0    0  0.00000000000E+00  0.00000000000E+00  0.23958970351E+04  0.25111740365E+04  0.75211198555E+03 0.  0.
        2    1    3    3  502    0  0.61567440098E+02 -0.80692085654E+02  0.24069385600E+04  0.24090776230E+04  0.25500000920E-02 0. -1.
       -2    1    3    3    0  502 -0.61567440098E+02  0.80692085654E+02 -0.11041524851E+02  0.10209641348E+03  0.25500000920E-02 0.  1.
</event>
<event>
 5   0  0.2077795E-02  0.8055565E+03  0.7818609E-02  0.9552009E-01
        1   -1    0    0  501    0  0.00000000000E+00  0.00000000000E+00  0.77692666046E+02  0.77692666209E+02  0.50400001928E-02 0.  1.
       -1   -1    0    0    0  501  0.00000000000E+00  0.00000000000E+00 -0.20881036058E+04  0.20881036058E+04  0.50400001928E-02 0. -1.
    10030    2    1    2    0    0  0.00000000000E+00  0.00000000000E+00 -0.20104109398E+04  0.21657962720E+04  0.80555654376E+03 0.  0.
        5    1    3    3  502    0 -0.29035346264E+03  0.90175735585E+01 -0.25518658669E+03  0.38668945412E+03  0.46999998093E+01 0.  1.
       -5    1    3    3    0  502  0.29035346264E+03 -0.90175735585E+01 -0.17552243531E+04  0.17791068179E+04  0.46999998093E+01 0. -1.
</event>
<event>
 5   0  0.3404132E-02  0.7966745E+03  0.7818609E-02  0.9564843E-01
       -2   -1    0    0    0  501  0.00000000000E+00  0.00000000000E+00  0.24071443108E+03  0.24071443110E+03  0.25500000920E-02 0.  1.
        2   -1    0    0  501    0  0.00000000000E+00  0.00000000000E+00 -0.65917353703E+03  0.65917353704E+03  0.25500000920E-02 0. -1.
    10030    2    1    2    0    0  0.00000000000E+00  0.00000000000E+00 -0.41845910595E+03  0.89988796814E+03  0.79667454575E+03 0.  0.
        5    1    3    3  502    0 -0.14556888323E+03 -0.35963992892E+03 -0.31101066507E+03  0.49727346804E+03  0.46999998093E+01 0. -1.
       -5    1    3    3    0  502  0.14556888323E+03  0.35963992892E+03 -0.10744844089E+03  0.40261450009E+03  0.46999998093E+01 0.  1.
</event>
<event>
 5   0  0.3404132E-02  0.8098969E+03  0.7818609E-02  0.9545801E-01
       -2   -1    0    0    0  501  0.00000000000E+00  0.00000000000E+00  0.24867547091E+03  0.24867547093E+03  0.25500000920E-02 0.  1.
        2   -1    0    0  501    0  0.00000000000E+00  0.00000000000E+00 -0.65942676940E+03  0.65942676940E+03  0.25500000920E-02 0. -1.
    10030    2    1    2    0    0  0.00000000000E+00  0.00000000000E+00 -0.41075129848E+03  0.90810224033E+03  0.80989693769E+03 0.  0.
        5    1    3    3  502    0 -0.17864680392E+02  0.19263122502E+03  0.19347539302E+03  0.27364347856E+03  0.46999998093E+01 0.  1.
       -5    1    3    3    0  502  0.17864680392E+02 -0.19263122502E+03 -0.60422669150E+03  0.63445876176E+03  0.46999998093E+01 0. -1.
</event>
<event>
 5   0  0.3343036E-02  0.7922330E+03  0.7818609E-02  0.9571328E-01
       -2   -1    0    0    0  501  0.00000000000E+00  0.00000000000E+00  0.77775288929E+02  0.77775288971E+02  0.25500000920E-02 0. -1.
        2   -1    0    0  501    0  0.00000000000E+00  0.00000000000E+00 -0.20174565428E+04  0.20174565428E+04  0.25500000920E-02 0.  1.
    10030    2    1    2    0    0  0.00000000000E+00  0.00000000000E+00 -0.19396812538E+04  0.20952318317E+04  0.79223295958E+03 0.  0.
        4    1    3    3  502    0 -0.28466714492E+03  0.17619920074E+03 -0.40990272795E+03  0.52924795797E+03  0.12699999809E+01 0. -1.
       -4    1    3    3    0  502  0.28466714492E+03 -0.17619920074E+03 -0.15297785259E+04  0.15659838738E+04  0.12699999809E+01 0.  1.
</event>
<event>
 5   0  0.2132540E-02  0.8019111E+03  0.7818609E-02  0.9557255E-01
        1   -1    0    0  501    0  0.00000000000E+00  0.00000000000E+00  0.32651513894E+03  0.32651513898E+03  0.50400001928E-02 0.  1.
       -1   -1    0    0    0  501  0.00000000000E+00  0.00000000000E+00 -0.49236726322E+03  0.49236726324E+03  0.50400001928E-02 0. -1.
    10030    2    1    2    0    0  0.00000000000E+00  0.00000000000E+00 -0.16585212428E+03  0.81888240222E+03  0.80191113070E+03 0.  0.
        4    1    3    3  502    0 -0.18141151632E+03 -0.25245067644E+03 -0.34150892627E+03  0.46181321106E+03  0.12699999809E+01 0. -1.
       -4    1    3    3    0  502  0.18141151632E+03  0.25245067644E+03  0.17565680199E+03  0.35706919116E+03  0.12699999809E+01 0.  1.
</event>
<event>
 5   0  0.2063692E-02  0.7984897E+03  0.7818609E-02  0.9562206E-01
       -1   -1    0    0    0  501  0.00000000000E+00  0.00000000000E+00  0.89881743545E+03  0.89881743547E+03  0.50400001928E-02 0. -1.
        1   -1    0    0  501    0  0.00000000000E+00  0.00000000000E+00 -0.17734019805E+03  0.17734019812E+03  0.50400001928E-02 0.  1.
    10030    2    1    2    0    0  0.00000000000E+00  0.00000000000E+00  0.72147723740E+03  0.10761576336E+04  0.79848972958E+03 0.  0.
        2    1    3    3  502    0 -0.62127217004E+02  0.20201370000E+02  0.89156495117E+03  0.89395522740E+03  0.25500000920E-02 0. -1.
       -2    1    3    3    0  502  0.62127217004E+02 -0.20201370000E+02 -0.17008771376E+03  0.18220240619E+03  0.25500000920E-02 0.  1.
</event>
<event>
 5   0  0.1358000E-02  0.7751493E+03  0.7818609E-02  0.9596701E-01
       -3   -1    0    0    0  501  0.00000000000E+00  0.00000000000E+00  0.37857287450E+03  0.37857288797E+03  0.10100000352E+00 0. -1.
        3   -1    0    0  501    0  0.00000000000E+00  0.00000000000E+00 -0.39679043267E+03  0.39679044552E+03  0.10100000352E+00 0.  1.
    10030    2    1    2    0    0  0.00000000000E+00  0.00000000000E+00 -0.18217558166E+02  0.77536333350E+03  0.77514928853E+03 0.  0.
        3    1    3    3  502    0 -0.12015090339E+03  0.55540792805E+02  0.35526241578E+03  0.37912057913E+03  0.10100000352E+00 0. -1.
       -3    1    3    3    0  502  0.12015090339E+03 -0.55540792805E+02 -0.37347997395E+03  0.39624275437E+03  0.10100000352E+00 0.  1.
</event>
<event>
 5   0  0.3467240E-02  0.8031829E+03  0.7818609E-02  0.9555421E-01
        2   -1    0    0  501    0  0.00000000000E+00  0.00000000000E+00  0.44183483082E+03  0.44183483083E+03  0.25500000920E-02 0.  1.
       -2   -1    0    0    0  501  0.00000000000E+00  0.00000000000E+00 -0.36501350393E+03  0.36501350394E+03  0.25500000920E-02 0. -1.
    10030    2    1    2    0    0  0.00000000000E+00  0.00000000000E+00  0.76821326894E+02  0.80684833477E+03  0.80318286776E+03 0.  0.
        2    1    3    3  502    0  0.88009723174E+02 -0.19836195196E+03 -0.30104046203E+03  0.37110448009E+03  0.25500000920E-02 0. -1.
       -2    1    3    3    0  502 -0.88009723174E+02  0.19836195196E+03  0.37786178892E+03  0.43574385468E+03  0.25500000920E-02 0.  1.
</event>
<event>
 5   0  0.2063692E-02  0.8040238E+03  0.7818609E-02  0.9554211E-01
        1   -1    0    0  501    0  0.00000000000E+00  0.00000000000E+00  0.14742426979E+03  0.14742426987E+03  0.50400001928E-02 0.  1.
       -1   -1    0    0    0  501  0.00000000000E+00  0.00000000000E+00 -0.10962480893E+04  0.10962480893E+04  0.50400001928E-02 0. -1.
    10030    2    1    2    0    0  0.00000000000E+00  0.00000000000E+00 -0.94882381950E+03  0.12436723592E+04  0.80402381588E+03 0.  0.
        2    1    3    3  502    0 -0.89526342687E+02 -0.39170341605E+03 -0.45442020502E+03  0.60658408726E+03  0.25500000920E-02 0.  1.
       -2    1    3    3    0  502  0.89526342687E+02  0.39170341605E+03 -0.49440361448E+03  0.63708827191E+03  0.25500000920E-02 0. -1.
</event>
<event>
 5   0  0.3550586E-02  0.8011344E+03  0.7818609E-02  0.9558376E-01
        2   -1    0    0  501    0  0.00000000000E+00  0.00000000000E+00  0.29649593492E+03  0.29649593493E+03  0.25500000920E-02 0. -1.
       -2   -1    0    0    0  501  0.00000000000E+00  0.00000000000E+00 -0.54116796179E+03  0.54116796180E+03  0.25500000920E-02 0.  1.
    10030    2    1    2    0    0  0.00000000000E+00  0.00000000000E+00 -0.24467202687E+03  0.83766389673E+03  0.80113444761E+03 0.  0.
        3    1    3    3  502    0  0.27318452678E+03  0.23692748977E+03 -0.30249962254E+03  0.47145567440E+03  0.10100000352E+00 0. -1.
       -3    1    3    3    0  502 -0.27318452678E+03 -0.23692748977E+03  0.57827595667E+02  0.36620822233E+03  0.10100000352E+00 0.  1.
</event>
<event>
 5   0  0.3404132E-02  0.8042043E+03  0.7818609E-02  0.9553951E-01
       -2   -1    0    0    0  501  0.00000000000E+00  0.00000000000E+00  0.10922261400E+04  0.10922261400E+04  0.25500000920E-02 0. -1.
        2   -1    0    0  501    0  0.00000000000E+00  0.00000000000E+00 -0.14803355848E+03  0.14803355850E+03  0.25500000920E-02 0.  1.
    10030    2    1    2    0    0  0.00000000000E+00  0.00000000000E+00  0.94419258150E+03  0.12402596985E+04  0.80420425809E+03 0.  0.
        5    1    3    3  502    0  0.22516841124E+03 -0.32462361549E+03  0.35686525646E+03  0.53240605408E+03  0.46999998093E+01 0. -1.
       -5    1    3    3    0  502 -0.22516841124E+03  0.32462361549E+03  0.58732732504E+03  0.70785364440E+03  0.46999998093E+01 0.  1.
</event>
<event>
 5   0  0.2077795E-02  0.7598361E+03  0.7818609E-02  0.9620044E-01
       -1   -1    0    0    0  501  0.00000000000E+00  0.00000000000E+00  0.21059075393E+03  0.21059075399E+03  0.50400001928E-02 0. -1.
        1   -1    0    0  501    0  0.00000000000E+00  0.00000000000E+00 -0.68539435129E+03  0.68539435131E+03  0.50400001928E-02 0.  1.
    10030    2    1    2    0    0  0.00000000000E+00  0.00000000000E+00 -0.47480359736E+03  0.89598510530E+03  0.75983606973E+03 0.  0.
        5    1    3    3  502    0 -0.12994147880E+02 -0.19988847138E+03  0.14322272596E+03  0.24629065775E+03  0.46999998093E+01 0. -1.
       -5    1    3    3    0  502  0.12994147880E+02  0.19988847138E+03 -0.61802632331E+03  0.64969444755E+03  0.46999998093E+01 0.  1.
</event>
<event>
 5   0  0.2129257E-02  0.8077400E+03  0.7818609E-02  0.9548881E-01
        1   -1    0    0  501    0  0.00000000000E+00  0.00000000000E+00  0.72373952590E+03  0.72373952592E+03  0.50400001928E-02 0.  1.
       -1   -1    0    0    0  501  0.00000000000E+00  0.00000000000E+00 -0.22537249061E+03  0.22537249066E+03  0.50400001928E-02 0. -1.
    10030    2    1    2    0    0  0.00000000000E+00  0.00000000000E+00  0.49836703529E+03  0.94911201658E+03  0.80774000653E+03 0.  0.
        3    1    3    3  502    0  0.16812806115E+03 -0.30306197994E+03  0.49283372062E+03  0.60249373027E+03  0.10100000352E+00 0.  1.
       -3    1    3    3    0  502 -0.16812806115E+03  0.30306197994E+03  0.55333146679E+01  0.34661828631E+03  0.10100000352E+00 0. -1.
</event>
<event>
 5   0  0.3550586E-02  0.8012466E+03  0.7818609E-02  0.9558214E-01
        2   -1    0    0  501    0  0.00000000000E+00  0.00000000000E+00  0.28919324240E+03  0.28919324241E+03  0.25500000920E-02 0. -1.
       -2   -1    0    0    0  501  0.00000000000E+00  0.00000000000E+00 -0.55498889223E+03  0.55498889224E+03  0.25500000920E-02 0.  1.
    10030    2    1    2    0    0  0.00000000000E+00  0.00000000000E+00 -0.26579564983E+03  0.84418213465E+03  0.80124662183E+03 0.  0.
        3    1    3    3  502    0 -0.29055446438E+03 -0.21505982583E+03 -0.31485549869E+03  0.47938149809E+03  0.10100000352E+00 0.  1.
       -3    1    3    3    0  502  0.29055446438E+03  0.21505982583E+03  0.49059848865E+02  0.36480063655E+03  0.10100000352E+00 0. -1.
</event>
<event>
 5   0  0.3416160E-02  0.8013177E+03  0.7818609E-02  0.9558112E-01
        2   -1    0    0  501    0  0.00000000000E+00  0.00000000000E+00  0.11474211366E+04  0.11474211366E+04  0.25500000920E-02 0.  1.
       -2   -1    0    0    0  501  0.00000000000E+00  0.00000000000E+00 -0.13990286245E+03  0.13990286247E+03  0.25500000920E-02 0. -1.
    10030    2    1    2    0    0  0.00000000000E+00  0.00000000000E+00  0.10075182741E+04  0.12873239990E+04  0.80131766848E+03 0.  0.
        1    1    3    3  502    0 -0.36998988833E+03 -0.34003746568E+02  0.26289672871E+03  0.45515213087E+03  0.50400001928E-02 0. -1.
       -1    1    3    3    0  502  0.36998988833E+03  0.34003746568E+02  0.74462154541E+03  0.83217186817E+03  0.50400001928E-02 0.  1.
</event>
<event>
 5   0  0.3416160E-02  0.7563580E+03  0.7818609E-02  0.9625428E-01
        2   -1    0    0  501    0  0.00000000000E+00  0.00000000000E+00  0.37646478293E+03  0.37646478293E+03  0.25500000920E-02 0.  1.
       -2   -1    0    0    0  501  0.00000000000E+00  0.00000000000E+00 -0.37990099385E+03  0.37990099386E+03  0.25500000920E-02 0. -1.
    10030    2    1    2    0    0  0.00000000000E+00  0.00000000000E+00 -0.34362109258E+01  0.75636577679E+03  0.75635797131E+03 0.  0.
        1    1    3    3  502    0  0.11636663186E+03  0.18647332969E+03  0.30602822543E+03  0.37678478005E+03  0.50400001928E-02 0.  1.
       -1    1    3    3    0  502 -0.11636663186E+03 -0.18647332969E+03 -0.30946443635E+03  0.37958099674E+03  0.50400001928E-02 0. -1.
</event>
<event>
 5   0  0.3467240E-02  0.7836392E+03  0.7818609E-02  0.9584005E-01
       -2   -1    0    0    0  501  0.00000000000E+00  0.00000000000E+00  0.32853529570E+03  0.32853529571E+03  0.25500000920E-02 0.  1.
        2   -1    0    0  501    0  0.00000000000E+00  0.00000000000E+00 -0.46729405562E+03  0.46729405563E+03  0.25500000920E-02 0. -1.
    10030    2    1    2    0    0  0.00000000000E+00  0.00000000000E+00 -0.13875875992E+03  0.79582935134E+03  0.78363917909E+03 0.  0.
        2    1    3    3  502    0  0.17016002567E+03 -0.31509875487E+03  0.92093779853E+02  0.36976063061E+03  0.25500000920E-02 0.  1.
       -2    1    3    3    0  502 -0.17016002567E+03  0.31509875487E+03 -0.23085253977E+03  0.42606872073E+03  0.25500000920E-02 0. -1.
</event>
<event>
 5   0  0.1989298E-02  0.5092549E+03  0.7818609E-02  0.1011391E+00
       -1   -1    0    0    0  501  0.00000000000E+00  0.00000000000E+00  0.14962903945E+04  0.14962903945E+04  0.50400001928E-02 0.  1.
        1   -1    0    0  501    0  0.00000000000E+00  0.00000000000E+00 -0.43330579696E+02  0.43330579990E+02  0.50400001928E-02 0. -1.
    10030    2    1    2    0    0  0.00000000000E+00  0.00000000000E+00  0.14529598148E+04  0.15396209745E+04  0.50925486907E+03 0.  0.
        1    1    3    3  502    0  0.17593074695E+03 -0.43644205827E+02  0.18583895936E+03  0.25960077671E+03  0.50400001928E-02 0. -1.
       -1    1    3    3    0  502 -0.17593074695E+03  0.43644205827E+02  0.12671208554E+04  0.12800201978E+04  0.50400001928E-02 0.  1.
</event>
<event>
 5   0  0.3416160E-02  0.8011187E+03  0.7818609E-02  0.9558399E-01
       -2   -1    0    0    0  501  0.00000000000E+00  0.00000000000E+00  0.41525805036E+03  0.41525805036E+03  0.25500000920E-02 0. -1.
        2   -1    0    0  501    0  0.00000000000E+00  0.00000000000E+00 -0.38638091080E+03  0.38638091081E+03  0.25500000920E-02 0.  1.
    10030    2    1    2    0    0  0.00000000000E+00  0.00000000000E+00  0.28877139554E+02  0.80163896117E+03  0.80111867715E+03 0.  0.
        1    1    3    3  502    0 -0.11350094844E+03  0.58679094942E+02 -0.36544212501E+03  0.38713518084E+03  0.50400001928E-02 0.  1.
       -1    1    3    3    0  502  0.11350094844E+03 -0.58679094942E+02  0.39431926457E+03  0.41450378034E+03  0.50400001928E-02 0. -1.
</event>
<event>
 5   0  0.3343036E-02  0.8134992E+03  0.7818609E-02  0.9540681E-01
       -2   -1    0    0    0  501  0.00000000000E+00  0.00000000000E+00  0.41054873510E+03  0.41054873511E+03  0.25500000920E-02 0.  1.
        2   -1    0    0  501    0  0.00000000000E+00  0.00000000000E+00 -0.40298560672E+03  0.40298560673E+03  0.25500000920E-02 0. -1.
    10030    2    1    2    0    0  0.00000000000E+00  0.00000000000E+00  0.75631283784E+01  0.81353434184E+03  0.81349918527E+03 0.  0.
        4    1    3    3  502    0 -0.19446888623E+03  0.16298818872E+02 -0.35310893347E+03  0.40344929174E+03  0.12699999809E+01 0. -1.
       -4    1    3    3    0  502  0.19446888623E+03 -0.16298818872E+02  0.36067206185E+03  0.41008505009E+03  0.12699999809E+01 0.  1.
</event>
<event>
 5   0  0.3550586E-02  0.7888127E+03  0.7818609E-02  0.9576353E-01
        2   -1    0    0  501    0  0.00000000000E+00  0.00000000000E+00  0.21726393953E+04  0.21726393953E+04  0.25500000920E-02 0.  1.
       -2   -1    0    0    0  501  0.00000000000E+00  0.00000000000E+00 -0.71597884619E+02  0.71597884664E+02  0.25500000920E-02 0. -1.
    10030    2    1    2    0    0  0.00000000000E+00  0.00000000000E+00  0.21010415107E+04  0.22442372800E+04  0.78881274025E+03 0.  0.
        3    1    3    3  502    0  0.90574432777E+01 -0.82481660767E+02 -0.46483095950E+02  0.95110199514E+02  0.10100000352E+00 0. -1.
       -3    1    3    3    0  502 -0.90574432777E+01  0.82481660767E+02  0.21475246066E+04  0.21491270804E+04  0.10100000352E+00 0.  1.
</event>
<event>
 5   0  0.2129257E-02  0.7957615E+03  0.7818609E-02  0.9566173E-01
       -1   -1    0    0    0  501  0.00000000000E+00  0.00000000000E+00  0.30519102717E+03  0.30519102721E+03  0.50400001928E-02 0.  1.
        1   -1    0    0  501    0  0.00000000000E+00  0.00000000000E+00 -0.51872130628E+03  0.51872130630E+03  0.50400001928E-02 0. -1.
    10030    2    1    2    0    0  0.00000000000E+00  0.00000000000E+00 -0.21353027911E+03  0.82391233351E+03  0.79576149267E+03 0.  0.
        3    1    3    3  502    0  0.33736009456E+03 -0.16920388877E+03 -0.23718671640E+03  0.44575703922E+03  0.10100000352E+00 0. -1.
       -3    1    3    3    0  502 -0.33736009456E+03  0.16920388877E+03  0.23656437294E+02  0.37815529429E+03  0.10100000352E+00 0.  1.
</event>
<event>
 5   0  0.1358000E-02  0.7925481E+03  0.7818609E-02  0.9570866E-01
        4   -1    0    0  501    0  0.00000000000E+00  0.00000000000E+00  0.19369775072E+03  0.19370191412E+03  0.12699999809E+01 0.  1.
       -4   -1    0    0    0  501  0.00000000000E+00  0.00000000000E+00 -0.81069888401E+03  0.81069987877E+03  0.12699999809E+01 0. -1.
    10030    2    1    2    0    0  0.00000000000E+00  0.00000000000E+00 -0.61700113329E+03  0.10044017929E+04  0.79254814558E+03 0.  0.
        1    1    3    3  502    0  0.38463337034E+03  0.10613411279E+02 -0.18842253416E+03  0.42843730636E+03  0.50400001928E-02 0.  1.
       -1    1    3    3    0  502 -0.38463337034E+03 -0.10613411279E+02 -0.42857859913E+03  0.57596448652E+03  0.50400001928E-02 0. -1.
</event>
<event>
 5   0  0.3416160E-02  0.7854279E+03  0.7818609E-02  0.9581352E-01
       -2   -1    0    0    0  501  0.00000000000E+00  0.00000000000E+00  0.19333359755E+03  0.19333359756E+03  0.25500000920E-02 0. -1.
        2   -1    0    0  501    0  0.00000000000E+00  0.00000000000E+00 -0.79771054243E+03  0.79771054243E+03  0.25500000920E-02 0.  1.
    10030    2    1    2    0    0  0.00000000000E+00  0.00000000000E+00 -0.60437694488E+03  0.99104414000E+03  0.78542790625E+03 0.  0.
        1    1    3    3  502    0 -0.24606910790E+02 -0.23773522744E+03 -0.69537431712E+03  0.73530196474E+03  0.50400001928E-02 0.  1.
       -1    1    3    3    0  502  0.24606910790E+02  0.23773522744E+03  0.90997372236E+02  0.25574217525E+03  0.50400001928E-02 0. -1.
</event>
<event>
 5   0  0.3343036E-02  0.7895619E+03  0.7818609E-02  0.9575250E-01
       -2   -1    0    0    0  501  0.00000000000E+00  0.00000000000E+00  0.37689793188E+03  0.37689793189E+03  0.25500000920E-02 0. -1.
        2   -1    0    0  501    0  0.00000000000E+00  0.00000000000E+00 -0.41351250617E+03  0.41351250618E+03  0.25500000920E-02 0.  1.
    10030    2    1    2    0    0  0.00000000000E+00  0.00000000000E+00 -0.36614574296E+02  0.79041043807E+03  0.78956192509E+03 0.  0.
        4    1    3    3  502    0  0.13507256792E+03 -0.30302285082E+03 -0.23250673655E+03  0.40512768625E+03  0.12699999809E+01 0.  1.
       -4    1    3    3    0  502 -0.13507256792E+03  0.30302285082E+03  0.19589216225E+03  0.38528275183E+03  0.12699999809E+01 0. -1.
</event>
<event>
 5   0  0.3550586E-02  0.8034688E+03  0.7818609E-02  0.9555010E-01
        2   -1    0    0  501    0  0.00000000000E+00  0.00000000000E+00  0.85567051444E+03  0.85567051444E+03  0.25500000920E-02 0. -1.
       -2   -1    0    0    0  501  0.00000000000E+00  0.00000000000E+00 -0.18861292276E+03  0.18861292277E+03  0.25500000920E-02 0.  1.
    10030    2    1    2    0    0  0.00000000000E+00  0.00000000000E+00  0.66705759168E+03  0.10442834372E+04  0.80346877141E+03 0.  0.
        3    1    3    3  502    0 -0.31226819153E+03  0.23881695907E+03  0.44106466313E+03  0.59083247257E+03  0.10100000352E+00 0. -1.
       -3    1    3    3    0  502  0.31226819153E+03 -0.23881695907E+03  0.22599292855E+03  0.45345096465E+03  0.10100000352E+00 0.  1.
</event>
<event>
 5   0  0.1989298E-02  0.7427346E+03  0.7818609E-02  0.9646818E-01
       -1   -1    0    0    0  501  0.00000000000E+00  0.00000000000E+00  0.25946373234E+03  0.25946373239E+03  0.50400001928E-02 0.  1.
        1   -1    0    0  501    0  0.00000000000E+00  0.00000000000E+00 -0.53153357642E+03  0.53153357645E+03  0.50400001928E-02 0. -1.
    10030    2    1    2    0    0  0.00000000000E+00  0.00000000000E+00 -0.27206984408E+03  0.79099730883E+03  0.74273463803E+03 0.  0.
        1    1    3    3  502    0 -0.24528811454E+03 -0.27732155970E+03 -0.10516558960E+03  0.38488090089E+03  0.50400001928E-02 0. -1.
       -1    1    3    3    0  502  0.24528811454E+03  0.27732155970E+03 -0.16690425448E+03  0.40611640794E+03  0.50400001928E-02 0.  1.
</event>
<event>
 5   0  0.3467240E-02  0.8006034E+03  0.7818609E-02  0.9559144E-01
        2   -1    0    0  501    0  0.00000000000E+00  0.00000000000E+00  0.12079908311E+04  0.12079908311E+04  0.25500000920E-02 0.  1.
       -2   -1    0    0    0  501  0.00000000000E+00  0.00000000000E+00 -0.13265121691E+03  0.13265121694E+03  0.25500000920E-02 0. -1.
    10030    2    1    2    0    0  0.00000000000E+00  0.00000000000E+00  0.10753396142E+04  0.13406420480E+04  0.80060340689E+03 0.  0.
        2    1    3    3  502    0  0.40016255689E+03  0.10550372743E+02  0.53811748080E+03  0.67068010664E+03  0.25500000920E-02 0. -1.
       -2    1    3    3    0  502 -0.40016255689E+03 -0.10550372743E+02  0.53722213338E+03  0.66996194138E+03  0.25500000920E-02 0.  1.
</event>
<event>
 5   0  0.2132540E-02  0.7913804E+03  0.7818609E-02  0.9572578E-01
        1   -1    0    0  501    0  0.00000000000E+00  0.00000000000E+00  0.19431562717E+04  0.19431562717E+04  0.50400001928E-02 0. -1.
       -1   -1    0    0    0  501  0.00000000000E+00  0.00000000000E+00 -0.80575465644E+02  0.80575465802E+02  0.50400001928E-02 0.  1.
    10030    2    1    2    0    0  0.00000000000E+00  0.00000000000E+00  0.18625808060E+04  0.20237317375E+04  0.79138036765E+03 0.  0.
        4    1    3    3  502    0 -0.13056603014E+03  0.18238123785E+03  0.97705330552E+02  0.24465965884E+03  0.12699999809E+01 0.  1.
       -4    1    3    3    0  502  0.13056603014E+03 -0.18238123785E+03  0.17648754755E+04  0.17790720786E+04  0.12699999809E+01 0. -1.
</event>
<event>
 5   0  0.2063692E-02  0.7617910E+03  0.7818609E-02  0.9617032E-01
       -1   -1    0    0    0  501  0.00000000000E+00  0.00000000000E+00  0.39646556828E+03  0.39646556831E+03  0.50400001928E-02 0.  1.
        1   -1    0    0  501    0  0.00000000000E+00  0.00000000000E+00 -0.36593693341E+03  0.36593693345E+03  0.50400001928E-02 0. -1.
    10030    2    1    2    0    0  0.00000000000E+00  0.00000000000E+00  0.30528634866E+02  0.76240250176E+03  0.76179103246E+03 0.  0.
        2    1    3    3  502    0  0.32021217331E+02 -0.34356325142E+03  0.17670197290E+03  0.38766564629E+03  0.25500000920E-02 0. -1.
       -2    1    3    3    0  502 -0.32021217331E+02  0.34356325142E+03 -0.14617333803E+03  0.37473685546E+03  0.25500000920E-02 0.  1.
</event>
<event>
 5   0  0.3404132E-02  0.8048754E+03  0.7818609E-02  0.9552987E-01
        2   -1    0    0  501    0  0.00000000000E+00  0.00000000000E+00  0.13175878101E+04  0.13175878101E+04  0.25500000920E-02 0.  1.
       -2   -1    0    0    0  501  0.00000000000E+00  0.00000000000E+00 -0.12291864502E+03  0.12291864505E+03  0.25500000920E-02 0. -1.
    10030    2    1    2    0    0  0.00000000000E+00  0.00000000000E+00  0.11946691651E+04  0.14405064552E+04  0.80487541480E+03 0.  0.
        5    1    3    3  502    0  0.97749227688E+02 -0.38696695957E+03  0.68921708336E+03  0.79645503157E+03  0.46999998093E+01 0.  1.
       -5    1    3    3    0  502 -0.97749227688E+02  0.38696695957E+03  0.50545208175E+03  0.64405142361E+03  0.46999998093E+01 0. -1.
</event>
<event>
 5   0  0.1989298E-02  0.7980393E+03  0.7818609E-02  0.9562860E-01
        1   -1    0    0  501    0  0.00000000000E+00  0.00000000000E+00  0.22339787974E+03  0.22339787979E+03  0.50400001928E-02 0. -1.
       -1   -1    0    0    0  501  0.00000000000E+00  0.00000000000E+00 -0.71270448524E+03  0.71270448525E+03  0.50400001928E-02 0.  1.
    10030    2    1    2    0    0  0.00000000000E+00  0.00000000000E+00 -0.48930660550E+03  0.93610236505E+03  0.79803927451E+03 0.  0.
        1    1    3    3  502    0  0.29012377907E+03 -0.31948147161E+02 -0.56379671104E+03  0.63486945327E+03  0.50400001928E-02 0.  1.
       -1    1    3    3    0  502 -0.29012377907E+03  0.31948147161E+02  0.74490105541E+02  0.30123291178E+03  0.50400001928E-02 0. -1.
</event>
<event>
 5   0  0.3343036E-02  0.7979863E+03  0.7818609E-02  0.9562937E-01
       -2   -1    0    0    0  501  0.00000000000E+00  0.00000000000E+00  0.61523736708E+02  0.61523736761E+02  0.25500000920E-02 0. -1.
        2   -1    0    0  501    0  0.00000000000E+00  0.00000000000E+00 -0.25875462705E+04  0.25875462705E+04  0.25500000920E-02 0.  1.
    10030    2    1    2    0    0  0.00000000000E+00  0.00000000000E+00 -0.25260225338E+04  0.26490700072E+04  0.79798625436E+03 0.  0.
        4    1    3    3  502    0  0.35533683352E+03  0.17303496748E+03 -0.14444906830E+04  0.14975848261E+04  0.12699999809E+01 0.  1.
       -4    1    3    3    0  502 -0.35533683352E+03 -0.17303496748E+03 -0.10815318508E+04  0.11514851811E+04  0.12699999809E+01 0. -1.
</event>
<event>
 5   0  0.2077795E-02  0.7926509E+03  0.7818609E-02  0.9570716E-01
        1   -1    0    0  501    0  0.00000000000E+00  0.00000000000E+00  0.19756341238E+03  0.19756341245E+03  0.50400001928E-02 0.  1.
       -1   -1    0    0    0  501  0.00000000000E+00  0.00000000000E+00 -0.79505543780E+03  0.79505543782E+03  0.50400001928E-02 0. -1.
    10030    2    1    2    0    0  0.00000000000E+00  0.00000000000E+00 -0.59749202542E+03  0.99261885027E+03  0.79265090769E+03 0.  0.
        5    1    3    3  502    0 -0.81652747700E+02 -0.37713980734E+03 -0.18569254512E+03  0.42825858637E+03  0.46999998093E+01 0.  1.
       -5    1    3    3    0  502  0.81652747700E+02  0.37713980734E+03 -0.41179948030E+03  0.56436026389E+03  0.46999998093E+01 0. -1.
</event>
<event>
 5   0  0.3550586E-02  0.8007794E+03  0.7818609E-02  0.9558890E-01
        2   -1    0    0  501    0  0.00000000000E+00  0.00000000000E+00  0.26340028302E+03  0.26340028304E+03  0.25500000920E-02 0. -1.
       -2   -1    0    0    0  501  0.00000000000E+00  0.00000000000E+00 -0.60862471896E+03  0.60862471896E+03  0.25500000920E-02 0.  1.
    10030    2    1    2    0    0  0.00000000000E+00  0.00000000000E+00 -0.34522443594E+03  0.87202500200E+03  0.80077942840E+03 0.  0.
        3    1    3    3  502    0  0.21850044262E+03 -0.21835377325E+03 -0.45001358365E+03  0.54583243710E+03  0.10100000352E+00 0.  1.
       -3    1    3    3    0  502 -0.21850044262E+03  0.21835377325E+03  0.10478914771E+03  0.32619256490E+03  0.10100000352E+00 0. -1.
</event>
<event>
 5   0  0.3550586E-02  0.8135029E+03  0.7818609E-02  0.9540675E-01
       -2   -1    0    0    0  501  0.00000000000E+00  0.00000000000E+00  0.21079416385E+03  0.21079416386E+03  0.25500000920E-02 0.  1.
        2   -1    0    0  501    0  0.00000000000E+00  0.00000000000E+00 -0.78487343441E+03  0.78487343441E+03  0.25500000920E-02 0. -1.
    10030    2    1    2    0    0  0.00000000000E+00  0.00000000000E+00 -0.57407927056E+03  0.99566759827E+03  0.81350289327E+03 0.  0.
        3    1    3    3  502    0  0.12949430607E+03 -0.55468200291E+02  0.17998285807E+03  0.22855926135E+03  0.10100000352E+00 0.  1.
       -3    1    3    3    0  502 -0.12949430607E+03  0.55468200291E+02 -0.75406212863E+03  0.76710833692E+03  0.10100000352E+00 0. -1.
</event>
<event>
 5   0  0.2129257E-02  0.7655877E+03  0.7818609E-02  0.9611208E-01
       -1   -1    0    0    0  501  0.00000000000E+00  0.00000000000E+00  0.27097500580E+03  0.27097500585E+03  0.50400001928E-02 0. -1.
        1   -1    0    0  501    0  0.00000000000E+00  0.00000000000E+00 -0.54075513146E+03  0.54075513148E+03  0.50400001928E-02 0.  1.
    10030    2    1    2    0    0  0.00000000000E+00  0.00000000000E+00 -0.26978012566E+03  0.81173013733E+03  0.76558768253E+03 0.  0.
        3    1    3    3  502    0  0.17391206075E+03 -0.54760195500E+02 -0.49175742450E+03  0.52447064612E+03  0.10100000352E+00 0.  1.
       -3    1    3    3    0  502 -0.17391206075E+03  0.54760195500E+02  0.22197729885E+03  0.28725949121E+03  0.10100000352E+00 0. -1.
</event>
<event>
 5   0  0.3467240E-02  0.8446132E+03  0.7818609E-02  0.9497596E-01
       -2   -1    0    0    0  501  0.00000000000E+00  0.00000000000E+00  0.39446924129E+03  0.39446924130E+03  0.25500000920E-02 0. -1.
        2   -1    0    0  501    0  0.00000000000E+00  0.00000000000E+00 -0.45210845574E+03  0.45210845575E+03  0.25500000920E-02 0.  1.
    10030    2    1    2    0    0  0.00000000000E+00  0.00000000000E+00 -0.57639214455E+02  0.84657769705E+03  0.84461323581E+03 0.  0.
        2    1    3    3  502    0 -0.32736181448E+03  0.84376743665E+02  0.22486526304E+03  0.40601672254E+03  0.25500000920E-02 0. -1.
       -2    1    3    3    0  502  0.32736181448E+03 -0.84376743665E+02 -0.28250447750E+03  0.44056097451E+03  0.25500000920E-02 0.  1.
</event>
<event>
 5   0  0.3343036E-02  0.7771018E+03  0.7818609E-02  0.9593766E-01
       -2   -1    0    0    0  501  0.00000000000E+00  0.00000000000E+00  0.16860515693E+03  0.16860515695E+03  0.25500000920E-02 0. -1.
        2   -1    0    0  501    0  0.00000000000E+00  0.00000000000E+00 -0.89541629107E+03  0.89541629107E+03  0.25500000920E-02 0.  1.
    10030    2    1    2    0    0  0.00000000000E+00  0.00000000000E+00 -0.72681113414E+03  0.10640214480E+04  0.77710180617E+03 0.  0.
        4    1    3    3  502    0 -0.34642305898E+03 -0.88316985815E+02 -0.57178485279E+03  0.67435032183E+03  0.12699999809E+01 0.  1.
       -4    1    3    3    0  502  0.34642305898E+03  0.88316985815E+02 -0.15502628135E+03  0.38967112619E+03  0.12699999809E+01 0. -1.
</event>
<event>
 5   0  0.3343036E-02  0.8201502E+03  0.7818609E-02  0.9531300E-01
       -2   -1    0    0    0  501  0.00000000000E+00  0.00000000000E+00  0.19881101302E+03  0.19881101304E+03  0.25500000920E-02 0. -1.
        2   -1    0    0  501    0  0.00000000000E+00  0.00000000000E+00 -0.84583629650E+03  0.84583629650E+03  0.25500000920E-02 0.  1.
    10030    2    1    2    0    0  0.00000000000E+00  0.00000000000E+00 -0.64702528348E+03  0.10446473095E+04  0.82015015934E+03 0.  0.
        4    1    3    3  502    0  0.22620919764E+03 -0.13952033144E+03  0.74256244510E+02  0.27595674793E+03  0.12699999809E+01 0. -1.
       -4    1    3    3    0  502 -0.22620919764E+03  0.13952033144E+03 -0.72128152799E+03  0.76869056161E+03  0.12699999809E+01 0.  1.
</event>
<event>
 5   0  0.2063692E-02  0.8109121E+03  0.7818609E-02  0.9544355E-01
       -1   -1    0    0    0  501  0.00000000000E+00  0.00000000000E+00  0.88429548363E+02  0.88429548507E+02  0.50400001928E-02 0. -1.
        1   -1    0    0  501    0  0.00000000000E+00  0.00000000000E+00 -0.18590462109E+04  0.18590462109E+04  0.50400001928E-02 0.  1.
    10030    2    1    2    0    0  0.00000000000E+00  0.00000000000E+00 -0.17706166625E+04  0.19474757594E+04  0.81091212091E+03 0.  0.
        2    1    3    3  502    0  0.20416172156E+03 -0.24092579578E+03 -0.14960265357E+04  0.15289939971E+04  0.25500000920E-02 0.  1.
       -2    1    3    3    0  502 -0.20416172156E+03  0.24092579578E+03 -0.27459012680E+03  0.41848176229E+03  0.25500000920E-02 0. -1.
</event>
<event>
 5   0  0.2129257E-02  0.7718000E+03  0.7818609E-02  0.9601757E-01
       -1   -1    0    0    0  501  0.00000000000E+00  0.00000000000E+00  0.18676235432E+03  0.18676235438E+03  0.50400001928E-02 0.  1.
        1   -1    0    0  501    0  0.00000000000E+00  0.00000000000E+00 -0.79737056467E+03  0.79737056469E+03  0.50400001928E-02 0. -1.
    10030    2    1    2    0    0  0.00000000000E+00  0.00000000000E+00 -0.61060821035E+03  0.98413291907E+03  0.77179998435E+03 0.  0.
        3    1    3    3  502    0  0.29198715005E+03  0.16624577629E+03 -0.63285464449E+02  0.34190527071E+03  0.10100000352E+00 0. -1.
       -3    1    3    3    0  502 -0.29198715005E+03 -0.16624577629E+03 -0.54732274591E+03  0.64222764836E+03  0.10100000352E+00 0.  1.
</event>
<event>
 5   0  0.1989298E-02  0.7838577E+03  0.7818609E-02  0.9583681E-01
       -1   -1    0    0    0  501  0.00000000000E+00  0.00000000000E+00  0.52830744564E+03  0.52830744566E+03  0.50400001928E-02 0.  1.
        1   -1    0    0  501    0  0.00000000000E+00  0.00000000000E+00 -0.29075534497E+03  0.29075534501E+03  0.50400001928E-02 0. -1.
    10030    2    1    2    0    0  0.00000000000E+00  0.00000000000E+00  0.23755210067E+03  0.81906279068E+03  0.78385767493E+03 0.  0.
        1    1    3    3  502    0  0.37599047012E+03  0.10155526773E+03  0.16463221236E+03  0.42283101991E+03  0.50400001928E-02 0. -1.
       -1    1    3    3    0  502 -0.37599047012E+03 -0.10155526773E+03  0.72919888310E+02  0.39623177077E+03  0.50400001928E-02 0.  1.
</event>
<event>
 5   0  0.2063692E-02  0.8086039E+03  0.7818609E-02  0.9547646E-01
        1   -1    0    0  501    0  0.00000000000E+00  0.00000000000E+00  0.81918302536E+03  0.81918302538E+03  0.50400001928E-02 0. -1.
       -1   -1    0    0    0  501  0.00000000000E+00  0.00000000000E+00 -0.19954035853E+03  0.19954035860E+03  0.50400001928E-02 0.  1.
    10030    2    1    2    0    0  0.00000000000E+00  0.00000000000E+00  0.61964266683E+03  0.10187233840E+04  0.80860391942E+03 0.  0.
        2    1    3    3  502    0 -0.94727587706E+02  0.39082179275E+03  0.25719189535E+03  0.47734962093E+03  0.25500000920E-02 0. -1.
       -2    1    3    3    0  502  0.94727587706E+02 -0.39082179275E+03  0.36245077147E+03  0.54137376304E+03  0.25500000920E-02 0.  1.
</event>
<event>
 5   0  0.1989298E-02  0.8433574E+03  0.7818609E-02  0.9499296E-01
        1   -1    0    0  501    0  0.00000000000E+00  0.00000000000E+00  0.54239546850E+03  0.54239546852E+03  0.50400001928E-02 0. -1.
       -1   -1    0    0    0  501  0.00000000000E+00  0.00000000000E+00 -0.32782894664E+03  0.32782894667E+03  0.50400001928E-02 0.  1.
    10030    2    1    2    0    0  0.00000000000E+00  0.00000000000E+00  0.21456652186E+03  0.87022441519E+03  0.84335742156E+03 0.  0.
        1    1    3    3  502    0 -0.17935440628E+03 -0.28613936462E+03 -0.15328712946E+03  0.37086477740E+03  0.50400001928E-02 0.  1.
       -1    1    3    3    0  502  0.17935440628E+03  0.28613936462E+03  0.36785365133E+03  0.49935963779E+03  0.50400001928E-02 0. -1.
</event>
<event>
 5   0  0.3467240E-02  0.8100854E+03  0.7818609E-02  0.9545533E-01
        2   -1    0    0  501    0  0.00000000000E+00  0.00000000000E+00  0.26319474588E+03  0.26319474590E+03  0.25500000920E-02 0.  1.
       -2   -1    0    0    0  501  0.00000000000E+00  0.00000000000E+00 -0.62333914871E+03  0.62333914872E+03  0.25500000920E-02 0. -1.
    10030    2    1    2    0    0  0.00000000000E+00  0.00000000000E+00 -0.36014440283E+03  0.88653389461E+03  0.81008540007E+03 0.  0.
        2    1    3    3  502    0  0.30018040139E+03  0.26851161055E+03 -0.13296553403E+03  0.42413039461E+03  0.25500000920E-02 0. -1.
       -2    1    3    3    0  502 -0.30018040139E+03 -0.26851161055E+03 -0.22717886880E+03  0.46240350001E+03  0.25500000920E-02 0.  1.
</event>
<event>
 5   0  0.2132540E-02  0.7960728E+03  0.7818609E-02  0.9565719E-01
        1   -1    0    0  501    0  0.00000000000E+00  0.00000000000E+00  0.72750504932E+03  0.72750504934E+03  0.50400001928E-02 0. -1.
       -1   -1    0    0    0  501  0.00000000000E+00  0.00000000000E+00 -0.21777579047E+03  0.21777579053E+03  0.50400001928E-02 0.  1.
    10030    2    1    2    0    0  0.00000000000E+00  0.00000000000E+00  0.50972925885E+03  0.94528083986E+03  0.79607282888E+03 0.  0.
        4    1    3    3  502    0 -0.10270085022E+03 -0.32990082538E+03  0.48951161915E+03  0.59917047441E+03  0.12699999809E+01 0. -1.
       -4    1    3    3    0  502  0.10270085022E+03  0.32990082538E+03  0.20217639704E+02  0.34611036546E+03  0.12699999809E+01 0.  1.
</event>
<event>
 5   0  0.3343036E-02  0.7986651E+03  0.7818609E-02  0.9561951E-01
        2   -1    0    0  501    0  0.00000000000E+00  0.00000000000E+00  0.30521157526E+03  0.30521157527E+03  0.25500000920E-02 0. -1.
       -2   -1    0    0    0  501  0.00000000000E+00  0.00000000000E+00 -0.52247854677E+03  0.52247854677E+03  0.25500000920E-02 0.  1.
    10030    2    1    2    0    0  0.00000000000E+00  0.00000000000E+00 -0.21726697151E+03  0.82769012204E+03  0.79866513710E+03 0.  0.
        4    1    3    3  502    0  0.25805043473E+03 -0.23182965379E+03 -0.31363508993E+03  0.46765756465E+03  0.12699999809E+01 0.  1.
       -4    1    3    3    0  502 -0.25805043473E+03  0.23182965379E+03  0.96368118417E+02  0.36003255740E+03  0.12699999809E+01 0. -1.
</event>
<event>
 5   0  0.1989298E-02  0.8031156E+03  0.7818609E-02  0.9555518E-01
       -1   -1    0    0    0  501  0.00000000000E+00  0.00000000000E+00  0.21696436680E+03  0.21696436686E+03  0.50400001928E-02 0. -1.
        1   -1    0    0  501    0  0.00000000000E+00  0.00000000000E+00 -0.74320352382E+03  0.74320352384E+03  0.50400001928E-02 0.  1.
    10030    2    1    2    0    0  0.00000000000E+00  0.00000000000E+00 -0.52623915702E+03  0.96016789069E+03  0.80311563796E+03 0.  0.
        1    1    3    3  502    0  0.37214361035E+03  0.13533208189E+03 -0.34281059136E+03  0.52376019387E+03  0.50400001928E-02 0.  1.
       -1    1    3    3    0  502 -0.37214361035E+03 -0.13533208189E+03 -0.18342856567E+03  0.43640769682E+03  0.50400001928E-02 0. -1.
</event>
<event>
 5   0  0.2129257E-02  0.7923640E+03  0.7818609E-02  0.9571136E-01
       -1   -1    0    0    0  501  0.00000000000E+00  0.00000000000E+00  0.31147589374E+03  0.31147589378E+03  0.50400001928E-02 0.  1.
        1   -1    0    0  501    0  0.00000000000E+00  0.00000000000E+00 -0.50392394412E+03  0.50392394415E+03  0.50400001928E-02 0. -1.
    10030    2    1    2    0    0  0.00000000000E+00  0.00000000000E+00 -0.19244805038E+03  0.81539983793E+03  0.79236395905E+03 0.  0.
        3    1    3    3  502    0 -0.33148358540E+03 -0.15335012677E+03  0.61739491386E+02  0.37041787722E+03  0.10100000352E+00 0.  1.
       -3    1    3    3    0  502  0.33148358540E+03  0.15335012677E+03 -0.25418754177E+03  0.44498196071E+03  0.10100000352E+00 0. -1.
</event>
<event>
 5   0  0.3467240E-02  0.7892571E+03  0.7818609E-02  0.9575698E-01
        2   -1    0    0  501    0  0.00000000000E+00  0.00000000000E+00  0.73950277042E+03  0.73950277043E+03  0.25500000920E-02 0.  1.
       -2   -1    0    0    0  501  0.00000000000E+00  0.00000000000E+00 -0.21058973918E+03  0.21058973919E+03  0.25500000920E-02 0. -1.
    10030    2    1    2    0    0  0.00000000000E+00  0.00000000000E+00  0.52891303125E+03  0.95009250962E+03  0.78925710780E+03 0.  0.
        2    1    3    3  502    0 -0.31297141034E+03 -0.23050199805E+03  0.34653830537E+03  0.52074088747E+03  0.25500000920E-02 0.  1.
       -2    1    3    3    0  502  0.31297141034E+03  0.23050199805E+03  0.18237472588E+03  0.42935162214E+03  0.25500000920E-02 0. -1.
</event>
<event>
 5   0  0.3416160E-02  0.7966476E+03  0.7818609E-02  0.9564882E-01
        2   -1    0    0  501    0  0.00000000000E+00  0.00000000000E+00  0.50740780103E+03  0.50740780104E+03  0.25500000920E-02 0. -1.
       -2   -1    0    0    0  501  0.00000000000E+00  0.00000000000E+00 -0.31269100504E+03  0.31269100505E+03  0.25500000920E-02 0.  1.
    10030    2    1    2    0    0  0.00000000000E+00  0.00000000000E+00  0.19471679599E+03  0.82009880609E+03  0.79664761414E+03 0.  0.
        1    1    3    3  502    0  0.21585454770E+03 -0.11445415090E+03 -0.22649564890E+03  0.33315644586E+03  0.50400001928E-02 0.  1.
       -1    1    3    3    0  502 -0.21585454770E+03  0.11445415090E+03  0.42121244490E+03  0.48694236023E+03  0.50400001928E-02 0. -1.
</event>
<event>
 5   0  0.3404132E-02  0.7627169E+03  0.7818609E-02  0.9615608E-01
        2   -1    0    0  501    0  0.00000000000E+00  0.00000000000E+00  0.13706467960E+03  0.13706467963E+03  0.25500000920E-02 0. -1.
       -2   -1    0    0    0  501  0.00000000000E+00  0.00000000000E+00 -0.10610630536E+04  0.10610630536E+04  0.25500000920E-02 0.  1.
    10030    2    1    2    0    0  0.00000000000E+00  0.00000000000E+00 -0.92399837403E+03  0.11981277333E+04  0.76271690030E+03 0.  0.
        5    1    3    3  502    0  0.37694707742E+03 -0.43826795755E+02 -0.52082375098E+03  0.64442948162E+03  0.46999998093E+01 0.  1.
       -5    1    3    3    0  502 -0.37694707742E+03  0.43826795755E+02 -0.40317462305E+03  0.55369825164E+03  0.46999998093E+01 0. -1.
</event>
<event>
 5   0  0.2132540E-02  0.8006066E+03  0.7818609E-02  0.9559140E-01
        1   -1    0    0  501    0  0.00000000000E+00  0.00000000000E+00  0.46624906656E+03  0.46624906659E+03  0.50400001928E-02 0.  1.
       -1   -1    0    0    0  501  0.00000000000E+00  0.00000000000E+00 -0.34368479835E+03  0.34368479838E+03  0.50400001928E-02 0. -1.
    10030    2    1    2    0    0  0.00000000000E+00  0.00000000000E+00  0.12256426822E+03  0.80993386497E+03  0.80060656117E+03 0.  0.
        4    1    3    3  502    0  0.14182288861E+01 -0.38328115988E+03 -0.55538924302E+02  0.38728883782E+03  0.12699999809E+01 0. -1.
       -4    1    3    3    0  502 -0.14182288861E+01  0.38328115988E+03  0.17810319252E+03  0.42264502715E+03  0.12699999809E+01 0.  1.
</event>
<event>
 5   0  0.1989298E-02  0.7948318E+03  0.7818609E-02  0.9567528E-01
        1   -1    0    0  501    0  0.00000000000E+00  0.00000000000E+00  0.10998067654E+03  0.10998067665E+03  0.50400001928E-02 0.  1.
       -1   -1    0    0    0  501  0.00000000000E+00  0.00000000000E+00 -0.14360648109E+04  0.14360648109E+04  0.50400001928E-02 0. -1.
    10030    2    1    2    0    0  0.00000000000E+00  0.00000000000E+00 -0.13260841344E+04  0.15460454876E+04  0.79483175465E+03 0.  0.
        1    1    3    3  502    0  0.21852166520E+03  0.25089754788E+03 -0.24028275256E+03  0.41041089032E+03  0.50400001928E-02 0.  1.
       -1    1    3    3    0  502 -0.21852166520E+03 -0.25089754788E+03 -0.10858013818E+04  0.11356345972E+04  0.50400001928E-02 0. -1.
</event>
<event>
 5   0  0.2129257E-02  0.7674643E+03  0.7818609E-02  0.9608343E-01
        1   -1    0    0  501    0  0.00000000000E+00  0.00000000000E+00  0.10403744600E+04  0.10403744600E+04  0.50400001928E-02 0.  1.
       -1   -1    0    0    0  501  0.00000000000E+00  0.00000000000E+00 -0.14153592036E+03  0.14153592045E+03  0.50400001928E-02 0. -1.
    10030    2    1    2    0    0  0.00000000000E+00  0.00000000000E+00  0.89883853962E+03  0.11819103804E+04  0.76746428393E+03 0.  0.
        3    1    3    3  502    0 -0.33162792662E+03  0.18173417155E+03  0.54976851387E+03  0.66727042484E+03  0.10100000352E+00 0. -1.
       -3    1    3    3    0  502  0.33162792662E+03 -0.18173417155E+03  0.34907002576E+03  0.51463995561E+03  0.10100000352E+00 0.  1.
</event>
<event>
 5   0  0.3550586E-02  0.7893706E+03  0.7818609E-02  0.9575531E-01
        2   -1    0    0  501    0  0.00000000000E+00  0.00000000000E+00  0.29844956310E+03  0.29844956311E+03  0.25500000920E-02 0.  1.
       -2   -1    0    0    0  501  0.00000000000E+00  0.00000000000E+00 -0.52195251254E+03  0.52195251254E+03  0.25500000920E-02 0. -1.
    10030    2    1    2    0    0  0.00000000000E+00  0.00000000000E+00 -0.22350294943E+03  0.82040207565E+03  0.78937063369E+03 0.  0.
        3    1    3    3  502    0  0.11174756480E+03 -0.26592344792E+03 -0.39173687748E+03  0.48647773821E+03  0.10100000352E+00 0. -1.
       -3    1    3    3    0  502 -0.11174756480E+03  0.26592344792E+03  0.16823392805E+03  0.33392433745E+03  0.10100000352E+00 0.  1.
</event>
<event>
 5   0  0.3467240E-02  0.7761313E+03  0.7818609E-02  0.9595223E-01
        2   -1    0    0  501    0  0.00000000000E+00  0.00000000000E+00  0.11065821598E+04  0.11065821598E+04  0.25500000920E-02 0.  1.
       -2   -1    0    0    0  501  0.00000000000E+00  0.00000000000E+00 -0.13609017421E+03  0.13609017423E+03  0.25500000920E-02 0. -1.
    10030    2    1    2    0    0  0.00000000000E+00  0.00000000000E+00  0.97049198557E+03  0.12426723340E+04  0.77613132630E+03 0.  0.
        2    1    3    3  502    0 -0.20768834841E+03 -0.32729743737E+03  0.45585802449E+03  0.59838499402E+03  0.25500000920E-02 0.  1.
       -2    1    3    3    0  502  0.20768834841E+03  0.32729743737E+03  0.51463396108E+03  0.64428734000E+03  0.25500000920E-02 0. -1.
</event>
<event>
 5   0  0.1358000E-02  0.7977121E+03  0.7818609E-02  0.9563335E-01
        4   -1    0    0  501    0  0.00000000000E+00  0.00000000000E+00  0.33172385589E+03  0.33172628697E+03  0.12699999809E+01 0. -1.
       -4   -1    0    0    0  501  0.00000000000E+00  0.00000000000E+00 -0.47956899634E+03  0.47957067795E+03  0.12699999809E+01 0.  1.
    10030    2    1    2    0    0  0.00000000000E+00  0.00000000000E+00 -0.14784514045E+03  0.81129696492E+03  0.79771209075E+03 0.  0.
        1    1    3    3  502    0 -0.28436155164E+03 -0.13606455485E+03 -0.32244247320E+03  0.45093702851E+03  0.50400001928E-02 0.  1.
       -1    1    3    3    0  502  0.28436155164E+03  0.13606455485E+03  0.17459733275E+03  0.36035993640E+03  0.50400001928E-02 0. -1.
</event>
<event>
 5   0  0.2063692E-02  0.7981281E+03  0.7818609E-02  0.9562731E-01
        1   -1    0    0  501    0  0.00000000000E+00  0.00000000000E+00  0.41257913223E+03  0.41257913226E+03  0.50400001928E-02 0.  1.
       -1   -1    0    0    0  501  0.00000000000E+00  0.00000000000E+00 -0.38599169042E+03  0.38599169046E+03  0.50400001928E-02 0. -1.
    10030    2    1    2    0    0  0.00000000000E+00  0.00000000000E+00  0.26587441808E+02  0.79857082272E+03  0.79812810177E+03 0.  0.
        2    1    3    3  502    0 -0.17769931105E+02  0.36380656344E+03 -0.14983392202E+03  0.39385427540E+03  0.25500000920E-02 0.  1.
       -2    1    3    3    0  502  0.17769931105E+02 -0.36380656344E+03  0.17642136383E+03  0.40471654732E+03  0.25500000920E-02 0. -1.
</event>
<event>
 5   0  0.3343036E-02  0.8310947E+03  0.7818609E-02  0.9516068E-01
       -2   -1    0    0    0  501  0.00000000000E+00  0.00000000000E+00  0.38460752485E+03  0.38460752486E+03  0.25500000920E-02 0.  1.
        2   -1    0    0  501    0  0.00000000000E+00  0.00000000000E+00 -0.44897610941E+03  0.44897610942E+03  0.25500000920E-02 0. -1.
    10030    2    1    2    0    0  0.00000000000E+00  0.00000000000E+00 -0.64368584560E+02  0.83358363428E+03  0.83109467611E+03 0.  0.
        4    1    3    3  502    0 -0.25946965084E+03 -0.28356233864E+03 -0.19059993852E+03  0.42902453201E+03  0.12699999809E+01 0. -1.
       -4    1    3    3    0  502  0.25946965084E+03  0.28356233864E+03  0.12623135396E+03  0.40455910227E+03  0.12699999809E+01 0.  1.
</event>
<event>
 5   0  0.2129257E-02  0.8730751E+03  0.7818609E-02  0.9459879E-01
        1   -1    0    0  501    0  0.00000000000E+00  0.00000000000E+00  0.10200367567E+04  0.10200367567E+04  0.50400001928E-02 0. -1.
       -1   -1    0    0    0  501  0.00000000000E+00  0.00000000000E+00 -0.18682174668E+03  0.18682174675E+03  0.50400001928E-02 0.  1.
    10030    2    1    2    0    0  0.00000000000E+00  0.00000000000E+00  0.83321501004E+03  0.12068585035E+04  0.87307513678E+03 0.  0.
        3    1    3    3  502    0  0.36415911597E+03  0.24031450897E+03  0.43625930521E+03  0.61699685295E+03  0.10100000352E+00 0.  1.
       -3    1    3    3    0  502 -0.36415911597E+03 -0.24031450897E+03  0.39695570483E+03  0.58986165053E+03  0.10100000352E+00 0. -1.
</event>
<event>
 5   0  0.3416160E-02  0.7349174E+03  0.7818609E-02  0.9659314E-01
       -2   -1    0    0    0  501  0.00000000000E+00  0.00000000000E+00  0.10002208110E+04  0.10002208110E+04  0.25500000920E-02 0.  1.
        2   -1    0    0  501    0  0.00000000000E+00  0.00000000000E+00 -0.13499608239E+03  0.13499608241E+03  0.25500000920E-02 0. -1.
    10030    2    1    2    0    0  0.00000000000E+00  0.00000000000E+00  0.86522472856E+03  0.11352168934E+04  0.73491738588E+03 0.  0.
        1    1    3    3  502    0 -0.20844655180E+02 -0.14793521351E+03  0.95119136752E+03  0.96285219256E+03  0.50400001928E-02 0.  1.
       -1    1    3    3    0  502  0.20844655180E+02  0.14793521351E+03 -0.85966638955E+02  0.17236470081E+03  0.50400001928E-02 0. -1.
</event>
<event>
 5   0  0.1358000E-02  0.7933164E+03  0.7818609E-02  0.9569742E-01
        4   -1    0    0  501    0  0.00000000000E+00  0.00000000000E+00  0.35082466114E+03  0.35082695986E+03  0.12699999809E+01 0.  1.
       -4   -1    0    0    0  501  0.00000000000E+00  0.00000000000E+00 -0.44847495507E+03  0.44847675327E+03  0.12699999809E+01 0. -1.
    10030    2    1    2    0    0  0.00000000000E+00  0.00000000000E+00 -0.97650293929E+02  0.79930371313E+03  0.79331635929E+03 0.  0.
        3    1    3    3  502    0  0.37495707809E+03 -0.98991628711E+02  0.35143796515E+02  0.38939343805E+03  0.10100000352E+00 0. -1.
       -3    1    3    3    0  502 -0.37495707809E+03  0.98991628711E+02 -0.13279409044E+03  0.40991027508E+03  0.10100000352E+00 0.  1.
</event>
<event>
 5   0  0.2132540E-02  0.8161594E+03  0.7818609E-02  0.9536917E-01
       -1   -1    0    0    0  501  0.00000000000E+00  0.00000000000E+00  0.61518334742E+03  0.61518334744E+03  0.50400001928E-02 0.  1.
        1   -1    0    0  501    0  0.00000000000E+00  0.00000000000E+00 -0.27069825493E+03  0.27069825498E+03  0.50400001928E-02 0. -1.
    10030    2    1    2    0    0  0.00000000000E+00  0.00000000000E+00  0.34448509248E+03  0.88588160242E+03  0.81615944187E+03 0.  0.
        4    1    3    3  502    0 -0.17215067365E+03  0.35572785802E+03  0.61820500016E+02  0.40000193816E+03  0.12699999809E+01 0. -1.
       -4    1    3    3    0  502  0.17215067365E+03 -0.35572785802E+03  0.28266459247E+03  0.48587966426E+03  0.12699999809E+01 0.  1.
</event>
<event>
 5   0  0.3343036E-02  0.7834681E+03  0.7818609E-02  0.9584260E-01
        2   -1    0    0  501    0  0.00000000000E+00  0.00000000000E+00  0.63721712170E+03  0.63721712170E+03  0.25500000920E-02 0.  1.
       -2   -1    0    0    0  501  0.00000000000E+00  0.00000000000E+00 -0.24082145507E+03  0.24082145508E+03  0.25500000920E-02 0. -1.
    10030    2    1    2    0    0  0.00000000000E+00  0.00000000000E+00  0.39639566663E+03  0.87803857678E+03  0.78346807070E+03 0.  0.
        4    1    3    3  502    0  0.54275648321E+00  0.31211414076E+03 -0.67100913003E+02  0.31924861296E+03  0.12699999809E+01 0. -1.
       -4    1    3    3    0  502 -0.54275648321E+00 -0.31211414076E+03  0.46349657963E+03  0.55878996383E+03  0.12699999809E+01 0.  1.
</event>
<event>
 5   0  0.3467240E-02  0.6880436E+03  0.7818609E-02  0.9737901E-01
        2   -1    0    0  501    0  0.00000000000E+00  0.00000000000E+00  0.13255564523E+03  0.13255564525E+03  0.25500000920E-02 0. -1.
       -2   -1    0    0    0  501  0.00000000000E+00  0.00000000000E+00 -0.89284013646E+03  0.89284013646E+03  0.25500000920E-02 0.  1.
    10030    2    1    2    0    0  0.00000000000E+00  0.00000000000E+00 -0.76028449123E+03  0.10253957817E+04  0.68804360440E+03 0.  0.
        2    1    3    3  502    0  0.26952765594E+03  0.79803954092E+02 -0.67572366579E+03  0.73185811529E+03  0.25500000920E-02 0.  1.
       -2    1    3    3    0  502 -0.26952765594E+03 -0.79803954092E+02 -0.84560825443E+02  0.29353766643E+03  0.25500000920E-02 0. -1.
</event>
<event>
 5   0  0.2077795E-02  0.7577507E+03  0.7818609E-02  0.9623269E-01
       -1   -1    0    0    0  501  0.00000000000E+00  0.00000000000E+00  0.35726576555E+03  0.35726576558E+03  0.50400001928E-02 0. -1.
        1   -1    0    0  501    0  0.00000000000E+00  0.00000000000E+00 -0.40179202177E+03  0.40179202180E+03  0.50400001928E-02 0.  1.
    10030    2    1    2    0    0  0.00000000000E+00  0.00000000000E+00 -0.44526256220E+02  0.75905778738E+03  0.75775070907E+03 0.  0.
        5    1    3    3  502    0 -0.19695331909E+03  0.14374010005E+03 -0.31271606655E+03  0.39656683490E+03  0.46999998093E+01 0.  1.
       -5    1    3    3    0  502  0.19695331909E+03 -0.14374010005E+03  0.26818981033E+03  0.36249095248E+03  0.46999998093E+01 0. -1.
</event>
<event>
 5   0  0.3404132E-02  0.8060361E+03  0.7818609E-02  0.9551321E-01
       -2   -1    0    0    0  501  0.00000000000E+00  0.00000000000E+00  0.73823549416E+02  0.73823549460E+02  0.25500000920E-02 0.  1.
        2   -1    0    0  501    0  0.00000000000E+00  0.00000000000E+00 -0.22001591169E+04  0.22001591169E+04  0.25500000920E-02 0. -1.
    10030    2    1    2    0    0  0.00000000000E+00  0.00000000000E+00 -0.21263355675E+04  0.22739826664E+04  0.80603611666E+03 0.  0.
        5    1    3    3  502    0 -0.33790767206E+03  0.21505377565E+03 -0.11884409116E+04  0.12541306199E+04  0.46999998093E+01 0. -1.
       -5    1    3    3    0  502  0.33790767206E+03 -0.21505377565E+03 -0.93789465586E+03  0.10198520465E+04  0.46999998093E+01 0.  1.
</event>
<event>
 5   0  0.3467240E-02  0.8036182E+03  0.7818609E-02  0.9554795E-01
        2   -1    0    0  501    0  0.00000000000E+00  0.00000000000E+00  0.74024673058E+03  0.74024673059E+03  0.25500000920E-02 0.  1.
       -2   -1    0    0    0  501  0.00000000000E+00  0.00000000000E+00 -0.21810370216E+03  0.21810370217E+03  0.25500000920E-02 0. -1.
    10030    2    1    2    0    0  0.00000000000E+00  0.00000000000E+00  0.52214302842E+03  0.95835043276E+03  0.80361819905E+03 0.  0.
        2    1    3    3  502    0 -0.87344396900E+02  0.30002649871E+03 -0.40162499534E+02  0.31505232894E+03  0.25500000920E-02 0. -1.
       -2    1    3    3    0  502  0.87344396900E+02 -0.30002649871E+03  0.56230552796E+03  0.64329810382E+03  0.25500000920E-02 0.  1.
</event>
<event>
 5   0  0.1358000E-02  0.7993301E+03  0.7818609E-02  0.9560987E-01
       -4   -1    0    0    0  501  0.00000000000E+00  0.00000000000E+00  0.15889983546E+03  0.15890491059E+03  0.12699999809E+01 0.  1.
        4   -1    0    0  501    0  0.00000000000E+00  0.00000000000E+00 -0.10052164362E+04  0.10052172384E+04  0.12699999809E+01 0. -1.
    10030    2    1    2    0    0  0.00000000000E+00  0.00000000000E+00 -0.84631660069E+03  0.11641221490E+04  0.79933008777E+03 0.  0.
        2    1    3    3  502    0 -0.26982185371E+03 -0.21729597397E+03 -0.71337778664E+03  0.79305059077E+03  0.25500000920E-02 0. -1.
       -2    1    3    3    0  502  0.26982185371E+03  0.21729597397E+03 -0.13293881405E+03  0.37107155824E+03  0.25500000920E-02 0.  1.
</event>
<event>
 5   0  0.2129257E-02  0.7996222E+03  0.7818609E-02  0.9560564E-01
       -1   -1    0    0    0  501  0.00000000000E+00  0.00000000000E+00  0.95722510636E+02  0.95722510769E+02  0.50400001928E-02 0.  1.
        1   -1    0    0  501    0  0.00000000000E+00  0.00000000000E+00 -0.16699199044E+04  0.16699199044E+04  0.50400001928E-02 0. -1.
    10030    2    1    2    0    0  0.00000000000E+00  0.00000000000E+00 -0.15741973938E+04  0.17656424152E+04  0.79962222565E+03 0.  0.
        3    1    3    3  502    0 -0.25892807154E+02 -0.16612031509E+03  0.13872676330E+02  0.16869753376E+03  0.10100000352E+00 0.  1.
       -3    1    3    3    0  502  0.25892807154E+02  0.16612031509E+03 -0.15880700701E+04  0.15969448815E+04  0.10100000352E+00 0. -1.
</event>
<event>
 5   0  0.3416160E-02  0.8105585E+03  0.7818609E-02  0.9544859E-01
        2   -1    0    0  501    0  0.00000000000E+00  0.00000000000E+00  0.31808994063E+03  0.31808994064E+03  0.25500000920E-02 0. -1.
       -2   -1    0    0    0  501  0.00000000000E+00  0.00000000000E+00 -0.51636738337E+03  0.51636738337E+03  0.25500000920E-02 0.  1.
    10030    2    1    2    0    0  0.00000000000E+00  0.00000000000E+00 -0.19827744273E+03  0.83445732402E+03  0.81055849962E+03 0.  0.
        1    1    3    3  502    0  0.39513551486E+03 -0.40013458594E+02 -0.16023438573E+02  0.39747943667E+03  0.50400001928E-02 0. -1.
       -1    1    3    3    0  502 -0.39513551486E+03  0.40013458594E+02 -0.18225400416E+03  0.43697788734E+03  0.50400001928E-02 0.  1.
</event>
<event>
 5   0  0.2129257E-02  0.8114908E+03  0.7818609E-02  0.9543532E-01
       -1   -1    0    0    0  501  0.00000000000E+00  0.00000000000E+00  0.25863003968E+03  0.25863003973E+03  0.50400001928E-02 0. -1.
        1   -1    0    0  501    0  0.00000000000E+00  0.00000000000E+00 -0.63654373620E+03  0.63654373622E+03  0.50400001928E-02 0.  1.
    10030    2    1    2    0    0  0.00000000000E+00  0.00000000000E+00 -0.37791369652E+03  0.89517377595E+03  0.81149080532E+03 0.  0.
        3    1    3    3  502    0 -0.15858315933E+02 -0.37516701949E+03 -0.19393092387E+02  0.37600250123E+03  0.10100000352E+00 0. -1.
       -3    1    3    3    0  502  0.15858315933E+02  0.37516701949E+03 -0.35852060414E+03  0.51917127472E+03  0.10100000352E+00 0.  1.
</event>
<event>
 5   0  0.3467240E-02  0.8041952E+03  0.7818609E-02  0.9553965E-01
       -2   -1    0    0    0  501  0.00000000000E+00  0.00000000000E+00  0.15647510981E+03  0.15647510984E+03  0.25500000920E-02 0. -1.
        2   -1    0    0  501    0  0.00000000000E+00  0.00000000000E+00 -0.10332792286E+04  0.10332792286E+04  0.25500000920E-02 0.  1.
    10030    2    1    2    0    0  0.00000000000E+00  0.00000000000E+00 -0.87680411883E+03  0.11897543385E+04  0.80419520214E+03 0.  0.
        2    1    3    3  502    0  0.32408192011E+03 -0.16893439841E+03 -0.68646475359E+03  0.77769002812E+03  0.25500000920E-02 0. -1.
       -2    1    3    3    0  502 -0.32408192011E+03  0.16893439841E+03 -0.19033936524E+03  0.41206431036E+03  0.25500000920E-02 0.  1.
</event>
<event>
 5   0  0.3550586E-02  0.8035481E+03  0.7818609E-02  0.9554896E-01
       -2   -1    0    0    0  501  0.00000000000E+00  0.00000000000E+00  0.25504191006E+03  0.25504191007E+03  0.25500000920E-02 0.  1.
        2   -1    0    0  501    0  0.00000000000E+00  0.00000000000E+00 -0.63292491447E+03  0.63292491447E+03  0.25500000920E-02 0. -1.
    10030    2    1    2    0    0  0.00000000000E+00  0.00000000000E+00 -0.37788300441E+03  0.88796682454E+03  0.80354807975E+03 0.  0.
        3    1    3    3  502    0  0.31723873660E+03  0.65362602009E+02  0.73750172337E+02  0.33219238983E+03  0.10100000352E+00 0.  1.
       -3    1    3    3    0  502 -0.31723873660E+03 -0.65362602009E+02 -0.45163317674E+03  0.55577443471E+03  0.10100000352E+00 0. -1.
</event>
<event>
 5   0  0.3416160E-02  0.7953811E+03  0.7818609E-02  0.9566727E-01
       -2   -1    0    0    0  501  0.00000000000E+00  0.00000000000E+00  0.47430400929E+03  0.47430400929E+03  0.25500000920E-02 0. -1.
        2   -1    0    0  501    0  0.00000000000E+00  0.00000000000E+00 -0.33345233185E+03  0.33345233186E+03  0.25500000920E-02 0.  1.
    10030    2    1    2    0    0  0.00000000000E+00  0.00000000000E+00  0.14085167744E+03  0.80775634115E+03  0.79538111093E+03 0.  0.
        1    1    3    3  502    0 -0.25935296284E+03 -0.29101214470E+03 -0.95764198009E+01  0.38992785940E+03  0.50400001928E-02 0. -1.
       -1    1    3    3    0  502  0.25935296284E+03  0.29101214470E+03  0.15042809724E+03  0.41782848175E+03  0.50400001928E-02 0.  1.
</event>
<event>
 5   0  0.3404132E-02  0.8242880E+03  0.7818609E-02  0.9525512E-01
       -2   -1    0    0    0  501  0.00000000000E+00  0.00000000000E+00  0.20236231307E+03  0.20236231309E+03  0.25500000920E-02 0. -1.
        2   -1    0    0  501    0  0.00000000000E+00  0.00000000000E+00 -0.83939886445E+03  0.83939886445E+03  0.25500000920E-02 0.  1.
    10030    2    1    2    0    0  0.00000000000E+00  0.00000000000E+00 -0.63703655138E+03  0.10417611775E+04  0.82428804627E+03 0.  0.
        5    1    3    3  502    0  0.21144812199E+03 -0.34525101572E+03 -0.22117835894E+03  0.46135726787E+03  0.46999998093E+01 0. -1.
       -5    1    3    3    0  502 -0.21144812199E+03  0.34525101572E+03 -0.41585819243E+03  0.58040390967E+03  0.46999998093E+01 0.  1.
</event>
<event>
 5   0  0.2132540E-02  0.8064706E+03  0.7818609E-02  0.9550698E-01
       -1   -1    0    0    0  501  0.00000000000E+00  0.00000000000E+00  0.26106323772E+03  0.26106323777E+03  0.50400001928E-02 0.  1.
        1   -1    0    0  501    0  0.00000000000E+00  0.00000000000E+00 -0.62283261525E+03  0.62283261527E+03  0.50400001928E-02 0. -1.
    10030    2    1    2    0    0  0.00000000000E+00  0.00000000000E+00 -0.36176937753E+03  0.88389585304E+03  0.80647058006E+03 0.  0.
        4    1    3    3  502    0  0.19489954813E+03  0.25195482717E+03 -0.45186630400E+03  0.55285788263E+03  0.12699999809E+01 0. -1.
       -4    1    3    3    0  502 -0.19489954813E+03 -0.25195482717E+03  0.90096926468E+02  0.33103797041E+03  0.12699999809E+01 0.  1.
</event>
<event>
 5   0  0.2077795E-02  0.4955458E+03  0.7818609E-02  0.1014948E+00
        1   -1    0    0  501    0  0.00000000000E+00  0.00000000000E+00  0.10633306960E+04  0.10633306960E+04  0.50400001928E-02 0. -1.
       -1   -1    0    0    0  501  0.00000000000E+00  0.00000000000E+00 -0.57735011010E+02  0.57735011230E+02  0.50400001928E-02 0.  1.
    10030    2    1    2    0    0  0.00000000000E+00  0.00000000000E+00  0.10055956850E+04  0.11210657073E+04  0.49554579838E+03 0.  0.
        5    1    3    3  502    0  0.98669418341E+02 -0.17578336788E+03  0.17704554521E+03  0.26833311688E+03  0.46999998093E+01 0.  1.
       -5    1    3    3    0  502 -0.98669418341E+02  0.17578336788E+03  0.82855013981E+03  0.85273259039E+03  0.46999998093E+01 0. -1.
</event>
<event>
 5   0  0.1358000E-02  0.7974347E+03  0.7818609E-02  0.9563738E-01
        3   -1    0    0  501    0  0.00000000000E+00  0.00000000000E+00  0.79332623286E+03  0.79332623929E+03  0.10100000352E+00 0. -1.
       -3   -1    0    0    0  501  0.00000000000E+00  0.00000000000E+00 -0.20039109868E+03  0.20039112413E+03  0.10100000352E+00 0.  1.
    10030    2    1    2    0    0  0.00000000000E+00  0.00000000000E+00  0.59293513418E+03  0.99371736342E+03  0.79743471521E+03 0.  0.
        1    1    3    3  502    0  0.40541886723E+02 -0.28331396579E+03 -0.49469075962E+02  0.29044386255E+03  0.50400001928E-02 0.  1.
       -1    1    3    3    0  502 -0.40541886723E+02  0.28331396579E+03  0.64240421015E+03  0.70327350087E+03  0.50400001928E-02 0. -1.
</event>
<event>
 5   0  0.3343036E-02  0.7628785E+03  0.7818609E-02  0.9615360E-01
        2   -1    0    0  501    0  0.00000000000E+00  0.00000000000E+00  0.64497624669E+03  0.64497624670E+03  0.25500000920E-02 0. -1.
       -2   -1    0    0    0  501  0.00000000000E+00  0.00000000000E+00 -0.22558336665E+03  0.22558336667E+03  0.25500000920E-02 0.  1.
    10030    2    1    2    0    0  0.00000000000E+00  0.00000000000E+00  0.41939288004E+03  0.87055961336E+03  0.76287853069E+03 0.  0.
        4    1    3    3  502    0  0.33886557899E+03 -0.77144965912E+01  0.10060536858E+02  0.33910503002E+03  0.12699999809E+01 0.  1.
       -4    1    3    3    0  502 -0.33886557899E+03  0.77144965912E+01  0.40933234318E+03  0.53145458334E+03  0.12699999809E+01 0. -1.
</event>
<event>
 5   0  0.2132540E-02  0.7995645E+03  0.7818609E-02  0.9560648E-01
       -1   -1    0    0    0  501  0.00000000000E+00  0.00000000000E+00  0.14343475999E+03  0.14343476008E+03  0.50400001928E-02 0. -1.
        1   -1    0    0  501    0  0.00000000000E+00  0.00000000000E+00 -0.11142756888E+04  0.11142756888E+04  0.50400001928E-02 0.  1.
    10030    2    1    2    0    0  0.00000000000E+00  0.00000000000E+00 -0.97084092884E+03  0.12577104489E+04  0.79956454661E+03 0.  0.
        4    1    3    3  502    0  0.36792841947E+03 -0.12025997113E+02 -0.73066791060E+03  0.81816450359E+03  0.12699999809E+01 0. -1.
       -4    1    3    3    0  502 -0.36792841947E+03  0.12025997113E+02 -0.24017301824E+03  0.43954594532E+03  0.12699999809E+01 0.  1.
</event>
<event>
 5   0  0.1358000E-02  0.7996123E+03  0.7818609E-02  0.9560578E-01
       -3   -1    0    0    0  501  0.00000000000E+00  0.00000000000E+00  0.52792666950E+03  0.52792667916E+03  0.10100000352E+00 0.  1.
        3   -1    0    0  501    0  0.00000000000E+00  0.00000000000E+00 -0.30277870935E+03  0.30277872620E+03  0.10100000352E+00 0. -1.
    10030    2    1    2    0    0  0.00000000000E+00  0.00000000000E+00  0.22514796015E+03  0.83070540536E+03  0.79961232265E+03 0.  0.
        3    1    3    3  502    0 -0.32960353054E+03  0.15878610568E+03 -0.54920096071E+02  0.36995640534E+03  0.10100000352E+00 0. -1.
       -3    1    3    3    0  502  0.32960353054E+03 -0.15878610568E+03  0.28006805622E+03  0.46074900002E+03  0.10100000352E+00 0.  1.
</event>
<event>
 5   0  0.1989298E-02  0.8091331E+03  0.7818609E-02  0.9546891E-01
       -1   -1    0    0    0  501  0.00000000000E+00  0.00000000000E+00  0.11591757188E+03  0.11591757199E+03  0.50400001928E-02 0. -1.
        1   -1    0    0  501    0  0.00000000000E+00  0.00000000000E+00 -0.14119870104E+04  0.14119870104E+04  0.50400001928E-02 0.  1.
    10030    2    1    2    0    0  0.00000000000E+00  0.00000000000E+00 -0.12960694385E+04  0.15279045824E+04  0.80913313087E+03 0.  0.
        1    1    3    3  502    0 -0.47059145752E+02 -0.39968612452E+03 -0.56993608516E+03  0.69770387883E+03  0.50400001928E-02 0. -1.
       -1    1    3    3    0  502  0.47059145752E+02  0.39968612452E+03 -0.72613335338E+03  0.83020070359E+03  0.50400001928E-02 0.  1.
</event>
<event>
 5   0  0.3416160E-02  0.7963200E+03  0.7818609E-02  0.9565359E-01
        2   -1    0    0  501    0  0.00000000000E+00  0.00000000000E+00  0.12922757375E+04  0.12922757375E+04  0.25500000920E-02 0. -1.
       -2   -1    0    0    0  501  0.00000000000E+00  0.00000000000E+00 -0.12267614291E+03  0.12267614294E+03  0.25500000920E-02 0.  1.
    10030    2    1    2    0    0  0.00000000000E+00  0.00000000000E+00  0.11695995946E+04  0.14149518804E+04  0.79632004389E+03 0.  0.
        1    1    3    3  502    0 -0.37906097662E+03  0.88804873562E+02  0.43658475330E+03  0.58496134608E+03  0.50400001928E-02 0.  1.
       -1    1    3    3    0  502  0.37906097662E+03 -0.88804873562E+02  0.73301484125E+03  0.82999053433E+03  0.50400001928E-02 0. -1.
</event>
<event>
 5   0  0.2077795E-02  0.7937642E+03  0.7818609E-02  0.9569087E-01
       -1   -1    0    0    0  501  0.00000000000E+00  0.00000000000E+00  0.21383369221E+03  0.21383369227E+03  0.50400001928E-02 0. -1.
        1   -1    0    0  501    0  0.00000000000E+00  0.00000000000E+00 -0.73662581944E+03  0.73662581946E+03  0.50400001928E-02 0.  1.
    10030    2    1    2    0    0  0.00000000000E+00  0.00000000000E+00 -0.52279212723E+03  0.95045951173E+03  0.79376424405E+03 0.  0.
        5    1    3    3  502    0 -0.67532561635E+02 -0.36929469337E+02  0.20477695480E+03  0.21881527324E+03  0.46999998093E+01 0. -1.
       -5    1    3    3    0  502  0.67532561635E+02  0.36929469337E+02 -0.72756908203E+03  0.73164423849E+03  0.46999998093E+01 0.  1.
</event>
<event>
 5   0  0.3343036E-02  0.8073357E+03  0.7818609E-02  0.9549459E-01
        2   -1    0    0  501    0  0.00000000000E+00  0.00000000000E+00  0.55394073075E+03  0.55394073075E+03  0.25500000920E-02 0. -1.
       -2   -1    0    0    0  501  0.00000000000E+00  0.00000000000E+00 -0.29416092441E+03  0.29416092443E+03  0.25500000920E-02 0.  1.
    10030    2    1    2    0    0  0.00000000000E+00  0.00000000000E+00  0.25977980633E+03  0.84810165518E+03  0.80733566113E+03 0.  0.
        4    1    3    3  502    0  0.19815670088E+03 -0.17660121736E+03  0.44937157274E+03  0.52191042466E+03  0.12699999809E+01 0. -1.
       -4    1    3    3    0  502 -0.19815670088E+03  0.17660121736E+03 -0.18959176641E+03  0.32619123052E+03  0.12699999809E+01 0.  1.
</event>
<event>
 5   0  0.3416160E-02  0.7925380E+03  0.7818609E-02  0.9570881E-01
       -2   -1    0    0    0  501  0.00000000000E+00  0.00000000000E+00  0.21786621133E+03  0.21786621135E+03  0.25500000920E-02 0.  1.
        2   -1    0    0  501    0  0.00000000000E+00  0.00000000000E+00 -0.72075939444E+03  0.72075939445E+03  0.25500000920E-02 0. -1.
    10030    2    1    2    0    0  0.00000000000E+00  0.00000000000E+00 -0.50289318311E+03  0.93862560580E+03  0.79253799545E+03 0.  0.
        1    1    3    3  502    0 -0.24201548696E+03 -0.25276085022E+03 -0.31245571242E+02  0.35133435511E+03  0.50400001928E-02 0.  1.
       -1    1    3    3    0  502  0.24201548696E+03  0.25276085022E+03 -0.47164761186E+03  0.58729125069E+03  0.50400001928E-02 0. -1.
</event>
<event>
 5   0  0.3550586E-02  0.7941354E+03  0.7818609E-02  0.9568545E-01
        2   -1    0    0  501    0  0.00000000000E+00  0.00000000000E+00  0.10327790729E+04  0.10327790730E+04  0.25500000920E-02 0. -1.
       -2   -1    0    0    0  501  0.00000000000E+00  0.00000000000E+00 -0.15265873614E+03  0.15265873616E+03  0.25500000920E-02 0.  1.
    10030    2    1    2    0    0  0.00000000000E+00  0.00000000000E+00  0.88012033681E+03  0.11854378091E+04  0.79413537385E+03 0.  0.
        3    1    3    3  502    0  0.33804697582E+03  0.20829211428E+03  0.43830973118E+03  0.59141930420E+03  0.10100000352E+00 0.  1.
       -3    1    3    3    0  502 -0.33804697582E+03 -0.20829211428E+03  0.44181060563E+03  0.59401850491E+03  0.10100000352E+00 0. -1.
</event>
<event>
 5   0  0.3467240E-02  0.7785707E+03  0.7818609E-02  0.9591564E-01
        2   -1    0    0  501    0  0.00000000000E+00  0.00000000000E+00  0.29465631584E+03  0.29465631585E+03  0.25500000920E-02 0.  1.
       -2   -1    0    0    0  501  0.00000000000E+00  0.00000000000E+00 -0.51430457475E+03  0.51430457475E+03  0.25500000920E-02 0. -1.
    10030    2    1    2    0    0  0.00000000000E+00  0.00000000000E+00 -0.21964825891E+03  0.80896089060E+03  0.77857071925E+03 0.  0.
        2    1    3    3  502    0  0.16126677710E+03 -0.33207299780E+03  0.18544393593E+02  0.36962595120E+03  0.25500000920E-02 0.  1.
       -2    1    3    3    0  502 -0.16126677710E+03  0.33207299780E+03 -0.23819265250E+03  0.43933493940E+03  0.25500000920E-02 0. -1.
</event>
<event>
 5   0  0.3416160E-02  0.7834785E+03  0.7818609E-02  0.9584244E-01
        2   -1    0    0  501    0  0.00000000000E+00  0.00000000000E+00  0.89546821658E+03  0.89546821658E+03  0.25500000920E-02 0.  1.
       -2   -1    0    0    0  501  0.00000000000E+00  0.00000000000E+00 -0.17137361173E+03  0.17137361174E+03  0.25500000920E-02 0. -1.
    10030    2    1    2    0    0  0.00000000000E+00  0.00000000000E+00  0.72409460485E+03  0.10668418283E+04  0.78347845528E+03 0.  0.
        1    1    3    3  502    0 -0.16185649891E+02 -0.38297099990E+03  0.25200537778E+03  0.45873246286E+03  0.50400001928E-02 0. -1.
       -1    1    3    3    0  502  0.16185649891E+02  0.38297099990E+03  0.47208922707E+03  0.60810936547E+03  0.50400001928E-02 0.  1.
</event>
<event>
 5   0  0.3404132E-02  0.8075946E+03  0.7818609E-02  0.9549089E-01
       -2   -1    0    0    0  501  0.00000000000E+00  0.00000000000E+00  0.12127856211E+03  0.12127856214E+03  0.25500000920E-02 0. -1.
        2   -1    0    0  501    0  0.00000000000E+00  0.00000000000E+00 -0.13444442837E+04  0.13444442837E+04  0.25500000920E-02 0.  1.
    10030    2    1    2    0    0  0.00000000000E+00  0.00000000000E+00 -0.12231657216E+04  0.14657228459E+04  0.80759462502E+03 0.  0.
        5    1    3    3  502    0  0.21721421908E+02  0.33834986023E+03 -0.10095346130E+04  0.10649575921E+04  0.46999998093E+01 0.  1.
       -5    1    3    3    0  502 -0.21721421908E+02 -0.33834986023E+03 -0.21363110864E+03  0.40076525381E+03  0.46999998093E+01 0. -1.
</event>
<event>
 5   0  0.3467240E-02  0.7983699E+03  0.7818609E-02  0.9562380E-01
        2   -1    0    0  501    0  0.00000000000E+00  0.00000000000E+00  0.59325996276E+03  0.59325996277E+03  0.25500000920E-02 0. -1.
       -2   -1    0    0    0  501  0.00000000000E+00  0.00000000000E+00 -0.26859834300E+03  0.26859834301E+03  0.25500000920E-02 0.  1.
    10030    2    1    2    0    0  0.00000000000E+00  0.00000000000E+00  0.32466161976E+03  0.86185830578E+03  0.79836994676E+03 0.  0.
        2    1    3    3  502    0 -0.69432340958E+02  0.69764492203E+02 -0.25529332556E+03  0.27361033684E+03  0.25500000920E-02 0.  1.
       -2    1    3    3    0  502  0.69432340958E+02 -0.69764492203E+02  0.57995494532E+03  0.58824796894E+03  0.25500000920E-02 0. -1.
</event>
<event>
 5   0  0.2129257E-02  0.8003026E+03  0.7818609E-02  0.9559579E-01
        1   -1    0    0  501    0  0.00000000000E+00  0.00000000000E+00  0.51275378066E+03  0.51275378068E+03  0.50400001928E-02 0. -1.
       -1   -1    0    0    0  501  0.00000000000E+00  0.00000000000E+00 -0.31227667490E+03  0.31227667494E+03  0.50400001928E-02 0.  1.
    10030    2    1    2    0    0  0.00000000000E+00  0.00000000000E+00  0.20047710576E+03  0.82503045562E+03  0.80030255702E+03 0.  0.
        3    1    3    3  502    0 -0.58095228223E+02 -0.39200787524E+03  0.15741211152E+03  0.42640803563E+03  0.10100000352E+00 0. -1.
       -3    1    3    3    0  502  0.58095228223E+02  0.39200787524E+03  0.43064994235E+02  0.39862242000E+03  0.10100000352E+00 0.  1.
</event>
<event>
 5   0  0.1989298E-02  0.7938971E+03  0.7818609E-02  0.9568893E-01
        1   -1    0    0  501    0  0.00000000000E+00  0.00000000000E+00  0.18558760612E+03  0.18558760618E+03  0.50400001928E-02 0.  1.
       -1   -1    0    0    0  501  0.00000000000E+00  0.00000000000E+00 -0.84902301595E+03  0.84902301597E+03  0.50400001928E-02 0. -1.
    10030    2    1    2    0    0  0.00000000000E+00  0.00000000000E+00 -0.66343540984E+03  0.10346106222E+04  0.79389709437E+03 0.  0.
        1    1    3    3  502    0  0.79198904143E+02  0.15070465633E+03  0.13559310829E+03  0.21764615985E+03  0.50400001928E-02 0.  1.
       -1    1    3    3    0  502 -0.79198904143E+02 -0.15070465633E+03 -0.79902851812E+03  0.81696446230E+03  0.50400001928E-02 0. -1.
</event>
<event>
 5   0  0.3467240E-02  0.8025340E+03  0.7818609E-02  0.9556356E-01
        2   -1    0    0  501    0  0.00000000000E+00  0.00000000000E+00  0.10992723019E+04  0.10992723019E+04  0.25500000920E-02 0.  1.
       -2   -1    0    0    0  501  0.00000000000E+00  0.00000000000E+00 -0.14647437101E+03  0.14647437104E+03  0.25500000920E-02 0. -1.
    10030    2    1    2    0    0  0.00000000000E+00  0.00000000000E+00  0.95279793092E+03  0.12457466730E+04  0.80253403421E+03 0.  0.
        2    1    3    3  502    0  0.35145760934E+02  0.24060932303E+03 -0.19080864620E+02  0.24391012739E+03  0.25500000920E-02 0. -1.
       -2    1    3    3    0  502 -0.35145760934E+02 -0.24060932303E+03  0.97187879554E+03  0.10018365456E+04  0.25500000920E-02 0.  1.
</event>
<event>
 5   0  0.3404132E-02  0.7753469E+03  0.7818609E-02  0.9596403E-01
        2   -1    0    0  501    0  0.00000000000E+00  0.00000000000E+00  0.77389274771E+03  0.77389274772E+03  0.25500000920E-02 0. -1.
       -2   -1    0    0    0  501  0.00000000000E+00  0.00000000000E+00 -0.19420092747E+03  0.19420092749E+03  0.25500000920E-02 0.  1.
    10030    2    1    2    0    0  0.00000000000E+00  0.00000000000E+00  0.57969182024E+03  0.96809367521E+03  0.77534686272E+03 0.  0.
        5    1    3    3  502    0 -0.23399639240E+02 -0.26244238937E+03 -0.65170200580E+02  0.27146417056E+03  0.46999998093E+01 0.  1.
       -5    1    3    3    0  502  0.23399639240E+02  0.26244238937E+03  0.64486202082E+03  0.69662950465E+03  0.46999998093E+01 0. -1.
</event>
<event>
 5   0  0.3404132E-02  0.8159174E+03  0.7818609E-02  0.9537259E-01
       -2   -1    0    0    0  501  0.00000000000E+00  0.00000000000E+00  0.44595525790E+03  0.44595525791E+03  0.25500000920E-02 0.  1.
        2   -1    0    0  501    0  0.00000000000E+00  0.00000000000E+00 -0.37319951061E+03  0.37319951062E+03  0.25500000920E-02 0. -1.
    10030    2    1    2    0    0  0.00000000000E+00  0.00000000000E+00  0.72755747292E+02  0.81915476852E+03  0.81591735858E+03 0.  0.
        5    1    3    3  502    0 -0.39487900578E+03 -0.63449680976E+02 -0.44270822813E+02  0.40241432252E+03  0.46999998093E+01 0.  1.
       -5    1    3    3    0  502  0.39487900578E+03  0.63449680976E+02  0.11702657011E+03  0.41674044600E+03  0.46999998093E+01 0. -1.
</event>
<event>
 5   0  0.2132540E-02  0.7925076E+03  0.7818609E-02  0.9570926E-01
        1   -1    0    0  501    0  0.00000000000E+00  0.00000000000E+00  0.76394960186E+03  0.76394960187E+03  0.50400001928E-02 0.  1.
       -1   -1    0    0    0  501  0.00000000000E+00  0.00000000000E+00 -0.20553329329E+03  0.20553329335E+03  0.50400001928E-02 0. -1.
    10030    2    1    2    0    0  0.00000000000E+00  0.00000000000E+00  0.55841630857E+03  0.96948289523E+03  0.79250760909E+03 0.  0.
        4    1    3    3  502    0  0.23289674326E+03  0.13669967208E+02 -0.11260982888E+03  0.25905664918E+03  0.12699999809E+01 0. -1.
       -4    1    3    3    0  502 -0.23289674326E+03 -0.13669967208E+02  0.67102613745E+03  0.71042624604E+03  0.12699999809E+01 0.  1.
</event>
<event>
 5   0  0.2077795E-02  0.7819765E+03  0.7818609E-02  0.9586478E-01
        1   -1    0    0  501    0  0.00000000000E+00  0.00000000000E+00  0.27854656109E+03  0.27854656114E+03  0.50400001928E-02 0.  1.
       -1   -1    0    0    0  501  0.00000000000E+00  0.00000000000E+00 -0.54881959386E+03  0.54881959389E+03  0.50400001928E-02 0. -1.
    10030    2    1    2    0    0  0.00000000000E+00  0.00000000000E+00 -0.27027303277E+03  0.82736615503E+03  0.78197649724E+03 0.  0.
        5    1    3    3  502    0 -0.18676015806E+03  0.34290465425E+03 -0.11432872632E+03  0.40688586386E+03  0.46999998093E+01 0. -1.
       -5    1    3    3    0  502  0.18676015806E+03 -0.34290465425E+03 -0.15594430645E+03  0.42048029117E+03  0.46999998093E+01 0.  1.
</event>
<event>
 5   0  0.3416160E-02  0.7877658E+03  0.7818609E-02  0.9577896E-01
        2   -1    0    0  501    0  0.00000000000E+00  0.00000000000E+00  0.72186332988E+03  0.72186332988E+03  0.25500000920E-02 0.  1.
       -2   -1    0    0    0  501  0.00000000000E+00  0.00000000000E+00 -0.21492123397E+03  0.21492123398E+03  0.25500000920E-02 0. -1.
    10030    2    1    2    0    0  0.00000000000E+00  0.00000000000E+00  0.50694209591E+03  0.93678456386E+03  0.78776584750E+03 0.  0.
        1    1    3    3  502    0 -0.32148428674E+03  0.40691456214E+02  0.51973760506E+03  0.61248275026E+03  0.50400001928E-02 0.  1.
       -1    1    3    3    0  502  0.32148428674E+03 -0.40691456214E+02 -0.12795509145E+02  0.32430181361E+03  0.50400001928E-02 0. -1.
</event>
<event>
 5   0  0.3343036E-02  0.8043371E+03  0.7818609E-02  0.9553760E-01
       -2   -1    0    0    0  501  0.00000000000E+00  0.00000000000E+00  0.19084441864E+03  0.19084441866E+03  0.25500000920E-02 0. -1.
        2   -1    0    0  501    0  0.00000000000E+00  0.00000000000E+00 -0.84749424753E+03  0.84749424754E+03  0.25500000920E-02 0.  1.
    10030    2    1    2    0    0  0.00000000000E+00  0.00000000000E+00 -0.65664982889E+03  0.10383386662E+04  0.80433711088E+03 0.  0.
        4    1    3    3  502    0  0.19331435645E+01  0.21038605857E+03  0.11412887885E+03  0.23935965528E+03  0.12699999809E+01 0. -1.
       -4    1    3    3    0  502 -0.19331435645E+01 -0.21038605857E+03 -0.77077870774E+03  0.79897901092E+03  0.12699999809E+01 0.  1.
</event>
<event>
 5   0  0.3467240E-02  0.8031363E+03  0.7818609E-02  0.9555488E-01
        2   -1    0    0  501    0  0.00000000000E+00  0.00000000000E+00  0.51492267446E+03  0.51492267447E+03  0.25500000920E-02 0.  1.
       -2   -1    0    0    0  501  0.00000000000E+00  0.00000000000E+00 -0.31316737993E+03  0.31316737994E+03  0.25500000920E-02 0. -1.
    10030    2    1    2    0    0  0.00000000000E+00  0.00000000000E+00  0.20175529453E+03  0.82809005441E+03  0.80313631429E+03 0.  0.
        2    1    3    3  502    0  0.18895466954E+02 -0.35539735457E+03 -0.90892201397E+02  0.36732235242E+03  0.25500000920E-02 0. -1.
       -2    1    3    3    0  502 -0.18895466954E+02  0.35539735457E+03  0.29264749593E+03  0.46076770198E+03  0.25500000920E-02 0.  1.
</event>
<event>
 5   0  0.3467240E-02  0.7120846E+03  0.7818609E-02  0.9696786E-01
        2   -1    0    0  501    0  0.00000000000E+00  0.00000000000E+00  0.37949960998E+03  0.37949960999E+03  0.25500000920E-02 0. -1.
       -2   -1    0    0    0  501  0.00000000000E+00  0.00000000000E+00 -0.33403494880E+03  0.33403494881E+03  0.25500000920E-02 0.  1.
    10030    2    1    2    0    0  0.00000000000E+00  0.00000000000E+00  0.45464661178E+02  0.71353455880E+03  0.71208463766E+03 0.  0.
        2    1    3    3  502    0 -0.96456157289E+02 -0.15793364408E+03 -0.28205687384E+03  0.33734686348E+03  0.25500000920E-02 0.  1.
       -2    1    3    3    0  502  0.96456157289E+02  0.15793364408E+03  0.32752153502E+03  0.37618769533E+03  0.25500000920E-02 0. -1.
</event>
<event>
 5   0  0.1358000E-02  0.7326226E+03  0.7818609E-02  0.9663014E-01
        4   -1    0    0  501    0  0.00000000000E+00  0.00000000000E+00  0.51598944458E+03  0.51599100749E+03  0.12699999809E+01 0.  1.
       -4   -1    0    0    0  501  0.00000000000E+00  0.00000000000E+00 -0.26004827385E+03  0.26005137499E+03  0.12699999809E+01 0. -1.
    10030    2    1    2    0    0  0.00000000000E+00  0.00000000000E+00  0.25594117073E+03  0.77604238248E+03  0.73262261536E+03 0.  0.
        4    1    3    3  502    0 -0.84276455305E+02  0.34921746769E+03  0.20381730502E+03  0.41303567326E+03  0.12699999809E+01 0. -1.
       -4    1    3    3    0  502  0.84276455305E+02 -0.34921746769E+03  0.52123865703E+02  0.36300670922E+03  0.12699999809E+01 0.  1.
</event>
<event>
 5   0  0.1989298E-02  0.8319655E+03  0.7818609E-02  0.9514867E-01
        1   -1    0    0  501    0  0.00000000000E+00  0.00000000000E+00  0.12070320540E+04  0.12070320540E+04  0.50400001928E-02 0.  1.
       -1   -1    0    0    0  501  0.00000000000E+00  0.00000000000E+00 -0.14336128302E+03  0.14336128310E+03  0.50400001928E-02 0. -1.
    10030    2    1    2    0    0  0.00000000000E+00  0.00000000000E+00  0.10636707709E+04  0.13503933371E+04  0.83196553766E+03 0.  0.
        1    1    3    3  502    0 -0.35325122714E+03 -0.21905558861E+03  0.50517028859E+03  0.65419324429E+03  0.50400001928E-02 0.  1.
       -1    1    3    3    0  502  0.35325122714E+03  0.21905558861E+03  0.55850048235E+03  0.69620009278E+03  0.50400001928E-02 0. -1.
</event>
<event>
 5   0  0.3404132E-02  0.7888725E+03  0.7818609E-02  0.9576265E-01
       -2   -1    0    0    0  501  0.00000000000E+00  0.00000000000E+00  0.73863848476E+03  0.73863848477E+03  0.25500000920E-02 0. -1.
        2   -1    0    0  501    0  0.00000000000E+00  0.00000000000E+00 -0.21063069337E+03  0.21063069338E+03  0.25500000920E-02 0.  1.
    10030    2    1    2    0    0  0.00000000000E+00  0.00000000000E+00  0.52800779140E+03  0.94926917815E+03  0.78887245155E+03 0.  0.
        5    1    3    3  502    0 -0.39212838875E+03  0.38991767526E+02  0.28387933410E+03  0.48568981616E+03  0.46999998093E+01 0.  1.
       -5    1    3    3    0  502  0.39212838875E+03 -0.38991767526E+02  0.24412845730E+03  0.46357936199E+03  0.46999998093E+01 0. -1.
</event>
<event>
 5   0  0.3416160E-02  0.7984731E+03  0.7818609E-02  0.9562230E-01
        2   -1    0    0  501    0  0.00000000000E+00  0.00000000000E+00  0.23528661751E+04  0.23528661751E+04  0.25500000920E-02 0. -1.
       -2   -1    0    0    0  501  0.00000000000E+00  0.00000000000E+00 -0.67742836274E+02  0.67742836322E+02  0.25500000920E-02 0.  1.
    10030    2    1    2    0    0  0.00000000000E+00  0.00000000000E+00  0.22851233388E+04  0.24206090114E+04  0.79847311322E+03 0.  0.
        1    1    3    3  502    0 -0.14593581514E+03 -0.14506816665E+03  0.21797221577E+04  0.21894133278E+04  0.50400001928E-02 0. -1.
       -1    1    3    3    0  502  0.14593581514E+03  0.14506816665E+03  0.10540118110E+03  0.23119568361E+03  0.50400001928E-02 0.  1.
</event>
<event>
 5   0  0.2132540E-02  0.8111495E+03  0.7818609E-02  0.9544017E-01
       -1   -1    0    0    0  501  0.00000000000E+00  0.00000000000E+00  0.12413123422E+04  0.12413123422E+04  0.50400001928E-02 0.  1.
        1   -1    0    0  501    0  0.00000000000E+00  0.00000000000E+00 -0.13251367842E+03  0.13251367851E+03  0.50400001928E-02 0. -1.
    10030    2    1    2    0    0  0.00000000000E+00  0.00000000000E+00  0.11087986638E+04  0.13738260208E+04  0.81114946738E+03 0.  0.
        4    1    3    3  502    0 -0.38425252063E+03  0.99218443491E+02  0.69605150370E+03  0.80123879577E+03  0.12699999809E+01 0. -1.
       -4    1    3    3    0  502  0.38425252063E+03 -0.99218443491E+02  0.41274716012E+03  0.57258722499E+03  0.12699999809E+01 0.  1.
</event>
<event>
 5   0  0.2129257E-02  0.7946097E+03  0.7818609E-02  0.9567852E-01
       -1   -1    0    0    0  501  0.00000000000E+00  0.00000000000E+00  0.20698564764E+03  0.20698564770E+03  0.50400001928E-02 0. -1.
        1   -1    0    0  501    0  0.00000000000E+00  0.00000000000E+00 -0.76261887772E+03  0.76261887774E+03  0.50400001928E-02 0.  1.
    10030    2    1    2    0    0  0.00000000000E+00  0.00000000000E+00 -0.55563323008E+03  0.96960452544E+03  0.79460974660E+03 0.  0.
        3    1    3    3  502    0  0.26326197872E+02 -0.16899779124E+03  0.15976348796E+03  0.23404637239E+03  0.10100000352E+00 0. -1.
       -3    1    3    3    0  502 -0.26326197872E+02  0.16899779124E+03 -0.71539671804E+03  0.73555815306E+03  0.10100000352E+00 0.  1.
</event>
<event>
 5   0  0.3404132E-02  0.8142405E+03  0.7818609E-02  0.9539630E-01
       -2   -1    0    0    0  501  0.00000000000E+00  0.00000000000E+00  0.66756009039E+03  0.66756009039E+03  0.25500000920E-02 0. -1.
        2   -1    0    0  501    0  0.00000000000E+00  0.00000000000E+00 -0.24828761628E+03  0.24828761629E+03  0.25500000920E-02 0.  1.
    10030    2    1    2    0    0  0.00000000000E+00  0.00000000000E+00  0.41927247411E+03  0.91584770669E+03  0.81424051379E+03 0.  0.
        5    1    3    3  502    0 -0.24005452534E+03  0.27449566003E+03  0.60814504457E+01  0.36473705124E+03  0.46999998093E+01 0.  1.
       -5    1    3    3    0  502  0.24005452534E+03 -0.27449566003E+03  0.41319102366E+03  0.55111065545E+03  0.46999998093E+01 0. -1.
</event>
<event>
 5   0  0.3404132E-02  0.7114737E+03  0.7818609E-02  0.9697809E-01
       -2   -1    0    0    0  501  0.00000000000E+00  0.00000000000E+00  0.10622146492E+03  0.10622146495E+03  0.25500000920E-02 0. -1.
        2   -1    0    0  501    0  0.00000000000E+00  0.00000000000E+00 -0.11913666149E+04  0.11913666149E+04  0.25500000920E-02 0.  1.
    10030    2    1    2    0    0  0.00000000000E+00  0.00000000000E+00 -0.10851451499E+04  0.12975880798E+04  0.71147370186E+03 0.  0.
        5    1    3    3  502    0 -0.93845751629E+02 -0.34151711207E+03 -0.60266555605E+03  0.69904851433E+03  0.46999998093E+01 0. -1.
       -5    1    3    3    0  502  0.93845751629E+02  0.34151711207E+03 -0.48247959389E+03  0.59853956549E+03  0.46999998093E+01 0.  1.
</event>
<event>
 5   0  0.3467240E-02  0.7895122E+03  0.7818609E-02  0.9575323E-01
       -2   -1    0    0    0  501  0.00000000000E+00  0.00000000000E+00  0.31364188239E+03  0.31364188240E+03  0.25500000920E-02 0.  1.
        2   -1    0    0  501    0  0.00000000000E+00  0.00000000000E+00 -0.49684816493E+03  0.49684816494E+03  0.25500000920E-02 0. -1.
    10030    2    1    2    0    0  0.00000000000E+00  0.00000000000E+00 -0.18320628254E+03  0.81049004734E+03  0.78951223859E+03 0.  0.
        2    1    3    3  502    0 -0.14623511388E+03 -0.36220493553E+03 -0.15017409798E+03  0.41848462764E+03  0.25500000920E-02 0. -1.
       -2    1    3    3    0  502  0.14623511388E+03  0.36220493553E+03 -0.33032184563E+02  0.39200541971E+03  0.25500000920E-02 0.  1.
</event>
<event>
 5   0  0.3343036E-02  0.8190588E+03  0.7818609E-02  0.9532833E-01
       -2   -1    0    0    0  501  0.00000000000E+00  0.00000000000E+00  0.25432752230E+03  0.25432752232E+03  0.25500000920E-02 0.  1.
        2   -1    0    0  501    0  0.00000000000E+00  0.00000000000E+00 -0.65944237238E+03  0.65944237239E+03  0.25500000920E-02 0. -1.
    10030    2    1    2    0    0  0.00000000000E+00  0.00000000000E+00 -0.40511485008E+03  0.91376989470E+03  0.81905883715E+03 0.  0.
        4    1    3    3  502    0  0.20516804841E+03 -0.11366672523E+03  0.17196787307E+03  0.29084121919E+03  0.12699999809E+01 0.  1.
       -4    1    3    3    0  502 -0.20516804841E+03  0.11366672523E+03 -0.57708272315E+03  0.62292867551E+03  0.12699999809E+01 0. -1.
</event>
<event>
 5   0  0.1989298E-02  0.7913247E+03  0.7818609E-02  0.9572660E-01
        1   -1    0    0  501    0  0.00000000000E+00  0.00000000000E+00  0.41832391219E+03  0.41832391222E+03  0.50400001928E-02 0. -1.
       -1   -1    0    0    0  501  0.00000000000E+00  0.00000000000E+00 -0.37422839137E+03  0.37422839140E+03  0.50400001928E-02 0.  1.
    10030    2    1    2    0    0  0.00000000000E+00  0.00000000000E+00  0.44095520819E+02  0.79255230362E+03  0.79132467358E+03 0.  0.
        1    1    3    3  502    0 -0.37834650903E+02  0.25537469659E+03 -0.27825232676E+03  0.37956824662E+03  0.50400001928E-02 0.  1.
       -1    1    3    3    0  502  0.37834650903E+02 -0.25537469659E+03  0.32234784758E+03  0.41298405700E+03  0.50400001928E-02 0. -1.
</event>
<event>
 5   0  0.1989298E-02  0.7672191E+03  0.7818609E-02  0.9608717E-01
        1   -1    0    0  501    0  0.00000000000E+00  0.00000000000E+00  0.12760172194E+04  0.12760172194E+04  0.50400001928E-02 0.  1.
       -1   -1    0    0    0  501  0.00000000000E+00  0.00000000000E+00 -0.11532469856E+03  0.11532469867E+03  0.50400001928E-02 0. -1.
    10030    2    1    2    0    0  0.00000000000E+00  0.00000000000E+00  0.11606925209E+04  0.13913419181E+04  0.76721913758E+03 0.  0.
        1    1    3    3  502    0 -0.36880554340E+03 -0.92903071509E+02  0.48953071982E+03  0.61991034449E+03  0.50400001928E-02 0. -1.
       -1    1    3    3    0  502  0.36880554340E+03  0.92903071509E+02  0.67116180104E+03  0.77143157360E+03  0.50400001928E-02 0.  1.
</event>
<event>
 5   0  0.2129257E-02  0.8128749E+03  0.7818609E-02  0.9541566E-01
       -1   -1    0    0    0  501  0.00000000000E+00  0.00000000000E+00  0.72211484643E+02  0.72211484819E+02  0.50400001928E-02 0. -1.
        1   -1    0    0  501    0  0.00000000000E+00  0.00000000000E+00 -0.22876058861E+04  0.22876058861E+04  0.50400001928E-02 0.  1.
    10030    2    1    2    0    0  0.00000000000E+00  0.00000000000E+00 -0.22153944014E+04  0.23598173709E+04  0.81287494124E+03 0.  0.
        3    1    3    3  502    0 -0.20029550283E+03 -0.16604263080E+03 -0.20141883461E+04  0.20309217483E+04  0.10100000352E+00 0.  1.
       -3    1    3    3    0  502  0.20029550283E+03  0.16604263080E+03 -0.20120605532E+03  0.32889562265E+03  0.10100000352E+00 0. -1.
</event>
<event>
 5   0  0.3416160E-02  0.8015419E+03  0.7818609E-02  0.9557788E-01
       -2   -1    0    0    0  501  0.00000000000E+00  0.00000000000E+00  0.48049454853E+02  0.48049454921E+02  0.25500000920E-02 0.  1.
        2   -1    0    0  501    0  0.00000000000E+00  0.00000000000E+00 -0.33427508446E+04  0.33427508446E+04  0.25500000920E-02 0. -1.
    10030    2    1    2    0    0  0.00000000000E+00  0.00000000000E+00 -0.32947013898E+04  0.33908002995E+04  0.80154190386E+03 0.  0.
        1    1    3    3  502    0 -0.64942791050E+02  0.39542353238E+03 -0.16741123851E+04  0.17214033851E+04  0.50400001928E-02 0. -1.
       -1    1    3    3    0  502  0.64942791050E+02 -0.39542353238E+03 -0.16205890046E+04  0.16693969144E+04  0.50400001928E-02 0.  1.
</event>
<event>
 5   0  0.1358000E-02  0.8086739E+03  0.7818609E-02  0.9547546E-01
       -3   -1    0    0    0  501  0.00000000000E+00  0.00000000000E+00  0.19382409794E+03  0.19382412426E+03  0.10100000352E+00 0.  1.
        3   -1    0    0  501    0  0.00000000000E+00  0.00000000000E+00 -0.84348827064E+03  0.84348827668E+03  0.10100000352E+00 0. -1.
    10030    2    1    2    0    0  0.00000000000E+00  0.00000000000E+00 -0.64966417270E+03  0.10373124009E+04  0.80867390205E+03 0.  0.
        4    1    3    3  502    0 -0.37754216205E+03  0.13924690740E+03 -0.37547926537E+03  0.55037630487E+03  0.12699999809E+01 0. -1.
       -4    1    3    3    0  502  0.37754216205E+03 -0.13924690740E+03 -0.27418490733E+03  0.48693609607E+03  0.12699999809E+01 0.  1.
</event>
<event>
 5   0  0.3343036E-02  0.8157917E+03  0.7818609E-02  0.9537436E-01
        2   -1    0    0  501    0  0.00000000000E+00  0.00000000000E+00  0.67462042178E+03  0.67462042179E+03  0.25500000920E-02 0. -1.
       -2   -1    0    0    0  501  0.00000000000E+00  0.00000000000E+00 -0.24662611608E+03  0.24662611610E+03  0.25500000920E-02 0.  1.
    10030    2    1    2    0    0  0.00000000000E+00  0.00000000000E+00  0.42799430570E+03  0.92124653788E+03  0.81579167552E+03 0.  0.
        4    1    3    3  502    0  0.21577430946E+03 -0.18252235917E+03  0.54613303138E+03  0.61492752831E+03  0.12699999809E+01 0. -1.
       -4    1    3    3    0  502 -0.21577430946E+03  0.18252235917E+03 -0.11813872568E+03  0.30631900957E+03  0.12699999809E+01 0.  1.
</event>
<event>
 5   0  0.2132540E-02  0.8125343E+03  0.7818609E-02  0.9542049E-01
        1   -1    0    0  501    0  0.00000000000E+00  0.00000000000E+00  0.10770690272E+04  0.10770690272E+04  0.50400001928E-02 0. -1.
       -1   -1    0    0    0  501  0.00000000000E+00  0.00000000000E+00 -0.15324271219E+03  0.15324271227E+03  0.50400001928E-02 0.  1.
    10030    2    1    2    0    0  0.00000000000E+00  0.00000000000E+00  0.92382631499E+03  0.12303117395E+04  0.81253425528E+03 0.  0.
        4    1    3    3  502    0  0.19837102285E+01  0.39729590179E+03  0.33340160311E+03  0.51865808636E+03  0.12699999809E+01 0.  1.
       -4    1    3    3    0  502 -0.19837102285E+01 -0.39729590179E+03  0.59042471188E+03  0.71165365311E+03  0.12699999809E+01 0. -1.
</event>
<event>
 5   0  0.2077795E-02  0.8047711E+03  0.7818609E-02  0.9553137E-01
       -1   -1    0    0    0  501  0.00000000000E+00  0.00000000000E+00  0.18460131588E+03  0.18460131595E+03  0.50400001928E-02 0.  1.
        1   -1    0    0  501    0  0.00000000000E+00  0.00000000000E+00 -0.87710167032E+03  0.87710167034E+03  0.50400001928E-02 0. -1.
    10030    2    1    2    0    0  0.00000000000E+00  0.00000000000E+00 -0.69250035445E+03  0.10617029863E+04  0.80477107936E+03 0.  0.
        5    1    3    3  502    0 -0.16825392323E+03 -0.35899348736E+03 -0.43675499049E+03  0.58988364816E+03  0.46999998093E+01 0. -1.
       -5    1    3    3    0  502  0.16825392323E+03  0.35899348736E+03 -0.25574536396E+03  0.47181933813E+03  0.46999998093E+01 0.  1.
</event>
<event>
 5   0  0.3416160E-02  0.8279400E+03  0.7818609E-02  0.9520433E-01
       -2   -1    0    0    0  501  0.00000000000E+00  0.00000000000E+00  0.46010737658E+03  0.46010737658E+03  0.25500000920E-02 0. -1.
        2   -1    0    0  501    0  0.00000000000E+00  0.00000000000E+00 -0.37245902394E+03  0.37245902395E+03  0.25500000920E-02 0.  1.
    10030    2    1    2    0    0  0.00000000000E+00  0.00000000000E+00  0.87648352637E+02  0.83256640053E+03  0.82793996013E+03 0.  0.
        1    1    3    3  502    0  0.20141972307E+03 -0.34653151175E+03  0.14792632869E+03  0.42724254496E+03  0.50400001928E-02 0. -1.
       -1    1    3    3    0  502 -0.20141972307E+03  0.34653151175E+03 -0.60277976049E+02  0.40532385558E+03  0.50400001928E-02 0.  1.
</event>
<event>
 5   0  0.2129257E-02  0.7900878E+03  0.7818609E-02  0.9574476E-01
       -1   -1    0    0    0  501  0.00000000000E+00  0.00000000000E+00  0.36931614237E+03  0.36931614240E+03  0.50400001928E-02 0. -1.
        1   -1    0    0  501    0  0.00000000000E+00  0.00000000000E+00 -0.42256398961E+03  0.42256398964E+03  0.50400001928E-02 0.  1.
    10030    2    1    2    0    0  0.00000000000E+00  0.00000000000E+00 -0.53247847239E+02  0.79188013204E+03  0.79008784972E+03 0.  0.
        3    1    3    3  502    0  0.20846341103E+01  0.34034998891E+03  0.17437334252E+03  0.38242454607E+03  0.10100000352E+00 0. -1.
       -3    1    3    3    0  502 -0.20846341103E+01 -0.34034998891E+03 -0.22762118976E+03  0.40945558597E+03  0.10100000352E+00 0.  1.
</event>
<event>
 5   0  0.3467240E-02  0.7996148E+03  0.7818609E-02  0.9560575E-01
        2   -1    0    0  501    0  0.00000000000E+00  0.00000000000E+00  0.77015777485E+03  0.77015777486E+03  0.25500000920E-02 0.  1.
       -2   -1    0    0    0  501  0.00000000000E+00  0.00000000000E+00 -0.20754963558E+03  0.20754963560E+03  0.25500000920E-02 0. -1.
    10030    2    1    2    0    0  0.00000000000E+00  0.00000000000E+00  0.56260813927E+03  0.97770741046E+03  0.79961482108E+03 0.  0.
        2    1    3    3  502    0  0.16925398760E+03 -0.30594747377E+03  0.44224433986E+02  0.35242952429E+03  0.25500000920E-02 0. -1.
       -2    1    3    3    0  502 -0.16925398760E+03  0.30594747377E+03  0.51838370528E+03  0.62527788617E+03  0.25500000920E-02 0.  1.
</event>
<event>
 5   0  0.3467240E-02  0.7896100E+03  0.7818609E-02  0.9575179E-01
       -2   -1    0    0    0  501  0.00000000000E+00  0.00000000000E+00  0.11369300461E+03  0.11369300463E+03  0.25500000920E-02 0.  1.
        2   -1    0    0  501    0  0.00000000000E+00  0.00000000000E+00 -0.13709815036E+04  0.13709815036E+04  0.25500000920E-02 0. -1.
    10030    2    1    2    0    0  0.00000000000E+00  0.00000000000E+00 -0.12572884990E+04  0.14846745082E+04  0.78961004661E+03 0.  0.
        2    1    3    3  502    0 -0.18148603443E+03  0.23571277309E+03 -0.14059624374E+03  0.32903646583E+03  0.25500000920E-02 0.  1.
       -2    1    3    3    0  502  0.18148603443E+03 -0.23571277309E+03 -0.11166922553E+04  0.11556380424E+04  0.25500000920E-02 0. -1.
</event>
<event>
 5   0  0.3343036E-02  0.7922646E+03  0.7818609E-02  0.9571282E-01
       -2   -1    0    0    0  501  0.00000000000E+00  0.00000000000E+00  0.12818743611E+03  0.12818743613E+03  0.25500000920E-02 0.  1.
        2   -1    0    0  501    0  0.00000000000E+00  0.00000000000E+00 -0.12241511188E+04  0.12241511188E+04  0.25500000920E-02 0. -1.
    10030    2    1    2    0    0  0.00000000000E+00  0.00000000000E+00 -0.10959636827E+04  0.13523385549E+04  0.79226458546E+03 0.  0.
        4    1    3    3  502    0  0.25252715813E+03  0.59057244538E+02 -0.10590962002E+04  0.10903871322E+04  0.12699999809E+01 0. -1.
       -4    1    3    3    0  502 -0.25252715813E+03 -0.59057244538E+02 -0.36867482438E+02  0.26195142276E+03  0.12699999809E+01 0.  1.
</event>
<event>
 5   0  0.3550586E-02  0.7972487E+03  0.7818609E-02  0.9564008E-01
       -2   -1    0    0    0  501  0.00000000000E+00  0.00000000000E+00  0.24874254895E+03  0.24874254896E+03  0.25500000920E-02 0. -1.
        2   -1    0    0  501    0  0.00000000000E+00  0.00000000000E+00 -0.63881866374E+03  0.63881866374E+03  0.25500000920E-02 0.  1.
    10030    2    1    2    0    0  0.00000000000E+00  0.00000000000E+00 -0.39007611479E+03  0.88756121271E+03  0.79724872592E+03 0.  0.
        3    1    3    3  502    0 -0.16637464247E+03 -0.36017012089E+03 -0.15194483913E+03  0.42484147865E+03  0.10100000352E+00 0. -1.
       -3    1    3    3    0  502  0.16637464247E+03  0.36017012089E+03 -0.23813127566E+03  0.46271973406E+03  0.10100000352E+00 0.  1.
</event>
<event>
 5   0  0.3416160E-02  0.8049713E+03  0.7818609E-02  0.9552849E-01
        2   -1    0    0  501    0  0.00000000000E+00  0.00000000000E+00  0.50302162330E+03  0.50302162331E+03  0.25500000920E-02 0. -1.
       -2   -1    0    0    0  501  0.00000000000E+00  0.00000000000E+00 -0.32204320369E+03  0.32204320370E+03  0.25500000920E-02 0.  1.
    10030    2    1    2    0    0  0.00000000000E+00  0.00000000000E+00  0.18097841962E+03  0.82506482701E+03  0.80497129166E+03 0.  0.
        1    1    3    3  502    0 -0.30375207959E+02  0.69809771393E+02 -0.31459592094E+03  0.32367676923E+03  0.50400001928E-02 0.  1.
       -1    1    3    3    0  502  0.30375207959E+02 -0.69809771393E+02  0.49557434056E+03  0.50138805778E+03  0.50400001928E-02 0. -1.
</event>
<event>
 5   0  0.3404132E-02  0.7613682E+03  0.7818609E-02  0.9617682E-01
       -2   -1    0    0    0  501  0.00000000000E+00  0.00000000000E+00  0.17201508103E+03  0.17201508105E+03  0.25500000920E-02 0.  1.
        2   -1    0    0  501    0  0.00000000000E+00  0.00000000000E+00 -0.84248641854E+03  0.84248641855E+03  0.25500000920E-02 0. -1.
    10030    2    1    2    0    0  0.00000000000E+00  0.00000000000E+00 -0.67047133751E+03  0.10145014996E+04  0.76136816210E+03 0.  0.
        5    1    3    3  502    0  0.17493606575E+03 -0.84622749406E+02  0.10090134348E+03  0.21901325971E+03  0.46999998093E+01 0.  1.
       -5    1    3    3    0  502 -0.17493606575E+03  0.84622749406E+02 -0.77137268099E+03  0.79548823988E+03  0.46999998093E+01 0. -1.
</event>
<event>
 5   0  0.2132540E-02  0.8021316E+03  0.7818609E-02  0.9556937E-01
        1   -1    0    0  501    0  0.00000000000E+00  0.00000000000E+00  0.22572213987E+03  0.22572213993E+03  0.50400001928E-02 0.  1.
       -1   -1    0    0    0  501  0.00000000000E+00  0.00000000000E+00 -0.71261856394E+03  0.71261856396E+03  0.50400001928E-02 0. -1.
    10030    2    1    2    0    0  0.00000000000E+00  0.00000000000E+00 -0.48689642407E+03  0.93834070389E+03  0.80213162810E+03 0.  0.
        4    1    3    3  502    0 -0.37453609757E+02  0.25909802577E+02  0.22268515581E+03  0.22729800323E+03  0.12699999809E+01 0.  1.
       -4    1    3    3    0  502  0.37453609757E+02 -0.25909802577E+02 -0.70958157988E+03  0.71104270066E+03  0.12699999809E+01 0. -1.
</event>
<event>
 5   0  0.2077795E-02  0.7967772E+03  0.7818609E-02  0.9564694E-01
        1   -1    0    0  501    0  0.00000000000E+00  0.00000000000E+00  0.68830773664E+03  0.68830773665E+03  0.50400001928E-02 0.  1.
       -1   -1    0    0    0  501  0.00000000000E+00  0.00000000000E+00 -0.23058503850E+03  0.23058503855E+03  0.50400001928E-02 0. -1.
    10030    2    1    2    0    0  0.00000000000E+00  0.00000000000E+00  0.45772269814E+03  0.91889277521E+03  0.79677717333E+03 0.  0.
        5    1    3    3  502    0 -0.20606250689E+03  0.19980626079E+03 -0.89712676473E+02  0.30075696653E+03  0.46999998093E+01 0. -1.
       -5    1    3    3    0  502  0.20606250689E+03 -0.19980626079E+03  0.54743537461E+03  0.61813580868E+03  0.46999998093E+01 0.  1.
</event>
<event>
 5   0  0.3343036E-02  0.5202555E+03  0.7818609E-02  0.1008623E+00
        2   -1    0    0  501    0  0.00000000000E+00  0.00000000000E+00  0.13266744685E+04  0.13266744685E+04  0.25500000920E-02 0.  1.
       -2   -1    0    0    0  501  0.00000000000E+00  0.00000000000E+00 -0.51004567269E+02  0.51004567333E+02  0.25500000920E-02 0. -1.
    10030    2    1    2    0    0  0.00000000000E+00  0.00000000000E+00  0.12756699013E+04  0.13776790359E+04  0.52025554190E+03 0.  0.
        4    1    3    3  502    0 -0.13954918002E+03 -0.14236807246E+03  0.10803277132E+04  0.10985682603E+04  0.12699999809E+01 0.  1.
       -4    1    3    3    0  502  0.13954918002E+03  0.14236807246E+03  0.19534218803E+03  0.27911077555E+03  0.12699999809E+01 0. -1.
</event>
<event>
 5   0  0.3467240E-02  0.8076205E+03  0.7818609E-02  0.9549052E-01
        2   -1    0    0  501    0  0.00000000000E+00  0.00000000000E+00  0.99350430147E+03  0.99350430147E+03  0.25500000920E-02 0.  1.
       -2   -1    0    0    0  501  0.00000000000E+00  0.00000000000E+00 -0.16412884549E+03  0.16412884551E+03  0.25500000920E-02 0. -1.
    10030    2    1    2    0    0  0.00000000000E+00  0.00000000000E+00  0.82937545598E+03  0.11576331470E+04  0.80762049008E+03 0.  0.
        2    1    3    3  502    0  0.31427890979E+03 -0.11574874401E+02  0.51620247287E+02  0.31870026795E+03  0.25500000920E-02 0. -1.
       -2    1    3    3    0  502 -0.31427890979E+03  0.11574874401E+02  0.77775520869E+03  0.83893287903E+03  0.25500000920E-02 0.  1.
</event>
<event>
 5   0  0.2077795E-02  0.7043503E+03  0.7818609E-02  0.9709821E-01
       -1   -1    0    0    0  501  0.00000000000E+00  0.00000000000E+00  0.15856875875E+03  0.15856875883E+03  0.50400001928E-02 0.  1.
        1   -1    0    0  501    0  0.00000000000E+00  0.00000000000E+00 -0.78216753618E+03  0.78216753620E+03  0.50400001928E-02 0. -1.
    10030    2    1    2    0    0  0.00000000000E+00  0.00000000000E+00 -0.62359877743E+03  0.94073629503E+03  0.70435029749E+03 0.  0.
        5    1    3    3  502    0  0.32357383738E+03  0.10487029227E+02 -0.49684379612E+03  0.59303107318E+03  0.46999998093E+01 0. -1.
       -5    1    3    3    0  502 -0.32357383738E+03 -0.10487029227E+02 -0.12675498131E+03  0.34770522185E+03  0.46999998093E+01 0.  1.
</event>
<event>
 5   0  0.2063692E-02  0.8097564E+03  0.7818609E-02  0.9546002E-01
       -1   -1    0    0    0  501  0.00000000000E+00  0.00000000000E+00  0.45882850502E+03  0.45882850505E+03  0.50400001928E-02 0. -1.
        1   -1    0    0  501    0  0.00000000000E+00  0.00000000000E+00 -0.35727152153E+03  0.35727152156E+03  0.50400001928E-02 0.  1.
    10030    2    1    2    0    0  0.00000000000E+00  0.00000000000E+00  0.10155698349E+03  0.81610002661E+03  0.80975640321E+03 0.  0.
        2    1    3    3  502    0 -0.32479159677E+03  0.87840735560E+02  0.27775555437E+03  0.43629545510E+03  0.25500000920E-02 0. -1.
       -2    1    3    3    0  502  0.32479159677E+03 -0.87840735560E+02 -0.17619857087E+03  0.37980457151E+03  0.25500000920E-02 0.  1.
</event>
<event>
 5   0  0.3404132E-02  0.8662411E+03  0.7818609E-02  0.9468794E-01
       -2   -1    0    0    0  501  0.00000000000E+00  0.00000000000E+00  0.69479572024E+03  0.69479572024E+03  0.25500000920E-02 0. -1.
        2   -1    0    0  501    0  0.00000000000E+00  0.00000000000E+00 -0.26999796768E+03  0.26999796769E+03  0.25500000920E-02 0.  1.
    10030    2    1    2    0    0  0.00000000000E+00  0.00000000000E+00  0.42479775256E+03  0.96479368793E+03  0.86624114985E+03 0.  0.
        5    1    3    3  502    0 -0.74521652399E+02 -0.17883292190E+03  0.64381296606E+03  0.67234806157E+03  0.46999998093E+01 0. -1.
       -5    1    3    3    0  502  0.74521652399E+02  0.17883292190E+03 -0.21901521350E+03  0.29244562636E+03  0.46999998093E+01 0.  1.
</event>
<event>
 5   0  0.2063692E-02  0.7561802E+03  0.7818609E-02  0.9625704E-01
       -1   -1    0    0    0  501  0.00000000000E+00  0.00000000000E+00  0.62656680416E+02  0.62656680619E+02  0.50400001928E-02 0. -1.
        1   -1    0    0  501    0  0.00000000000E+00  0.00000000000E+00 -0.22815143532E+04  0.22815143532E+04  0.50400001928E-02 0.  1.
    10030    2    1    2    0    0  0.00000000000E+00  0.00000000000E+00 -0.22188576727E+04  0.23441710338E+04  0.75618017941E+03 0.  0.
        2    1    3    3  502    0  0.16423078228E+03 -0.34053360966E+03 -0.10965621737E+04  0.11599066730E+04  0.25500000920E-02 0. -1.
       -2    1    3    3    0  502 -0.16423078228E+03  0.34053360966E+03 -0.11222954990E+04  0.11842643608E+04  0.25500000920E-02 0.  1.
</event>
<event>
 5   0  0.2129257E-02  0.8698971E+03  0.7818609E-02  0.9464014E-01
        1   -1    0    0  501    0  0.00000000000E+00  0.00000000000E+00  0.15612511255E+04  0.15612511255E+04  0.50400001928E-02 0.  1.
       -1   -1    0    0    0  501  0.00000000000E+00  0.00000000000E+00 -0.12117220200E+03  0.12117220211E+03  0.50400001928E-02 0. -1.
    10030    2    1    2    0    0  0.00000000000E+00  0.00000000000E+00  0.14400789235E+04  0.16824233276E+04  0.86989709011E+03 0.  0.
        3    1    3    3  502    0  0.15393705498E+03 -0.37538194766E+03  0.10232104813E+04  0.11007124614E+04  0.10100000352E+00 0.  1.
       -3    1    3    3    0  502 -0.15393705498E+03  0.37538194766E+03  0.41686844218E+03  0.58171086616E+03  0.10100000352E+00 0. -1.
</event>
<event>
 5   0  0.1989298E-02  0.8192339E+03  0.7818609E-02  0.9532587E-01
       -1   -1    0    0    0  501  0.00000000000E+00  0.00000000000E+00  0.61607845538E+03  0.61607845541E+03  0.50400001928E-02 0.  1.
        1   -1    0    0  501    0  0.00000000000E+00  0.00000000000E+00 -0.27234524813E+03  0.27234524818E+03  0.50400001928E-02 0. -1.
    10030    2    1    2    0    0  0.00000000000E+00  0.00000000000E+00  0.34373320725E+03  0.88842370359E+03  0.81923388561E+03 0.  0.
        1    1    3    3  502    0  0.13145685338E+03 -0.38514959385E+03  0.12140817239E+03  0.42468936682E+03  0.50400001928E-02 0. -1.
       -1    1    3    3    0  502 -0.13145685338E+03  0.38514959385E+03  0.22232503486E+03  0.46373433676E+03  0.50400001928E-02 0.  1.
</event>
<event>
 5   0  0.3416160E-02  0.7527357E+03  0.7818609E-02  0.9631068E-01
       -2   -1    0    0    0  501  0.00000000000E+00  0.00000000000E+00  0.59724050298E+03  0.59724050298E+03  0.25500000920E-02 0.  1.
        2   -1    0    0  501    0  0.00000000000E+00  0.00000000000E+00 -0.23717875843E+03  0.23717875844E+03  0.25500000920E-02 0. -1.
    10030    2    1    2    0    0  0.00000000000E+00  0.00000000000E+00  0.36006174455E+03  0.83441926142E+03  0.75273570657E+03 0.  0.
        1    1    3    3  502    0  0.22600850729E+03  0.34017021869E+02 -0.15144264287E+03  0.27417490266E+03  0.50400001928E-02 0. -1.
       -1    1    3    3    0  502 -0.22600850729E+03 -0.34017021869E+02  0.51150438742E+03  0.56024435876E+03  0.50400001928E-02 0.  1.
</event>
<event>
 5   0  0.1358000E-02  0.8076235E+03  0.7818609E-02  0.9549048E-01
       -3   -1    0    0    0  501  0.00000000000E+00  0.00000000000E+00  0.61297075320E+03  0.61297076152E+03  0.10100000352E+00 0. -1.
        3   -1    0    0  501    0  0.00000000000E+00  0.00000000000E+00 -0.26602231685E+03  0.26602233602E+03  0.10100000352E+00 0.  1.
    10030    2    1    2    0    0  0.00000000000E+00  0.00000000000E+00  0.34694843635E+03  0.87899309754E+03  0.80762345684E+03 0.  0.
        4    1    3    3  502    0 -0.25519699447E+03  0.13164666011E+03 -0.13552692840E+03  0.31753032977E+03  0.12699999809E+01 0.  1.
       -4    1    3    3    0  502  0.25519699447E+03 -0.13164666011E+03  0.48247536474E+03  0.56146276777E+03  0.12699999809E+01 0. -1.
</event>
<event>
 5   0  0.3550586E-02  0.7964344E+03  0.7818609E-02  0.9565193E-01
        2   -1    0    0  501    0  0.00000000000E+00  0.00000000000E+00  0.33565296777E+03  0.33565296778E+03  0.25500000920E-02 0.  1.
       -2   -1    0    0    0  501  0.00000000000E+00  0.00000000000E+00 -0.47244310637E+03  0.47244310638E+03  0.25500000920E-02 0. -1.
    10030    2    1    2    0    0  0.00000000000E+00  0.00000000000E+00 -0.13679013860E+03  0.80809607416E+03  0.79643438088E+03 0.  0.
        3    1    3    3  502    0 -0.69983381809E+02 -0.11564205139E+03 -0.44845437529E+03  0.46838242356E+03  0.10100000352E+00 0. -1.
       -3    1    3    3    0  502  0.69983381809E+02  0.11564205139E+03  0.31166423668E+03  0.33971365061E+03  0.10100000352E+00 0.  1.
</event>
<event>
 5   0  0.3404132E-02  0.7918059E+03  0.7818609E-02  0.9571954E-01
       -2   -1    0    0    0  501  0.00000000000E+00  0.00000000000E+00  0.12024579510E+03  0.12024579513E+03  0.25500000920E-02 0. -1.
        2   -1    0    0  501    0  0.00000000000E+00  0.00000000000E+00 -0.13034896931E+04  0.13034896931E+04  0.25500000920E-02 0.  1.
    10030    2    1    2    0    0  0.00000000000E+00  0.00000000000E+00 -0.11832438980E+04  0.14237354882E+04  0.79180592213E+03 0.  0.
        5    1    3    3  502    0 -0.13287775660E+03 -0.25560234194E+03 -0.10798545983E+04  0.11176301262E+04  0.46999998093E+01 0.  1.
       -5    1    3    3    0  502  0.13287775660E+03  0.25560234194E+03 -0.10338929969E+03  0.30610536208E+03  0.46999998093E+01 0. -1.
</event>
<event>
 5   0  0.3343036E-02  0.7885795E+03  0.7818609E-02  0.9576697E-01
        2   -1    0    0  501    0  0.00000000000E+00  0.00000000000E+00  0.19454963649E+04  0.19454963649E+04  0.25500000920E-02 0.  1.
       -2   -1    0    0    0  501  0.00000000000E+00  0.00000000000E+00 -0.79909889873E+02  0.79909889913E+02  0.25500000920E-02 0. -1.
    10030    2    1    2    0    0  0.00000000000E+00  0.00000000000E+00  0.18655864750E+04  0.20254062548E+04  0.78857948315E+03 0.  0.
        4    1    3    3  502    0 -0.20065277779E+02 -0.24758624730E+03  0.14633022395E+03  0.28829795797E+03  0.12699999809E+01 0. -1.
       -4    1    3    3    0  502  0.20065277779E+02  0.24758624730E+03  0.17192562511E+04  0.17371082969E+04  0.12699999809E+01 0.  1.
</event>
<event>
 5   0  0.3416160E-02  0.8108267E+03  0.7818609E-02  0.9544477E-01
        2   -1    0    0  501    0  0.00000000000E+00  0.00000000000E+00  0.65050857060E+03  0.65050857061E+03  0.25500000920E-02 0.  1.
       -2   -1    0    0    0  501  0.00000000000E+00  0.00000000000E+00 -0.25266380739E+03  0.25266380741E+03  0.25500000920E-02 0. -1.
    10030    2    1    2    0    0  0.00000000000E+00  0.00000000000E+00  0.39784476321E+03  0.90317237801E+03  0.81082667001E+03 0.  0.
        1    1    3    3  502    0 -0.26630813825E+03 -0.19994686171E+03 -0.58627867229E+02  0.33813606558E+03  0.50400001928E-02 0. -1.
       -1    1    3    3    0  502  0.26630813825E+03  0.19994686171E+03  0.45647263044E+03  0.56503631243E+03  0.50400001928E-02 0.  1.
</event>
<event>
 5   0  0.2063692E-02  0.6263612E+03  0.7818609E-02  0.9852176E-01
        1   -1    0    0  501    0  0.00000000000E+00  0.00000000000E+00  0.21351302577E+04  0.21351302577E+04  0.50400001928E-02 0. -1.
       -1   -1    0    0    0  501  0.00000000000E+00  0.00000000000E+00 -0.45937283172E+02  0.45937283448E+02  0.50400001928E-02 0.  1.
    10030    2    1    2    0    0  0.00000000000E+00  0.00000000000E+00  0.20891929746E+04  0.21810675412E+04  0.62636118515E+03 0.  0.
        2    1    3    3  502    0  0.19276946411E+03 -0.11231554157E+03  0.18099293708E+04  0.18236280252E+04  0.25500000920E-02 0. -1.
       -2    1    3    3    0  502 -0.19276946411E+03  0.11231554157E+03  0.27926360381E+03  0.35743951599E+03  0.25500000920E-02 0.  1.
</event>
<event>
 5   0  0.2129257E-02  0.7538176E+03  0.7818609E-02  0.9629380E-01
        1   -1    0    0  501    0  0.00000000000E+00  0.00000000000E+00  0.43135432824E+03  0.43135432827E+03  0.50400001928E-02 0.  1.
       -1   -1    0    0    0  501  0.00000000000E+00  0.00000000000E+00 -0.32933540523E+03  0.32933540527E+03  0.50400001928E-02 0. -1.
    10030    2    1    2    0    0  0.00000000000E+00  0.00000000000E+00  0.10201892301E+03  0.76068973354E+03  0.75381762387E+03 0.  0.
        3    1    3    3  502    0 -0.10279622577E+03 -0.23830932520E+03  0.32681750579E+03  0.41733450709E+03  0.10100000352E+00 0.  1.
       -3    1    3    3    0  502  0.10279622577E+03  0.23830932520E+03 -0.22479858278E+03  0.34335522645E+03  0.10100000352E+00 0. -1.
</event>
<event>
 5   0  0.1358000E-02  0.7839800E+03  0.7818609E-02  0.9583499E-01
       -3   -1    0    0    0  501  0.00000000000E+00  0.00000000000E+00  0.66010362250E+03  0.66010363023E+03  0.10100000352E+00 0.  1.
        3   -1    0    0  501    0  0.00000000000E+00  0.00000000000E+00 -0.23277580238E+03  0.23277582430E+03  0.10100000352E+00 0. -1.
    10030    2    1    2    0    0  0.00000000000E+00  0.00000000000E+00  0.42732782012E+03  0.89287945453E+03  0.78398000897E+03 0.  0.
        3    1    3    3  502    0  0.34353991275E+03  0.12375436400E+02  0.42819983569E+03  0.54911559126E+03  0.10100000352E+00 0.  1.
       -3    1    3    3    0  502 -0.34353991275E+03 -0.12375436400E+02 -0.87201556707E+00  0.34376386327E+03  0.10100000352E+00 0. -1.
</event>
<event>
 5   0  0.3550586E-02  0.7941549E+03  0.7818609E-02  0.9568516E-01
        2   -1    0    0  501    0  0.00000000000E+00  0.00000000000E+00  0.65638353473E+03  0.65638353473E+03  0.25500000920E-02 0.  1.
       -2   -1    0    0    0  501  0.00000000000E+00  0.00000000000E+00 -0.24021094018E+03  0.24021094020E+03  0.25500000920E-02 0. -1.
    10030    2    1    2    0    0  0.00000000000E+00  0.00000000000E+00  0.41617259454E+03  0.89659447493E+03  0.79415491186E+03 0.  0.
        3    1    3    3  502    0  0.10615150580E+03 -0.31297221404E+03 -0.40422100871E+02  0.33294700086E+03  0.10100000352E+00 0. -1.
       -3    1    3    3    0  502 -0.10615150580E+03  0.31297221404E+03  0.45659469542E+03  0.56364747407E+03  0.10100000352E+00 0.  1.
</event>
<event>
 5   0  0.3550586E-02  0.7981272E+03  0.7818609E-02  0.9562732E-01
       -2   -1    0    0    0  501  0.00000000000E+00  0.00000000000E+00  0.21219249199E+03  0.21219249201E+03  0.25500000920E-02 0.  1.
        2   -1    0    0  501    0  0.00000000000E+00  0.00000000000E+00 -0.75050602122E+03  0.75050602123E+03  0.25500000920E-02 0. -1.
    10030    2    1    2    0    0  0.00000000000E+00  0.00000000000E+00 -0.53831352923E+03  0.96269851323E+03  0.79812716507E+03 0.  0.
        3    1    3    3  502    0 -0.35799490381E+02  0.81121562164E+02  0.20015989714E+03  0.21892077559E+03  0.10100000352E+00 0.  1.
       -3    1    3    3    0  502  0.35799490381E+02 -0.81121562164E+02 -0.73847342637E+03  0.74377773765E+03  0.10100000352E+00 0. -1.
</event>
<event>
 5   0  0.2063692E-02  0.7954209E+03  0.7818609E-02  0.9566669E-01
        1   -1    0    0  501    0  0.00000000000E+00  0.00000000000E+00  0.68511961958E+03  0.68511961960E+03  0.50400001928E-02 0.  1.
       -1   -1    0    0    0  501  0.00000000000E+00  0.00000000000E+00 -0.23087005225E+03  0.23087005231E+03  0.50400001928E-02 0. -1.
    10030    2    1    2    0    0  0.00000000000E+00  0.00000000000E+00  0.45424956732E+03  0.91598967191E+03  0.79542090092E+03 0.  0.
        2    1    3    3  502    0 -0.29369933822E+03 -0.26301913747E+03  0.16689783542E+03  0.42812761581E+03  0.25500000920E-02 0. -1.
       -2    1    3    3    0  502  0.29369933822E+03  0.26301913747E+03  0.28735173190E+03  0.48786205610E+03  0.25500000920E-02 0.  1.
</event>
<event>
 5   0  0.1989298E-02  0.8314427E+03  0.7818609E-02  0.9515588E-01
        1   -1    0    0  501    0  0.00000000000E+00  0.00000000000E+00  0.93464298587E+03  0.93464298588E+03  0.50400001928E-02 0.  1.
       -1   -1    0    0    0  501  0.00000000000E+00  0.00000000000E+00 -0.18490936788E+03  0.18490936795E+03  0.50400001928E-02 0. -1.
    10030    2    1    2    0    0  0.00000000000E+00  0.00000000000E+00  0.74973361799E+03  0.11195523538E+04  0.83144270700E+03 0.  0.
        1    1    3    3  502    0  0.12455694898E+03 -0.26078211362E+03 -0.27520139822E+02  0.29030863309E+03  0.50400001928E-02 0. -1.
       -1    1    3    3    0  502 -0.12455694898E+03  0.26078211362E+03  0.77725375782E+03  0.82924372074E+03  0.50400001928E-02 0.  1.
</event>
<event>
 5   0  0.3404132E-02  0.5818805E+03  0.7818609E-02  0.9943728E-01
        2   -1    0    0  501    0  0.00000000000E+00  0.00000000000E+00  0.20686846148E+04  0.20686846148E+04  0.25500000920E-02 0. -1.
       -2   -1    0    0    0  501  0.00000000000E+00  0.00000000000E+00 -0.40917899976E+02  0.40917900056E+02  0.25500000920E-02 0.  1.
    10030    2    1    2    0    0  0.00000000000E+00  0.00000000000E+00  0.20277667148E+04  0.21096025148E+04  0.58188050400E+03 0.  0.
        5    1    3    3  502    0  0.72548273540E+02 -0.27731897814E+03  0.83424503188E+03  0.88213147027E+03  0.46999998093E+01 0.  1.
       -5    1    3    3    0  502 -0.72548273540E+02  0.27731897814E+03  0.11935216829E+04  0.12274710445E+04  0.46999998093E+01 0. -1.
</event>
<event>
 5   0  0.2132540E-02  0.7939153E+03  0.7818609E-02  0.9568867E-01
        1   -1    0    0  501    0  0.00000000000E+00  0.00000000000E+00  0.99229282207E+03  0.99229282209E+03  0.50400001928E-02 0.  1.
       -1   -1    0    0    0  501  0.00000000000E+00  0.00000000000E+00 -0.15879925155E+03  0.15879925163E+03  0.50400001928E-02 0. -1.
    10030    2    1    2    0    0  0.00000000000E+00  0.00000000000E+00  0.83349357052E+03  0.11510920737E+04  0.79391525372E+03 0.  0.
        4    1    3    3  502    0 -0.18207891122E+03  0.17452029252E+03 -0.27696071925E+02  0.25372967448E+03  0.12699999809E+01 0. -1.
       -4    1    3    3    0  502  0.18207891122E+03 -0.17452029252E+03  0.86118964244E+03  0.89736239924E+03  0.12699999809E+01 0.  1.
</event>
<event>
 5   0  0.1989298E-02  0.7941771E+03  0.7818609E-02  0.9568484E-01
        1   -1    0    0  501    0  0.00000000000E+00  0.00000000000E+00  0.30964346808E+03  0.30964346812E+03  0.50400001928E-02 0.  1.
       -1   -1    0    0    0  501  0.00000000000E+00  0.00000000000E+00 -0.50922856554E+03  0.50922856557E+03  0.50400001928E-02 0. -1.
    10030    2    1    2    0    0  0.00000000000E+00  0.00000000000E+00 -0.19958509747E+03  0.81887203368E+03  0.79417705609E+03 0.  0.
        1    1    3    3  502    0  0.29552272123E+03 -0.14452049684E+03 -0.32910272505E+03  0.46532618284E+03  0.50400001928E-02 0. -1.
       -1    1    3    3    0  502 -0.29552272123E+03  0.14452049684E+03  0.12951762758E+03  0.35354585085E+03  0.50400001928E-02 0.  1.
</event>
<event>
 5   0  0.3343036E-02  0.8074441E+03  0.7818609E-02  0.9549304E-01
        2   -1    0    0  501    0  0.00000000000E+00  0.00000000000E+00  0.51532193925E+03  0.51532193925E+03  0.25500000920E-02 0. -1.
       -2   -1    0    0    0  501  0.00000000000E+00  0.00000000000E+00 -0.31629061143E+03  0.31629061144E+03  0.25500000920E-02 0.  1.
    10030    2    1    2    0    0  0.00000000000E+00  0.00000000000E+00  0.19903132782E+03  0.83161255069E+03  0.80744409405E+03 0.  0.
        4    1    3    3  502    0  0.19846207331E+03 -0.17024877716E+03  0.41632322724E+03  0.49162839941E+03  0.12699999809E+01 0. -1.
       -4    1    3    3    0  502 -0.19846207331E+03  0.17024877716E+03 -0.21729189942E+03  0.33998415128E+03  0.12699999809E+01 0.  1.
</event>
<event>
 5   0  0.1989298E-02  0.8004604E+03  0.7818609E-02  0.9559351E-01
       -1   -1    0    0    0  501  0.00000000000E+00  0.00000000000E+00  0.42933818527E+03  0.42933818530E+03  0.50400001928E-02 0.  1.
        1   -1    0    0  501    0  0.00000000000E+00  0.00000000000E+00 -0.37309567828E+03  0.37309567831E+03  0.50400001928E-02 0. -1.
    10030    2    1    2    0    0  0.00000000000E+00  0.00000000000E+00  0.56242506994E+02  0.80243386361E+03  0.80046042118E+03 0.  0.
        1    1    3    3  502    0 -0.47575400354E+02  0.71609945651E+02 -0.36372965321E+03  0.37375214204E+03  0.50400001928E-02 0. -1.
       -1    1    3    3    0  502  0.47575400354E+02 -0.71609945651E+02  0.41997216020E+03  0.42868172157E+03  0.50400001928E-02 0.  1.
</event>
<event>
 5   0  0.1989298E-02  0.8939381E+03  0.7818609E-02  0.9433191E-01
       -1   -1    0    0    0  501  0.00000000000E+00  0.00000000000E+00  0.16338409668E+03  0.16338409676E+03  0.50400001928E-02 0.  1.
        1   -1    0    0  501    0  0.00000000000E+00  0.00000000000E+00 -0.12227710858E+04  0.12227710858E+04  0.50400001928E-02 0. -1.
    10030    2    1    2    0    0  0.00000000000E+00  0.00000000000E+00 -0.10593869891E+04  0.13861551826E+04  0.89393813959E+03 0.  0.
        1    1    3    3  502    0  0.40489173442E+02 -0.19253939867E+03  0.92624652552E+02  0.21746291521E+03  0.50400001928E-02 0.  1.
       -1    1    3    3    0  502 -0.40489173442E+02  0.19253939867E+03 -0.11520116417E+04  0.11686922673E+04  0.50400001928E-02 0. -1.
</event>
<event>
 5   0  0.1989298E-02  0.7945602E+03  0.7818609E-02  0.9567925E-01
        1   -1    0    0  501    0  0.00000000000E+00  0.00000000000E+00  0.12013551824E+04  0.12013551824E+04  0.50400001928E-02 0.  1.
       -1   -1    0    0    0  501  0.00000000000E+00  0.00000000000E+00 -0.13137785952E+03  0.13137785961E+03  0.50400001928E-02 0. -1.
    10030    2    1    2    0    0  0.00000000000E+00  0.00000000000E+00  0.10699773229E+04  0.13327330420E+04  0.79456018641E+03 0.  0.
        1    1    3    3  502    0  0.90256221633E+02 -0.33878287674E+03  0.22158771427E+03  0.41475431072E+03  0.50400001928E-02 0. -1.
       -1    1    3    3    0  502 -0.90256221633E+02  0.33878287674E+03  0.84838960862E+03  0.91797873132E+03  0.50400001928E-02 0.  1.
</event>
<event>
 5   0  0.2077795E-02  0.7948007E+03  0.7818609E-02  0.9567574E-01
        1   -1    0    0  501    0  0.00000000000E+00  0.00000000000E+00  0.85492519787E+03  0.85492519788E+03  0.50400001928E-02 0.  1.
       -1   -1    0    0    0  501  0.00000000000E+00  0.00000000000E+00 -0.18472613821E+03  0.18472613828E+03  0.50400001928E-02 0. -1.
    10030    2    1    2    0    0  0.00000000000E+00  0.00000000000E+00  0.67019905966E+03  0.10396513362E+04  0.79480068018E+03 0.  0.
        5    1    3    3  502    0 -0.32424277898E+03 -0.22420383546E+03  0.26964133019E+03  0.47762880619E+03  0.46999998093E+01 0. -1.
       -5    1    3    3    0  502  0.32424277898E+03  0.22420383546E+03  0.40055772947E+03  0.56202252997E+03  0.46999998093E+01 0.  1.
</event>
<event>
 5   0  0.2077795E-02  0.7701047E+03  0.7818609E-02  0.9604327E-01
       -1   -1    0    0    0  501  0.00000000000E+00  0.00000000000E+00  0.93677312731E+03  0.93677312732E+03  0.50400001928E-02 0. -1.
        1   -1    0    0  501    0  0.00000000000E+00  0.00000000000E+00 -0.15827237108E+03  0.15827237116E+03  0.50400001928E-02 0.  1.
    10030    2    1    2    0    0  0.00000000000E+00  0.00000000000E+00  0.77850075623E+03  0.10950454985E+04  0.77010467879E+03 0.  0.
        5    1    3    3  502    0 -0.10598800875E+03 -0.10890976012E+03 -0.11378101368E+03  0.18990261431E+03  0.46999998093E+01 0.  1.
       -5    1    3    3    0  502  0.10598800875E+03  0.10890976012E+03  0.89228176991E+03  0.90514288417E+03  0.46999998093E+01 0. -1.
</event>
<event>
 5   0  0.2063692E-02  0.7217556E+03  0.7818609E-02  0.9680734E-01
       -1   -1    0    0    0  501  0.00000000000E+00  0.00000000000E+00  0.21035267730E+03  0.21035267736E+03  0.50400001928E-02 0.  1.
        1   -1    0    0  501    0  0.00000000000E+00  0.00000000000E+00 -0.61911643579E+03  0.61911643581E+03  0.50400001928E-02 0. -1.
    10030    2    1    2    0    0  0.00000000000E+00  0.00000000000E+00 -0.40876375849E+03  0.82946911317E+03  0.72175563693E+03 0.  0.
        2    1    3    3  502    0  0.70417705691E+02 -0.17009593340E+03 -0.56109310882E+03  0.59052244378E+03  0.25500000920E-02 0. -1.
       -2    1    3    3    0  502 -0.70417705691E+02  0.17009593340E+03  0.15232935033E+03  0.23894666939E+03  0.25500000920E-02 0.  1.
</event>
<event>
 5   0  0.2063692E-02  0.7978474E+03  0.7818609E-02  0.9563138E-01
        1   -1    0    0  501    0  0.00000000000E+00  0.00000000000E+00  0.46732974693E+03  0.46732974696E+03  0.50400001928E-02 0.  1.
       -1   -1    0    0    0  501  0.00000000000E+00  0.00000000000E+00 -0.34053072221E+03  0.34053072225E+03  0.50400001928E-02 0. -1.
    10030    2    1    2    0    0  0.00000000000E+00  0.00000000000E+00  0.12679902471E+03  0.80786046921E+03  0.79784744472E+03 0.  0.
        2    1    3    3  502    0  0.27190197930E+02  0.35266119961E+03 -0.12339033424E+03  0.37461233717E+03  0.25500000920E-02 0. -1.
       -2    1    3    3    0  502 -0.27190197930E+02 -0.35266119961E+03  0.25018935895E+03  0.43324813203E+03  0.25500000920E-02 0.  1.
</event>
<event>
 5   0  0.2063692E-02  0.7966018E+03  0.7818609E-02  0.9564949E-01
       -1   -1    0    0    0  501  0.00000000000E+00  0.00000000000E+00  0.24988322710E+03  0.24988322715E+03  0.50400001928E-02 0.  1.
        1   -1    0    0  501    0  0.00000000000E+00  0.00000000000E+00 -0.63487097433E+03  0.63487097435E+03  0.50400001928E-02 0. -1.
    10030    2    1    2    0    0  0.00000000000E+00  0.00000000000E+00 -0.38498774723E+03  0.88475420150E+03  0.79660180237E+03 0.  0.
        2    1    3    3  502    0 -0.29795336007E+03  0.97432352980E+02 -0.46539639360E+03  0.56112660903E+03  0.25500000920E-02 0. -1.
       -2    1    3    3    0  502  0.29795336007E+03 -0.97432352980E+02  0.80408646366E+02  0.32362759246E+03  0.25500000920E-02 0.  1.
</event>
<event>
 5   0  0.3404132E-02  0.8061254E+03  0.7818609E-02  0.9551193E-01
       -2   -1    0    0    0  501  0.00000000000E+00  0.00000000000E+00  0.31066033876E+03  0.31066033877E+03  0.25500000920E-02 0.  1.
        2   -1    0    0  501    0  0.00000000000E+00  0.00000000000E+00 -0.52294903417E+03  0.52294903417E+03  0.25500000920E-02 0. -1.
    10030    2    1    2    0    0  0.00000000000E+00  0.00000000000E+00 -0.21228869541E+03  0.83360937294E+03  0.80612536026E+03 0.  0.
        5    1    3    3  502    0 -0.20287991501E+01  0.14698186565E+03  0.28192295667E+03  0.31797866022E+03  0.46999998093E+01 0.  1.
       -5    1    3    3    0  502  0.20287991501E+01 -0.14698186565E+03 -0.49421165208E+03  0.51563071273E+03  0.46999998093E+01 0. -1.
</event>
<event>
 5   0  0.1989298E-02  0.7913626E+03  0.7818609E-02  0.9572604E-01
       -1   -1    0    0    0  501  0.00000000000E+00  0.00000000000E+00  0.10347591091E+04  0.10347591091E+04  0.50400001928E-02 0.  1.
        1   -1    0    0  501    0  0.00000000000E+00  0.00000000000E+00 -0.15130446799E+03  0.15130446808E+03  0.50400001928E-02 0. -1.
    10030    2    1    2    0    0  0.00000000000E+00  0.00000000000E+00  0.88345464113E+03  0.11860635772E+04  0.79136256309E+03 0.  0.
        1    1    3    3  502    0  0.11632188195E+03  0.37807414483E+03  0.42728643641E+03  0.58227531116E+03  0.50400001928E-02 0. -1.
       -1    1    3    3    0  502 -0.11632188195E+03 -0.37807414483E+03  0.45616820472E+03  0.60378826607E+03  0.50400001928E-02 0.  1.
</event>
<event>
 5   0  0.2077795E-02  0.7890067E+03  0.7818609E-02  0.9576067E-01
       -1   -1    0    0    0  501  0.00000000000E+00  0.00000000000E+00  0.48712165680E+03  0.48712165683E+03  0.50400001928E-02 0.  1.
        1   -1    0    0  501    0  0.00000000000E+00  0.00000000000E+00 -0.31949494031E+03  0.31949494035E+03  0.50400001928E-02 0. -1.
    10030    2    1    2    0    0  0.00000000000E+00  0.00000000000E+00  0.16762671649E+03  0.80661659717E+03  0.78900672922E+03 0.  0.
        5    1    3    3  502    0  0.17176465904E+03 -0.33760958129E+03  0.19639610997E+03  0.42670463964E+03  0.46999998093E+01 0.  1.
       -5    1    3    3    0  502 -0.17176465904E+03  0.33760958129E+03 -0.28769393480E+02  0.37991195753E+03  0.46999998093E+01 0. -1.
</event>
<event>
 5   0  0.3550586E-02  0.8126532E+03  0.7818609E-02  0.9541881E-01
       -2   -1    0    0    0  501  0.00000000000E+00  0.00000000000E+00  0.68871993565E+03  0.68871993565E+03  0.25500000920E-02 0.  1.
        2   -1    0    0  501    0  0.00000000000E+00  0.00000000000E+00 -0.23972196332E+03  0.23972196334E+03  0.25500000920E-02 0. -1.
    10030    2    1    2    0    0  0.00000000000E+00  0.00000000000E+00  0.44899797233E+03  0.92844189899E+03  0.81265317365E+03 0.  0.
        3    1    3    3  502    0  0.29076169779E+03 -0.85831812909E+02  0.53358600699E+03  0.61369658795E+03  0.10100000352E+00 0.  1.
       -3    1    3    3    0  502 -0.29076169779E+03  0.85831812909E+02 -0.84588034666E+02  0.31474531104E+03  0.10100000352E+00 0. -1.
</event>
<event>
 5   0  0.2132540E-02  0.7960961E+03  0.7818609E-02  0.9565685E-01
       -1   -1    0    0    0  501  0.00000000000E+00  0.00000000000E+00  0.33118809387E+03  0.33118809390E+03  0.50400001928E-02 0. -1.
        1   -1    0    0  501    0  0.00000000000E+00  0.00000000000E+00 -0.47840561521E+03  0.47840561524E+03  0.50400001928E-02 0.  1.
    10030    2    1    2    0    0  0.00000000000E+00  0.00000000000E+00 -0.14721752134E+03  0.80959370914E+03  0.79609608421E+03 0.  0.
        4    1    3    3  502    0  0.26043030830E+03  0.74441937653E+02  0.22301287729E+03  0.35085880907E+03  0.12699999809E+01 0. -1.
       -4    1    3    3    0  502 -0.26043030830E+03 -0.74441937653E+02 -0.37023039864E+03  0.45873490007E+03  0.12699999809E+01 0.  1.
</event>
<event>
 5   0  0.3343036E-02  0.7943020E+03  0.7818609E-02  0.9568302E-01
       -2   -1    0    0    0  501  0.00000000000E+00  0.00000000000E+00  0.20597459254E+03  0.20597459256E+03  0.25500000920E-02 0.  1.
        2   -1    0    0  501    0  0.00000000000E+00  0.00000000000E+00 -0.76576878568E+03  0.76576878568E+03  0.25500000920E-02 0. -1.
    10030    2    1    2    0    0  0.00000000000E+00  0.00000000000E+00 -0.55979419314E+03  0.97174337824E+03  0.79430199199E+03 0.  0.
        4    1    3    3  502    0 -0.15614267969E+03 -0.21223894966E+03  0.83640820468E+02  0.27644765856E+03  0.12699999809E+01 0.  1.
       -4    1    3    3    0  502  0.15614267969E+03  0.21223894966E+03 -0.64343501360E+03  0.69529571968E+03  0.12699999809E+01 0. -1.
</event>
<event>
 5   0  0.3416160E-02  0.7807300E+03  0.7818609E-02  0.9588336E-01
       -2   -1    0    0    0  501  0.00000000000E+00  0.00000000000E+00  0.94387891054E+02  0.94387891089E+02  0.25500000920E-02 0.  1.
        2   -1    0    0  501    0  0.00000000000E+00  0.00000000000E+00 -0.16144530099E+04  0.16144530099E+04  0.25500000920E-02 0. -1.
    10030    2    1    2    0    0  0.00000000000E+00  0.00000000000E+00 -0.15200651188E+04  0.17088409010E+04  0.78072995291E+03 0.  0.
        1    1    3    3  502    0  0.24200732356E+03  0.24313632856E+03 -0.35229753794E+03  0.49172794733E+03  0.50400001928E-02 0.  1.
       -1    1    3    3    0  502 -0.24200732356E+03 -0.24313632856E+03 -0.11677675809E+04  0.12171129537E+04  0.50400001928E-02 0. -1.
</event>
<event>
 5   0  0.2129257E-02  0.8083612E+03  0.7818609E-02  0.9547993E-01
       -1   -1    0    0    0  501  0.00000000000E+00  0.00000000000E+00  0.30127995718E+03  0.30127995722E+03  0.50400001928E-02 0.  1.
        1   -1    0    0  501    0  0.00000000000E+00  0.00000000000E+00 -0.54222650150E+03  0.54222650152E+03  0.50400001928E-02 0. -1.
    10030    2    1    2    0    0  0.00000000000E+00  0.00000000000E+00 -0.24094654432E+03  0.84350645875E+03  0.80836124890E+03 0.  0.
        3    1    3    3  502    0  0.92706874485E+02 -0.77257811072E+02 -0.52298857579E+03  0.53673121258E+03  0.10100000352E+00 0. -1.
       -3    1    3    3    0  502 -0.92706874485E+02  0.77257811072E+02  0.28204203147E+03  0.30677524617E+03  0.10100000352E+00 0.  1.
</event>
<event>
 5   0  0.3550586E-02  0.7878924E+03  0.7818609E-02  0.9577710E-01
        2   -1    0    0  501    0  0.00000000000E+00  0.00000000000E+00  0.98316155902E+03  0.98316155902E+03  0.25500000920E-02 0.  1.
       -2   -1    0    0    0  501  0.00000000000E+00  0.00000000000E+00 -0.15785158611E+03  0.15785158613E+03  0.25500000920E-02 0. -1.
    10030    2    1    2    0    0  0.00000000000E+00  0.00000000000E+00  0.82530997291E+03  0.11410131452E+04  0.78789240765E+03 0.  0.
        3    1    3    3  502    0  0.17768011512E+03  0.24888448595E+03  0.77231779377E+03  0.83065546133E+03  0.10100000352E+00 0.  1.
       -3    1    3    3    0  502 -0.17768011512E+03 -0.24888448595E+03  0.52992179134E+02  0.31035768382E+03  0.10100000352E+00 0. -1.
</event>
<event>
 5   0  0.2132540E-02  0.7850734E+03  0.7818609E-02  0.9581878E-01
       -1   -1    0    0    0  501  0.00000000000E+00  0.00000000000E+00  0.23563129349E+03  0.23563129355E+03  0.50400001928E-02 0.  1.
        1   -1    0    0  501    0  0.00000000000E+00  0.00000000000E+00 -0.65392451402E+03  0.65392451404E+03  0.50400001928E-02 0. -1.
    10030    2    1    2    0    0  0.00000000000E+00  0.00000000000E+00 -0.41829322053E+03  0.88955580759E+03  0.78507344655E+03 0.  0.
        4    1    3    3  502    0 -0.34214825845E+02 -0.38449643864E+03 -0.12842426054E+03  0.40682006984E+03  0.12699999809E+01 0.  1.
       -4    1    3    3    0  502  0.34214825845E+02  0.38449643864E+03 -0.28986895999E+03  0.48273573775E+03  0.12699999809E+01 0. -1.
</event>
<event>
 5   0  0.3467240E-02  0.7167259E+03  0.7818609E-02  0.9689049E-01
        2   -1    0    0  501    0  0.00000000000E+00  0.00000000000E+00  0.30563959294E+03  0.30563959295E+03  0.25500000920E-02 0.  1.
       -2   -1    0    0    0  501  0.00000000000E+00  0.00000000000E+00 -0.42018113051E+03  0.42018113052E+03  0.25500000920E-02 0. -1.
    10030    2    1    2    0    0  0.00000000000E+00  0.00000000000E+00 -0.11454153757E+03  0.72582072347E+03  0.71672586027E+03 0.  0.
        2    1    3    3  502    0  0.20627655486E+03  0.28727188627E+02  0.23806101152E+03  0.31630414740E+03  0.25500000920E-02 0.  1.
       -2    1    3    3    0  502 -0.20627655486E+03 -0.28727188627E+02 -0.35260254908E+03  0.40951657607E+03  0.25500000920E-02 0. -1.
</event>
<event>
 5   0  0.2132540E-02  0.8036502E+03  0.7818609E-02  0.9554749E-01
       -1   -1    0    0    0  501  0.00000000000E+00  0.00000000000E+00  0.20222078489E+03  0.20222078495E+03  0.50400001928E-02 0. -1.
        1   -1    0    0  501    0  0.00000000000E+00  0.00000000000E+00 -0.79845106017E+03  0.79845106019E+03  0.50400001928E-02 0.  1.
    10030    2    1    2    0    0  0.00000000000E+00  0.00000000000E+00 -0.59623027528E+03  0.10006718451E+04  0.80365017296E+03 0.  0.
        4    1    3    3  502    0  0.28148750459E+03  0.14312979704E+03  0.11277143328E+02  0.31599072914E+03  0.12699999809E+01 0. -1.
       -4    1    3    3    0  502 -0.28148750459E+03 -0.14312979704E+03 -0.60750741861E+03  0.68468111600E+03  0.12699999809E+01 0.  1.
</event>
<event>
 5   0  0.2132540E-02  0.8003713E+03  0.7818609E-02  0.9559480E-01
       -1   -1    0    0    0  501  0.00000000000E+00  0.00000000000E+00  0.98464422713E+02  0.98464422842E+02  0.50400001928E-02 0. -1.
        1   -1    0    0  501    0  0.00000000000E+00  0.00000000000E+00 -0.16264611024E+04  0.16264611024E+04  0.50400001928E-02 0.  1.
    10030    2    1    2    0    0  0.00000000000E+00  0.00000000000E+00 -0.15279966797E+04  0.17249255253E+04  0.80037129792E+03 0.  0.
        4    1    3    3  502    0  0.25680111243E+03 -0.20089769182E+03 -0.26392654062E+03  0.41948244977E+03  0.12699999809E+01 0. -1.
       -4    1    3    3    0  502 -0.25680111243E+03  0.20089769182E+03 -0.12640701391E+04  0.13054430755E+04  0.12699999809E+01 0.  1.
</event>
<event>
 5   0  0.2063692E-02  0.8115841E+03  0.7818609E-02  0.9543399E-01
       -1   -1    0    0    0  501  0.00000000000E+00  0.00000000000E+00  0.36064080562E+03  0.36064080565E+03  0.50400001928E-02 0.  1.
        1   -1    0    0  501    0  0.00000000000E+00  0.00000000000E+00 -0.45659606307E+03  0.45659606309E+03  0.50400001928E-02 0. -1.
    10030    2    1    2    0    0  0.00000000000E+00  0.00000000000E+00 -0.95955257450E+02  0.81723686875E+03  0.81158406108E+03 0.  0.
        2    1    3    3  502    0  0.21217763404E+03  0.19405339729E+03  0.24035766494E+03  0.37476376091E+03  0.25500000920E-02 0.  1.
       -2    1    3    3    0  502 -0.21217763404E+03 -0.19405339729E+03 -0.33631292239E+03  0.44247310784E+03  0.25500000920E-02 0. -1.
</event>
<event>
 5   0  0.3467240E-02  0.8100635E+03  0.7818609E-02  0.9545564E-01
       -2   -1    0    0    0  501  0.00000000000E+00  0.00000000000E+00  0.24522534443E+03  0.24522534444E+03  0.25500000920E-02 0.  1.
        2   -1    0    0  501    0  0.00000000000E+00  0.00000000000E+00 -0.66897947326E+03  0.66897947326E+03  0.25500000920E-02 0. -1.
    10030    2    1    2    0    0  0.00000000000E+00  0.00000000000E+00 -0.42375412883E+03  0.91420481771E+03  0.81006350801E+03 0.  0.
        2    1    3    3  502    0 -0.11728934446E+03  0.17548780815E+02  0.22519168743E+03  0.25451138703E+03  0.25500000920E-02 0.  1.
       -2    1    3    3    0  502  0.11728934446E+03 -0.17548780815E+02 -0.64894581626E+03  0.65969343068E+03  0.25500000920E-02 0. -1.
</event>
<event>
 5   0  0.3416160E-02  0.8102721E+03  0.7818609E-02  0.9545267E-01
        2   -1    0    0  501    0  0.00000000000E+00  0.00000000000E+00  0.35103313230E+03  0.35103313231E+03  0.25500000920E-02 0.  1.
       -2   -1    0    0    0  501  0.00000000000E+00  0.00000000000E+00 -0.46757760281E+03  0.46757760282E+03  0.25500000920E-02 0. -1.
    10030    2    1    2    0    0  0.00000000000E+00  0.00000000000E+00 -0.11654447052E+03  0.81861073513E+03  0.81027212840E+03 0.  0.
        1    1    3    3  502    0 -0.50920908253E+02 -0.30697439044E+03  0.20383750103E+03  0.37198916937E+03  0.50400001928E-02 0.  1.
       -1    1    3    3    0  502  0.50920908253E+02  0.30697439044E+03 -0.32038197154E+03  0.44662156575E+03  0.50400001928E-02 0. -1.
</event>
<event>
 5   0  0.3404132E-02  0.5362274E+03  0.7818609E-02  0.1004733E+00
       -2   -1    0    0    0  501  0.00000000000E+00  0.00000000000E+00  0.22456927686E+03  0.22456927688E+03  0.25500000920E-02 0.  1.
        2   -1    0    0  501    0  0.00000000000E+00  0.00000000000E+00 -0.32010145130E+03  0.32010145131E+03  0.25500000920E-02 0. -1.
    10030    2    1    2    0    0  0.00000000000E+00  0.00000000000E+00 -0.95532174435E+02  0.54467072819E+03  0.53622738254E+03 0.  0.
        5    1    3    3  502    0  0.22309268447E+03 -0.14512556369E+03 -0.15149946872E+02  0.26661467699E+03  0.46999998093E+01 0. -1.
       -5    1    3    3    0  502 -0.22309268447E+03  0.14512556369E+03 -0.80382227563E+02  0.27805605119E+03  0.46999998093E+01 0.  1.
</event>
<event>
 5   0  0.3416160E-02  0.8043487E+03  0.7818609E-02  0.9553744E-01
        2   -1    0    0  501    0  0.00000000000E+00  0.00000000000E+00  0.43597926873E+03  0.43597926874E+03  0.25500000920E-02 0. -1.
       -2   -1    0    0    0  501  0.00000000000E+00  0.00000000000E+00 -0.37099060165E+03  0.37099060166E+03  0.25500000920E-02 0.  1.
    10030    2    1    2    0    0  0.00000000000E+00  0.00000000000E+00  0.64988667079E+02  0.80696987039E+03  0.80434870851E+03 0.  0.
        1    1    3    3  502    0  0.28292866213E+03  0.93306174763E+02 -0.23855183192E+03  0.38165645107E+03  0.50400001928E-02 0.  1.
       -1    1    3    3    0  502 -0.28292866213E+03 -0.93306174763E+02  0.30354049900E+03  0.42531341933E+03  0.50400001928E-02 0. -1.
</event>
<event>
 5   0  0.1989298E-02  0.7933091E+03  0.7818609E-02  0.9569753E-01
        1   -1    0    0  501    0  0.00000000000E+00  0.00000000000E+00  0.41530912707E+03  0.41530912710E+03  0.50400001928E-02 0.  1.
       -1   -1    0    0    0  501  0.00000000000E+00  0.00000000000E+00 -0.37883789193E+03  0.37883789197E+03  0.50400001928E-02 0. -1.
    10030    2    1    2    0    0  0.00000000000E+00  0.00000000000E+00  0.36471235142E+02  0.79414701907E+03  0.79330910552E+03 0.  0.
        1    1    3    3  502    0  0.11221699362E+03  0.49227089549E+02  0.39588581909E+03  0.41441711087E+03  0.50400001928E-02 0.  1.
       -1    1    3    3    0  502 -0.11221699362E+03 -0.49227089549E+02 -0.35941458395E+03  0.37972990820E+03  0.50400001928E-02 0. -1.
</event>
<event>
 5   0  0.3404132E-02  0.8104130E+03  0.7818609E-02  0.9545066E-01
        2   -1    0    0  501    0  0.00000000000E+00  0.00000000000E+00  0.92779142756E+03  0.92779142757E+03  0.25500000920E-02 0.  1.
       -2   -1    0    0    0  501  0.00000000000E+00  0.00000000000E+00 -0.17697113464E+03  0.17697113466E+03  0.25500000920E-02 0. -1.
    10030    2    1    2    0    0  0.00000000000E+00  0.00000000000E+00  0.75082029292E+03  0.11047625622E+04  0.81041298524E+03 0.  0.
        5    1    3    3  502    0  0.39971306825E+03  0.56183088100E+01  0.46550693435E+03  0.61361298735E+03  0.46999998093E+01 0.  1.
       -5    1    3    3    0  502 -0.39971306825E+03 -0.56183088100E+01  0.28531335857E+03  0.49114957488E+03  0.46999998093E+01 0. -1.
</event>
<event>
 5   0  0.1358000E-02  0.7949824E+03  0.7818609E-02  0.9567308E-01
       -3   -1    0    0    0  501  0.00000000000E+00  0.00000000000E+00  0.43576897989E+03  0.43576899160E+03  0.10100000352E+00 0.  1.
        3   -1    0    0  501    0  0.00000000000E+00  0.00000000000E+00 -0.36257574709E+03  0.36257576116E+03  0.10100000352E+00 0. -1.
    10030    2    1    2    0    0  0.00000000000E+00  0.00000000000E+00  0.73193232801E+02  0.79834475275E+03  0.79498244944E+03 0.  0.
        2    1    3    3  502    0 -0.34267147455E+03 -0.13465729117E+03  0.18703992902E+03  0.41296520506E+03  0.25500000920E-02 0. -1.
       -2    1    3    3    0  502  0.34267147455E+03  0.13465729117E+03 -0.11384669622E+03  0.38537954769E+03  0.25500000920E-02 0.  1.
</event>
<event>
 5   0  0.3343036E-02  0.7996111E+03  0.7818609E-02  0.9560580E-01
       -2   -1    0    0    0  501  0.00000000000E+00  0.00000000000E+00  0.12020759408E+03  0.12020759411E+03  0.25500000920E-02 0. -1.
        2   -1    0    0  501    0  0.00000000000E+00  0.00000000000E+00 -0.13297369018E+04  0.13297369018E+04  0.25500000920E-02 0.  1.
    10030    2    1    2    0    0  0.00000000000E+00  0.00000000000E+00 -0.12095293077E+04  0.14499444959E+04  0.79961108983E+03 0.  0.
        4    1    3    3  502    0  0.30875474331E+03 -0.20863201190E+03 -0.34207803475E+03  0.50584167747E+03  0.12699999809E+01 0. -1.
       -4    1    3    3    0  502 -0.30875474331E+03  0.20863201190E+03 -0.86745127298E+03  0.94410281845E+03  0.12699999809E+01 0.  1.
</event>
<event>
 5   0  0.3343036E-02  0.8160355E+03  0.7818609E-02  0.9537092E-01
        2   -1    0    0  501    0  0.00000000000E+00  0.00000000000E+00  0.28616231751E+03  0.28616231753E+03  0.25500000920E-02 0. -1.
       -2   -1    0    0    0  501  0.00000000000E+00  0.00000000000E+00 -0.58176241131E+03  0.58176241132E+03  0.25500000920E-02 0.  1.
    10030    2    1    2    0    0  0.00000000000E+00  0.00000000000E+00 -0.29560009380E+03  0.86792472884E+03  0.81603548911E+03 0.  0.
        4    1    3    3  502    0 -0.21427134661E+03  0.33941834113E+03 -0.22566628616E+03  0.46048225361E+03  0.12699999809E+01 0.  1.
       -4    1    3    3    0  502  0.21427134661E+03 -0.33941834113E+03 -0.69933807637E+02  0.40744247524E+03  0.12699999809E+01 0. -1.
</event>
<event>
 5   0  0.1358000E-02  0.8088854E+03  0.7818609E-02  0.9547244E-01
       -4   -1    0    0    0  501  0.00000000000E+00  0.00000000000E+00  0.32716918929E+03  0.32717165421E+03  0.12699999809E+01 0. -1.
        4   -1    0    0  501    0  0.00000000000E+00  0.00000000000E+00 -0.49996213039E+03  0.49996374341E+03  0.12699999809E+01 0.  1.
    10030    2    1    2    0    0  0.00000000000E+00  0.00000000000E+00 -0.17279294110E+03  0.82713539762E+03  0.80888538466E+03 0.  0.
        5    1    3    3  502    0  0.33575426781E+02  0.17552806518E+03  0.28457567937E+03  0.33606966278E+03  0.46999998093E+01 0. -1.
       -5    1    3    3    0  502 -0.33575426781E+02 -0.17552806518E+03 -0.45736862047E+03  0.49106573485E+03  0.46999998093E+01 0.  1.
</event>
<event>
 5   0  0.1989298E-02  0.8161430E+03  0.7818609E-02  0.9536940E-01
        1   -1    0    0  501    0  0.00000000000E+00  0.00000000000E+00  0.83910713141E+03  0.83910713142E+03  0.50400001928E-02 0. -1.
       -1   -1    0    0    0  501  0.00000000000E+00  0.00000000000E+00 -0.19845182357E+03  0.19845182364E+03  0.50400001928E-02 0.  1.
    10030    2    1    2    0    0  0.00000000000E+00  0.00000000000E+00  0.64065530783E+03  0.10375589551E+04  0.81614297875E+03 0.  0.
        1    1    3    3  502    0 -0.75778857840E+02  0.34034841130E+03  0.58983890920E+03  0.68519297661E+03  0.50400001928E-02 0. -1.
       -1    1    3    3    0  502  0.75778857840E+02 -0.34034841130E+03  0.50816398634E+02  0.35236597845E+03  0.50400001928E-02 0.  1.
</event>
<event>
 5   0  0.2077795E-02  0.8265415E+03  0.7818609E-02  0.9522374E-01
        1   -1    0    0  501    0  0.00000000000E+00  0.00000000000E+00  0.22164542030E+03  0.22164542035E+03  0.50400001928E-02 0. -1.
       -1   -1    0    0    0  501  0.00000000000E+00  0.00000000000E+00 -0.77056736238E+03  0.77056736239E+03  0.50400001928E-02 0.  1.
    10030    2    1    2    0    0  0.00000000000E+00  0.00000000000E+00 -0.54892194208E+03  0.99221278275E+03  0.82654153420E+03 0.  0.
        5    1    3    3  502    0  0.74700067060E+02  0.39456449357E+03 -0.39152315783E+03  0.56086871256E+03  0.46999998093E+01 0.  1.
       -5    1    3    3    0  502 -0.74700067060E+02 -0.39456449357E+03 -0.15739878425E+03  0.43134407019E+03  0.46999998093E+01 0. -1.
</event>
<event>
 5   0  0.3343036E-02  0.8007831E+03  0.7818609E-02  0.9558884E-01
       -2   -1    0    0    0  501  0.00000000000E+00  0.00000000000E+00  0.10267172945E+03  0.10267172948E+03  0.25500000920E-02 0.  1.
        2   -1    0    0  501    0  0.00000000000E+00  0.00000000000E+00 -0.15614169535E+04  0.15614169535E+04  0.25500000920E-02 0. -1.
    10030    2    1    2    0    0  0.00000000000E+00  0.00000000000E+00 -0.14587452240E+04  0.16640886830E+04  0.80078306436E+03 0.  0.
        4    1    3    3  502    0 -0.30317364757E+03  0.23482288924E+03 -0.96862880433E+03  0.10417770507E+04  0.12699999809E+01 0. -1.
       -4    1    3    3    0  502  0.30317364757E+03 -0.23482288924E+03 -0.49011641971E+03  0.62231163227E+03  0.12699999809E+01 0.  1.
</event>
<event>
 5   0  0.3404132E-02  0.7580078E+03  0.7818609E-02  0.9622871E-01
       -2   -1    0    0    0  501  0.00000000000E+00  0.00000000000E+00  0.27898538385E+03  0.27898538386E+03  0.25500000920E-02 0. -1.
        2   -1    0    0  501    0  0.00000000000E+00  0.00000000000E+00 -0.51487982632E+03  0.51487982633E+03  0.25500000920E-02 0.  1.
    10030    2    1    2    0    0  0.00000000000E+00  0.00000000000E+00 -0.23589444247E+03  0.79386521019E+03  0.75800777303E+03 0.  0.
        5    1    3    3  502    0  0.34676361185E+03 -0.15068450028E+03 -0.90817479861E+02  0.38887109146E+03  0.46999998093E+01 0. -1.
       -5    1    3    3    0  502 -0.34676361185E+03  0.15068450028E+03 -0.14507696261E+03  0.40499411873E+03  0.46999998093E+01 0.  1.
</event>
<event>
 5   0  0.3416160E-02  0.8122447E+03  0.7818609E-02  0.9542461E-01
       -2   -1    0    0    0  501  0.00000000000E+00  0.00000000000E+00  0.14916634250E+03  0.14916634252E+03  0.25500000920E-02 0. -1.
        2   -1    0    0  501    0  0.00000000000E+00  0.00000000000E+00 -0.11057144641E+04  0.11057144641E+04  0.25500000920E-02 0.  1.
    10030    2    1    2    0    0  0.00000000000E+00  0.00000000000E+00 -0.95654812162E+03  0.12548808066E+04  0.81224474754E+03 0.  0.
        1    1    3    3  502    0 -0.11396491098E+02  0.25288057026E+03 -0.96892023311E+03  0.10014414017E+04  0.50400001928E-02 0.  1.
       -1    1    3    3    0  502  0.11396491098E+02 -0.25288057026E+03  0.12372111487E+02  0.25343940498E+03  0.50400001928E-02 0. -1.
</event>
<event>
 5   0  0.3416160E-02  0.7933552E+03  0.7818609E-02  0.9569685E-01
        2   -1    0    0  501    0  0.00000000000E+00  0.00000000000E+00  0.41742496280E+03  0.41742496281E+03  0.25500000920E-02 0. -1.
       -2   -1    0    0    0  501  0.00000000000E+00  0.00000000000E+00 -0.37696145484E+03  0.37696145485E+03  0.25500000920E-02 0.  1.
    10030    2    1    2    0    0  0.00000000000E+00  0.00000000000E+00  0.40463507961E+02  0.79438641766E+03  0.79335520739E+03 0.  0.
        1    1    3    3  502    0 -0.13435212658E+03 -0.13876188715E+03 -0.32669770163E+03  0.37952172997E+03  0.50400001928E-02 0.  1.
       -1    1    3    3    0  502  0.13435212658E+03  0.13876188715E+03  0.36716120959E+03  0.41486468769E+03  0.50400001928E-02 0. -1.
</event>
<event>
 5   0  0.2077795E-02  0.8116762E+03  0.7818609E-02  0.9543268E-01
        1   -1    0    0  501    0  0.00000000000E+00  0.00000000000E+00  0.27178333712E+03  0.27178333717E+03  0.50400001928E-02 0.  1.
       -1   -1    0    0    0  501  0.00000000000E+00  0.00000000000E+00 -0.60601421262E+03  0.60601421264E+03  0.50400001928E-02 0. -1.
    10030    2    1    2    0    0  0.00000000000E+00  0.00000000000E+00 -0.33423087550E+03  0.87779754982E+03  0.81167620412E+03 0.  0.
        5    1    3    3  502    0  0.26595184741E+03  0.11674373401E+03  0.13938527233E+03  0.32219532695E+03  0.46999998093E+01 0.  1.
       -5    1    3    3    0  502 -0.26595184741E+03 -0.11674373401E+03 -0.47361614783E+03  0.55560222286E+03  0.46999998093E+01 0. -1.
</event>
<event>
 5   0  0.2077795E-02  0.8390304E+03  0.7818609E-02  0.9505179E-01
       -1   -1    0    0    0  501  0.00000000000E+00  0.00000000000E+00  0.36177931843E+03  0.36177931846E+03  0.50400001928E-02 0.  1.
        1   -1    0    0  501    0  0.00000000000E+00  0.00000000000E+00 -0.48646504026E+03  0.48646504029E+03  0.50400001928E-02 0. -1.
    10030    2    1    2    0    0  0.00000000000E+00  0.00000000000E+00 -0.12468572183E+03  0.84824435875E+03  0.83903037068E+03 0.  0.
        5    1    3    3  502    0  0.18080625525E+03 -0.28259721420E+03 -0.31693931712E+03  0.46154599787E+03  0.46999998093E+01 0. -1.
       -5    1    3    3    0  502 -0.18080625525E+03  0.28259721420E+03  0.19225359529E+03  0.38669836088E+03  0.46999998093E+01 0.  1.
</event>
<event>
 5   0  0.3343036E-02  0.7928744E+03  0.7818609E-02  0.9570389E-01
       -2   -1    0    0    0  501  0.00000000000E+00  0.00000000000E+00  0.19283261676E+03  0.19283261678E+03  0.25500000920E-02 0.  1.
        2   -1    0    0  501    0  0.00000000000E+00  0.00000000000E+00 -0.81502004638E+03  0.81502004638E+03  0.25500000920E-02 0. -1.
    10030    2    1    2    0    0  0.00000000000E+00  0.00000000000E+00 -0.62218742961E+03  0.10078526632E+04  0.79287438669E+03 0.  0.
        4    1    3    3  502    0  0.59103867073E+02 -0.39062519213E+03 -0.35285842982E+03  0.52970934693E+03  0.12699999809E+01 0.  1.
       -4    1    3    3    0  502 -0.59103867073E+02  0.39062519213E+03 -0.26932899980E+03  0.47814331623E+03  0.12699999809E+01 0. -1.
</event>
<event>
 5   0  0.2132540E-02  0.7983953E+03  0.7818609E-02  0.9562343E-01
       -1   -1    0    0    0  501  0.00000000000E+00  0.00000000000E+00  0.35540108278E+03  0.35540108282E+03  0.50400001928E-02 0.  1.
        1   -1    0    0  501    0  0.00000000000E+00  0.00000000000E+00 -0.44839129533E+03  0.44839129536E+03  0.50400001928E-02 0. -1.
    10030    2    1    2    0    0  0.00000000000E+00  0.00000000000E+00 -0.92990212552E+02  0.80379237818E+03  0.79839527027E+03 0.  0.
        4    1    3    3  502    0  0.23905057067E+02 -0.14187384369E+03  0.32838950264E+03  0.35852603479E+03  0.12699999809E+01 0.  1.
       -4    1    3    3    0  502 -0.23905057067E+02  0.14187384369E+03 -0.42137971520E+03  0.44526634339E+03  0.12699999809E+01 0. -1.
</event>
<event>
 5   0  0.3343036E-02  0.7980415E+03  0.7818609E-02  0.9562856E-01
        2   -1    0    0  501    0  0.00000000000E+00  0.00000000000E+00  0.13265093183E+04  0.13265093183E+04  0.25500000920E-02 0.  1.
       -2   -1    0    0    0  501  0.00000000000E+00  0.00000000000E+00 -0.12002746138E+03  0.12002746141E+03  0.25500000920E-02 0. -1.
    10030    2    1    2    0    0  0.00000000000E+00  0.00000000000E+00  0.12064818569E+04  0.14465367797E+04  0.79804146759E+03 0.  0.
        4    1    3    3  502    0 -0.36595751068E+03  0.33948182314E+02  0.32162342076E+03  0.48838572500E+03  0.12699999809E+01 0. -1.
       -4    1    3    3    0  502  0.36595751068E+03 -0.33948182314E+02  0.88485843616E+03  0.95815105471E+03  0.12699999809E+01 0.  1.
</event>
<event>
 5   0  0.2129257E-02  0.7939759E+03  0.7818609E-02  0.9568778E-01
       -1   -1    0    0    0  501  0.00000000000E+00  0.00000000000E+00  0.12241589432E+03  0.12241589442E+03  0.50400001928E-02 0. -1.
        1   -1    0    0  501    0  0.00000000000E+00  0.00000000000E+00 -0.12874097953E+04  0.12874097953E+04  0.50400001928E-02 0.  1.
    10030    2    1    2    0    0  0.00000000000E+00  0.00000000000E+00 -0.11649939010E+04  0.14098256897E+04  0.79397587249E+03 0.  0.
        3    1    3    3  502    0  0.17063597173E+03  0.20644980604E+03 -0.11028004279E+04  0.11348598817E+04  0.10100000352E+00 0.  1.
       -3    1    3    3    0  502 -0.17063597173E+03 -0.20644980604E+03 -0.62193473106E+02  0.27496580799E+03  0.10100000352E+00 0. -1.
</event>
<event>
 5   0  0.2132540E-02  0.8017253E+03  0.7818609E-02  0.9557523E-01
       -1   -1    0    0    0  501  0.00000000000E+00  0.00000000000E+00  0.44304787637E+03  0.44304787640E+03  0.50400001928E-02 0. -1.
        1   -1    0    0  501    0  0.00000000000E+00  0.00000000000E+00 -0.36269415358E+03  0.36269415361E+03  0.50400001928E-02 0.  1.
    10030    2    1    2    0    0  0.00000000000E+00  0.00000000000E+00  0.80353722791E+02  0.80574203001E+03  0.80172532588E+03 0.  0.
        4    1    3    3  502    0  0.34953532617E+03  0.19598754181E+03  0.50386539826E+02  0.40388918911E+03  0.12699999809E+01 0.  1.
       -4    1    3    3    0  502 -0.34953532617E+03 -0.19598754181E+03  0.29967182966E+02  0.40185284090E+03  0.12699999809E+01 0. -1.
</event>
<event>
 5   0  0.2063692E-02  0.8094306E+03  0.7818609E-02  0.9546466E-01
       -1   -1    0    0    0  501  0.00000000000E+00  0.00000000000E+00  0.11690456163E+03  0.11690456174E+03  0.50400001928E-02 0. -1.
        1   -1    0    0  501    0  0.00000000000E+00  0.00000000000E+00 -0.14010956266E+04  0.14010956266E+04  0.50400001928E-02 0.  1.
    10030    2    1    2    0    0  0.00000000000E+00  0.00000000000E+00 -0.12841910650E+04  0.15180001884E+04  0.80943059027E+03 0.  0.
        2    1    3    3  502    0  0.22542657135E+03 -0.31076960904E+03 -0.88225990949E+03  0.96217328838E+03  0.25500000920E-02 0.  1.
       -2    1    3    3    0  502 -0.22542657135E+03  0.31076960904E+03 -0.40193115549E+03  0.55582689997E+03  0.25500000920E-02 0. -1.
</event>
<event>
 5   0  0.3416160E-02  0.7917456E+03  0.7818609E-02  0.9572042E-01
       -2   -1    0    0    0  501  0.00000000000E+00  0.00000000000E+00  0.12987842139E+04  0.12987842139E+04  0.25500000920E-02 0. -1.
        2   -1    0    0  501    0  0.00000000000E+00  0.00000000000E+00 -0.12066306947E+03  0.12066306950E+03  0.25500000920E-02 0.  1.
    10030    2    1    2    0    0  0.00000000000E+00  0.00000000000E+00  0.11781211444E+04  0.14194472834E+04  0.79174564060E+03 0.  0.
        1    1    3    3  502    0 -0.60339328290E+02 -0.39090986276E+03  0.55993451782E+03  0.68554942901E+03  0.50400001928E-02 0.  1.
       -1    1    3    3    0  502  0.60339328290E+02  0.39090986276E+03  0.61818662660E+03  0.73389785439E+03  0.50400001928E-02 0. -1.
</event>
<event>
 5   0  0.1989298E-02  0.8428479E+03  0.7818609E-02  0.9499987E-01
        1   -1    0    0  501    0  0.00000000000E+00  0.00000000000E+00  0.45298994455E+03  0.45298994458E+03  0.50400001928E-02 0.  1.
       -1   -1    0    0    0  501  0.00000000000E+00  0.00000000000E+00 -0.39205758851E+03  0.39205758854E+03  0.50400001928E-02 0. -1.
    10030    2    1    2    0    0  0.00000000000E+00  0.00000000000E+00  0.60932356043E+02  0.84504753312E+03  0.84284789922E+03 0.  0.
        1    1    3    3  502    0 -0.24834930651E+03  0.27494924101E+03 -0.17086545713E+03  0.40800670048E+03  0.50400001928E-02 0. -1.
       -1    1    3    3    0  502  0.24834930651E+03 -0.27494924101E+03  0.23179781317E+03  0.43704083264E+03  0.50400001928E-02 0.  1.
</event>
<event>
 5   0  0.3416160E-02  0.8021933E+03  0.7818609E-02  0.9556848E-01
       -2   -1    0    0    0  501  0.00000000000E+00  0.00000000000E+00  0.91978657839E+03  0.91978657840E+03  0.25500000920E-02 0.  1.
        2   -1    0    0  501    0  0.00000000000E+00  0.00000000000E+00 -0.17490851712E+03  0.17490851714E+03  0.25500000920E-02 0. -1.
    10030    2    1    2    0    0  0.00000000000E+00  0.00000000000E+00  0.74487806127E+03  0.10946950955E+04  0.80219325977E+03 0.  0.
        1    1    3    3  502    0  0.97908558311E+02  0.23427802835E+03  0.79614707067E+03  0.83565689042E+03  0.50400001928E-02 0.  1.
       -1    1    3    3    0  502 -0.97908558311E+02 -0.23427802835E+03 -0.51269009394E+02  0.25903820511E+03  0.50400001928E-02 0. -1.
</event>
<event>
 5   0  0.3467240E-02  0.7848890E+03  0.7818609E-02  0.9582151E-01
        2   -1    0    0  501    0  0.00000000000E+00  0.00000000000E+00  0.47957862176E+03  0.47957862176E+03  0.25500000920E-02 0. -1.
       -2   -1    0    0    0  501  0.00000000000E+00  0.00000000000E+00 -0.32114164411E+03  0.32114164412E+03  0.25500000920E-02 0.  1.
    10030    2    1    2    0    0  0.00000000000E+00  0.00000000000E+00  0.15843697765E+03  0.80072026589E+03  0.78488895285E+03 0.  0.
        2    1    3    3  502    0 -0.20397251928E+03 -0.66897568326E+02  0.41437596463E+03  0.46667709751E+03  0.25500000920E-02 0. -1.
       -2    1    3    3    0  502  0.20397251928E+03  0.66897568326E+02 -0.25593898699E+03  0.33404316837E+03  0.25500000920E-02 0.  1.
</event>
<event>
 5   0  0.3343036E-02  0.8081346E+03  0.7818609E-02  0.9548317E-01
        2   -1    0    0  501    0  0.00000000000E+00  0.00000000000E+00  0.87125753596E+03  0.87125753597E+03  0.25500000920E-02 0. -1.
       -2   -1    0    0    0  501  0.00000000000E+00  0.00000000000E+00 -0.18739625225E+03  0.18739625227E+03  0.25500000920E-02 0.  1.
    10030    2    1    2    0    0  0.00000000000E+00  0.00000000000E+00  0.68386128371E+03  0.10586537882E+04  0.80813463482E+03 0.  0.
        4    1    3    3  502    0  0.25683781893E+03  0.83296409114E+01 -0.66556811912E+02  0.26545521329E+03  0.12699999809E+01 0.  1.
       -4    1    3    3    0  502 -0.25683781893E+03 -0.83296409114E+01  0.75041809562E+03  0.79319857494E+03  0.12699999809E+01 0. -1.
</event>
<event>
 5   0  0.2063692E-02  0.7155289E+03  0.7818609E-02  0.9691038E-01
       -1   -1    0    0    0  501  0.00000000000E+00  0.00000000000E+00  0.73445535706E+03  0.73445535708E+03  0.50400001928E-02 0.  1.
        1   -1    0    0  501    0  0.00000000000E+00  0.00000000000E+00 -0.17427252433E+03  0.17427252440E+03  0.50400001928E-02 0. -1.
    10030    2    1    2    0    0  0.00000000000E+00  0.00000000000E+00  0.56018283273E+03  0.90872788148E+03  0.71552886489E+03 0.  0.
        2    1    3    3  502    0  0.12686531218E+03  0.13694511508E+03  0.66769719093E+03  0.69330246701E+03  0.25500000920E-02 0.  1.
       -2    1    3    3    0  502 -0.12686531218E+03 -0.13694511508E+03 -0.10751435819E+03  0.21542541448E+03  0.25500000920E-02 0. -1.
</event>
<event>
 5   0  0.1989298E-02  0.7849798E+03  0.7818609E-02  0.9582016E-01
        1   -1    0    0  501    0  0.00000000000E+00  0.00000000000E+00  0.13822717498E+03  0.13822717507E+03  0.50400001928E-02 0.  1.
       -1   -1    0    0    0  501  0.00000000000E+00  0.00000000000E+00 -0.11144575312E+04  0.11144575312E+04  0.50400001928E-02 0. -1.
    10030    2    1    2    0    0  0.00000000000E+00  0.00000000000E+00 -0.97623035620E+03  0.12526847063E+04  0.78497978633E+03 0.  0.
        1    1    3    3  502    0 -0.18627248982E+02 -0.24853151427E+03 -0.42548346371E+01  0.24926490253E+03  0.50400001928E-02 0.  1.
       -1    1    3    3    0  502  0.18627248982E+02  0.24853151427E+03 -0.97197552156E+03  0.10034198037E+04  0.50400001928E-02 0. -1.
</event>
<event>
 5   0  0.3343036E-02  0.7992088E+03  0.7818609E-02  0.9561163E-01
       -2   -1    0    0    0  501  0.00000000000E+00  0.00000000000E+00  0.16053150953E+03  0.16053150955E+03  0.25500000920E-02 0.  1.
        2   -1    0    0  501    0  0.00000000000E+00  0.00000000000E+00 -0.99471849978E+03  0.99471849978E+03  0.25500000920E-02 0. -1.
    10030    2    1    2    0    0  0.00000000000E+00  0.00000000000E+00 -0.83418699025E+03  0.11552500093E+04  0.79920876456E+03 0.  0.
        4    1    3    3  502    0  0.13003898227E+03  0.21345051181E+03  0.33591378888E+02  0.25219288558E+03  0.12699999809E+01 0.  1.
       -4    1    3    3    0  502 -0.13003898227E+03 -0.21345051181E+03 -0.86777836914E+03  0.90305712374E+03  0.12699999809E+01 0. -1.
</event>
<event>
 5   0  0.3404132E-02  0.8101894E+03  0.7818609E-02  0.9545384E-01
        2   -1    0    0  501    0  0.00000000000E+00  0.00000000000E+00  0.70315302378E+03  0.70315302378E+03  0.25500000920E-02 0.  1.
       -2   -1    0    0    0  501  0.00000000000E+00  0.00000000000E+00 -0.23337979612E+03  0.23337979614E+03  0.25500000920E-02 0. -1.
    10030    2    1    2    0    0  0.00000000000E+00  0.00000000000E+00  0.46977322766E+03  0.93653281992E+03  0.81018938364E+03 0.  0.
        5    1    3    3  502    0  0.36445367652E+03  0.29350131983E+02  0.43640468538E+03  0.56934967462E+03  0.46999998093E+01 0.  1.
       -5    1    3    3    0  502 -0.36445367652E+03 -0.29350131983E+02  0.33368542278E+02  0.36718314529E+03  0.46999998093E+01 0. -1.
</event>
<event>
 5   0  0.1358000E-02  0.7337990E+03  0.7818609E-02  0.9661116E-01
        4   -1    0    0  501    0  0.00000000000E+00  0.00000000000E+00  0.61127971211E+03  0.61128103139E+03  0.12699999809E+01 0. -1.
       -4   -1    0    0    0  501  0.00000000000E+00  0.00000000000E+00 -0.22021533926E+03  0.22021900133E+03  0.12699999809E+01 0.  1.
    10030    2    1    2    0    0  0.00000000000E+00  0.00000000000E+00  0.39106437285E+03  0.83150003272E+03  0.73379899203E+03 0.  0.
        5    1    3    3  502    0 -0.25177354663E+03 -0.11673190692E+03 -0.76367854954E+02  0.28787218716E+03  0.46999998093E+01 0.  1.
       -5    1    3    3    0  502  0.25177354663E+03  0.11673190692E+03  0.46743222781E+03  0.54362784556E+03  0.46999998093E+01 0. -1.
</event>
<event>
 5   0  0.1358000E-02  0.7948920E+03  0.7818609E-02  0.9567440E-01
       -3   -1    0    0    0  501  0.00000000000E+00  0.00000000000E+00  0.32642782273E+03  0.32642783836E+03  0.10100000352E+00 0. -1.
        3   -1    0    0  501    0  0.00000000000E+00  0.00000000000E+00 -0.48391500160E+03  0.48391501214E+03  0.10100000352E+00 0.  1.
    10030    2    1    2    0    0  0.00000000000E+00  0.00000000000E+00 -0.15748717887E+03  0.81034285050E+03  0.79489202024E+03 0.  0.
        1    1    3    3  502    0 -0.10391147697E+03  0.31085540609E+03 -0.30791229354E+03  0.44970952745E+03  0.50400001928E-02 0.  1.
       -1    1    3    3    0  502  0.10391147697E+03 -0.31085540609E+03  0.15042511468E+03  0.36063332305E+03  0.50400001928E-02 0. -1.
</event>
<event>
 5   0  0.2129257E-02  0.7882220E+03  0.7818609E-02  0.9577224E-01
       -1   -1    0    0    0  501  0.00000000000E+00  0.00000000000E+00  0.44877246052E+03  0.44877246055E+03  0.50400001928E-02 0.  1.
        1   -1    0    0  501    0  0.00000000000E+00  0.00000000000E+00 -0.34610740656E+03  0.34610740660E+03  0.50400001928E-02 0. -1.
    10030    2    1    2    0    0  0.00000000000E+00  0.00000000000E+00  0.10266505396E+03  0.79487986714E+03  0.78822198008E+03 0.  0.
        3    1    3    3  502    0 -0.90925766662E+01  0.58105288684E+02 -0.34165718209E+03  0.34668218847E+03  0.10100000352E+00 0. -1.
       -3    1    3    3    0  502  0.90925766662E+01 -0.58105288684E+02  0.44432223605E+03  0.44819767868E+03  0.10100000352E+00 0.  1.
</event>
<event>
 5   0  0.3467240E-02  0.8143132E+03  0.7818609E-02  0.9539527E-01
        2   -1    0    0  501    0  0.00000000000E+00  0.00000000000E+00  0.26399246116E+03  0.26399246118E+03  0.25500000920E-02 0. -1.
       -2   -1    0    0    0  501  0.00000000000E+00  0.00000000000E+00 -0.62795916456E+03  0.62795916456E+03  0.25500000920E-02 0.  1.
    10030    2    1    2    0    0  0.00000000000E+00  0.00000000000E+00 -0.36396670339E+03  0.89195162574E+03  0.81431317162E+03 0.  0.
        2    1    3    3  502    0 -0.29687347329E+03 -0.10125410134E+03  0.10236343273E+03  0.32994624494E+03  0.25500000920E-02 0. -1.
       -2    1    3    3    0  502  0.29687347329E+03  0.10125410134E+03 -0.46633013613E+03  0.56200538080E+03  0.25500000920E-02 0.  1.
</event>
<event>
 5   0  0.3343036E-02  0.8020894E+03  0.7818609E-02  0.9556998E-01
        2   -1    0    0  501    0  0.00000000000E+00  0.00000000000E+00  0.27321073852E+03  0.27321073853E+03  0.25500000920E-02 0.  1.
       -2   -1    0    0    0  501  0.00000000000E+00  0.00000000000E+00 -0.58869153467E+03  0.58869153467E+03  0.25500000920E-02 0. -1.
    10030    2    1    2    0    0  0.00000000000E+00  0.00000000000E+00 -0.31548079615E+03  0.86190227320E+03  0.80208939390E+03 0.  0.
        4    1    3    3  502    0  0.37391865658E+02 -0.25850799189E+02  0.27043120591E+03  0.27422812668E+03  0.12699999809E+01 0.  1.
       -4    1    3    3    0  502 -0.37391865658E+02  0.25850799189E+02 -0.58591200206E+03  0.58767414652E+03  0.12699999809E+01 0. -1.
</event>
<event>
 5   0  0.1989298E-02  0.7835238E+03  0.7818609E-02  0.9584177E-01
       -1   -1    0    0    0  501  0.00000000000E+00  0.00000000000E+00  0.19253154342E+03  0.19253154349E+03  0.50400001928E-02 0.  1.
        1   -1    0    0  501    0  0.00000000000E+00  0.00000000000E+00 -0.79715444699E+03  0.79715444701E+03  0.50400001928E-02 0. -1.
    10030    2    1    2    0    0  0.00000000000E+00  0.00000000000E+00 -0.60462290357E+03  0.98968599050E+03  0.78352377390E+03 0.  0.
        1    1    3    3  502    0 -0.15291282991E+03  0.51899299779E+01  0.15323288730E+03  0.21654003487E+03  0.50400001928E-02 0.  1.
       -1    1    3    3    0  502  0.15291282991E+03 -0.51899299779E+01 -0.75785579087E+03  0.77314595563E+03  0.50400001928E-02 0. -1.
</event>
<event>
 5   0  0.1989298E-02  0.8078559E+03  0.7818609E-02  0.9548715E-01
       -1   -1    0    0    0  501  0.00000000000E+00  0.00000000000E+00  0.52927393118E+03  0.52927393120E+03  0.50400001928E-02 0.  1.
        1   -1    0    0  501    0  0.00000000000E+00  0.00000000000E+00 -0.30826721066E+03  0.30826721070E+03  0.50400001928E-02 0. -1.
    10030    2    1    2    0    0  0.00000000000E+00  0.00000000000E+00  0.22100672051E+03  0.83754114190E+03  0.80785592396E+03 0.  0.
        1    1    3    3  502    0  0.17605989905E+03 -0.34894798426E+03  0.47958904722E+01  0.39087694273E+03  0.50400001928E-02 0.  1.
       -1    1    3    3    0  502 -0.17605989905E+03  0.34894798426E+03  0.21621083004E+03  0.44666419917E+03  0.50400001928E-02 0. -1.
</event>
<event>
 5   0  0.3550586E-02  0.8349652E+03  0.7818609E-02  0.9510741E-01
       -2   -1    0    0    0  501  0.00000000000E+00  0.00000000000E+00  0.40184283969E+03  0.40184283969E+03  0.25500000920E-02 0. -1.
        2   -1    0    0  501    0  0.00000000000E+00  0.00000000000E+00 -0.43373102168E+03  0.43373102169E+03  0.25500000920E-02 0.  1.
    10030    2    1    2    0    0  0.00000000000E+00  0.00000000000E+00 -0.31888181996E+02  0.83557386138E+03  0.83496516195E+03 0.  0.
        3    1    3    3  502    0 -0.24097848054E+03 -0.10831407461E+03  0.30753934215E+03  0.40544176402E+03  0.10100000352E+00 0. -1.
       -3    1    3    3    0  502  0.24097848054E+03  0.10831407461E+03 -0.33942752414E+03  0.43013209737E+03  0.10100000352E+00 0.  1.
</event>
<event>
 5   0  0.2132540E-02  0.7843158E+03  0.7818609E-02  0.9583001E-01
        1   -1    0    0  501    0  0.00000000000E+00  0.00000000000E+00  0.14230024983E+03  0.14230024992E+03  0.50400001928E-02 0.  1.
       -1   -1    0    0    0  501  0.00000000000E+00  0.00000000000E+00 -0.10807277962E+04  0.10807277962E+04  0.50400001928E-02 0. -1.
    10030    2    1    2    0    0  0.00000000000E+00  0.00000000000E+00 -0.93842754632E+03  0.12230280461E+04  0.78431584315E+03 0.  0.
        4    1    3    3  502    0  0.22276049565E+03  0.20821703509E+03 -0.85374506045E+03  0.90656429075E+03  0.12699999809E+01 0. -1.
       -4    1    3    3    0  502 -0.22276049565E+03 -0.20821703509E+03 -0.84682485873E+02  0.31646375533E+03  0.12699999809E+01 0.  1.
</event>
<event>
 5   0  0.1989298E-02  0.8019078E+03  0.7818609E-02  0.9557260E-01
        1   -1    0    0  501    0  0.00000000000E+00  0.00000000000E+00  0.24456822660E+04  0.24456822660E+04  0.50400001928E-02 0. -1.
       -1   -1    0    0    0  501  0.00000000000E+00  0.00000000000E+00 -0.65733811542E+02  0.65733811735E+02  0.50400001928E-02 0.  1.
    10030    2    1    2    0    0  0.00000000000E+00  0.00000000000E+00  0.23799484544E+04  0.25114160777E+04  0.80190776879E+03 0.  0.
        1    1    3    3  502    0 -0.21446639074E+03 -0.11593073628E+03  0.21868924126E+04  0.22004395454E+04  0.50400001928E-02 0. -1.
       -1    1    3    3    0  502  0.21446639074E+03  0.11593073628E+03  0.19305604181E+03  0.31097653235E+03  0.50400001928E-02 0.  1.
</event>
<event>
 5   0  0.1358000E-02  0.7970522E+03  0.7818609E-02  0.9564294E-01
       -3   -1    0    0    0  501  0.00000000000E+00  0.00000000000E+00  0.12617497774E+04  0.12617497814E+04  0.10100000352E+00 0. -1.
        3   -1    0    0  501    0  0.00000000000E+00  0.00000000000E+00 -0.12587521790E+03  0.12587525842E+03  0.10100000352E+00 0.  1.
    10030    2    1    2    0    0  0.00000000000E+00  0.00000000000E+00  0.11358745595E+04  0.13876250398E+04  0.79705221680E+03 0.  0.
        1    1    3    3  502    0 -0.27637566232E+02 -0.39413012522E+03  0.65874508069E+03  0.76814547582E+03  0.50400001928E-02 0. -1.
       -1    1    3    3    0  502  0.27637566232E+02  0.39413012522E+03  0.47712947880E+03  0.61947956402E+03  0.50400001928E-02 0.  1.
</event>
<event>
 5   0  0.1989298E-02  0.7996679E+03  0.7818609E-02  0.9560498E-01
        1   -1    0    0  501    0  0.00000000000E+00  0.00000000000E+00  0.80921358158E+03  0.80921358159E+03  0.50400001928E-02 0.  1.
       -1   -1    0    0    0  501  0.00000000000E+00  0.00000000000E+00 -0.19755869018E+03  0.19755869024E+03  0.50400001928E-02 0. -1.
    10030    2    1    2    0    0  0.00000000000E+00  0.00000000000E+00  0.61165489140E+03  0.10067722718E+04  0.79966786929E+03 0.  0.
        1    1    3    3  502    0 -0.50733795670E+02  0.39279049152E+03  0.23676776920E+03  0.46142958814E+03  0.50400001928E-02 0.  1.
       -1    1    3    3    0  502  0.50733795670E+02 -0.39279049152E+03  0.37488712220E+03  0.54534268370E+03  0.50400001928E-02 0. -1.
</event>
<event>
 5   0  0.2129257E-02  0.7653764E+03  0.7818609E-02  0.9611531E-01
       -1   -1    0    0    0  501  0.00000000000E+00  0.00000000000E+00  0.18832381727E+03  0.18832381733E+03  0.50400001928E-02 0. -1.
        1   -1    0    0  501    0  0.00000000000E+00  0.00000000000E+00 -0.77765137909E+03  0.77765137911E+03  0.50400001928E-02 0.  1.
    10030    2    1    2    0    0  0.00000000000E+00  0.00000000000E+00 -0.58932756183E+03  0.96597519644E+03  0.76537644660E+03 0.  0.
        3    1    3    3  502    0 -0.23393453799E+03  0.23073220627E+03 -0.47063577116E+02  0.33193027817E+03  0.10100000352E+00 0. -1.
       -3    1    3    3    0  502  0.23393453799E+03 -0.23073220627E+03 -0.54226398471E+03  0.63404491827E+03  0.10100000352E+00 0.  1.
</event>
<event>
 5   0  0.3404132E-02  0.8489139E+03  0.7818609E-02  0.9491796E-01
        2   -1    0    0  501    0  0.00000000000E+00  0.00000000000E+00  0.17436943769E+04  0.17436943769E+04  0.25500000920E-02 0. -1.
       -2   -1    0    0    0  501  0.00000000000E+00  0.00000000000E+00 -0.10332298634E+03  0.10332298637E+03  0.25500000920E-02 0.  1.
    10030    2    1    2    0    0  0.00000000000E+00  0.00000000000E+00  0.16403713905E+04  0.18470173632E+04  0.84891391863E+03 0.  0.
        5    1    3    3  502    0 -0.34765784356E+03  0.10747741242E+03  0.34487577388E+03  0.50137686402E+03  0.46999998093E+01 0.  1.
       -5    1    3    3    0  502  0.34765784356E+03 -0.10747741242E+03  0.12954956166E+04  0.13456404992E+04  0.46999998093E+01 0. -1.
</event>
<event>
 5   0  0.2132540E-02  0.7885354E+03  0.7818609E-02  0.9576762E-01
        1   -1    0    0  501    0  0.00000000000E+00  0.00000000000E+00  0.91821178620E+03  0.91821178621E+03  0.50400001928E-02 0.  1.
       -1   -1    0    0    0  501  0.00000000000E+00  0.00000000000E+00 -0.16929320679E+03  0.16929320687E+03  0.50400001928E-02 0. -1.
    10030    2    1    2    0    0  0.00000000000E+00  0.00000000000E+00  0.74891857940E+03  0.10875049931E+04  0.78853539642E+03 0.  0.
        4    1    3    3  502    0  0.11539711510E+03  0.27893622639E+03  0.72423921007E+03  0.78463109731E+03  0.12699999809E+01 0. -1.
       -4    1    3    3    0  502 -0.11539711510E+03 -0.27893622639E+03  0.24679369333E+02  0.30287389577E+03  0.12699999809E+01 0.  1.
</event>
<event>
 5   0  0.1989298E-02  0.7980174E+03  0.7818609E-02  0.9562891E-01
        1   -1    0    0  501    0  0.00000000000E+00  0.00000000000E+00  0.15437975936E+04  0.15437975936E+04  0.50400001928E-02 0. -1.
       -1   -1    0    0    0  501  0.00000000000E+00  0.00000000000E+00 -0.10312748050E+03  0.10312748062E+03  0.50400001928E-02 0.  1.
    10030    2    1    2    0    0  0.00000000000E+00  0.00000000000E+00  0.14406701131E+04  0.16469250743E+04  0.79801743425E+03 0.  0.
        1    1    3    3  502    0  0.28737418585E+02  0.39510568948E+03  0.62192951291E+03  0.73738094913E+03  0.50400001928E-02 0.  1.
       -1    1    3    3    0  502 -0.28737418585E+02 -0.39510568948E+03  0.81874060023E+03  0.90954412514E+03  0.50400001928E-02 0. -1.
</event>
<event>
 5   0  0.1989298E-02  0.7923265E+03  0.7818609E-02  0.9571191E-01
       -1   -1    0    0    0  501  0.00000000000E+00  0.00000000000E+00  0.39619805108E+03  0.39619805111E+03  0.50400001928E-02 0.  1.
        1   -1    0    0  501    0  0.00000000000E+00  0.00000000000E+00 -0.39612844963E+03  0.39612844967E+03  0.50400001928E-02 0. -1.
    10030    2    1    2    0    0  0.00000000000E+00  0.00000000000E+00  0.69601447491E-01  0.79232650078E+03  0.79232649772E+03 0.  0.
        1    1    3    3  502    0  0.23168724938E+03  0.69274040901E+02 -0.31376042903E+03  0.39613568523E+03  0.50400001928E-02 0. -1.
       -1    1    3    3    0  502 -0.23168724938E+03 -0.69274040901E+02  0.31383003048E+03  0.39619081554E+03  0.50400001928E-02 0.  1.
</event>
<event>
 5   0  0.3404132E-02  0.8280916E+03  0.7818609E-02  0.9520223E-01
       -2   -1    0    0    0  501  0.00000000000E+00  0.00000000000E+00  0.63869657894E+02  0.63869657945E+02  0.25500000920E-02 0. -1.
        2   -1    0    0  501    0  0.00000000000E+00  0.00000000000E+00 -0.26841212944E+04  0.26841212944E+04  0.25500000920E-02 0.  1.
    10030    2    1    2    0    0  0.00000000000E+00  0.00000000000E+00 -0.26202516365E+04  0.27479909524E+04  0.82809156231E+03 0.  0.
        5    1    3    3  502    0 -0.13853437127E+03  0.76937870940E+02 -0.25794133348E+04  0.25842806445E+04  0.46999998093E+01 0.  1.
       -5    1    3    3    0  502  0.13853437127E+03 -0.76937870940E+02 -0.40838301747E+02  0.16371030785E+03  0.46999998093E+01 0. -1.
</event>
<event>
 5   0  0.3343036E-02  0.8894375E+03  0.7818609E-02  0.9438882E-01
       -2   -1    0    0    0  501  0.00000000000E+00  0.00000000000E+00  0.13115809451E+03  0.13115809454E+03  0.25500000920E-02 0. -1.
        2   -1    0    0  501    0  0.00000000000E+00  0.00000000000E+00 -0.15079112972E+04  0.15079112972E+04  0.25500000920E-02 0.  1.
    10030    2    1    2    0    0  0.00000000000E+00  0.00000000000E+00 -0.13767532027E+04  0.16390693918E+04  0.88943751318E+03 0.  0.
        4    1    3    3  502    0 -0.20787038499E+02  0.13412876832E+02  0.12988575622E+03  0.13222680818E+03  0.12699999809E+01 0. -1.
       -4    1    3    3    0  502  0.20787038499E+02 -0.13412876832E+02 -0.15066389589E+04  0.15068425836E+04  0.12699999809E+01 0.  1.
</event>
<event>
 5   0  0.2077795E-02  0.7962067E+03  0.7818609E-02  0.9565524E-01
       -1   -1    0    0    0  501  0.00000000000E+00  0.00000000000E+00  0.15785885851E+03  0.15785885859E+03  0.50400001928E-02 0.  1.
        1   -1    0    0  501    0  0.00000000000E+00  0.00000000000E+00 -0.10039744376E+04  0.10039744376E+04  0.50400001928E-02 0. -1.
    10030    2    1    2    0    0  0.00000000000E+00  0.00000000000E+00 -0.84611557913E+03  0.11618332962E+04  0.79620665344E+03 0.  0.
        5    1    3    3  502    0 -0.29310558926E+03 -0.28563438789E+02 -0.32225110759E+02  0.29628922399E+03  0.46999998093E+01 0.  1.
       -5    1    3    3    0  502  0.29310558926E+03  0.28563438789E+02 -0.81389046837E+03  0.86554407224E+03  0.46999998093E+01 0. -1.
</event>
<event>
 5   0  0.3343036E-02  0.7497100E+03  0.7818609E-02  0.9635805E-01
       -2   -1    0    0    0  501  0.00000000000E+00  0.00000000000E+00  0.24193392053E+03  0.24193392055E+03  0.25500000920E-02 0.  1.
        2   -1    0    0  501    0  0.00000000000E+00  0.00000000000E+00 -0.58080441371E+03  0.58080441371E+03  0.25500000920E-02 0. -1.
    10030    2    1    2    0    0  0.00000000000E+00  0.00000000000E+00 -0.33887049317E+03  0.82273833426E+03  0.74971004763E+03 0.  0.
        4    1    3    3  502    0 -0.31191437657E+03  0.20316966613E+03 -0.12102242451E+03  0.39142883348E+03  0.12699999809E+01 0.  1.
       -4    1    3    3    0  502  0.31191437657E+03 -0.20316966613E+03 -0.21784806867E+03  0.43130950078E+03  0.12699999809E+01 0. -1.
</event>
<event>
 5   0  0.2129257E-02  0.7980359E+03  0.7818609E-02  0.9562864E-01
        1   -1    0    0  501    0  0.00000000000E+00  0.00000000000E+00  0.51808408109E+03  0.51808408112E+03  0.50400001928E-02 0. -1.
       -1   -1    0    0    0  501  0.00000000000E+00  0.00000000000E+00 -0.30731561956E+03  0.30731561960E+03  0.50400001928E-02 0.  1.
    10030    2    1    2    0    0  0.00000000000E+00  0.00000000000E+00  0.21076846153E+03  0.82539970072E+03  0.79803591497E+03 0.  0.
        3    1    3    3  502    0 -0.34683137666E+03  0.11009404617E+02  0.30912105764E+03  0.46472470271E+03  0.10100000352E+00 0. -1.
       -3    1    3    3    0  502  0.34683137666E+03 -0.11009404617E+02 -0.98352596111E+02  0.36067499801E+03  0.10100000352E+00 0.  1.
</event>
<event>
 5   0  0.3467240E-02  0.7986020E+03  0.7818609E-02  0.9562043E-01
        2   -1    0    0  501    0  0.00000000000E+00  0.00000000000E+00  0.70141943288E+03  0.70141943288E+03  0.25500000920E-02 0. -1.
       -2   -1    0    0    0  501  0.00000000000E+00  0.00000000000E+00 -0.22731234369E+03  0.22731234370E+03  0.25500000920E-02 0.  1.
    10030    2    1    2    0    0  0.00000000000E+00  0.00000000000E+00  0.47410708919E+03  0.92873177659E+03  0.79860201654E+03 0.  0.
        2    1    3    3  502    0  0.15170450791E+02 -0.13805475142E+03  0.67242465926E+03  0.68661792822E+03  0.25500000920E-02 0. -1.
       -2    1    3    3    0  502 -0.15170450791E+02  0.13805475142E+03 -0.19831757007E+03  0.24211384837E+03  0.25500000920E-02 0.  1.
</event>
<event>
 5   0  0.3416160E-02  0.7960213E+03  0.7818609E-02  0.9565794E-01
       -2   -1    0    0    0  501  0.00000000000E+00  0.00000000000E+00  0.14302209600E+03  0.14302209603E+03  0.25500000920E-02 0. -1.
        2   -1    0    0  501    0  0.00000000000E+00  0.00000000000E+00 -0.11076085463E+04  0.11076085463E+04  0.25500000920E-02 0.  1.
    10030    2    1    2    0    0  0.00000000000E+00  0.00000000000E+00 -0.96458645031E+03  0.12506306423E+04  0.79602134610E+03 0.  0.
        1    1    3    3  502    0 -0.35316456697E+03 -0.18337114225E+03 -0.46989160122E+03  0.61575019618E+03  0.50400001928E-02 0.  1.
       -1    1    3    3    0  502  0.35316456697E+03  0.18337114225E+03 -0.49469484909E+03  0.63488044616E+03  0.50400001928E-02 0. -1.
</event>
<event>
 5   0  0.2132540E-02  0.7945637E+03  0.7818609E-02  0.9567919E-01
        1   -1    0    0  501    0  0.00000000000E+00  0.00000000000E+00  0.11781316694E+03  0.11781316704E+03  0.50400001928E-02 0. -1.
       -1   -1    0    0    0  501  0.00000000000E+00  0.00000000000E+00 -0.13396879659E+04  0.13396879659E+04  0.50400001928E-02 0.  1.
    10030    2    1    2    0    0  0.00000000000E+00  0.00000000000E+00 -0.12218747990E+04  0.14575011329E+04  0.79456373452E+03 0.  0.
        4    1    3    3  502    0 -0.23448708729E+03 -0.17670610417E+03 -0.12002560287E+03  0.31720182787E+03  0.12699999809E+01 0. -1.
       -4    1    3    3    0  502  0.23448708729E+03  0.17670610417E+03 -0.11018491961E+04  0.11402993051E+04  0.12699999809E+01 0.  1.
</event>
<event>
 5   0  0.3416160E-02  0.8124517E+03  0.7818609E-02  0.9542167E-01
        2   -1    0    0  501    0  0.00000000000E+00  0.00000000000E+00  0.63913434153E+03  0.63913434153E+03  0.25500000920E-02 0.  1.
       -2   -1    0    0    0  501  0.00000000000E+00  0.00000000000E+00 -0.25819212175E+03  0.25819212177E+03  0.25500000920E-02 0. -1.
    10030    2    1    2    0    0  0.00000000000E+00  0.00000000000E+00  0.38094221977E+03  0.89732646330E+03  0.81245172591E+03 0.  0.
        1    1    3    3  502    0 -0.18044733635E+02  0.38743323877E+03  0.57066601553E+02  0.39202898357E+03  0.50400001928E-02 0. -1.
       -1    1    3    3    0  502  0.18044733635E+02 -0.38743323877E+03  0.32387561822E+03  0.50529747973E+03  0.50400001928E-02 0.  1.
</event>
<event>
 5   0  0.1358000E-02  0.7814631E+03  0.7818609E-02  0.9587243E-01
       -4   -1    0    0    0  501  0.00000000000E+00  0.00000000000E+00  0.40035502136E+03  0.40035703569E+03  0.12699999809E+01 0.  1.
        4   -1    0    0  501    0  0.00000000000E+00  0.00000000000E+00 -0.38133538643E+03  0.38133750122E+03  0.12699999809E+01 0. -1.
    10030    2    1    2    0    0  0.00000000000E+00  0.00000000000E+00  0.19019634938E+02  0.78169453692E+03  0.78146311655E+03 0.  0.
        1    1    3    3  502    0  0.33955950314E+03 -0.11900614413E+03  0.16189675803E+03  0.39455503900E+03  0.50400001928E-02 0.  1.
       -1    1    3    3    0  502 -0.33955950314E+03  0.11900614413E+03 -0.14287712310E+03  0.38713949791E+03  0.50400001928E-02 0. -1.
</event>
<event>
 5   0  0.3343036E-02  0.7904680E+03  0.7818609E-02  0.9573918E-01
        2   -1    0    0  501    0  0.00000000000E+00  0.00000000000E+00  0.54713610717E+03  0.54713610717E+03  0.25500000920E-02 0. -1.
       -2   -1    0    0    0  501  0.00000000000E+00  0.00000000000E+00 -0.28550465299E+03  0.28550465301E+03  0.25500000920E-02 0.  1.
    10030    2    1    2    0    0  0.00000000000E+00  0.00000000000E+00  0.26163145417E+03  0.83264076018E+03  0.79046797386E+03 0.  0.
        4    1    3    3  502    0  0.38091499994E+02 -0.38404409169E+03  0.22061335329E+03  0.44453649038E+03  0.12699999809E+01 0. -1.
       -4    1    3    3    0  502 -0.38091499994E+02  0.38404409169E+03  0.41018100882E+02  0.38810426979E+03  0.12699999809E+01 0.  1.
</event>
<event>
 5   0  0.3550586E-02  0.7878865E+03  0.7818609E-02  0.9577718E-01
       -2   -1    0    0    0  501  0.00000000000E+00  0.00000000000E+00  0.99338374347E+02  0.99338374379E+02  0.25500000920E-02 0. -1.
        2   -1    0    0  501    0  0.00000000000E+00  0.00000000000E+00 -0.15622492360E+04  0.15622492360E+04  0.25500000920E-02 0.  1.
    10030    2    1    2    0    0  0.00000000000E+00  0.00000000000E+00 -0.14629108616E+04  0.16615876104E+04  0.78788653867E+03 0.  0.
        3    1    3    3  502    0  0.27956602293E+03 -0.59427278279E+02 -0.13032113889E+04  0.13341846562E+04  0.10100000352E+00 0.  1.
       -3    1    3    3    0  502 -0.27956602293E+03  0.59427278279E+02 -0.15969947275E+03  0.32740295414E+03  0.10100000352E+00 0. -1.
</event>
<event>
 5   0  0.2063692E-02  0.6037128E+03  0.7818609E-02  0.9897733E-01
        1   -1    0    0  501    0  0.00000000000E+00  0.00000000000E+00  0.77442119387E+03  0.77442119388E+03  0.50400001928E-02 0. -1.
       -1   -1    0    0    0  501  0.00000000000E+00  0.00000000000E+00 -0.11765857192E+03  0.11765857203E+03  0.50400001928E-02 0.  1.
    10030    2    1    2    0    0  0.00000000000E+00  0.00000000000E+00  0.65676262195E+03  0.89207976591E+03  0.60371281845E+03 0.  0.
        2    1    3    3  502    0 -0.73999483850E+02  0.11602080165E+03 -0.68612156348E+02  0.15376728530E+03  0.25500000920E-02 0.  1.
       -2    1    3    3    0  502  0.73999483850E+02 -0.11602080165E+03  0.72537477829E+03  0.73831248061E+03  0.25500000920E-02 0. -1.
</event>
<event>
 5   0  0.2132540E-02  0.8176564E+03  0.7818609E-02  0.9534806E-01
        1   -1    0    0  501    0  0.00000000000E+00  0.00000000000E+00  0.20635149479E+04  0.20635149479E+04  0.50400001928E-02 0. -1.
       -1   -1    0    0    0  501  0.00000000000E+00  0.00000000000E+00 -0.80997956203E+02  0.80997956360E+02  0.50400001928E-02 0.  1.
    10030    2    1    2    0    0  0.00000000000E+00  0.00000000000E+00  0.19825169917E+04  0.21445129042E+04  0.81765639127E+03 0.  0.
        4    1    3    3  502    0  0.36811734095E+03  0.12499630535E+03  0.13230596566E+04  0.13789934449E+04  0.12699999809E+01 0. -1.
       -4    1    3    3    0  502 -0.36811734095E+03 -0.12499630535E+03  0.65945733505E+03  0.76551945939E+03  0.12699999809E+01 0.  1.
</event>
<event>
 5   0  0.2129257E-02  0.8108798E+03  0.7818609E-02  0.9544401E-01
        1   -1    0    0  501    0  0.00000000000E+00  0.00000000000E+00  0.75868011624E+03  0.75868011625E+03  0.50400001928E-02 0.  1.
       -1   -1    0    0    0  501  0.00000000000E+00  0.00000000000E+00 -0.21666777060E+03  0.21666777066E+03  0.50400001928E-02 0. -1.
    10030    2    1    2    0    0  0.00000000000E+00  0.00000000000E+00  0.54201234564E+03  0.97534788691E+03  0.81087984170E+03 0.  0.
        3    1    3    3  502    0 -0.36605728882E+03 -0.13083510842E+03  0.13246813629E+03  0.41068671957E+03  0.10100000352E+00 0. -1.
       -3    1    3    3    0  502  0.36605728882E+03  0.13083510842E+03  0.40954420935E+03  0.56466116735E+03  0.10100000352E+00 0.  1.
</event>
<event>
 5   0  0.2129257E-02  0.8028403E+03  0.7818609E-02  0.9555915E-01
        1   -1    0    0  501    0  0.00000000000E+00  0.00000000000E+00  0.70021594549E+03  0.70021594551E+03  0.50400001928E-02 0.  1.
       -1   -1    0    0    0  501  0.00000000000E+00  0.00000000000E+00 -0.23012635510E+03  0.23012635516E+03  0.50400001928E-02 0. -1.
    10030    2    1    2    0    0  0.00000000000E+00  0.00000000000E+00  0.47008959039E+03  0.93034230067E+03  0.80284031626E+03 0.  0.
        3    1    3    3  502    0  0.32799178672E+03 -0.16959589885E+03  0.52566592573E+02  0.37296734162E+03  0.10100000352E+00 0. -1.
       -3    1    3    3    0  502 -0.32799178672E+03  0.16959589885E+03  0.41752299782E+03  0.55737495904E+03  0.10100000352E+00 0.  1.
</event>
<event>
 5   0  0.3416160E-02  0.7641890E+03  0.7818609E-02  0.9613349E-01
        2   -1    0    0  501    0  0.00000000000E+00  0.00000000000E+00  0.21269806556E+04  0.21269806556E+04  0.25500000920E-02 0.  1.
       -2   -1    0    0    0  501  0.00000000000E+00  0.00000000000E+00 -0.68640127580E+02  0.68640127627E+02  0.25500000920E-02 0. -1.
    10030    2    1    2    0    0  0.00000000000E+00  0.00000000000E+00  0.20583405280E+04  0.21956207832E+04  0.76418904366E+03 0.  0.
        1    1    3    3  502    0  0.22456412600E+03 -0.25784393920E+03  0.53918704737E+03  0.63846316710E+03  0.50400001928E-02 0.  1.
       -1    1    3    3    0  502 -0.22456412600E+03  0.25784393920E+03  0.15191534806E+04  0.15571576161E+04  0.50400001928E-02 0. -1.
</event>
<event>
 5   0  0.3404132E-02  0.7883309E+03  0.7818609E-02  0.9577063E-01
       -2   -1    0    0    0  501  0.00000000000E+00  0.00000000000E+00  0.39801742976E+03  0.39801742977E+03  0.25500000920E-02 0. -1.
        2   -1    0    0  501    0  0.00000000000E+00  0.00000000000E+00 -0.39035070406E+03  0.39035070407E+03  0.25500000920E-02 0.  1.
    10030    2    1    2    0    0  0.00000000000E+00  0.00000000000E+00  0.76667257042E+01  0.78836813384E+03  0.78833085425E+03 0.  0.
        5    1    3    3  502    0  0.64579941934E+02  0.11359269246E+03 -0.36803153598E+03  0.39056775361E+03  0.46999998093E+01 0.  1.
       -5    1    3    3    0  502 -0.64579941934E+02 -0.11359269246E+03  0.37569826169E+03  0.39780038023E+03  0.46999998093E+01 0. -1.
</event>
<event>
 5   0  0.3467240E-02  0.8084263E+03  0.7818609E-02  0.9547900E-01
       -2   -1    0    0    0  501  0.00000000000E+00  0.00000000000E+00  0.38681085933E+03  0.38681085933E+03  0.25500000920E-02 0. -1.
        2   -1    0    0  501    0  0.00000000000E+00  0.00000000000E+00 -0.42239832413E+03  0.42239832414E+03  0.25500000920E-02 0.  1.
    10030    2    1    2    0    0  0.00000000000E+00  0.00000000000E+00 -0.35587464805E+02  0.80920918347E+03  0.80842627058E+03 0.  0.
        2    1    3    3  502    0  0.20533894403E+03 -0.34667259144E+03 -0.50109532143E+02  0.40602577851E+03  0.25500000920E-02 0.  1.
       -2    1    3    3    0  502 -0.20533894403E+03  0.34667259144E+03  0.14522067339E+02  0.40318340497E+03  0.25500000920E-02 0. -1.
</event>
<event>
 5   0  0.1989298E-02  0.7918144E+03  0.7818609E-02  0.9571942E-01
        1   -1    0    0  501    0  0.00000000000E+00  0.00000000000E+00  0.46267971786E+03  0.46267971788E+03  0.50400001928E-02 0.  1.
       -1   -1    0    0    0  501  0.00000000000E+00  0.00000000000E+00 -0.33877111452E+03  0.33877111456E+03  0.50400001928E-02 0. -1.
    10030    2    1    2    0    0  0.00000000000E+00  0.00000000000E+00  0.12390860334E+03  0.80145083244E+03  0.79181443207E+03 0.  0.
        1    1    3    3  502    0 -0.11519052925E+03 -0.27603669080E+03  0.32448984360E+03  0.44131482110E+03  0.50400001928E-02 0.  1.
       -1    1    3    3    0  502  0.11519052925E+03  0.27603669080E+03 -0.20058124026E+03  0.36013601134E+03  0.50400001928E-02 0. -1.
</event>
<event>
 5   0  0.3467240E-02  0.6688615E+03  0.7818609E-02  0.9772017E-01
        2   -1    0    0  501    0  0.00000000000E+00  0.00000000000E+00  0.79649873909E+03  0.79649873909E+03  0.25500000920E-02 0.  1.
       -2   -1    0    0    0  501  0.00000000000E+00  0.00000000000E+00 -0.14041945487E+03  0.14041945490E+03  0.25500000920E-02 0. -1.
    10030    2    1    2    0    0  0.00000000000E+00  0.00000000000E+00  0.65607928422E+03  0.93691819399E+03  0.66886147673E+03 0.  0.
        2    1    3    3  502    0  0.95558103622E+02  0.18038464532E+03 -0.43028305782E+02  0.20861784809E+03  0.25500000920E-02 0. -1.
       -2    1    3    3    0  502 -0.95558103622E+02 -0.18038464532E+03  0.69910759000E+03  0.72830034590E+03  0.25500000920E-02 0.  1.
</event>
<event>
 5   0  0.1989298E-02  0.8446919E+03  0.7818609E-02  0.9497489E-01
        1   -1    0    0  501    0  0.00000000000E+00  0.00000000000E+00  0.42129666402E+03  0.42129666405E+03  0.50400001928E-02 0.  1.
       -1   -1    0    0    0  501  0.00000000000E+00  0.00000000000E+00 -0.42339782363E+03  0.42339782366E+03  0.50400001928E-02 0. -1.
    10030    2    1    2    0    0  0.00000000000E+00  0.00000000000E+00 -0.21011596034E+01  0.84469448771E+03  0.84469187441E+03 0.  0.
        1    1    3    3  502    0 -0.31978866740E+03  0.22252152309E+03 -0.16413226233E+03  0.42275290608E+03  0.50400001928E-02 0.  1.
       -1    1    3    3    0  502  0.31978866740E+03 -0.22252152309E+03  0.16203110273E+03  0.42194158163E+03  0.50400001928E-02 0. -1.
</event>
<event>
 5   0  0.2077795E-02  0.7955057E+03  0.7818609E-02  0.9566545E-01
       -1   -1    0    0    0  501  0.00000000000E+00  0.00000000000E+00  0.25058736832E+03  0.25058736837E+03  0.50400001928E-02 0. -1.
        1   -1    0    0  501    0  0.00000000000E+00  0.00000000000E+00 -0.63134593826E+03  0.63134593828E+03  0.50400001928E-02 0.  1.
    10030    2    1    2    0    0  0.00000000000E+00  0.00000000000E+00 -0.38075856994E+03  0.88193330665E+03  0.79550566861E+03 0.  0.
        5    1    3    3  502    0  0.18496136695E+03 -0.29204447182E+03  0.27673290239E+02  0.34682644331E+03  0.46999998093E+01 0.  1.
       -5    1    3    3    0  502 -0.18496136695E+03  0.29204447182E+03 -0.40843186018E+03  0.53510686334E+03  0.46999998093E+01 0. -1.
</event>
<event>
 5   0  0.3343036E-02  0.8028451E+03  0.7818609E-02  0.9555908E-01
        2   -1    0    0  501    0  0.00000000000E+00  0.00000000000E+00  0.39758638410E+03  0.39758638411E+03  0.25500000920E-02 0. -1.
       -2   -1    0    0    0  501  0.00000000000E+00  0.00000000000E+00 -0.40529572102E+03  0.40529572103E+03  0.25500000920E-02 0.  1.
    10030    2    1    2    0    0  0.00000000000E+00  0.00000000000E+00 -0.77093369156E+01  0.80288210514E+03  0.80284509146E+03 0.  0.
        4    1    3    3  502    0  0.51392930056E+02 -0.26752962586E+03 -0.29869891306E+03  0.40427217012E+03  0.12699999809E+01 0.  1.
       -4    1    3    3    0  502 -0.51392930056E+02  0.26752962586E+03  0.29098957614E+03  0.39860993502E+03  0.12699999809E+01 0. -1.
</event>
<event>
 5   0  0.1989298E-02  0.7994590E+03  0.7818609E-02  0.9560801E-01
       -1   -1    0    0    0  501  0.00000000000E+00  0.00000000000E+00  0.24926087487E+03  0.24926087492E+03  0.50400001928E-02 0. -1.
        1   -1    0    0  501    0  0.00000000000E+00  0.00000000000E+00 -0.64102985298E+03  0.64102985300E+03  0.50400001928E-02 0.  1.
    10030    2    1    2    0    0  0.00000000000E+00  0.00000000000E+00 -0.39176897810E+03  0.89029072792E+03  0.79945897206E+03 0.  0.
        1    1    3    3  502    0 -0.21265779942E+03  0.87224778992E+02 -0.56007652963E+03  0.60540665737E+03  0.50400001928E-02 0.  1.
       -1    1    3    3    0  502  0.21265779942E+03 -0.87224778992E+02  0.16830755152E+03  0.28488407055E+03  0.50400001928E-02 0. -1.
</event>
<event>
 5   0  0.2077795E-02  0.8206426E+03  0.7818609E-02  0.9530609E-01
        1   -1    0    0  501    0  0.00000000000E+00  0.00000000000E+00  0.24841486009E+03  0.24841486014E+03  0.50400001928E-02 0.  1.
       -1   -1    0    0    0  501  0.00000000000E+00  0.00000000000E+00 -0.67775166396E+03  0.67775166398E+03  0.50400001928E-02 0. -1.
    10030    2    1    2    0    0  0.00000000000E+00  0.00000000000E+00 -0.42933680387E+03  0.92616652412E+03  0.82064263796E+03 0.  0.
        5    1    3    3  502    0 -0.23826776026E+02  0.29413069939E+03  0.10704995780E+03  0.31394643977E+03  0.46999998093E+01 0.  1.
       -5    1    3    3    0  502  0.23826776026E+02 -0.29413069939E+03 -0.53638676167E+03  0.61222008435E+03  0.46999998093E+01 0. -1.
</event>
<event>
 5   0  0.1989298E-02  0.7968709E+03  0.7818609E-02  0.9564557E-01
       -1   -1    0    0    0  501  0.00000000000E+00  0.00000000000E+00  0.13410503212E+03  0.13410503221E+03  0.50400001928E-02 0. -1.
        1   -1    0    0  501    0  0.00000000000E+00  0.00000000000E+00 -0.11837796233E+04  0.11837796233E+04  0.50400001928E-02 0.  1.
    10030    2    1    2    0    0  0.00000000000E+00  0.00000000000E+00 -0.10496745912E+04  0.13178846555E+04  0.79687089160E+03 0.  0.
        1    1    3    3  502    0 -0.51031194541E+02 -0.15436369035E+03 -0.11264260067E+04  0.11380983614E+04  0.50400001928E-02 0.  1.
       -1    1    3    3    0  502  0.51031194541E+02  0.15436369035E+03  0.76751415548E+02  0.17978629405E+03  0.50400001928E-02 0. -1.
</event>
<event>
 5   0  0.2063692E-02  0.7254377E+03  0.7818609E-02  0.9674693E-01
       -1   -1    0    0    0  501  0.00000000000E+00  0.00000000000E+00  0.28667132470E+03  0.28667132475E+03  0.50400001928E-02 0. -1.
        1   -1    0    0  501    0  0.00000000000E+00  0.00000000000E+00 -0.45894012668E+03  0.45894012671E+03  0.50400001928E-02 0.  1.
    10030    2    1    2    0    0  0.00000000000E+00  0.00000000000E+00 -0.17226880198E+03  0.74561145146E+03  0.72543772745E+03 0.  0.
        2    1    3    3  502    0 -0.24084737783E+03 -0.32516244576E+02 -0.36288085148E+03  0.43674623977E+03  0.25500000920E-02 0.  1.
       -2    1    3    3    0  502  0.24084737783E+03  0.32516244576E+02  0.19061204950E+03  0.30886521169E+03  0.25500000920E-02 0. -1.
</event>
<event>
 5   0  0.2063692E-02  0.8010782E+03  0.7818609E-02  0.9558458E-01
        1   -1    0    0  501    0  0.00000000000E+00  0.00000000000E+00  0.56901780584E+03  0.56901780586E+03  0.50400001928E-02 0.  1.
       -1   -1    0    0    0  501  0.00000000000E+00  0.00000000000E+00 -0.28194471168E+03  0.28194471173E+03  0.50400001928E-02 0. -1.
    10030    2    1    2    0    0  0.00000000000E+00  0.00000000000E+00  0.28707309415E+03  0.85096251759E+03  0.80107817655E+03 0.  0.
        2    1    3    3  502    0  0.23378490821E+03  0.32494589015E+03  0.12903561112E+03  0.42058935290E+03  0.25500000920E-02 0.  1.
       -2    1    3    3    0  502 -0.23378490821E+03 -0.32494589015E+03  0.15803748304E+03  0.43037316468E+03  0.25500000920E-02 0. -1.
</event>
<event>
 5   0  0.2077795E-02  0.7885361E+03  0.7818609E-02  0.9576760E-01
        1   -1    0    0  501    0  0.00000000000E+00  0.00000000000E+00  0.12954154969E+04  0.12954154969E+04  0.50400001928E-02 0.  1.
       -1   -1    0    0    0  501  0.00000000000E+00  0.00000000000E+00 -0.11999803453E+03  0.11999803464E+03  0.50400001928E-02 0. -1.
    10030    2    1    2    0    0  0.00000000000E+00  0.00000000000E+00  0.11754174624E+04  0.14154135315E+04  0.78853614657E+03 0.  0.
        5    1    3    3  502    0  0.22652280206E+03  0.29059015907E+03  0.83945552745E+03  0.91676763303E+03  0.46999998093E+01 0.  1.
       -5    1    3    3    0  502 -0.22652280206E+03 -0.29059015907E+03  0.33596193491E+03  0.49864589852E+03  0.46999998093E+01 0. -1.
</event>
<event>
 5   0  0.3416160E-02  0.8094883E+03  0.7818609E-02  0.9546384E-01
       -2   -1    0    0    0  501  0.00000000000E+00  0.00000000000E+00  0.91517718450E+02  0.91517718485E+02  0.25500000920E-02 0.  1.
        2   -1    0    0  501    0  0.00000000000E+00  0.00000000000E+00 -0.17900122552E+04  0.17900122552E+04  0.25500000920E-02 0. -1.
    10030    2    1    2    0    0  0.00000000000E+00  0.00000000000E+00 -0.16984945367E+04  0.18815299737E+04  0.80948832636E+03 0.  0.
        1    1    3    3  502    0  0.33237643833E+03 -0.22917209570E+03 -0.78253041815E+03  0.88053835893E+03  0.50400001928E-02 0.  1.
       -1    1    3    3    0  502 -0.33237643833E+03  0.22917209570E+03 -0.91596411859E+03  0.10009916147E+04  0.50400001928E-02 0. -1.
</event>
<event>
 5   0  0.2063692E-02  0.7907001E+03  0.7818609E-02  0.9573577E-01
        1   -1    0    0  501    0  0.00000000000E+00  0.00000000000E+00  0.84712650481E+03  0.84712650482E+03  0.50400001928E-02 0. -1.
       -1   -1    0    0    0  501  0.00000000000E+00  0.00000000000E+00 -0.18450806489E+03  0.18450806496E+03  0.50400001928E-02 0.  1.
    10030    2    1    2    0    0  0.00000000000E+00  0.00000000000E+00  0.66261843992E+03  0.10316345698E+04  0.79070012562E+03 0.  0.
        2    1    3    3  502    0 -0.23338749222E+03 -0.30102045908E+03  0.46950159024E+03  0.60457818481E+03  0.25500000920E-02 0. -1.
       -2    1    3    3    0  502  0.23338749222E+03  0.30102045908E+03  0.19311684968E+03  0.42705638497E+03  0.25500000920E-02 0.  1.
</event>
<event>
 5   0  0.3550586E-02  0.8891733E+03  0.7818609E-02  0.9439217E-01
       -2   -1    0    0    0  501  0.00000000000E+00  0.00000000000E+00  0.20205939320E+03  0.20205939322E+03  0.25500000920E-02 0.  1.
        2   -1    0    0  501    0  0.00000000000E+00  0.00000000000E+00 -0.97821388566E+03  0.97821388566E+03  0.25500000920E-02 0. -1.
    10030    2    1    2    0    0  0.00000000000E+00  0.00000000000E+00 -0.77615449245E+03  0.11802732789E+04  0.88917333331E+03 0.  0.
        3    1    3    3  502    0 -0.40478245577E+03 -0.18374554697E+03 -0.37907142291E+03  0.58421435826E+03  0.10100000352E+00 0.  1.
       -3    1    3    3    0  502  0.40478245577E+03  0.18374554697E+03 -0.39708306955E+03  0.59605892062E+03  0.10100000352E+00 0. -1.
</event>
<event>
 5   0  0.2132540E-02  0.8250378E+03  0.7818609E-02  0.9524467E-01
       -1   -1    0    0    0  501  0.00000000000E+00  0.00000000000E+00  0.20520842402E+03  0.20520842408E+03  0.50400001928E-02 0. -1.
        1   -1    0    0  501    0  0.00000000000E+00  0.00000000000E+00 -0.82926338583E+03  0.82926338585E+03  0.50400001928E-02 0.  1.
    10030    2    1    2    0    0  0.00000000000E+00  0.00000000000E+00 -0.62405496182E+03  0.10344718099E+04  0.82503777500E+03 0.  0.
        4    1    3    3  502    0 -0.27187964420E+03 -0.24329441229E+03 -0.55340379410E+03  0.66284846247E+03  0.12699999809E+01 0.  1.
       -4    1    3    3    0  502  0.27187964420E+03  0.24329441229E+03 -0.70651167721E+02  0.37162334746E+03  0.12699999809E+01 0. -1.
</event>
<event>
 5   0  0.3416160E-02  0.8491789E+03  0.7818609E-02  0.9491440E-01
       -2   -1    0    0    0  501  0.00000000000E+00  0.00000000000E+00  0.16191787995E+03  0.16191787997E+03  0.25500000920E-02 0.  1.
        2   -1    0    0  501    0  0.00000000000E+00  0.00000000000E+00 -0.11133804020E+04  0.11133804020E+04  0.25500000920E-02 0. -1.
    10030    2    1    2    0    0  0.00000000000E+00  0.00000000000E+00 -0.95146252205E+03  0.12752982820E+04  0.84917888406E+03 0.  0.
        1    1    3    3  502    0 -0.32064879808E+03 -0.10676815523E+03 -0.89732864527E+02  0.34966709551E+03  0.50400001928E-02 0. -1.
       -1    1    3    3    0  502  0.32064879808E+03  0.10676815523E+03 -0.86172965752E+03  0.92563118646E+03  0.50400001928E-02 0.  1.
</event>
<event>
 5   0  0.2129257E-02  0.8062661E+03  0.7818609E-02  0.9550991E-01
        1   -1    0    0  501    0  0.00000000000E+00  0.00000000000E+00  0.13544304154E+04  0.13544304154E+04  0.50400001928E-02 0. -1.
       -1   -1    0    0    0  501  0.00000000000E+00  0.00000000000E+00 -0.11998863218E+03  0.11998863229E+03  0.50400001928E-02 0.  1.
    10030    2    1    2    0    0  0.00000000000E+00  0.00000000000E+00  0.12344417832E+04  0.14744190476E+04  0.80626609257E+03 0.  0.
        3    1    3    3  502    0  0.39864885097E+03 -0.58796355974E+02  0.63872853356E+03  0.75521657002E+03  0.10100000352E+00 0.  1.
       -3    1    3    3    0  502 -0.39864885097E+03  0.58796355974E+02  0.59571324961E+03  0.71920247762E+03  0.10100000352E+00 0. -1.
</event>
<event>
 5   0  0.3343036E-02  0.7995933E+03  0.7818609E-02  0.9560606E-01
        2   -1    0    0  501    0  0.00000000000E+00  0.00000000000E+00  0.52828068676E+03  0.52828068677E+03  0.25500000920E-02 0.  1.
       -2   -1    0    0    0  501  0.00000000000E+00  0.00000000000E+00 -0.30256146237E+03  0.30256146238E+03  0.25500000920E-02 0. -1.
    10030    2    1    2    0    0  0.00000000000E+00  0.00000000000E+00  0.22571922440E+03  0.83084214915E+03  0.79959333948E+03 0.  0.
        4    1    3    3  502    0 -0.39105496126E+03  0.12464841465E+02  0.27449886679E+02  0.39221736853E+03  0.12699999809E+01 0.  1.
       -4    1    3    3    0  502  0.39105496126E+03 -0.12464841465E+02  0.19826933772E+03  0.43862478062E+03  0.12699999809E+01 0. -1.
</event>
<event>
 5   0  0.1358000E-02  0.7970304E+03  0.7818609E-02  0.9564325E-01
        3   -1    0    0  501    0  0.00000000000E+00  0.00000000000E+00  0.43836447488E+03  0.43836448652E+03  0.10100000352E+00 0. -1.
       -3   -1    0    0    0  501  0.00000000000E+00  0.00000000000E+00 -0.36228842190E+03  0.36228843597E+03  0.10100000352E+00 0.  1.
    10030    2    1    2    0    0  0.00000000000E+00  0.00000000000E+00  0.76076052986E+02  0.80065292249E+03  0.79703044889E+03 0.  0.
        4    1    3    3  502    0  0.31839067019E+02  0.34160827719E+03 -0.16562174047E+03  0.38097521580E+03  0.12699999809E+01 0.  1.
       -4    1    3    3    0  502 -0.31839067019E+02 -0.34160827719E+03  0.24169779346E+03  0.41967770670E+03  0.12699999809E+01 0. -1.
</event>
<event>
 5   0  0.3343036E-02  0.7673592E+03  0.7818609E-02  0.9608503E-01
       -2   -1    0    0    0  501  0.00000000000E+00  0.00000000000E+00  0.25625806736E+03  0.25625806737E+03  0.25500000920E-02 0.  1.
        2   -1    0    0  501    0  0.00000000000E+00  0.00000000000E+00 -0.57446014745E+03  0.57446014745E+03  0.25500000920E-02 0. -1.
    10030    2    1    2    0    0  0.00000000000E+00  0.00000000000E+00 -0.31820208009E+03  0.83071821482E+03  0.76735923052E+03 0.  0.
        4    1    3    3  502    0 -0.18334617495E+03  0.21492274525E+03  0.12195157295E+03  0.30770343733E+03  0.12699999809E+01 0.  1.
       -4    1    3    3    0  502  0.18334617495E+03 -0.21492274525E+03 -0.44015365304E+03  0.52301477750E+03  0.12699999809E+01 0. -1.
</event>
<event>
 5   0  0.3404132E-02  0.7839730E+03  0.7818609E-02  0.9583510E-01
       -2   -1    0    0    0  501  0.00000000000E+00  0.00000000000E+00  0.20852350765E+03  0.20852350766E+03  0.25500000920E-02 0. -1.
        2   -1    0    0  501    0  0.00000000000E+00  0.00000000000E+00 -0.73686375719E+03  0.73686375719E+03  0.25500000920E-02 0.  1.
    10030    2    1    2    0    0  0.00000000000E+00  0.00000000000E+00 -0.52834024954E+03  0.94538726485E+03  0.78397299779E+03 0.  0.
        5    1    3    3  502    0  0.16819573470E+03  0.96093028911E+02 -0.67507288677E+03  0.70233123797E+03  0.46999998093E+01 0.  1.
       -5    1    3    3    0  502 -0.16819573470E+03 -0.96093028911E+02  0.14673263723E+03  0.24305602688E+03  0.46999998093E+01 0. -1.
</event>
<event>
 5   0  0.3467240E-02  0.7113123E+03  0.7818609E-02  0.9698080E-01
        2   -1    0    0  501    0  0.00000000000E+00  0.00000000000E+00  0.16522557892E+04  0.16522557892E+04  0.25500000920E-02 0.  1.
       -2   -1    0    0    0  501  0.00000000000E+00  0.00000000000E+00 -0.76556725766E+02  0.76556725809E+02  0.25500000920E-02 0. -1.
    10030    2    1    2    0    0  0.00000000000E+00  0.00000000000E+00  0.15756990635E+04  0.17288125150E+04  0.71131228976E+03 0.  0.
        2    1    3    3  502    0 -0.13576696787E+03  0.13294508519E+03  0.15185407911E+04  0.15303833505E+04  0.25500000920E-02 0.  1.
       -2    1    3    3    0  502  0.13576696787E+03 -0.13294508519E+03  0.57158272388E+02  0.19842916457E+03  0.25500000920E-02 0. -1.
</event>
<event>
 5   0  0.3550586E-02  0.7849871E+03  0.7818609E-02  0.9582006E-01
       -2   -1    0    0    0  501  0.00000000000E+00  0.00000000000E+00  0.15137563672E+03  0.15137563674E+03  0.25500000920E-02 0. -1.
        2   -1    0    0  501    0  0.00000000000E+00  0.00000000000E+00 -0.10176748714E+04  0.10176748714E+04  0.25500000920E-02 0.  1.
    10030    2    1    2    0    0  0.00000000000E+00  0.00000000000E+00 -0.86629923470E+03  0.11690505082E+04  0.78498708689E+03 0.  0.
        3    1    3    3  502    0  0.69366962528E+02 -0.15384783481E+03 -0.96088246160E+03  0.97559010193E+03  0.10100000352E+00 0.  1.
       -3    1    3    3    0  502 -0.69366962528E+02  0.15384783481E+03  0.94583226903E+02  0.19346040623E+03  0.10100000352E+00 0. -1.
</event>
<event>
 5   0  0.3550586E-02  0.7824719E+03  0.7818609E-02  0.9585741E-01
       -2   -1    0    0    0  501  0.00000000000E+00  0.00000000000E+00  0.19960990258E+03  0.19960990260E+03  0.25500000920E-02 0.  1.
        2   -1    0    0  501    0  0.00000000000E+00  0.00000000000E+00 -0.76682345605E+03  0.76682345606E+03  0.25500000920E-02 0. -1.
    10030    2    1    2    0    0  0.00000000000E+00  0.00000000000E+00 -0.56721355347E+03  0.96643335866E+03  0.78247186626E+03 0.  0.
        3    1    3    3  502    0  0.34284698046E+03  0.11135383463E+03 -0.47141480684E+03  0.59344389693E+03  0.10100000352E+00 0. -1.
       -3    1    3    3    0  502 -0.34284698046E+03 -0.11135383463E+03 -0.95798746633E+02  0.37298946172E+03  0.10100000352E+00 0.  1.
</event>
<event>
 5   0  0.3467240E-02  0.6129570E+03  0.7818609E-02  0.9878883E-01
        2   -1    0    0  501    0  0.00000000000E+00  0.00000000000E+00  0.19950157812E+04  0.19950157812E+04  0.25500000920E-02 0.  1.
       -2   -1    0    0    0  501  0.00000000000E+00  0.00000000000E+00 -0.47081874156E+02  0.47081874225E+02  0.25500000920E-02 0. -1.
    10030    2    1    2    0    0  0.00000000000E+00  0.00000000000E+00  0.19479339070E+04  0.20420976554E+04  0.61295703608E+03 0.  0.
        2    1    3    3  502    0  0.40822102406E+02 -0.22538751615E+02 -0.35194134040E+02  0.58421455361E+02  0.25500000920E-02 0. -1.
       -2    1    3    3    0  502 -0.40822102406E+02  0.22538751615E+02  0.19831280410E+04  0.19836762000E+04  0.25500000920E-02 0.  1.
</event>
<event>
 5   0  0.1358000E-02  0.7765558E+03  0.7818609E-02  0.9594586E-01
        3   -1    0    0  501    0  0.00000000000E+00  0.00000000000E+00  0.25856029766E+03  0.25856031739E+03  0.10100000352E+00 0.  1.
       -3   -1    0    0    0  501  0.00000000000E+00  0.00000000000E+00 -0.58307365963E+03  0.58307366838E+03  0.10100000352E+00 0. -1.
    10030    2    1    2    0    0  0.00000000000E+00  0.00000000000E+00 -0.32451336197E+03  0.84163398577E+03  0.77655575711E+03 0.  0.
        2    1    3    3  502    0 -0.10691447763E+03 -0.18611324460E+03 -0.51293185074E+03  0.55602871225E+03  0.25500000920E-02 0. -1.
       -2    1    3    3    0  502  0.10691447763E+03  0.18611324460E+03  0.18841848877E+03  0.28560527352E+03  0.25500000920E-02 0.  1.
</event>
<event>
 5   0  0.3404132E-02  0.8022933E+03  0.7818609E-02  0.9556704E-01
        2   -1    0    0  501    0  0.00000000000E+00  0.00000000000E+00  0.60262552078E+03  0.60262552078E+03  0.25500000920E-02 0. -1.
       -2   -1    0    0    0  501  0.00000000000E+00  0.00000000000E+00 -0.26702924639E+03  0.26702924640E+03  0.25500000920E-02 0.  1.
    10030    2    1    2    0    0  0.00000000000E+00  0.00000000000E+00  0.33559627439E+03  0.86965476719E+03  0.80229330965E+03 0.  0.
        5    1    3    3  502    0  0.32833242984E+03 -0.13713931602E+03 -0.32916731489E+02  0.35737232362E+03  0.46999998093E+01 0.  1.
       -5    1    3    3    0  502 -0.32833242984E+03  0.13713931602E+03  0.36851300588E+03  0.51228244356E+03  0.46999998093E+01 0. -1.
</event>
<event>
 5   0  0.3550586E-02  0.8134926E+03  0.7818609E-02  0.9540690E-01
       -2   -1    0    0    0  501  0.00000000000E+00  0.00000000000E+00  0.28463199528E+03  0.28463199529E+03  0.25500000920E-02 0. -1.
        2   -1    0    0  501    0  0.00000000000E+00  0.00000000000E+00 -0.58125065055E+03  0.58125065055E+03  0.25500000920E-02 0.  1.
    10030    2    1    2    0    0  0.00000000000E+00  0.00000000000E+00 -0.29661865527E+03  0.86588264584E+03  0.81349255050E+03 0.  0.
        3    1    3    3  502    0  0.26803343721E+03  0.13155550891E+03  0.14569243031E+03  0.33222743691E+03  0.10100000352E+00 0. -1.
       -3    1    3    3    0  502 -0.26803343721E+03 -0.13155550891E+03 -0.44231108558E+03  0.53365520893E+03  0.10100000352E+00 0.  1.
</event>
<event>
 5   0  0.2132540E-02  0.7394048E+03  0.7818609E-02  0.9652121E-01
        1   -1    0    0  501    0  0.00000000000E+00  0.00000000000E+00  0.37919478107E+03  0.37919478111E+03  0.50400001928E-02 0.  1.
       -1   -1    0    0    0  501  0.00000000000E+00  0.00000000000E+00 -0.36044767463E+03  0.36044767466E+03  0.50400001928E-02 0. -1.
    10030    2    1    2    0    0  0.00000000000E+00  0.00000000000E+00  0.18747106445E+02  0.73964245577E+03  0.73940483389E+03 0.  0.
        4    1    3    3  502    0 -0.24431997265E+02  0.21233544939E+03 -0.29237716177E+03  0.36217300173E+03  0.12699999809E+01 0. -1.
       -4    1    3    3    0  502  0.24431997265E+02 -0.21233544939E+03  0.31112426821E+03  0.37746945404E+03  0.12699999809E+01 0.  1.
</event>
<event>
 5   0  0.3416160E-02  0.8046005E+03  0.7818609E-02  0.9553382E-01
       -2   -1    0    0    0  501  0.00000000000E+00  0.00000000000E+00  0.30111332322E+03  0.30111332323E+03  0.25500000920E-02 0. -1.
        2   -1    0    0  501    0  0.00000000000E+00  0.00000000000E+00 -0.53749023910E+03  0.53749023911E+03  0.25500000920E-02 0.  1.
    10030    2    1    2    0    0  0.00000000000E+00  0.00000000000E+00 -0.23637691588E+03  0.83860356234E+03  0.80460045265E+03 0.  0.
        1    1    3    3  502    0 -0.10540865087E+03  0.20211447647E+03 -0.46368532110E+03  0.51668687065E+03  0.50400001928E-02 0.  1.
       -1    1    3    3    0  502  0.10540865087E+03 -0.20211447647E+03  0.22730840522E+03  0.32191669168E+03  0.50400001928E-02 0. -1.
</event>
<event>
 5   0  0.3467240E-02  0.7849148E+03  0.7818609E-02  0.9582113E-01
       -2   -1    0    0    0  501  0.00000000000E+00  0.00000000000E+00  0.89243476772E+02  0.89243476809E+02  0.25500000920E-02 0.  1.
        2   -1    0    0  501    0  0.00000000000E+00  0.00000000000E+00 -0.17258720104E+04  0.17258720104E+04  0.25500000920E-02 0. -1.
    10030    2    1    2    0    0  0.00000000000E+00  0.00000000000E+00 -0.16366285336E+04  0.18151154872E+04  0.78491482011E+03 0.  0.
        2    1    3    3  502    0 -0.15236714662E+03 -0.28914790055E+03 -0.13207208510E+04  0.13605608484E+04  0.25500000920E-02 0. -1.
       -2    1    3    3    0  502  0.15236714662E+03  0.28914790055E+03 -0.31590768258E+03  0.45455463883E+03  0.25500000920E-02 0.  1.
</event>
<event>
 5   0  0.2063692E-02  0.7753908E+03  0.7818609E-02  0.9596337E-01
       -1   -1    0    0    0  501  0.00000000000E+00  0.00000000000E+00  0.13203289092E+03  0.13203289102E+03  0.50400001928E-02 0. -1.
        1   -1    0    0  501    0  0.00000000000E+00  0.00000000000E+00 -0.11384111467E+04  0.11384111467E+04  0.50400001928E-02 0.  1.
    10030    2    1    2    0    0  0.00000000000E+00  0.00000000000E+00 -0.10063782558E+04  0.12704440377E+04  0.77539077844E+03 0.  0.
        2    1    3    3  502    0  0.11158262198E+03  0.22724523976E+03 -0.98428368128E+03  0.10163195589E+04  0.25500000920E-02 0.  1.
       -2    1    3    3    0  502 -0.11158262198E+03 -0.22724523976E+03 -0.22094574502E+02  0.25412447885E+03  0.25500000920E-02 0. -1.
</event>
<event>
 5   0  0.3404132E-02  0.7255485E+03  0.7818609E-02  0.9674512E-01
       -2   -1    0    0    0  501  0.00000000000E+00  0.00000000000E+00  0.13935024860E+03  0.13935024862E+03  0.25500000920E-02 0. -1.
        2   -1    0    0  501    0  0.00000000000E+00  0.00000000000E+00 -0.94442000453E+03  0.94442000453E+03  0.25500000920E-02 0.  1.
    10030    2    1    2    0    0  0.00000000000E+00  0.00000000000E+00 -0.80506975593E+03  0.10837702532E+04  0.72554851645E+03 0.  0.
        5    1    3    3  502    0 -0.23804551103E+03 -0.25273115495E+03 -0.24555598924E+03  0.42527465931E+03  0.46999998093E+01 0.  1.
       -5    1    3    3    0  502  0.23804551103E+03  0.25273115495E+03 -0.55951376669E+03  0.65849559385E+03  0.46999998093E+01 0. -1.
</event>
<event>
 5   0  0.2129257E-02  0.8194040E+03  0.7818609E-02  0.9532348E-01
        1   -1    0    0  501    0  0.00000000000E+00  0.00000000000E+00  0.38436266903E+03  0.38436266906E+03  0.50400001928E-02 0. -1.
       -1   -1    0    0    0  501  0.00000000000E+00  0.00000000000E+00 -0.43671187940E+03  0.43671187943E+03  0.50400001928E-02 0.  1.
    10030    2    1    2    0    0  0.00000000000E+00  0.00000000000E+00 -0.52349210367E+02  0.82107454849E+03  0.81940403608E+03 0.  0.
        3    1    3    3  502    0 -0.29363994881E+03  0.10441613095E+03  0.24031604570E+03  0.39354664268E+03  0.10100000352E+00 0. -1.
       -3    1    3    3    0  502  0.29363994881E+03 -0.10441613095E+03 -0.29266525607E+03  0.42752790581E+03  0.10100000352E+00 0.  1.
</event>
<event>
 5   0  0.2129257E-02  0.8204627E+03  0.7818609E-02  0.9530862E-01
        1   -1    0    0  501    0  0.00000000000E+00  0.00000000000E+00  0.25417659392E+03  0.25417659397E+03  0.50400001928E-02 0.  1.
       -1   -1    0    0    0  501  0.00000000000E+00  0.00000000000E+00 -0.66209779225E+03  0.66209779227E+03  0.50400001928E-02 0. -1.
    10030    2    1    2    0    0  0.00000000000E+00  0.00000000000E+00 -0.40792119833E+03  0.91627438625E+03  0.82046270290E+03 0.  0.
        3    1    3    3  502    0  0.12269531233E+03  0.16700513814E+03  0.19142425554E+03  0.28211365023E+03  0.10100000352E+00 0.  1.
       -3    1    3    3    0  502 -0.12269531233E+03 -0.16700513814E+03 -0.59934545387E+03  0.63416073602E+03  0.10100000352E+00 0. -1.
</event>
<event>
 5   0  0.2132540E-02  0.7180050E+03  0.7818609E-02  0.9686927E-01
        1   -1    0    0  501    0  0.00000000000E+00  0.00000000000E+00  0.29586592438E+03  0.29586592442E+03  0.50400001928E-02 0. -1.
       -1   -1    0    0    0  501  0.00000000000E+00  0.00000000000E+00 -0.43561216453E+03  0.43561216456E+03  0.50400001928E-02 0.  1.
    10030    2    1    2    0    0  0.00000000000E+00  0.00000000000E+00 -0.13974624015E+03  0.73147808898E+03  0.71800500208E+03 0.  0.
        4    1    3    3  502    0  0.28584531763E+03  0.14809638670E+03 -0.23172880910E+03  0.39666098778E+03  0.12699999809E+01 0.  1.
       -4    1    3    3    0  502 -0.28584531763E+03 -0.14809638670E+03  0.91982568951E+02  0.33481710119E+03  0.12699999809E+01 0. -1.
</event>
<event>
 5   0  0.3343036E-02  0.7862395E+03  0.7818609E-02  0.9580151E-01
       -2   -1    0    0    0  501  0.00000000000E+00  0.00000000000E+00  0.17662266650E+03  0.17662266651E+03  0.25500000920E-02 0. -1.
        2   -1    0    0  501    0  0.00000000000E+00  0.00000000000E+00 -0.87499038712E+03  0.87499038713E+03  0.25500000920E-02 0.  1.
    10030    2    1    2    0    0  0.00000000000E+00  0.00000000000E+00 -0.69836772063E+03  0.10516130536E+04  0.78623949365E+03 0.  0.
        4    1    3    3  502    0  0.16193564612E+03 -0.35809582844E+03 -0.33679847270E+03  0.51758149111E+03  0.12699999809E+01 0. -1.
       -4    1    3    3    0  502 -0.16193564612E+03  0.35809582844E+03 -0.36156924793E+03  0.53403156253E+03  0.12699999809E+01 0.  1.
</event>
<event>
 5   0  0.3467240E-02  0.7920112E+03  0.7818609E-02  0.9571653E-01
       -2   -1    0    0    0  501  0.00000000000E+00  0.00000000000E+00  0.56626226140E+02  0.56626226197E+02  0.25500000920E-02 0. -1.
        2   -1    0    0  501    0  0.00000000000E+00  0.00000000000E+00 -0.27693959139E+04  0.27693959139E+04  0.25500000920E-02 0.  1.
    10030    2    1    2    0    0  0.00000000000E+00  0.00000000000E+00 -0.27127696878E+04  0.28260221401E+04  0.79201121046E+03 0.  0.
        2    1    3    3  502    0 -0.17863739015E+03 -0.32085798913E+03 -0.82763139848E+03  0.90544734696E+03  0.25500000920E-02 0. -1.
       -2    1    3    3    0  502  0.17863739015E+03  0.32085798913E+03 -0.18851382893E+04  0.19205747931E+04  0.25500000920E-02 0.  1.
</event>
<event>
 5   0  0.3343036E-02  0.7794125E+03  0.7818609E-02  0.9590304E-01
       -2   -1    0    0    0  501  0.00000000000E+00  0.00000000000E+00  0.20535448535E+03  0.20535448536E+03  0.25500000920E-02 0.  1.
        2   -1    0    0  501    0  0.00000000000E+00  0.00000000000E+00 -0.73955520256E+03  0.73955520257E+03  0.25500000920E-02 0. -1.
    10030    2    1    2    0    0  0.00000000000E+00  0.00000000000E+00 -0.53420071721E+03  0.94490968793E+03  0.77941254292E+03 0.  0.
        4    1    3    3  502    0 -0.25994936644E+03  0.10847664597E+03 -0.59359592398E+03  0.65703773841E+03  0.12699999809E+01 0. -1.
       -4    1    3    3    0  502  0.25994936644E+03 -0.10847664597E+03  0.59395206764E+02  0.28787194952E+03  0.12699999809E+01 0.  1.
</event>
<event>
 5   0  0.3416160E-02  0.8559754E+03  0.7818609E-02  0.9482352E-01
       -2   -1    0    0    0  501  0.00000000000E+00  0.00000000000E+00  0.10999802012E+03  0.10999802015E+03  0.25500000920E-02 0. -1.
        2   -1    0    0  501    0  0.00000000000E+00  0.00000000000E+00 -0.16652434965E+04  0.16652434965E+04  0.25500000920E-02 0.  1.
    10030    2    1    2    0    0  0.00000000000E+00  0.00000000000E+00 -0.15552454764E+04  0.17752415167E+04  0.85597543813E+03 0.  0.
        1    1    3    3  502    0 -0.36396611136E+03  0.10101572022E+03 -0.11949846690E+04  0.12532612917E+04  0.50400001928E-02 0.  1.
       -1    1    3    3    0  502  0.36396611136E+03 -0.10101572022E+03 -0.36026080738E+03  0.52198022501E+03  0.50400001928E-02 0. -1.
</event>
<event>
 5   0  0.3550586E-02  0.8009995E+03  0.7818609E-02  0.9558572E-01
        2   -1    0    0  501    0  0.00000000000E+00  0.00000000000E+00  0.23591365859E+03  0.23591365860E+03  0.25500000920E-02 0.  1.
       -2   -1    0    0    0  501  0.00000000000E+00  0.00000000000E+00 -0.67990991155E+03  0.67990991155E+03  0.25500000920E-02 0. -1.
    10030    2    1    2    0    0  0.00000000000E+00  0.00000000000E+00 -0.44399625296E+03  0.91582357016E+03  0.80099946255E+03 0.  0.
        3    1    3    3  502    0 -0.21095408082E+02  0.26958741617E+03  0.11577965003E+03  0.29415528001E+03  0.10100000352E+00 0.  1.
       -3    1    3    3    0  502  0.21095408082E+02 -0.26958741617E+03 -0.55977590299E+03  0.62166829014E+03  0.10100000352E+00 0. -1.
</event>
<event>
 5   0  0.1989298E-02  0.8027815E+03  0.7818609E-02  0.9556000E-01
       -1   -1    0    0    0  501  0.00000000000E+00  0.00000000000E+00  0.21614044253E+03  0.21614044259E+03  0.50400001928E-02 0. -1.
        1   -1    0    0  501    0  0.00000000000E+00  0.00000000000E+00 -0.74541589291E+03  0.74541589293E+03  0.50400001928E-02 0.  1.
    10030    2    1    2    0    0  0.00000000000E+00  0.00000000000E+00 -0.52927545038E+03  0.96155633551E+03  0.80278146714E+03 0.  0.
        1    1    3    3  502    0 -0.16346178914E+03 -0.15665848084E+03  0.13235553066E+03  0.26225869414E+03  0.50400001928E-02 0. -1.
       -1    1    3    3    0  502  0.16346178914E+03  0.15665848084E+03 -0.66163098105E+03  0.69929764138E+03  0.50400001928E-02 0.  1.
</event>
<event>
 5   0  0.3467240E-02  0.8080516E+03  0.7818609E-02  0.9548435E-01
        2   -1    0    0  501    0  0.00000000000E+00  0.00000000000E+00  0.75122504396E+03  0.75122504397E+03  0.25500000920E-02 0. -1.
       -2   -1    0    0    0  501  0.00000000000E+00  0.00000000000E+00 -0.21729418834E+03  0.21729418836E+03  0.25500000920E-02 0.  1.
    10030    2    1    2    0    0  0.00000000000E+00  0.00000000000E+00  0.53393085562E+03  0.96851923232E+03  0.80805157311E+03 0.  0.
        2    1    3    3  502    0  0.30872675960E+03  0.21987872365E+03  0.43467313027E+03  0.57671448343E+03  0.25500000920E-02 0. -1.
       -2    1    3    3    0  502 -0.30872675960E+03 -0.21987872365E+03  0.99257725355E+02  0.39180474890E+03  0.25500000920E-02 0.  1.
</event>
<event>
 5   0  0.2063692E-02  0.6930319E+03  0.7818609E-02  0.9729223E-01
        1   -1    0    0  501    0  0.00000000000E+00  0.00000000000E+00  0.12810512887E+04  0.12810512887E+04  0.50400001928E-02 0. -1.
       -1   -1    0    0    0  501  0.00000000000E+00  0.00000000000E+00 -0.93730290646E+02  0.93730290782E+02  0.50400001928E-02 0.  1.
    10030    2    1    2    0    0  0.00000000000E+00  0.00000000000E+00  0.11873209981E+04  0.13747815795E+04  0.69303191766E+03 0.  0.
        2    1    3    3  502    0 -0.21015208963E+03 -0.24720007738E+03  0.35231801259E+03  0.47895695113E+03  0.25500000920E-02 0.  1.
       -2    1    3    3    0  502  0.21015208963E+03  0.24720007738E+03  0.83500298547E+03  0.89582462837E+03  0.25500000920E-02 0. -1.
</event>
<event>
 5   0  0.3343036E-02  0.7978681E+03  0.7818609E-02  0.9563108E-01
       -2   -1    0    0    0  501  0.00000000000E+00  0.00000000000E+00  0.19689239413E+03  0.19689239415E+03  0.25500000920E-02 0.  1.
        2   -1    0    0  501    0  0.00000000000E+00  0.00000000000E+00 -0.80830121213E+03  0.80830121213E+03  0.25500000920E-02 0. -1.
    10030    2    1    2    0    0  0.00000000000E+00  0.00000000000E+00 -0.61140881800E+03  0.10051936063E+04  0.79786806139E+03 0.  0.
        4    1    3    3  502    0  0.82270777924E+02 -0.33482111830E+03 -0.52875872648E+02  0.34881389446E+03  0.12699999809E+01 0.  1.
       -4    1    3    3    0  502 -0.82270777924E+02  0.33482111830E+03 -0.55853294535E+03  0.65637971183E+03  0.12699999809E+01 0. -1.
</event>
<event>
 5   0  0.3343036E-02  0.8002615E+03  0.7818609E-02  0.9559639E-01
       -2   -1    0    0    0  501  0.00000000000E+00  0.00000000000E+00  0.10409778400E+03  0.10409778403E+03  0.25500000920E-02 0.  1.
        2   -1    0    0  501    0  0.00000000000E+00  0.00000000000E+00 -0.15380212555E+04  0.15380212555E+04  0.25500000920E-02 0. -1.
    10030    2    1    2    0    0  0.00000000000E+00  0.00000000000E+00 -0.14339234715E+04  0.16421190396E+04  0.80026146844E+03 0.  0.
        4    1    3    3  502    0  0.20733149152E+03 -0.14099826221E+03 -0.77099363004E+02  0.26232190530E+03  0.12699999809E+01 0.  1.
       -4    1    3    3    0  502 -0.20733149152E+03  0.14099826221E+03 -0.13568241085E+04  0.13797971343E+04  0.12699999809E+01 0. -1.
</event>
<event>
 5   0  0.2132540E-02  0.7999860E+03  0.7818609E-02  0.9560037E-01
        1   -1    0    0  501    0  0.00000000000E+00  0.00000000000E+00  0.11429277228E+04  0.11429277228E+04  0.50400001928E-02 0.  1.
       -1   -1    0    0    0  501  0.00000000000E+00  0.00000000000E+00 -0.13998644065E+03  0.13998644074E+03  0.50400001928E-02 0. -1.
    10030    2    1    2    0    0  0.00000000000E+00  0.00000000000E+00  0.10029412822E+04  0.12829141636E+04  0.79998595964E+03 0.  0.
        4    1    3    3  502    0 -0.35624045573E+03  0.60305534704E+02  0.77667079747E+03  0.85659976673E+03  0.12699999809E+01 0.  1.
       -4    1    3    3    0  502  0.35624045573E+03 -0.60305534704E+02  0.22627048471E+03  0.42631439686E+03  0.12699999809E+01 0. -1.
</event>
<event>
 5   0  0.2129257E-02  0.8150303E+03  0.7818609E-02  0.9538513E-01
       -1   -1    0    0    0  501  0.00000000000E+00  0.00000000000E+00  0.20712798322E+03  0.20712798328E+03  0.50400001928E-02 0. -1.
        1   -1    0    0  501    0  0.00000000000E+00  0.00000000000E+00 -0.80176800407E+03  0.80176800409E+03  0.50400001928E-02 0.  1.
    10030    2    1    2    0    0  0.00000000000E+00  0.00000000000E+00 -0.59464002085E+03  0.10088959874E+04  0.81503028099E+03 0.  0.
        3    1    3    3  502    0 -0.79966522548E+02 -0.19652945396E+03  0.13336052257E+03  0.25060628520E+03  0.10100000352E+00 0. -1.
       -3    1    3    3    0  502  0.79966522548E+02  0.19652945396E+03 -0.72800054342E+03  0.75828970217E+03  0.10100000352E+00 0.  1.
</event>
<event>
 5   0  0.3550586E-02  0.8036176E+03  0.7818609E-02  0.9554795E-01
       -2   -1    0    0    0  501  0.00000000000E+00  0.00000000000E+00  0.13185440725E+03  0.13185440727E+03  0.25500000920E-02 0.  1.
        2   -1    0    0  501    0  0.00000000000E+00  0.00000000000E+00 -0.12244589835E+04  0.12244589835E+04  0.25500000920E-02 0. -1.
    10030    2    1    2    0    0  0.00000000000E+00  0.00000000000E+00 -0.10926045763E+04  0.13563133908E+04  0.80361760432E+03 0.  0.
        3    1    3    3  502    0  0.26533706862E+03 -0.26933413306E+03 -0.31670698908E+03  0.49320174609E+03  0.10100000352E+00 0. -1.
       -3    1    3    3    0  502 -0.26533706862E+03  0.26933413306E+03 -0.77589758720E+03  0.86311164471E+03  0.10100000352E+00 0.  1.
</event>
<event>
 5   0  0.2077795E-02  0.8179417E+03  0.7818609E-02  0.9534404E-01
       -1   -1    0    0    0  501  0.00000000000E+00  0.00000000000E+00  0.29157640203E+03  0.29157640207E+03  0.50400001928E-02 0. -1.
        1   -1    0    0  501    0  0.00000000000E+00  0.00000000000E+00 -0.57363058768E+03  0.57363058770E+03  0.50400001928E-02 0.  1.
    10030    2    1    2    0    0  0.00000000000E+00  0.00000000000E+00 -0.28205418565E+03  0.86520698977E+03  0.81794166755E+03 0.  0.
        5    1    3    3  502    0 -0.21466917556E+03  0.15224146724E+03  0.19006951583E+03  0.32466726063E+03  0.46999998093E+01 0. -1.
       -5    1    3    3    0  502  0.21466917556E+03 -0.15224146724E+03 -0.47212370148E+03  0.54053972914E+03  0.46999998093E+01 0.  1.
</event>
<event>
 5   0  0.2132540E-02  0.8425273E+03  0.7818609E-02  0.9500422E-01
        1   -1    0    0  501    0  0.00000000000E+00  0.00000000000E+00  0.78878568573E+03  0.78878568574E+03  0.50400001928E-02 0.  1.
       -1   -1    0    0    0  501  0.00000000000E+00  0.00000000000E+00 -0.22498259767E+03  0.22498259772E+03  0.50400001928E-02 0. -1.
    10030    2    1    2    0    0  0.00000000000E+00  0.00000000000E+00  0.56380308806E+03  0.10137682835E+04  0.84252727579E+03 0.  0.
        4    1    3    3  502    0  0.20094274293E+01 -0.30517209114E+03  0.63131455851E+03  0.70120876185E+03  0.12699999809E+01 0.  1.
       -4    1    3    3    0  502 -0.20094274293E+01  0.30517209114E+03 -0.67511470448E+02  0.31255952162E+03  0.12699999809E+01 0. -1.
</event>
<event>
 5   0  0.3343036E-02  0.7969270E+03  0.7818609E-02  0.9564476E-01
        2   -1    0    0  501    0  0.00000000000E+00  0.00000000000E+00  0.16948945570E+04  0.16948945570E+04  0.25500000920E-02 0.  1.
       -2   -1    0    0    0  501  0.00000000000E+00  0.00000000000E+00 -0.93677320500E+02  0.93677320534E+02  0.25500000920E-02 0. -1.
    10030    2    1    2    0    0  0.00000000000E+00  0.00000000000E+00  0.16012172365E+04  0.17885718775E+04  0.79692704976E+03 0.  0.
        4    1    3    3  502    0 -0.28582439961E+03 -0.13609424514E+03  0.13436930619E+04  0.13804817596E+04  0.12699999809E+01 0.  1.
       -4    1    3    3    0  502  0.28582439961E+03  0.13609424514E+03  0.25752417455E+03  0.40809011793E+03  0.12699999809E+01 0. -1.
</event>
<event>
 5   0  0.3416160E-02  0.8110352E+03  0.7818609E-02  0.9544180E-01
       -2   -1    0    0    0  501  0.00000000000E+00  0.00000000000E+00  0.45246862329E+03  0.45246862330E+03  0.25500000920E-02 0. -1.
        2   -1    0    0  501    0  0.00000000000E+00  0.00000000000E+00 -0.36343850298E+03  0.36343850299E+03  0.25500000920E-02 0.  1.
    10030    2    1    2    0    0  0.00000000000E+00  0.00000000000E+00  0.89030120307E+02  0.81590712629E+03  0.81103518814E+03 0.  0.
        1    1    3    3  502    0 -0.15446680705E+03 -0.31575790174E+03 -0.15889118928E+03  0.38575828837E+03  0.50400001928E-02 0.  1.
       -1    1    3    3    0  502  0.15446680705E+03  0.31575790174E+03  0.24792130959E+03  0.43014883792E+03  0.50400001928E-02 0. -1.
</event>
<event>
 5   0  0.2063692E-02  0.8200744E+03  0.7818609E-02  0.9531406E-01
       -1   -1    0    0    0  501  0.00000000000E+00  0.00000000000E+00  0.31878936145E+03  0.31878936149E+03  0.50400001928E-02 0. -1.
        1   -1    0    0  501    0  0.00000000000E+00  0.00000000000E+00 -0.52740316557E+03  0.52740316559E+03  0.50400001928E-02 0.  1.
    10030    2    1    2    0    0  0.00000000000E+00  0.00000000000E+00 -0.20861380412E+03  0.84619252708E+03  0.82007443176E+03 0.  0.
        2    1    3    3  502    0 -0.16805502843E+02 -0.29198134437E+03  0.19223956967E+03  0.34998797484E+03  0.25500000920E-02 0. -1.
       -2    1    3    3    0  502  0.16805502843E+02  0.29198134437E+03 -0.40085337378E+03  0.49620455224E+03  0.25500000920E-02 0.  1.
</event>
<event>
 5   0  0.3467240E-02  0.8603476E+03  0.7818609E-02  0.9476553E-01
        2   -1    0    0  501    0  0.00000000000E+00  0.00000000000E+00  0.15745708358E+04  0.15745708358E+04  0.25500000920E-02 0.  1.
       -2   -1    0    0    0  501  0.00000000000E+00  0.00000000000E+00 -0.11752375686E+03  0.11752375689E+03  0.25500000920E-02 0. -1.
    10030    2    1    2    0    0  0.00000000000E+00  0.00000000000E+00  0.14570470790E+04  0.16920945927E+04  0.86034755791E+03 0.  0.
        2    1    3    3  502    0 -0.70332754536E+02 -0.37451034452E+03  0.33593605140E+03  0.50799382393E+03  0.25500000920E-02 0.  1.
       -2    1    3    3    0  502  0.70332754536E+02  0.37451034452E+03  0.11211110276E+04  0.11841007688E+04  0.25500000920E-02 0. -1.
</event>
<event>
 5   0  0.1358000E-02  0.7942887E+03  0.7818609E-02  0.9568321E-01
       -3   -1    0    0    0  501  0.00000000000E+00  0.00000000000E+00  0.10372050551E+03  0.10372055468E+03  0.10100000352E+00 0.  1.
        3   -1    0    0  501    0  0.00000000000E+00  0.00000000000E+00 -0.15206598739E+04  0.15206598773E+04  0.10100000352E+00 0. -1.
    10030    2    1    2    0    0  0.00000000000E+00  0.00000000000E+00 -0.14169393684E+04  0.16243804320E+04  0.79428874723E+03 0.  0.
        3    1    3    3  502    0 -0.31729148372E+03  0.17218881018E+03 -0.10469946736E+04  0.11074839632E+04  0.10100000352E+00 0. -1.
       -3    1    3    3    0  502  0.31729148372E+03 -0.17218881018E+03 -0.36994469481E+03  0.51689646876E+03  0.10100000352E+00 0.  1.
</event>
<event>
 5   0  0.3416160E-02  0.7933425E+03  0.7818609E-02  0.9569704E-01
        2   -1    0    0  501    0  0.00000000000E+00  0.00000000000E+00  0.56702087820E+03  0.56702087820E+03  0.25500000920E-02 0.  1.
       -2   -1    0    0    0  501  0.00000000000E+00  0.00000000000E+00 -0.27749963338E+03  0.27749963339E+03  0.25500000920E-02 0. -1.
    10030    2    1    2    0    0  0.00000000000E+00  0.00000000000E+00  0.28952124482E+03  0.84452051159E+03  0.79334251323E+03 0.  0.
        1    1    3    3  502    0  0.26240061371E+03  0.28346674298E+03  0.48714921188E+02  0.38933355882E+03  0.50400001928E-02 0. -1.
       -1    1    3    3    0  502 -0.26240061371E+03 -0.28346674298E+03  0.24080632363E+03  0.45518695277E+03  0.50400001928E-02 0.  1.
</event>
<event>
 5   0  0.3550586E-02  0.5233189E+03  0.7818609E-02  0.1007865E+00
        2   -1    0    0  501    0  0.00000000000E+00  0.00000000000E+00  0.32151498378E+03  0.32151498379E+03  0.25500000920E-02 0. -1.
       -2   -1    0    0    0  501  0.00000000000E+00  0.00000000000E+00 -0.21294706362E+03  0.21294706364E+03  0.25500000920E-02 0.  1.
    10030    2    1    2    0    0  0.00000000000E+00  0.00000000000E+00  0.10856792016E+03  0.53446204743E+03  0.52331891505E+03 0.  0.
        3    1    3    3  502    0  0.80108419005E+01 -0.24713550312E+03 -0.33127826061E+02  0.24947463509E+03  0.10100000352E+00 0.  1.
       -3    1    3    3    0  502 -0.80108419005E+01  0.24713550312E+03  0.14169574622E+03  0.28498741234E+03  0.10100000352E+00 0. -1.
</event>
<event>
 5   0  0.3467240E-02  0.7961172E+03  0.7818609E-02  0.9565654E-01
        2   -1    0    0  501    0  0.00000000000E+00  0.00000000000E+00  0.12505682874E+04  0.12505682874E+04  0.25500000920E-02 0.  1.
       -2   -1    0    0    0  501  0.00000000000E+00  0.00000000000E+00 -0.12670292868E+03  0.12670292870E+03  0.25500000920E-02 0. -1.
    10030    2    1    2    0    0  0.00000000000E+00  0.00000000000E+00  0.11238653587E+04  0.13772712161E+04  0.79611723897E+03 0.  0.
        2    1    3    3  502    0 -0.31439124185E+03 -0.11162743714E+03  0.93757512966E+03  0.99516313308E+03  0.25500000920E-02 0.  1.
       -2    1    3    3    0  502  0.31439124185E+03  0.11162743714E+03  0.18629022909E+03  0.38210808305E+03  0.25500000920E-02 0. -1.
</event>
<event>
 5   0  0.2077795E-02  0.7979796E+03  0.7818609E-02  0.9562946E-01
       -1   -1    0    0    0  501  0.00000000000E+00  0.00000000000E+00  0.21032119580E+03  0.21032119586E+03  0.50400001928E-02 0.  1.
        1   -1    0    0  501    0  0.00000000000E+00  0.00000000000E+00 -0.75690360167E+03  0.75690360168E+03  0.50400001928E-02 0. -1.
    10030    2    1    2    0    0  0.00000000000E+00  0.00000000000E+00 -0.54658240587E+03  0.96722479754E+03  0.79797962542E+03 0.  0.
        5    1    3    3  502    0 -0.15123795181E+03 -0.58143812713E+02 -0.71519338453E+03  0.73333299959E+03  0.46999998093E+01 0. -1.
       -5    1    3    3    0  502  0.15123795181E+03  0.58143812713E+02  0.16861097866E+03  0.23389179795E+03  0.46999998093E+01 0.  1.
</event>
<event>
 5   0  0.3343036E-02  0.7903082E+03  0.7818609E-02  0.9574153E-01
       -2   -1    0    0    0  501  0.00000000000E+00  0.00000000000E+00  0.32285966459E+03  0.32285966460E+03  0.25500000920E-02 0. -1.
        2   -1    0    0  501    0  0.00000000000E+00  0.00000000000E+00 -0.48363659286E+03  0.48363659286E+03  0.25500000920E-02 0.  1.
    10030    2    1    2    0    0  0.00000000000E+00  0.00000000000E+00 -0.16077692827E+03  0.80649625747E+03  0.79030816309E+03 0.  0.
        4    1    3    3  502    0  0.14171674014E+03 -0.11062565882E+01 -0.45680748790E+03  0.47828814761E+03  0.12699999809E+01 0.  1.
       -4    1    3    3    0  502 -0.14171674014E+03  0.11062565882E+01  0.29603055963E+03  0.32820810986E+03  0.12699999809E+01 0. -1.
</event>
<event>
 5   0  0.2129257E-02  0.8193071E+03  0.7818609E-02  0.9532484E-01
       -1   -1    0    0    0  501  0.00000000000E+00  0.00000000000E+00  0.14245694491E+03  0.14245694500E+03  0.50400001928E-02 0. -1.
        1   -1    0    0  501    0  0.00000000000E+00  0.00000000000E+00 -0.11780122011E+04  0.11780122011E+04  0.50400001928E-02 0.  1.
    10030    2    1    2    0    0  0.00000000000E+00  0.00000000000E+00 -0.10355552561E+04  0.13204691461E+04  0.81930707136E+03 0.  0.
        3    1    3    3  502    0 -0.23861935864E+03  0.47088548433E+02  0.13492460054E+02  0.24359512801E+03  0.10100000352E+00 0. -1.
       -3    1    3    3    0  502  0.23861935864E+03 -0.47088548433E+02 -0.10490477162E+04  0.10768740181E+04  0.10100000352E+00 0.  1.
</event>
<event>
 5   0  0.1989298E-02  0.8244243E+03  0.7818609E-02  0.9525322E-01
        1   -1    0    0  501    0  0.00000000000E+00  0.00000000000E+00  0.20094167324E+04  0.20094167324E+04  0.50400001928E-02 0. -1.
       -1   -1    0    0    0  501  0.00000000000E+00  0.00000000000E+00 -0.84561273562E+02  0.84561273712E+02  0.50400001928E-02 0.  1.
    10030    2    1    2    0    0  0.00000000000E+00  0.00000000000E+00  0.19248554588E+04  0.20939780061E+04  0.82442425527E+03 0.  0.
        1    1    3    3  502    0 -0.33265328529E+03 -0.22985918659E+03  0.11660245108E+04  0.12341420557E+04  0.50400001928E-02 0.  1.
       -1    1    3    3    0  502  0.33265328529E+03  0.22985918659E+03  0.75883094798E+03  0.85983595035E+03  0.50400001928E-02 0. -1.
</event>
<event>
 5   0  0.3550586E-02  0.7843980E+03  0.7818609E-02  0.9582879E-01
       -2   -1    0    0    0  501  0.00000000000E+00  0.00000000000E+00  0.14250909356E+04  0.14250909356E+04  0.25500000920E-02 0. -1.
        2   -1    0    0  501    0  0.00000000000E+00  0.00000000000E+00 -0.10793700041E+03  0.10793700044E+03  0.25500000920E-02 0.  1.
    10030    2    1    2    0    0  0.00000000000E+00  0.00000000000E+00  0.13171539352E+04  0.15330279361E+04  0.78439796258E+03 0.  0.
        3    1    3    3  502    0 -0.32329089034E+03  0.20193954644E+03  0.83901219633E+03  0.92154113092E+03  0.10100000352E+00 0. -1.
       -3    1    3    3    0  502  0.32329089034E+03 -0.20193954644E+03  0.47814173890E+03  0.61148680515E+03  0.10100000352E+00 0.  1.
</event>
<event>
 5   0  0.2077795E-02  0.7883237E+03  0.7818609E-02  0.9577074E-01
        1   -1    0    0  501    0  0.00000000000E+00  0.00000000000E+00  0.54546431220E+03  0.54546431223E+03  0.50400001928E-02 0. -1.
       -1   -1    0    0    0  501  0.00000000000E+00  0.00000000000E+00 -0.28482811044E+03  0.28482811048E+03  0.50400001928E-02 0.  1.
    10030    2    1    2    0    0  0.00000000000E+00  0.00000000000E+00  0.26063620177E+03  0.83029242271E+03  0.78832371367E+03 0.  0.
        5    1    3    3  502    0 -0.14663541717E+02 -0.34995071000E+03  0.32066287592E+03  0.47489713505E+03  0.46999998093E+01 0. -1.
       -5    1    3    3    0  502  0.14663541717E+02  0.34995071000E+03 -0.60026674148E+02  0.35539528766E+03  0.46999998093E+01 0.  1.
</event>
<event>
 5   0  0.2129257E-02  0.7936423E+03  0.7818609E-02  0.9569265E-01
        1   -1    0    0  501    0  0.00000000000E+00  0.00000000000E+00  0.76397257749E+03  0.76397257751E+03  0.50400001928E-02 0. -1.
       -1   -1    0    0    0  501  0.00000000000E+00  0.00000000000E+00 -0.20611608476E+03  0.20611608482E+03  0.50400001928E-02 0.  1.
    10030    2    1    2    0    0  0.00000000000E+00  0.00000000000E+00  0.55785649273E+03  0.97008866233E+03  0.79364232895E+03 0.  0.
        3    1    3    3  502    0 -0.93581518241E+02  0.17639711699E+03  0.69808688149E+03  0.72608453210E+03  0.10100000352E+00 0. -1.
       -3    1    3    3    0  502  0.93581518241E+02 -0.17639711699E+03 -0.14023038876E+03  0.24400413024E+03  0.10100000352E+00 0.  1.
</event>
<event>
 5   0  0.2132540E-02  0.8035942E+03  0.7818609E-02  0.9554829E-01
        1   -1    0    0  501    0  0.00000000000E+00  0.00000000000E+00  0.14860575627E+04  0.14860575627E+04  0.50400001928E-02 0.  1.
       -1   -1    0    0    0  501  0.00000000000E+00  0.00000000000E+00 -0.10863704716E+03  0.10863704727E+03  0.50400001928E-02 0. -1.
    10030    2    1    2    0    0  0.00000000000E+00  0.00000000000E+00  0.13774205156E+04  0.15946946100E+04  0.80359419017E+03 0.  0.
        4    1    3    3  502    0 -0.36426433962E+03 -0.15699058811E+03  0.56156987820E+03  0.68752955927E+03  0.12699999809E+01 0. -1.
       -4    1    3    3    0  502  0.36426433962E+03  0.15699058811E+03  0.81585063737E+03  0.90716505073E+03  0.12699999809E+01 0.  1.
</event>
<event>
 5   0  0.2077795E-02  0.7690076E+03  0.7818609E-02  0.9605993E-01
       -1   -1    0    0    0  501  0.00000000000E+00  0.00000000000E+00  0.65002648452E+02  0.65002648647E+02  0.50400001928E-02 0. -1.
        1   -1    0    0  501    0  0.00000000000E+00  0.00000000000E+00 -0.22744178138E+04  0.22744178138E+04  0.50400001928E-02 0.  1.
    10030    2    1    2    0    0  0.00000000000E+00  0.00000000000E+00 -0.22094151653E+04  0.23394204624E+04  0.76900762497E+03 0.  0.
        5    1    3    3  502    0 -0.27192391472E+03 -0.21365516602E+03 -0.59357606029E+03  0.68698309638E+03  0.46999998093E+01 0. -1.
       -5    1    3    3    0  502  0.27192391472E+03  0.21365516602E+03 -0.16158391050E+04  0.16524373660E+04  0.46999998093E+01 0.  1.
</event>
<event>
 5   0  0.2132540E-02  0.8062144E+03  0.7818609E-02  0.9551065E-01
       -1   -1    0    0    0  501  0.00000000000E+00  0.00000000000E+00  0.85963256331E+02  0.85963256479E+02  0.50400001928E-02 0.  1.
        1   -1    0    0  501    0  0.00000000000E+00  0.00000000000E+00 -0.18902890848E+04  0.18902890848E+04  0.50400001928E-02 0. -1.
    10030    2    1    2    0    0  0.00000000000E+00  0.00000000000E+00 -0.18043258284E+04  0.19762523412E+04  0.80621437667E+03 0.  0.
        4    1    3    3  502    0 -0.24276206686E+03  0.45159796307E+02 -0.16831965289E+04  0.17012128015E+04  0.12699999809E+01 0. -1.
       -4    1    3    3    0  502  0.24276206686E+03 -0.45159796307E+02 -0.12112929956E+03  0.27503953974E+03  0.12699999809E+01 0.  1.
</event>
<event>
 5   0  0.3550586E-02  0.8032546E+03  0.7818609E-02  0.9555318E-01
       -2   -1    0    0    0  501  0.00000000000E+00  0.00000000000E+00  0.44002285656E+03  0.44002285656E+03  0.25500000920E-02 0.  1.
        2   -1    0    0  501    0  0.00000000000E+00  0.00000000000E+00 -0.36658204835E+03  0.36658204835E+03  0.25500000920E-02 0. -1.
    10030    2    1    2    0    0  0.00000000000E+00  0.00000000000E+00  0.73440808209E+02  0.80660490492E+03  0.80325458002E+03 0.  0.
        3    1    3    3  502    0  0.21531408647E+02  0.35687008142E+03  0.22047164984E+03  0.42003287390E+03  0.10100000352E+00 0.  1.
       -3    1    3    3    0  502 -0.21531408647E+02 -0.35687008142E+03 -0.14703084163E+03  0.38657203102E+03  0.10100000352E+00 0. -1.
</event>
<event>
 5   0  0.2132540E-02  0.7989591E+03  0.7818609E-02  0.9561525E-01
        1   -1    0    0  501    0  0.00000000000E+00  0.00000000000E+00  0.55825462717E+03  0.55825462719E+03  0.50400001928E-02 0.  1.
       -1   -1    0    0    0  501  0.00000000000E+00  0.00000000000E+00 -0.28586221097E+03  0.28586221101E+03  0.50400001928E-02 0. -1.
    10030    2    1    2    0    0  0.00000000000E+00  0.00000000000E+00  0.27239241620E+03  0.84411683820E+03  0.79895907788E+03 0.  0.
        4    1    3    3  502    0 -0.25737870195E+03 -0.10210368379E+02  0.45879723718E+03  0.52616020904E+03  0.12699999809E+01 0.  1.
       -4    1    3    3    0  502  0.25737870195E+03  0.10210368379E+02 -0.18640482098E+03  0.31795662916E+03  0.12699999809E+01 0. -1.
</event>
<event>
 5   0  0.3550586E-02  0.7898614E+03  0.7818609E-02  0.9574809E-01
        2   -1    0    0  501    0  0.00000000000E+00  0.00000000000E+00  0.68368228153E+03  0.68368228154E+03  0.25500000920E-02 0. -1.
       -2   -1    0    0    0  501  0.00000000000E+00  0.00000000000E+00 -0.22813268001E+03  0.22813268003E+03  0.25500000920E-02 0.  1.
    10030    2    1    2    0    0  0.00000000000E+00  0.00000000000E+00  0.45554960152E+03  0.91181496156E+03  0.78986143385E+03 0.  0.
        3    1    3    3  502    0  0.76557238606E+02 -0.32483563743E+03  0.47154448643E+03  0.57769664618E+03  0.10100000352E+00 0. -1.
       -3    1    3    3    0  502 -0.76557238606E+02  0.32483563743E+03 -0.15994884908E+02  0.33411831538E+03  0.10100000352E+00 0.  1.
</event>
<event>
 5   0  0.3343036E-02  0.7935910E+03  0.7818609E-02  0.9569341E-01
        2   -1    0    0  501    0  0.00000000000E+00  0.00000000000E+00  0.14939318744E+04  0.14939318744E+04  0.25500000920E-02 0.  1.
       -2   -1    0    0    0  501  0.00000000000E+00  0.00000000000E+00 -0.10539078610E+03  0.10539078613E+03  0.25500000920E-02 0. -1.
    10030    2    1    2    0    0  0.00000000000E+00  0.00000000000E+00  0.13885410883E+04  0.15993226605E+04  0.79359096426E+03 0.  0.
        4    1    3    3  502    0  0.15659032729E+03  0.46985490822E+02  0.14228974502E+04  0.14322593807E+04  0.12699999809E+01 0.  1.
       -4    1    3    3    0  502 -0.15659032729E+03 -0.46985490822E+02 -0.34356361928E+02  0.16706327979E+03  0.12699999809E+01 0. -1.
</event>
<event>
 5   0  0.2132540E-02  0.8052645E+03  0.7818609E-02  0.9552428E-01
       -1   -1    0    0    0  501  0.00000000000E+00  0.00000000000E+00  0.60052304603E+03  0.60052304605E+03  0.50400001928E-02 0.  1.
        1   -1    0    0  501    0  0.00000000000E+00  0.00000000000E+00 -0.26995255893E+03  0.26995255897E+03  0.50400001928E-02 0. -1.
    10030    2    1    2    0    0  0.00000000000E+00  0.00000000000E+00  0.33057048710E+03  0.87047560502E+03  0.80526451058E+03 0.  0.
        4    1    3    3  502    0 -0.19856980400E+03  0.61736807999E+02  0.53798032755E+03  0.57677191874E+03  0.12699999809E+01 0.  1.
       -4    1    3    3    0  502  0.19856980400E+03 -0.61736807999E+02 -0.20740984045E+03  0.29370368628E+03  0.12699999809E+01 0. -1.
</event>
<event>
 5   0  0.1989298E-02  0.7720208E+03  0.7818609E-02  0.9601423E-01
       -1   -1    0    0    0  501  0.00000000000E+00  0.00000000000E+00  0.19331077198E+03  0.19331077204E+03  0.50400001928E-02 0.  1.
        1   -1    0    0  501    0  0.00000000000E+00  0.00000000000E+00 -0.77080045782E+03  0.77080045783E+03  0.50400001928E-02 0. -1.
    10030    2    1    2    0    0  0.00000000000E+00  0.00000000000E+00 -0.57748968584E+03  0.96411122988E+03  0.77202080693E+03 0.  0.
        1    1    3    3  502    0 -0.38089718021E+03 -0.41622298917E+02 -0.23031745866E+03  0.44705839601E+03  0.50400001928E-02 0.  1.
       -1    1    3    3    0  502  0.38089718021E+03  0.41622298917E+02 -0.34717222718E+03  0.51705283387E+03  0.50400001928E-02 0. -1.
</event>
<event>
 5   0  0.3467240E-02  0.7931588E+03  0.7818609E-02  0.9569973E-01
        2   -1    0    0  501    0  0.00000000000E+00  0.00000000000E+00  0.10999970239E+04  0.10999970239E+04  0.25500000920E-02 0. -1.
       -2   -1    0    0    0  501  0.00000000000E+00  0.00000000000E+00 -0.14297787576E+03  0.14297787578E+03  0.25500000920E-02 0.  1.
    10030    2    1    2    0    0  0.00000000000E+00  0.00000000000E+00  0.95701914818E+03  0.12429748997E+04  0.79315884372E+03 0.  0.
        2    1    3    3  502    0  0.31678177131E+03 -0.26279921483E+02  0.85013150864E+03  0.90761495519E+03  0.25500000920E-02 0. -1.
       -2    1    3    3    0  502 -0.31678177131E+03  0.26279921483E+02  0.10688763954E+03  0.33535994454E+03  0.25500000920E-02 0.  1.
</event>
<event>
 5   0  0.3550586E-02  0.8093175E+03  0.7818609E-02  0.9546627E-01
        2   -1    0    0  501    0  0.00000000000E+00  0.00000000000E+00  0.14069673147E+04  0.14069673147E+04  0.25500000920E-02 0.  1.
       -2   -1    0    0    0  501  0.00000000000E+00  0.00000000000E+00 -0.11638416064E+03  0.11638416067E+03  0.25500000920E-02 0. -1.
    10030    2    1    2    0    0  0.00000000000E+00  0.00000000000E+00  0.12905831540E+04  0.15233514753E+04  0.80931751492E+03 0.  0.
        3    1    3    3  502    0 -0.11111992879E+03  0.34193461798E+03  0.29576837895E+03  0.46555973380E+03  0.10100000352E+00 0. -1.
       -3    1    3    3    0  502  0.11111992879E+03 -0.34193461798E+03  0.99481477508E+03  0.10577917415E+04  0.10100000352E+00 0.  1.
</event>
<event>
 5   0  0.2132540E-02  0.8781598E+03  0.7818609E-02  0.9453302E-01
       -1   -1    0    0    0  501  0.00000000000E+00  0.00000000000E+00  0.23112613538E+03  0.23112613544E+03  0.50400001928E-02 0.  1.
        1   -1    0    0  501    0  0.00000000000E+00  0.00000000000E+00 -0.83413828052E+03  0.83413828054E+03  0.50400001928E-02 0. -1.
    10030    2    1    2    0    0  0.00000000000E+00  0.00000000000E+00 -0.60301214514E+03  0.10652644160E+04  0.87815979682E+03 0.  0.
        4    1    3    3  502    0  0.19316573869E+03 -0.14618875618E+03 -0.74573515270E+03  0.78409609482E+03  0.12699999809E+01 0. -1.
       -4    1    3    3    0  502 -0.19316573869E+03  0.14618875618E+03  0.14272300756E+03  0.28116832116E+03  0.12699999809E+01 0.  1.
</event>
<event>
 5   0  0.2063692E-02  0.8118600E+03  0.7818609E-02  0.9543007E-01
       -1   -1    0    0    0  501  0.00000000000E+00  0.00000000000E+00  0.29615595258E+03  0.29615595262E+03  0.50400001928E-02 0.  1.
        1   -1    0    0  501    0  0.00000000000E+00  0.00000000000E+00 -0.55639317252E+03  0.55639317254E+03  0.50400001928E-02 0. -1.
    10030    2    1    2    0    0  0.00000000000E+00  0.00000000000E+00 -0.26023721994E+03  0.85254912516E+03  0.81185996340E+03 0.  0.
        2    1    3    3  502    0  0.17151242169E+03  0.61806429672E+02 -0.51098399754E+03  0.54253220300E+03  0.25500000920E-02 0. -1.
       -2    1    3    3    0  502 -0.17151242169E+03 -0.61806429672E+02  0.25074677760E+03  0.31001692216E+03  0.25500000920E-02 0.  1.
</event>
<event>
 5   0  0.1989298E-02  0.8092639E+03  0.7818609E-02  0.9546704E-01
       -1   -1    0    0    0  501  0.00000000000E+00  0.00000000000E+00  0.42522168520E+03  0.42522168523E+03  0.50400001928E-02 0. -1.
        1   -1    0    0  501    0  0.00000000000E+00  0.00000000000E+00 -0.38503915414E+03  0.38503915417E+03  0.50400001928E-02 0.  1.
    10030    2    1    2    0    0  0.00000000000E+00  0.00000000000E+00  0.40182531062E+02  0.81026083940E+03  0.80926385812E+03 0.  0.
        1    1    3    3  502    0 -0.79547850963E+02 -0.39422422585E+03  0.64715188381E+02  0.40734341344E+03  0.50400001928E-02 0. -1.
       -1    1    3    3    0  502  0.79547850963E+02  0.39422422585E+03 -0.24532657320E+02  0.40291742596E+03  0.50400001928E-02 0.  1.
</event>
<event>
 5   0  0.3467240E-02  0.8260927E+03  0.7818609E-02  0.9522999E-01
        2   -1    0    0  501    0  0.00000000000E+00  0.00000000000E+00  0.43783554806E+03  0.43783554806E+03  0.25500000920E-02 0.  1.
       -2   -1    0    0    0  501  0.00000000000E+00  0.00000000000E+00 -0.38966061624E+03  0.38966061625E+03  0.25500000920E-02 0. -1.
    10030    2    1    2    0    0  0.00000000000E+00  0.00000000000E+00  0.48174931818E+02  0.82749616431E+03  0.82609265696E+03 0.  0.
        2    1    3    3  502    0  0.43706553611E+02 -0.18240512601E+02 -0.38693183822E+03  0.38981947945E+03  0.25500000920E-02 0. -1.
       -2    1    3    3    0  502 -0.43706553611E+02  0.18240512601E+02  0.43510677004E+03  0.43767668486E+03  0.25500000920E-02 0.  1.
</event>
<event>
 5   0  0.1358000E-02  0.8081607E+03  0.7818609E-02  0.9548279E-01
        3   -1    0    0  501    0  0.00000000000E+00  0.00000000000E+00  0.54118708031E+03  0.54118708974E+03  0.10100000352E+00 0. -1.
       -3   -1    0    0    0  501  0.00000000000E+00  0.00000000000E+00 -0.30170883042E+03  0.30170884732E+03  0.10100000352E+00 0.  1.
    10030    2    1    2    0    0  0.00000000000E+00  0.00000000000E+00  0.23947824989E+03  0.84289593706E+03  0.80816070713E+03 0.  0.
        5    1    3    3  502    0  0.20119552419E+03 -0.14471182123E+03 -0.21309703542E+03  0.32688466874E+03  0.46999998093E+01 0.  1.
       -5    1    3    3    0  502 -0.20119552419E+03  0.14471182123E+03  0.45257528532E+03  0.51601126832E+03  0.46999998093E+01 0. -1.
</event>
<event>
 5   0  0.2077795E-02  0.7501733E+03  0.7818609E-02  0.9635079E-01
        1   -1    0    0  501    0  0.00000000000E+00  0.00000000000E+00  0.88118231020E+03  0.88118231021E+03  0.50400001928E-02 0. -1.
       -1   -1    0    0    0  501  0.00000000000E+00  0.00000000000E+00 -0.15966047237E+03  0.15966047245E+03  0.50400001928E-02 0.  1.
    10030    2    1    2    0    0  0.00000000000E+00  0.00000000000E+00  0.72152183783E+03  0.10408427827E+04  0.75017327048E+03 0.  0.
        5    1    3    3  502    0 -0.22780960940E+03 -0.32848357210E+02 -0.50107440673E+02  0.23560364665E+03  0.46999998093E+01 0.  1.
       -5    1    3    3    0  502  0.22780960940E+03  0.32848357210E+02  0.77162927850E+03  0.80523913600E+03  0.46999998093E+01 0. -1.
</event>
<event>
 5   0  0.2129257E-02  0.5383435E+03  0.7818609E-02  0.1004229E+00
       -1   -1    0    0    0  501  0.00000000000E+00  0.00000000000E+00  0.16114703446E+03  0.16114703453E+03  0.50400001928E-02 0. -1.
        1   -1    0    0  501    0  0.00000000000E+00  0.00000000000E+00 -0.44961069711E+03  0.44961069714E+03  0.50400001928E-02 0.  1.
    10030    2    1    2    0    0  0.00000000000E+00  0.00000000000E+00 -0.28846366266E+03  0.61075773168E+03  0.53834349827E+03 0.  0.
        3    1    3    3  502    0 -0.22502767467E+03  0.14734040000E+03 -0.13250881994E+03  0.29984203408E+03  0.10100000352E+00 0. -1.
       -3    1    3    3    0  502  0.22502767467E+03 -0.14734040000E+03 -0.15595484272E+03  0.31091569759E+03  0.10100000352E+00 0.  1.
</event>
<event>
 5   0  0.3550586E-02  0.7729336E+03  0.7818609E-02  0.9600043E-01
       -2   -1    0    0    0  501  0.00000000000E+00  0.00000000000E+00  0.24219973455E+03  0.24219973456E+03  0.25500000920E-02 0.  1.
        2   -1    0    0  501    0  0.00000000000E+00  0.00000000000E+00 -0.61666703757E+03  0.61666703758E+03  0.25500000920E-02 0. -1.
    10030    2    1    2    0    0  0.00000000000E+00  0.00000000000E+00 -0.37446730303E+03  0.85886677214E+03  0.77293361374E+03 0.  0.
        3    1    3    3  502    0  0.27100065403E+03 -0.20931576375E+03 -0.38632417712E+03  0.51623717753E+03  0.10100000352E+00 0. -1.
       -3    1    3    3    0  502 -0.27100065403E+03  0.20931576375E+03  0.11856874088E+02  0.34262959461E+03  0.10100000352E+00 0.  1.
</event>
<event>
 5   0  0.3550586E-02  0.8211192E+03  0.7818609E-02  0.9529941E-01
        2   -1    0    0  501    0  0.00000000000E+00  0.00000000000E+00  0.87227219915E+03  0.87227219915E+03  0.25500000920E-02 0.  1.
       -2   -1    0    0    0  501  0.00000000000E+00  0.00000000000E+00 -0.19324148323E+03  0.19324148325E+03  0.25500000920E-02 0. -1.
    10030    2    1    2    0    0  0.00000000000E+00  0.00000000000E+00  0.67903071592E+03  0.10655136824E+04  0.82111917175E+03 0.  0.
        3    1    3    3  502    0  0.23558133874E+03 -0.28374584685E+03  0.57362588025E+03  0.68195082921E+03  0.10100000352E+00 0.  1.
       -3    1    3    3    0  502 -0.23558133874E+03  0.28374584685E+03  0.10540483567E+03  0.38356285319E+03  0.10100000352E+00 0. -1.
</event>
<event>
 5   0  0.1989298E-02  0.8097358E+03  0.7818609E-02  0.9546031E-01
       -1   -1    0    0    0  501  0.00000000000E+00  0.00000000000E+00  0.77384923685E+03  0.77384923687E+03  0.50400001928E-02 0.  1.
        1   -1    0    0  501    0  0.00000000000E+00  0.00000000000E+00 -0.21182164574E+03  0.21182164580E+03  0.50400001928E-02 0. -1.
    10030    2    1    2    0    0  0.00000000000E+00  0.00000000000E+00  0.56202759112E+03  0.98567088266E+03  0.80973580615E+03 0.  0.
        1    1    3    3  502    0  0.22272518995E+03 -0.26759195865E+03  0.29458596611E+02  0.34939916358E+03  0.50400001928E-02 0. -1.
       -1    1    3    3    0  502 -0.22272518995E+03  0.26759195865E+03  0.53256899450E+03  0.63627171908E+03  0.50400001928E-02 0.  1.
</event>
<event>
 5   0  0.3416160E-02  0.7972233E+03  0.7818609E-02  0.9564045E-01
        2   -1    0    0  501    0  0.00000000000E+00  0.00000000000E+00  0.47194979041E+03  0.47194979042E+03  0.25500000920E-02 0. -1.
       -2   -1    0    0    0  501  0.00000000000E+00  0.00000000000E+00 -0.33666978801E+03  0.33666978802E+03  0.25500000920E-02 0.  1.
    10030    2    1    2    0    0  0.00000000000E+00  0.00000000000E+00  0.13528000240E+03  0.80861957844E+03  0.79722327085E+03 0.  0.
        1    1    3    3  502    0 -0.41559815080E+02 -0.24922698437E+03  0.38034885738E+03  0.45662518689E+03  0.50400001928E-02 0. -1.
       -1    1    3    3    0  502  0.41559815080E+02  0.24922698437E+03 -0.24506885498E+03  0.35199439154E+03  0.50400001928E-02 0.  1.
</event>
<event>
 5   0  0.2063692E-02  0.8127590E+03  0.7818609E-02  0.9541730E-01
        1   -1    0    0  501    0  0.00000000000E+00  0.00000000000E+00  0.24296403660E+03  0.24296403665E+03  0.50400001928E-02 0. -1.
       -1   -1    0    0    0  501  0.00000000000E+00  0.00000000000E+00 -0.67970683584E+03  0.67970683586E+03  0.50400001928E-02 0.  1.
    10030    2    1    2    0    0  0.00000000000E+00  0.00000000000E+00 -0.43674279924E+03  0.92267087251E+03  0.81275904565E+03 0.  0.
        2    1    3    3  502    0 -0.19773477520E+03 -0.22167180272E+03 -0.53319524238E+03  0.61035612223E+03  0.25500000920E-02 0.  1.
       -2    1    3    3    0  502  0.19773477520E+03  0.22167180272E+03  0.96452443144E+02  0.31231475027E+03  0.25500000920E-02 0. -1.
</event>
<event>
 5   0  0.1989298E-02  0.7934162E+03  0.7818609E-02  0.9569596E-01
       -1   -1    0    0    0  501  0.00000000000E+00  0.00000000000E+00  0.15516288626E+03  0.15516288634E+03  0.50400001928E-02 0. -1.
        1   -1    0    0  501    0  0.00000000000E+00  0.00000000000E+00 -0.10142715360E+04  0.10142715361E+04  0.50400001928E-02 0.  1.
    10030    2    1    2    0    0  0.00000000000E+00  0.00000000000E+00 -0.85910864978E+03  0.11694344224E+04  0.79341615571E+03 0.  0.
        1    1    3    3  502    0 -0.29132051856E+03  0.20616608314E+02 -0.82528171437E+03  0.87543280563E+03  0.50400001928E-02 0.  1.
       -1    1    3    3    0  502  0.29132051856E+03 -0.20616608314E+02 -0.33826935415E+02  0.29400161676E+03  0.50400001928E-02 0. -1.
</event>
<event>
 5   0  0.1358000E-02  0.7817763E+03  0.7818609E-02  0.9586776E-01
        4   -1    0    0  501    0  0.00000000000E+00  0.00000000000E+00  0.21813534593E+03  0.21813904292E+03  0.12699999809E+01 0. -1.
       -4   -1    0    0    0  501  0.00000000000E+00  0.00000000000E+00 -0.70044274568E+03  0.70044389702E+03  0.12699999809E+01 0.  1.
    10030    2    1    2    0    0  0.00000000000E+00  0.00000000000E+00 -0.48230739975E+03  0.91858293994E+03  0.78177630413E+03 0.  0.
        2    1    3    3  502    0  0.27269007386E+03  0.13843784257E+03 -0.52720790370E+03  0.60948591975E+03  0.25500000920E-02 0.  1.
       -2    1    3    3    0  502 -0.27269007386E+03 -0.13843784257E+03  0.44900503954E+02  0.30909702020E+03  0.25500000920E-02 0. -1.
</event>
<event>
 5   0  0.3416160E-02  0.8061154E+03  0.7818609E-02  0.9551207E-01
       -2   -1    0    0    0  501  0.00000000000E+00  0.00000000000E+00  0.35573420189E+03  0.35573420190E+03  0.25500000920E-02 0.  1.
        2   -1    0    0  501    0  0.00000000000E+00  0.00000000000E+00 -0.45667666237E+03  0.45667666238E+03  0.25500000920E-02 0. -1.
    10030    2    1    2    0    0  0.00000000000E+00  0.00000000000E+00 -0.10094246048E+03  0.81241086428E+03  0.80611539625E+03 0.  0.
        1    1    3    3  502    0 -0.21084341529E+02  0.11550608604E+03  0.33811656728E+03  0.35792320191E+03  0.50400001928E-02 0.  1.
       -1    1    3    3    0  502  0.21084341529E+02 -0.11550608604E+03 -0.43905902776E+03  0.45448766237E+03  0.50400001928E-02 0. -1.
</event>
<event>
 5   0  0.2063692E-02  0.9222576E+03  0.7818609E-02  0.9398178E-01
       -1   -1    0    0    0  501  0.00000000000E+00  0.00000000000E+00  0.17987477496E+03  0.17987477503E+03  0.50400001928E-02 0. -1.
        1   -1    0    0  501    0  0.00000000000E+00  0.00000000000E+00 -0.11821543565E+04  0.11821543565E+04  0.50400001928E-02 0.  1.
    10030    2    1    2    0    0  0.00000000000E+00  0.00000000000E+00 -0.10022795816E+04  0.13620291316E+04  0.92225755383E+03 0.  0.
        2    1    3    3  502    0 -0.45046055890E+03  0.68013650717E+02 -0.39568065143E+03  0.60341010078E+03  0.25500000920E-02 0. -1.
       -2    1    3    3    0  502  0.45046055890E+03 -0.68013650717E+02 -0.60659893014E+03  0.75861903078E+03  0.25500000920E-02 0.  1.
</event>
<event>
 5   0  0.2063692E-02  0.8036052E+03  0.7818609E-02  0.9554813E-01
       -1   -1    0    0    0  501  0.00000000000E+00  0.00000000000E+00  0.26799616442E+03  0.26799616447E+03  0.50400001928E-02 0. -1.
        1   -1    0    0  501    0  0.00000000000E+00  0.00000000000E+00 -0.60241660332E+03  0.60241660334E+03  0.50400001928E-02 0.  1.
    10030    2    1    2    0    0  0.00000000000E+00  0.00000000000E+00 -0.33442043889E+03  0.87041276781E+03  0.80360522423E+03 0.  0.
        2    1    3    3  502    0 -0.81122894943E+02  0.53857022199E+02 -0.58944365957E+03  0.59743228130E+03  0.25500000920E-02 0.  1.
       -2    1    3    3    0  502  0.81122894943E+02 -0.53857022199E+02  0.25502322068E+03  0.27298048651E+03  0.25500000920E-02 0. -1.
</event>
<event>
 5   0  0.3467240E-02  0.8057055E+03  0.7818609E-02  0.9551795E-01
       -2   -1    0    0    0  501  0.00000000000E+00  0.00000000000E+00  0.17122010120E+03  0.17122010122E+03  0.25500000920E-02 0. -1.
        2   -1    0    0  501    0  0.00000000000E+00  0.00000000000E+00 -0.94784618085E+03  0.94784618085E+03  0.25500000920E-02 0.  1.
    10030    2    1    2    0    0  0.00000000000E+00  0.00000000000E+00 -0.77662607965E+03  0.11190662821E+04  0.80570545244E+03 0.  0.
        2    1    3    3  502    0 -0.23556905835E+03  0.32677417066E+03 -0.38272631435E+03  0.55565598312E+03  0.25500000920E-02 0. -1.
       -2    1    3    3    0  502  0.23556905835E+03 -0.32677417066E+03 -0.39389976529E+03  0.56341029896E+03  0.25500000920E-02 0.  1.
</event>
<event>
 5   0  0.1358000E-02  0.8162822E+03  0.7818609E-02  0.9536744E-01
       -3   -1    0    0    0  501  0.00000000000E+00  0.00000000000E+00  0.21804902772E+03  0.21804905111E+03  0.10100000352E+00 0.  1.
        3   -1    0    0  501    0  0.00000000000E+00  0.00000000000E+00 -0.76395272360E+03  0.76395273028E+03  0.10100000352E+00 0. -1.
    10030    2    1    2    0    0  0.00000000000E+00  0.00000000000E+00 -0.54590369588E+03  0.98200178139E+03  0.81628221435E+03 0.  0.
        1    1    3    3  502    0  0.10033370444E+02  0.34253833283E+03 -0.62561776317E+01  0.34274234895E+03  0.50400001928E-02 0.  1.
       -1    1    3    3    0  502 -0.10033370444E+02 -0.34253833283E+03 -0.53964751825E+03  0.63925943244E+03  0.50400001928E-02 0. -1.
</event>
<event>
 5   0  0.2129257E-02  0.8166844E+03  0.7818609E-02  0.9536176E-01
       -1   -1    0    0    0  501  0.00000000000E+00  0.00000000000E+00  0.55482688685E+03  0.55482688687E+03  0.50400001928E-02 0.  1.
        1   -1    0    0  501    0  0.00000000000E+00  0.00000000000E+00 -0.30053223331E+03  0.30053223335E+03  0.50400001928E-02 0. -1.
    10030    2    1    2    0    0  0.00000000000E+00  0.00000000000E+00  0.25429465354E+03  0.85535912022E+03  0.81668442725E+03 0.  0.
        3    1    3    3  502    0  0.23891708109E+03 -0.17143760727E+03  0.42388582880E+03  0.51589866339E+03  0.10100000352E+00 0.  1.
       -3    1    3    3    0  502 -0.23891708109E+03  0.17143760727E+03 -0.16959117526E+03  0.33946045683E+03  0.10100000352E+00 0. -1.
</event>
<event>
 5   0  0.3404132E-02  0.7963179E+03  0.7818609E-02  0.9565362E-01
       -2   -1    0    0    0  501  0.00000000000E+00  0.00000000000E+00  0.19331455971E+03  0.19331455972E+03  0.25500000920E-02 0. -1.
        2   -1    0    0  501    0  0.00000000000E+00  0.00000000000E+00 -0.82006533239E+03  0.82006533240E+03  0.25500000920E-02 0.  1.
    10030    2    1    2    0    0  0.00000000000E+00  0.00000000000E+00 -0.62675077269E+03  0.10133798921E+04  0.79631794824E+03 0.  0.
        5    1    3    3  502    0  0.10071658126E+03 -0.24512121265E+03  0.64734062924E+02  0.27283846417E+03  0.46999998093E+01 0. -1.
       -5    1    3    3    0  502 -0.10071658126E+03  0.24512121265E+03 -0.69148483561E+03  0.74054142795E+03  0.46999998093E+01 0.  1.
</event>
<event>
 5   0  0.2129257E-02  0.8038503E+03  0.7818609E-02  0.9554461E-01
        1   -1    0    0  501    0  0.00000000000E+00  0.00000000000E+00  0.22835492472E+03  0.22835492477E+03  0.50400001928E-02 0.  1.
       -1   -1    0    0    0  501  0.00000000000E+00  0.00000000000E+00 -0.70742433102E+03  0.70742433104E+03  0.50400001928E-02 0. -1.
    10030    2    1    2    0    0  0.00000000000E+00  0.00000000000E+00 -0.47906940630E+03  0.93577925582E+03  0.80385030917E+03 0.  0.
        3    1    3    3  502    0  0.32254682801E+03 -0.16179545583E+03 -0.44558612384E+03  0.57337703978E+03  0.10100000352E+00 0. -1.
       -3    1    3    3    0  502 -0.32254682801E+03  0.16179545583E+03 -0.33483282464E+02  0.36240221604E+03  0.10100000352E+00 0.  1.
</event>
<event>
 5   0  0.3467240E-02  0.8090887E+03  0.7818609E-02  0.9546954E-01
        2   -1    0    0  501    0  0.00000000000E+00  0.00000000000E+00  0.10825848950E+04  0.10825848950E+04  0.25500000920E-02 0.  1.
       -2   -1    0    0    0  501  0.00000000000E+00  0.00000000000E+00 -0.15117162709E+03  0.15117162711E+03  0.25500000920E-02 0. -1.
    10030    2    1    2    0    0  0.00000000000E+00  0.00000000000E+00  0.93141326794E+03  0.12337565221E+04  0.80908867266E+03 0.  0.
        2    1    3    3  502    0 -0.16422985457E+03  0.12609835243E+02 -0.97724049130E+02  0.19152139009E+03  0.25500000920E-02 0. -1.
       -2    1    3    3    0  502  0.16422985457E+03 -0.12609835243E+02  0.10291373171E+04  0.10422351320E+04  0.25500000920E-02 0.  1.
</event>
<event>
 5   0  0.3467240E-02  0.8004717E+03  0.7818609E-02  0.9559335E-01
        2   -1    0    0  501    0  0.00000000000E+00  0.00000000000E+00  0.58051588623E+03  0.58051588624E+03  0.25500000920E-02 0.  1.
       -2   -1    0    0    0  501  0.00000000000E+00  0.00000000000E+00 -0.27594203975E+03  0.27594203976E+03  0.25500000920E-02 0. -1.
    10030    2    1    2    0    0  0.00000000000E+00  0.00000000000E+00  0.30457384648E+03  0.85645792600E+03  0.80047170534E+03 0.  0.
        2    1    3    3  502    0  0.38700052433E+03 -0.14147298498E+02  0.26044730134E+03  0.46669299187E+03  0.25500000920E-02 0.  1.
       -2    1    3    3    0  502 -0.38700052433E+03  0.14147298498E+02  0.44126545144E+02  0.38976493413E+03  0.25500000920E-02 0. -1.
</event>
<event>
 5   0  0.1989298E-02  0.8163638E+03  0.7818609E-02  0.9536629E-01
        1   -1    0    0  501    0  0.00000000000E+00  0.00000000000E+00  0.86904143826E+03  0.86904143827E+03  0.50400001928E-02 0. -1.
       -1   -1    0    0    0  501  0.00000000000E+00  0.00000000000E+00 -0.19171979842E+03  0.19171979848E+03  0.50400001928E-02 0.  1.
    10030    2    1    2    0    0  0.00000000000E+00  0.00000000000E+00  0.67732163984E+03  0.10607612368E+04  0.81636376549E+03 0.  0.
        1    1    3    3  502    0 -0.10093097629E+03 -0.29621626679E+03 -0.18674783056E+01  0.31294508494E+03  0.50400001928E-02 0.  1.
       -1    1    3    3    0  502  0.10093097629E+03  0.29621626679E+03  0.67918911815E+03  0.74781615182E+03  0.50400001928E-02 0. -1.
</event>
<event>
 5   0  0.3550586E-02  0.7432336E+03  0.7818609E-02  0.9646026E-01
        2   -1    0    0  501    0  0.00000000000E+00  0.00000000000E+00  0.90498576048E+03  0.90498576048E+03  0.25500000920E-02 0. -1.
       -2   -1    0    0    0  501  0.00000000000E+00  0.00000000000E+00 -0.15259805173E+03  0.15259805175E+03  0.25500000920E-02 0.  1.
    10030    2    1    2    0    0  0.00000000000E+00  0.00000000000E+00  0.75238770875E+03  0.10575838122E+04  0.74323364807E+03 0.  0.
        3    1    3    3  502    0  0.81135719864E+02 -0.29713661050E+03  0.80350804974E+02  0.31832284304E+03  0.10100000352E+00 0.  1.
       -3    1    3    3    0  502 -0.81135719864E+02  0.29713661050E+03  0.67203690377E+03  0.73926096919E+03  0.10100000352E+00 0. -1.
</event>
<event>
 5   0  0.3467240E-02  0.7980108E+03  0.7818609E-02  0.9562901E-01
       -2   -1    0    0    0  501  0.00000000000E+00  0.00000000000E+00  0.76566402959E+03  0.76566402959E+03  0.25500000920E-02 0. -1.
        2   -1    0    0  501    0  0.00000000000E+00  0.00000000000E+00 -0.20793105319E+03  0.20793105321E+03  0.25500000920E-02 0.  1.
    10030    2    1    2    0    0  0.00000000000E+00  0.00000000000E+00  0.55773297639E+03  0.97359508280E+03  0.79801084723E+03 0.  0.
        2    1    3    3  502    0 -0.12049899921E+03  0.92494473778E+02  0.72900549198E+03  0.74466384620E+03  0.25500000920E-02 0. -1.
       -2    1    3    3    0  502  0.12049899921E+03 -0.92494473778E+02 -0.17127251559E+03  0.22893123660E+03  0.25500000920E-02 0.  1.
</event>
<event>
 5   0  0.2129257E-02  0.7776629E+03  0.7818609E-02  0.9592924E-01
       -1   -1    0    0    0  501  0.00000000000E+00  0.00000000000E+00  0.40645033149E+03  0.40645033152E+03  0.50400001928E-02 0.  1.
        1   -1    0    0  501    0  0.00000000000E+00  0.00000000000E+00 -0.37197634876E+03  0.37197634880E+03  0.50400001928E-02 0. -1.
    10030    2    1    2    0    0  0.00000000000E+00  0.00000000000E+00  0.34473982726E+02  0.77842668032E+03  0.77766293544E+03 0.  0.
        3    1    3    3  502    0  0.83684480549E+02  0.58345009518E+02 -0.35834166822E+03  0.37258018440E+03  0.10100000352E+00 0. -1.
       -3    1    3    3    0  502 -0.83684480549E+02 -0.58345009518E+02  0.39281565095E+03  0.40584649592E+03  0.10100000352E+00 0.  1.
</event>
<event>
 5   0  0.2129257E-02  0.7971269E+03  0.7818609E-02  0.9564185E-01
        1   -1    0    0  501    0  0.00000000000E+00  0.00000000000E+00  0.23080306877E+04  0.23080306877E+04  0.50400001928E-02 0.  1.
       -1   -1    0    0    0  501  0.00000000000E+00  0.00000000000E+00 -0.68826127277E+02  0.68826127462E+02  0.50400001928E-02 0. -1.
    10030    2    1    2    0    0  0.00000000000E+00  0.00000000000E+00  0.22392045604E+04  0.23768568152E+04  0.79712687597E+03 0.  0.
        3    1    3    3  502    0 -0.33406147602E+03 -0.19998076830E+03  0.86547789593E+03  0.94902127268E+03  0.10100000352E+00 0. -1.
       -3    1    3    3    0  502  0.33406147602E+03  0.19998076830E+03  0.13737266645E+04  0.14278355425E+04  0.10100000352E+00 0.  1.
</event>
<event>
 5   0  0.2132540E-02  0.8076307E+03  0.7818609E-02  0.9549037E-01
        1   -1    0    0  501    0  0.00000000000E+00  0.00000000000E+00  0.48733806336E+03  0.48733806339E+03  0.50400001928E-02 0. -1.
       -1   -1    0    0    0  501  0.00000000000E+00  0.00000000000E+00 -0.33460726039E+03  0.33460726043E+03  0.50400001928E-02 0.  1.
    10030    2    1    2    0    0  0.00000000000E+00  0.00000000000E+00  0.15273080298E+03  0.82194532382E+03  0.80763074308E+03 0.  0.
        4    1    3    3  502    0  0.40159385632E+03 -0.25946510807E+02  0.11033962767E+03  0.41728562543E+03  0.12699999809E+01 0.  1.
       -4    1    3    3    0  502 -0.40159385632E+03  0.25946510807E+02  0.42391175301E+02  0.40465969839E+03  0.12699999809E+01 0. -1.
</event>
<event>
 5   0  0.3550586E-02  0.8046740E+03  0.7818609E-02  0.9553276E-01
        2   -1    0    0  501    0  0.00000000000E+00  0.00000000000E+00  0.29893581391E+03  0.29893581392E+03  0.25500000920E-02 0. -1.
       -2   -1    0    0    0  501  0.00000000000E+00  0.00000000000E+00 -0.54150439847E+03  0.54150439848E+03  0.25500000920E-02 0.  1.
    10030    2    1    2    0    0  0.00000000000E+00  0.00000000000E+00 -0.24256858456E+03  0.84044021240E+03  0.80467399137E+03 0.  0.
        3    1    3    3  502    0  0.28325091455E+03 -0.19866779412E+03 -0.33577811570E+03  0.48212749994E+03  0.10100000352E+00 0.  1.
       -3    1    3    3    0  502 -0.28325091455E+03  0.19866779412E+03  0.93209531138E+02  0.35831271246E+03  0.10100000352E+00 0. -1.
</event>
<event>
 5   0  0.3467240E-02  0.8021774E+03  0.7818609E-02  0.9556871E-01
        2   -1    0    0  501    0  0.00000000000E+00  0.00000000000E+00  0.74281805611E+03  0.74281805612E+03  0.25500000920E-02 0.  1.
       -2   -1    0    0    0  501  0.00000000000E+00  0.00000000000E+00 -0.21657006799E+03  0.21657006800E+03  0.25500000920E-02 0. -1.
    10030    2    1    2    0    0  0.00000000000E+00  0.00000000000E+00  0.52624798813E+03  0.95938812412E+03  0.80217742906E+03 0.  0.
        2    1    3    3  502    0 -0.36025967684E+02  0.88193301873E+02  0.72909016723E+03  0.73528797134E+03  0.25500000920E-02 0.  1.
       -2    1    3    3    0  502  0.36025967684E+02 -0.88193301873E+02 -0.20284217911E+03  0.22410015277E+03  0.25500000920E-02 0. -1.
</event>
<event>
 5   0  0.3343036E-02  0.8752066E+03  0.7818609E-02  0.9457116E-01
        2   -1    0    0  501    0  0.00000000000E+00  0.00000000000E+00  0.55016483717E+03  0.55016483718E+03  0.25500000920E-02 0. -1.
       -2   -1    0    0    0  501  0.00000000000E+00  0.00000000000E+00 -0.34807143580E+03  0.34807143581E+03  0.25500000920E-02 0.  1.
    10030    2    1    2    0    0  0.00000000000E+00  0.00000000000E+00  0.20209340137E+03  0.89823627299E+03  0.87520663802E+03 0.  0.
        4    1    3    3  502    0  0.41974967696E+03 -0.81402361578E+02  0.54346282444E+01  0.42760645909E+03  0.12699999809E+01 0.  1.
       -4    1    3    3    0  502 -0.41974967696E+03  0.81402361578E+02  0.19665877313E+03  0.47062981389E+03  0.12699999809E+01 0. -1.
</event>
<event>
 5   0  0.2063692E-02  0.7968421E+03  0.7818609E-02  0.9564599E-01
        1   -1    0    0  501    0  0.00000000000E+00  0.00000000000E+00  0.37227141972E+03  0.37227141975E+03  0.50400001928E-02 0. -1.
       -1   -1    0    0    0  501  0.00000000000E+00  0.00000000000E+00 -0.42640751272E+03  0.42640751274E+03  0.50400001928E-02 0.  1.
    10030    2    1    2    0    0  0.00000000000E+00  0.00000000000E+00 -0.54136092995E+02  0.79867893250E+03  0.79684209267E+03 0.  0.
        2    1    3    3  502    0 -0.89386938556E+02 -0.97043448031E+02  0.34973987227E+03  0.37379865416E+03  0.25500000920E-02 0. -1.
       -2    1    3    3    0  502  0.89386938556E+02  0.97043448031E+02 -0.40387596527E+03  0.42488027834E+03  0.25500000920E-02 0.  1.
</event>
<event>
 5   0  0.1358000E-02  0.8108934E+03  0.7818609E-02  0.9544382E-01
       -3   -1    0    0    0  501  0.00000000000E+00  0.00000000000E+00  0.36356678506E+03  0.36356679909E+03  0.10100000352E+00 0.  1.
        3   -1    0    0  501    0  0.00000000000E+00  0.00000000000E+00 -0.45215082475E+03  0.45215083603E+03  0.10100000352E+00 0. -1.
    10030    2    1    2    0    0  0.00000000000E+00  0.00000000000E+00 -0.88584039691E+02  0.81571763512E+03  0.81089341356E+03 0.  0.
        2    1    3    3  502    0  0.11071114730E+03 -0.39003702017E+03 -0.45392507612E+02  0.40797832663E+03  0.25500000920E-02 0. -1.
       -2    1    3    3    0  502 -0.11071114730E+03  0.39003702017E+03 -0.43191532079E+02  0.40773930850E+03  0.25500000920E-02 0.  1.
</event>
<event>
 5   0  0.3416160E-02  0.8002828E+03  0.7818609E-02  0.9559608E-01
        2   -1    0    0  501    0  0.00000000000E+00  0.00000000000E+00  0.20493888271E+04  0.20493888271E+04  0.25500000920E-02 0. -1.
       -2   -1    0    0    0  501  0.00000000000E+00  0.00000000000E+00 -0.78127267004E+02  0.78127267046E+02  0.25500000920E-02 0.  1.
    10030    2    1    2    0    0  0.00000000000E+00  0.00000000000E+00  0.19712615601E+04  0.21275160942E+04  0.80028282036E+03 0.  0.
        1    1    3    3  502    0 -0.18548120304E+03  0.34573828622E+03  0.77672779939E+03  0.87019785888E+03  0.50400001928E-02 0.  1.
       -1    1    3    3    0  502  0.18548120304E+03 -0.34573828622E+03  0.11945337608E+04  0.12573182353E+04  0.50400001928E-02 0. -1.
</event>
<event>
 5   0  0.3467240E-02  0.7972146E+03  0.7818609E-02  0.9564058E-01
       -2   -1    0    0    0  501  0.00000000000E+00  0.00000000000E+00  0.29310884733E+03  0.29310884734E+03  0.25500000920E-02 0.  1.
        2   -1    0    0  501    0  0.00000000000E+00  0.00000000000E+00 -0.54207768298E+03  0.54207768299E+03  0.25500000920E-02 0. -1.
    10030    2    1    2    0    0  0.00000000000E+00  0.00000000000E+00 -0.24896883566E+03  0.83518653033E+03  0.79721456291E+03 0.  0.
        2    1    3    3  502    0 -0.36521668423E+03 -0.14957258378E+03 -0.65849086653E+02  0.40011409183E+03  0.25500000920E-02 0.  1.
       -2    1    3    3    0  502  0.36521668423E+03  0.14957258378E+03 -0.18311974900E+03  0.43507243850E+03  0.25500000920E-02 0. -1.
</event>
<event>
 5   0  0.1989298E-02  0.8279969E+03  0.7818609E-02  0.9520354E-01
        1   -1    0    0  501    0  0.00000000000E+00  0.00000000000E+00  0.45509227920E+03  0.45509227923E+03  0.50400001928E-02 0. -1.
       -1   -1    0    0    0  501  0.00000000000E+00  0.00000000000E+00 -0.37661532300E+03  0.37661532304E+03  0.50400001928E-02 0.  1.
    10030    2    1    2    0    0  0.00000000000E+00  0.00000000000E+00  0.78476956201E+02  0.83170760227E+03  0.82799692210E+03 0.  0.
        1    1    3    3  502    0 -0.10846032998E+02 -0.13984367855E+03  0.43049767639E+03  0.45277162043E+03  0.50400001928E-02 0. -1.
       -1    1    3    3    0  502  0.10846032998E+02  0.13984367855E+03 -0.35202072019E+03  0.37893598184E+03  0.50400001928E-02 0.  1.
</event>
<event>
 5   0  0.2129257E-02  0.8330339E+03  0.7818609E-02  0.9513396E-01
        1   -1    0    0  501    0  0.00000000000E+00  0.00000000000E+00  0.11980960880E+04  0.11980960880E+04  0.50400001928E-02 0.  1.
       -1   -1    0    0    0  501  0.00000000000E+00  0.00000000000E+00 -0.14480170531E+03  0.14480170540E+03  0.50400001928E-02 0. -1.
    10030    2    1    2    0    0  0.00000000000E+00  0.00000000000E+00  0.10532943827E+04  0.13428977934E+04  0.83303386901E+03 0.  0.
        3    1    3    3  502    0  0.38525414187E+02  0.36940247798E+03  0.83056988878E+03  0.90982896669E+03  0.10100000352E+00 0.  1.
       -3    1    3    3    0  502 -0.38525414187E+02 -0.36940247798E+03  0.22272449387E+03  0.43306882669E+03  0.10100000352E+00 0. -1.
</event>
<event>
 5   0  0.2132540E-02  0.7907485E+03  0.7818609E-02  0.9573506E-01
       -1   -1    0    0    0  501  0.00000000000E+00  0.00000000000E+00  0.47395321130E+03  0.47395321133E+03  0.50400001928E-02 0. -1.
        1   -1    0    0  501    0  0.00000000000E+00  0.00000000000E+00 -0.32982330315E+03  0.32982330319E+03  0.50400001928E-02 0.  1.
    10030    2    1    2    0    0  0.00000000000E+00  0.00000000000E+00  0.14412990815E+03  0.80377651452E+03  0.79074854085E+03 0.  0.
        4    1    3    3  502    0 -0.18260711614E+03 -0.31535512609E+03 -0.83840605990E+02  0.37393191162E+03  0.12699999809E+01 0. -1.
       -4    1    3    3    0  502  0.18260711614E+03  0.31535512609E+03  0.22797051414E+03  0.42984460289E+03  0.12699999809E+01 0.  1.
</event>
<event>
 5   0  0.1358000E-02  0.8118929E+03  0.7818609E-02  0.9542960E-01
       -3   -1    0    0    0  501  0.00000000000E+00  0.00000000000E+00  0.20072768561E+03  0.20072771102E+03  0.10100000352E+00 0. -1.
        3   -1    0    0  501    0  0.00000000000E+00  0.00000000000E+00 -0.82097551346E+03  0.82097551967E+03  0.10100000352E+00 0.  1.
    10030    2    1    2    0    0  0.00000000000E+00  0.00000000000E+00 -0.62024782785E+03  0.10217032307E+04  0.81189292622E+03 0.  0.
        1    1    3    3  502    0  0.71693488845E+02  0.24151536784E+03  0.90447375404E+02  0.26767584312E+03  0.50400001928E-02 0. -1.
       -1    1    3    3    0  502 -0.71693488845E+02 -0.24151536784E+03 -0.71069520326E+03  0.75402738757E+03  0.50400001928E-02 0.  1.
</event>
<event>
 5   0  0.1989298E-02  0.7955555E+03  0.7818609E-02  0.9566473E-01
        1   -1    0    0  501    0  0.00000000000E+00  0.00000000000E+00  0.92064726094E+03  0.92064726095E+03  0.50400001928E-02 0. -1.
       -1   -1    0    0    0  501  0.00000000000E+00  0.00000000000E+00 -0.17186510020E+03  0.17186510027E+03  0.50400001928E-02 0.  1.
    10030    2    1    2    0    0  0.00000000000E+00  0.00000000000E+00  0.74878216074E+03  0.10925123612E+04  0.79555548844E+03 0.  0.
        1    1    3    3  502    0 -0.19693184740E+03  0.25894307789E+03  0.68872730903E+03  0.76169480524E+03  0.50400001928E-02 0. -1.
       -1    1    3    3    0  502  0.19693184740E+03 -0.25894307789E+03  0.60054851716E+02  0.33081755598E+03  0.50400001928E-02 0.  1.
</event>
<event>
 5   0  0.3550586E-02  0.7418771E+03  0.7818609E-02  0.9648181E-01
       -2   -1    0    0    0  501  0.00000000000E+00  0.00000000000E+00  0.41289228679E+03  0.41289228680E+03  0.25500000920E-02 0. -1.
        2   -1    0    0  501    0  0.00000000000E+00  0.00000000000E+00 -0.33324772092E+03  0.33324772093E+03  0.25500000920E-02 0.  1.
    10030    2    1    2    0    0  0.00000000000E+00  0.00000000000E+00  0.79644565870E+02  0.74614000773E+03  0.74187711534E+03 0.  0.
        3    1    3    3  502    0 -0.31540429008E+03 -0.92953657154E+02 -0.13284752260E+03  0.35463886285E+03  0.10100000352E+00 0.  1.
       -3    1    3    3    0  502  0.31540429008E+03  0.92953657154E+02  0.21249208847E+03  0.39150114488E+03  0.10100000352E+00 0. -1.
</event>
<event>
 5   0  0.2063692E-02  0.7800273E+03  0.7818609E-02  0.9589385E-01
        1   -1    0    0  501    0  0.00000000000E+00  0.00000000000E+00  0.76358698764E+03  0.76358698766E+03  0.50400001928E-02 0.  1.
       -1   -1    0    0    0  501  0.00000000000E+00  0.00000000000E+00 -0.19920541221E+03  0.19920541227E+03  0.50400001928E-02 0. -1.
    10030    2    1    2    0    0  0.00000000000E+00  0.00000000000E+00  0.56438157544E+03  0.96279239993E+03  0.78002733457E+03 0.  0.
        2    1    3    3  502    0 -0.17759231535E+03  0.13069761687E+01  0.71078107161E+03  0.73263256168E+03  0.25500000920E-02 0.  1.
       -2    1    3    3    0  502  0.17759231535E+03 -0.13069761687E+01 -0.14639949617E+03  0.23015983825E+03  0.25500000920E-02 0. -1.
</event>
<event>
 5   0  0.3416160E-02  0.8004637E+03  0.7818609E-02  0.9559346E-01
       -2   -1    0    0    0  501  0.00000000000E+00  0.00000000000E+00  0.39339044794E+03  0.39339044795E+03  0.25500000920E-02 0.  1.
        2   -1    0    0  501    0  0.00000000000E+00  0.00000000000E+00 -0.40719221528E+03  0.40719221529E+03  0.25500000920E-02 0. -1.
    10030    2    1    2    0    0  0.00000000000E+00  0.00000000000E+00 -0.13801767336E+02  0.80058266324E+03  0.80046368556E+03 0.  0.
        1    1    3    3  502    0  0.90323657642E+01 -0.12670047729E+03  0.37269595358E+03  0.39374721385E+03  0.50400001928E-02 0.  1.
       -1    1    3    3    0  502 -0.90323657642E+01  0.12670047729E+03 -0.38649772092E+03  0.40683544939E+03  0.50400001928E-02 0. -1.
</event>
<event>
 5   0  0.2063692E-02  0.8157347E+03  0.7818609E-02  0.9537517E-01
       -1   -1    0    0    0  501  0.00000000000E+00  0.00000000000E+00  0.19971071496E+03  0.19971071503E+03  0.50400001928E-02 0. -1.
        1   -1    0    0  501    0  0.00000000000E+00  0.00000000000E+00 -0.83298366263E+03  0.83298366265E+03  0.50400001928E-02 0.  1.
    10030    2    1    2    0    0  0.00000000000E+00  0.00000000000E+00 -0.63327294767E+03  0.10326943777E+04  0.81573466975E+03 0.  0.
        2    1    3    3  502    0  0.48360261299E+02 -0.16214490927E+03 -0.78645591011E+03  0.80445172946E+03  0.25500000920E-02 0.  1.
       -2    1    3    3    0  502 -0.48360261299E+02  0.16214490927E+03  0.15318296244E+03  0.22824264821E+03  0.25500000920E-02 0. -1.
</event>
<event>
 5   0  0.2129257E-02  0.5610654E+03  0.7818609E-02  0.9989647E-01
        1   -1    0    0  501    0  0.00000000000E+00  0.00000000000E+00  0.26478886218E+03  0.26478886223E+03  0.50400001928E-02 0.  1.
       -1   -1    0    0    0  501  0.00000000000E+00  0.00000000000E+00 -0.29721259561E+03  0.29721259565E+03  0.50400001928E-02 0. -1.
    10030    2    1    2    0    0  0.00000000000E+00  0.00000000000E+00 -0.32423733425E+02  0.56200145788E+03  0.56106536177E+03 0.  0.
        3    1    3    3  502    0  0.76813007071E+02 -0.14356098205E+03  0.21261748473E+03  0.26779880253E+03  0.10100000352E+00 0.  1.
       -3    1    3    3    0  502 -0.76813007071E+02  0.14356098205E+03 -0.24504121815E+03  0.29420265535E+03  0.10100000352E+00 0. -1.
</event>
<event>
 5   0  0.3343036E-02  0.8015156E+03  0.7818609E-02  0.9557826E-01
       -2   -1    0    0    0  501  0.00000000000E+00  0.00000000000E+00  0.13918576062E+03  0.13918576064E+03  0.25500000920E-02 0.  1.
        2   -1    0    0  501    0  0.00000000000E+00  0.00000000000E+00 -0.11539025739E+04  0.11539025739E+04  0.25500000920E-02 0. -1.
    10030    2    1    2    0    0  0.00000000000E+00  0.00000000000E+00 -0.10147168133E+04  0.12930883346E+04  0.80151558301E+03 0.  0.
        4    1    3    3  502    0 -0.24594392828E+03 -0.19240520776E+03 -0.10211064048E+03  0.32853671884E+03  0.12699999809E+01 0.  1.
       -4    1    3    3    0  502  0.24594392828E+03  0.19240520776E+03 -0.91260617284E+03  0.96455161575E+03  0.12699999809E+01 0. -1.
</event>
<event>
 5   0  0.2132540E-02  0.5089533E+03  0.7818609E-02  0.1011468E+00
       -1   -1    0    0    0  501  0.00000000000E+00  0.00000000000E+00  0.89599681430E+03  0.89599681432E+03  0.50400001928E-02 0. -1.
        1   -1    0    0  501    0  0.00000000000E+00  0.00000000000E+00 -0.72275213967E+02  0.72275214142E+02  0.50400001928E-02 0.  1.
    10030    2    1    2    0    0  0.00000000000E+00  0.00000000000E+00  0.82372160034E+03  0.96827202846E+03  0.50895328493E+03 0.  0.
        4    1    3    3  502    0 -0.16617202487E+03 -0.54278248084E+02  0.60044054099E+02  0.18484093539E+03  0.12699999809E+01 0.  1.
       -4    1    3    3    0  502  0.16617202487E+03  0.54278248084E+02  0.76367754624E+03  0.78343109307E+03  0.12699999809E+01 0. -1.
</event>
<event>
 5   0  0.3467240E-02  0.8086049E+03  0.7818609E-02  0.9547645E-01
        2   -1    0    0  501    0  0.00000000000E+00  0.00000000000E+00  0.12028924667E+04  0.12028924667E+04  0.25500000920E-02 0.  1.
       -2   -1    0    0    0  501  0.00000000000E+00  0.00000000000E+00 -0.13588951060E+03  0.13588951063E+03  0.25500000920E-02 0. -1.
    10030    2    1    2    0    0  0.00000000000E+00  0.00000000000E+00  0.10670029561E+04  0.13387819773E+04  0.80860489394E+03 0.  0.
        2    1    3    3  502    0  0.23929334872E+01 -0.28506160791E+03  0.10081752041E+04  0.10477037218E+04  0.25500000920E-02 0.  1.
       -2    1    3    3    0  502 -0.23929334872E+01  0.28506160791E+03  0.58827751961E+02  0.29107825553E+03  0.25500000920E-02 0. -1.
</event>
<event>
 5   0  0.2129257E-02  0.7951703E+03  0.7818609E-02  0.9567034E-01
        1   -1    0    0  501    0  0.00000000000E+00  0.00000000000E+00  0.79271499409E+03  0.79271499411E+03  0.50400001928E-02 0. -1.
       -1   -1    0    0    0  501  0.00000000000E+00  0.00000000000E+00 -0.19940829301E+03  0.19940829307E+03  0.50400001928E-02 0.  1.
    10030    2    1    2    0    0  0.00000000000E+00  0.00000000000E+00  0.59330670108E+03  0.99212328718E+03  0.79517028077E+03 0.  0.
        3    1    3    3  502    0  0.30196765429E+03  0.11651709631E+03  0.58473992809E+03  0.66834234616E+03  0.10100000352E+00 0. -1.
       -3    1    3    3    0  502 -0.30196765429E+03 -0.11651709631E+03  0.85667729940E+01  0.32378094102E+03  0.10100000352E+00 0.  1.
</event>
<event>
 5   0  0.3550586E-02  0.7132636E+03  0.7818609E-02  0.9694815E-01
       -2   -1    0    0    0  501  0.00000000000E+00  0.00000000000E+00  0.11346518352E+03  0.11346518355E+03  0.25500000920E-02 0.  1.
        2   -1    0    0  501    0  0.00000000000E+00  0.00000000000E+00 -0.11209274919E+04  0.11209274919E+04  0.25500000920E-02 0. -1.
    10030    2    1    2    0    0  0.00000000000E+00  0.00000000000E+00 -0.10074623084E+04  0.12343926755E+04  0.71326360794E+03 0.  0.
        3    1    3    3  502    0 -0.19364910721E+03  0.23473843870E+02 -0.10204186813E+04  0.10388961899E+04  0.10100000352E+00 0. -1.
       -3    1    3    3    0  502  0.19364910721E+03 -0.23473843870E+02  0.12956372889E+02  0.19549648557E+03  0.10100000352E+00 0.  1.
</event>
<event>
 5   0  0.2063692E-02  0.7761561E+03  0.7818609E-02  0.9595186E-01
       -1   -1    0    0    0  501  0.00000000000E+00  0.00000000000E+00  0.51602718909E+03  0.51602718911E+03  0.50400001928E-02 0.  1.
        1   -1    0    0  501    0  0.00000000000E+00  0.00000000000E+00 -0.29185392556E+03  0.29185392560E+03  0.50400001928E-02 0. -1.
    10030    2    1    2    0    0  0.00000000000E+00  0.00000000000E+00  0.22417326353E+03  0.80788111471E+03  0.77615606899E+03 0.  0.
        2    1    3    3  502    0  0.25282024144E+03 -0.84003120060E+01  0.41842208528E+03  0.48894343352E+03  0.25500000920E-02 0.  1.
       -2    1    3    3    0  502 -0.25282024144E+03  0.84003120060E+01 -0.19424882175E+03  0.31893768119E+03  0.25500000920E-02 0. -1.
</event>
<event>
 5   0  0.3467240E-02  0.7945868E+03  0.7818609E-02  0.9567886E-01
        2   -1    0    0  501    0  0.00000000000E+00  0.00000000000E+00  0.29189726676E+03  0.29189726677E+03  0.25500000920E-02 0. -1.
       -2   -1    0    0    0  501  0.00000000000E+00  0.00000000000E+00 -0.54074523232E+03  0.54074523233E+03  0.25500000920E-02 0.  1.
    10030    2    1    2    0    0  0.00000000000E+00  0.00000000000E+00 -0.24884796556E+03  0.83264249910E+03  0.79458682429E+03 0.  0.
        2    1    3    3  502    0 -0.23178524236E+03  0.18481031907E+03  0.15274894811E+03  0.33348387332E+03  0.25500000920E-02 0. -1.
       -2    1    3    3    0  502  0.23178524236E+03 -0.18481031907E+03 -0.40159691367E+03  0.49915862577E+03  0.25500000920E-02 0.  1.
</event>
<event>
 5   0  0.3416160E-02  0.7920353E+03  0.7818609E-02  0.9571618E-01
       -2   -1    0    0    0  501  0.00000000000E+00  0.00000000000E+00  0.30842713655E+03  0.30842713656E+03  0.25500000920E-02 0.  1.
        2   -1    0    0  501    0  0.00000000000E+00  0.00000000000E+00 -0.50848301317E+03  0.50848301318E+03  0.25500000920E-02 0. -1.
    10030    2    1    2    0    0  0.00000000000E+00  0.00000000000E+00 -0.20005587662E+03  0.81691014974E+03  0.79203525109E+03 0.  0.
        1    1    3    3  502    0  0.76343562711E+02  0.16183251415E+03  0.26435472361E+03  0.31922017813E+03  0.50400001928E-02 0.  1.
       -1    1    3    3    0  502 -0.76343562711E+02 -0.16183251415E+03 -0.46441060023E+03  0.49768997161E+03  0.50400001928E-02 0. -1.
</event>
<event>
 5   0  0.1989298E-02  0.7957408E+03  0.7818609E-02  0.9566203E-01
       -1   -1    0    0    0  501  0.00000000000E+00  0.00000000000E+00  0.19129874024E+03  0.19129874030E+03  0.50400001928E-02 0. -1.
        1   -1    0    0  501    0  0.00000000000E+00  0.00000000000E+00 -0.82750603520E+03  0.82750603521E+03  0.50400001928E-02 0.  1.
    10030    2    1    2    0    0  0.00000000000E+00  0.00000000000E+00 -0.63620729496E+03  0.10188047755E+04  0.79574081739E+03 0.  0.
        1    1    3    3  502    0 -0.13998553860E+03  0.47076467561E+01 -0.79489740135E+03  0.80714310481E+03  0.50400001928E-02 0.  1.
       -1    1    3    3    0  502  0.13998553860E+03 -0.47076467561E+01  0.15869010639E+03  0.21166167070E+03  0.50400001928E-02 0. -1.
</event>
<event>
 5   0  0.2063692E-02  0.7954591E+03  0.7818609E-02  0.9566613E-01
        1   -1    0    0  501    0  0.00000000000E+00  0.00000000000E+00  0.73475253682E+03  0.73475253684E+03  0.50400001928E-02 0. -1.
       -1   -1    0    0    0  501  0.00000000000E+00  0.00000000000E+00 -0.21529532170E+03  0.21529532176E+03  0.50400001928E-02 0.  1.
    10030    2    1    2    0    0  0.00000000000E+00  0.00000000000E+00  0.51945721513E+03  0.95004785860E+03  0.79545907203E+03 0.  0.
        2    1    3    3  502    0  0.16067406201E+03 -0.24995097066E+03 -0.56031566634E+02  0.30237588925E+03  0.25500000920E-02 0.  1.
       -2    1    3    3    0  502 -0.16067406201E+03  0.24995097066E+03  0.57548878176E+03  0.64767196934E+03  0.25500000920E-02 0. -1.
</event>
<event>
 5   0  0.3467240E-02  0.8042656E+03  0.7818609E-02  0.9553863E-01
        2   -1    0    0  501    0  0.00000000000E+00  0.00000000000E+00  0.14316954863E+04  0.14316954863E+04  0.25500000920E-02 0.  1.
       -2   -1    0    0    0  501  0.00000000000E+00  0.00000000000E+00 -0.11295054077E+03  0.11295054080E+03  0.25500000920E-02 0. -1.
    10030    2    1    2    0    0  0.00000000000E+00  0.00000000000E+00  0.13187449456E+04  0.15446460271E+04  0.80426557659E+03 0.  0.
        2    1    3    3  502    0 -0.10833985342E+03  0.36104039718E+03  0.92841018268E+03  0.10020145506E+04  0.25500000920E-02 0.  1.
       -2    1    3    3    0  502  0.10833985342E+03 -0.36104039718E+03  0.39033476287E+03  0.54263147656E+03  0.25500000920E-02 0. -1.
</event>
<event>
 5   0  0.3343036E-02  0.8462997E+03  0.7818609E-02  0.9495317E-01
        2   -1    0    0  501    0  0.00000000000E+00  0.00000000000E+00  0.28687495015E+03  0.28687495016E+03  0.25500000920E-02 0.  1.
       -2   -1    0    0    0  501  0.00000000000E+00  0.00000000000E+00 -0.62415981504E+03  0.62415981504E+03  0.25500000920E-02 0. -1.
    10030    2    1    2    0    0  0.00000000000E+00  0.00000000000E+00 -0.33728486489E+03  0.91103476520E+03  0.84629974791E+03 0.  0.
        4    1    3    3  502    0 -0.13213045697E+03  0.30336984477E+03 -0.45256392859E+03  0.56063128947E+03  0.12699999809E+01 0. -1.
       -4    1    3    3    0  502  0.13213045697E+03 -0.30336984477E+03  0.11527906370E+03  0.35040347573E+03  0.12699999809E+01 0.  1.
</event>
<event>
 5   0  0.3550586E-02  0.9385965E+03  0.7818609E-02  0.9378580E-01
       -2   -1    0    0    0  501  0.00000000000E+00  0.00000000000E+00  0.18746796649E+03  0.18746796650E+03  0.25500000920E-02 0.  1.
        2   -1    0    0  501    0  0.00000000000E+00  0.00000000000E+00 -0.11748184574E+04  0.11748184574E+04  0.25500000920E-02 0. -1.
    10030    2    1    2    0    0  0.00000000000E+00  0.00000000000E+00 -0.98735049095E+03  0.13622864239E+04  0.93859645689E+03 0.  0.
        3    1    3    3  502    0  0.22694325514E+02 -0.30147974268E+03 -0.10146392439E+04  0.10587246446E+04  0.10100000352E+00 0. -1.
       -3    1    3    3    0  502 -0.22694325514E+02  0.30147974268E+03  0.27288752910E+02  0.30356177937E+03  0.10100000352E+00 0.  1.
</event>
<event>
 5   0  0.3404132E-02  0.8020246E+03  0.7818609E-02  0.9557091E-01
        2   -1    0    0  501    0  0.00000000000E+00  0.00000000000E+00  0.39661333263E+03  0.39661333264E+03  0.25500000920E-02 0.  1.
       -2   -1    0    0    0  501  0.00000000000E+00  0.00000000000E+00 -0.40546002309E+03  0.40546002310E+03  0.25500000920E-02 0. -1.
    10030    2    1    2    0    0  0.00000000000E+00  0.00000000000E+00 -0.88466904537E+01  0.80207335574E+03  0.80202456574E+03 0.  0.
        5    1    3    3  502    0  0.40588186045E+02  0.96695466432E+02 -0.39147576050E+03  0.40530577979E+03  0.46999998093E+01 0. -1.
       -5    1    3    3    0  502 -0.40588186045E+02 -0.96695466432E+02  0.38262907005E+03  0.39676757594E+03  0.46999998093E+01 0.  1.
</event>
<event>
 5   0  0.2132540E-02  0.8115022E+03  0.7818609E-02  0.9543516E-01
        1   -1    0    0  501    0  0.00000000000E+00  0.00000000000E+00  0.10560420392E+04  0.10560420392E+04  0.50400001928E-02 0. -1.
       -1   -1    0    0    0  501  0.00000000000E+00  0.00000000000E+00 -0.15589715244E+03  0.15589715252E+03  0.50400001928E-02 0.  1.
    10030    2    1    2    0    0  0.00000000000E+00  0.00000000000E+00  0.90014488679E+03  0.12119391918E+04  0.81150217949E+03 0.  0.
        4    1    3    3  502    0  0.11175169298E+03 -0.34697318061E+03  0.71619824000E+03  0.80362949226E+03  0.12699999809E+01 0.  1.
       -4    1    3    3    0  502 -0.11175169298E+03  0.34697318061E+03  0.18394664678E+03  0.40830969950E+03  0.12699999809E+01 0. -1.
</event>
<event>
 5   0  0.2129257E-02  0.7770031E+03  0.7818609E-02  0.9593914E-01
       -1   -1    0    0    0  501  0.00000000000E+00  0.00000000000E+00  0.10055304313E+03  0.10055304326E+03  0.50400001928E-02 0.  1.
        1   -1    0    0  501    0  0.00000000000E+00  0.00000000000E+00 -0.15010329996E+04  0.15010329996E+04  0.50400001928E-02 0. -1.
    10030    2    1    2    0    0  0.00000000000E+00  0.00000000000E+00 -0.14004799564E+04  0.16015860428E+04  0.77700305291E+03 0.  0.
        3    1    3    3  502    0 -0.27391371705E+03 -0.26972043156E+03 -0.58445083129E+03  0.69954315091E+03  0.10100000352E+00 0.  1.
       -3    1    3    3    0  502  0.27391371705E+03  0.26972043156E+03 -0.81602912514E+03  0.90204289192E+03  0.10100000352E+00 0. -1.
</event>
<event>
 5   0  0.1989298E-02  0.8049600E+03  0.7818609E-02  0.9552865E-01
        1   -1    0    0  501    0  0.00000000000E+00  0.00000000000E+00  0.87798721254E+03  0.87798721255E+03  0.50400001928E-02 0. -1.
       -1   -1    0    0    0  501  0.00000000000E+00  0.00000000000E+00 -0.18450172060E+03  0.18450172067E+03  0.50400001928E-02 0.  1.
    10030    2    1    2    0    0  0.00000000000E+00  0.00000000000E+00  0.69348549193E+03  0.10624889332E+04  0.80496000255E+03 0.  0.
        1    1    3    3  502    0 -0.10612402230E+03  0.20531873973E+03  0.78166251592E+03  0.81511617688E+03  0.50400001928E-02 0. -1.
       -1    1    3    3    0  502  0.10612402230E+03 -0.20531873973E+03 -0.88177023988E+02  0.24737275634E+03  0.50400001928E-02 0.  1.
</event>
<event>
 5   0  0.3343036E-02  0.7851310E+03  0.7818609E-02  0.9581792E-01
        2   -1    0    0  501    0  0.00000000000E+00  0.00000000000E+00  0.43998385845E+03  0.43998385845E+03  0.25500000920E-02 0.  1.
       -2   -1    0    0    0  501  0.00000000000E+00  0.00000000000E+00 -0.35025753555E+03  0.35025753556E+03  0.25500000920E-02 0. -1.
    10030    2    1    2    0    0  0.00000000000E+00  0.00000000000E+00  0.89726322896E+02  0.79024139401E+03  0.78513097493E+03 0.  0.
        4    1    3    3  502    0 -0.17596993835E+02 -0.16656060229E+03 -0.31248858701E+03  0.35454593262E+03  0.12699999809E+01 0. -1.
       -4    1    3    3    0  502  0.17596993835E+02  0.16656060229E+03  0.40221490990E+03  0.43569546139E+03  0.12699999809E+01 0.  1.
</event>
<event>
 5   0  0.3343036E-02  0.7869948E+03  0.7818609E-02  0.9579035E-01
        2   -1    0    0  501    0  0.00000000000E+00  0.00000000000E+00  0.15296777718E+04  0.15296777718E+04  0.25500000920E-02 0. -1.
       -2   -1    0    0    0  501  0.00000000000E+00  0.00000000000E+00 -0.10122405462E+03  0.10122405466E+03  0.25500000920E-02 0.  1.
    10030    2    1    2    0    0  0.00000000000E+00  0.00000000000E+00  0.14284537172E+04  0.16309018265E+04  0.78699475565E+03 0.  0.
        4    1    3    3  502    0 -0.12229890242E+03  0.31687786624E+03  0.30251879041E+03  0.45484924436E+03  0.12699999809E+01 0.  1.
       -4    1    3    3    0  502  0.12229890242E+03 -0.31687786624E+03  0.11259349268E+04  0.11760525821E+04  0.12699999809E+01 0. -1.
</event>
<event>
 5   0  0.2077795E-02  0.7094453E+03  0.7818609E-02  0.9701214E-01
       -1   -1    0    0    0  501  0.00000000000E+00  0.00000000000E+00  0.13152624104E+03  0.13152624114E+03  0.50400001928E-02 0. -1.
        1   -1    0    0  501    0  0.00000000000E+00  0.00000000000E+00 -0.95667715928E+03  0.95667715929E+03  0.50400001928E-02 0.  1.
    10030    2    1    2    0    0  0.00000000000E+00  0.00000000000E+00 -0.82515091823E+03  0.10882034004E+04  0.70944527826E+03 0.  0.
        5    1    3    3  502    0 -0.11453283263E+03  0.19227128521E+02  0.10148835392E+03  0.15430304015E+03  0.46999998093E+01 0. -1.
       -5    1    3    3    0  502  0.11453283263E+03 -0.19227128521E+02 -0.92663927216E+03  0.93390036028E+03  0.46999998093E+01 0.  1.
</event>
<event>
 5   0  0.3467240E-02  0.7821987E+03  0.7818609E-02  0.9586147E-01
        2   -1    0    0  501    0  0.00000000000E+00  0.00000000000E+00  0.88617444185E+03  0.88617444185E+03  0.25500000920E-02 0.  1.
       -2   -1    0    0    0  501  0.00000000000E+00  0.00000000000E+00 -0.17260564638E+03  0.17260564640E+03  0.25500000920E-02 0. -1.
    10030    2    1    2    0    0  0.00000000000E+00  0.00000000000E+00  0.71356879547E+03  0.10587800882E+04  0.78219872757E+03 0.  0.
        2    1    3    3  502    0 -0.17378613821E+03 -0.11507435774E+03  0.80473015710E+03  0.83128476192E+03  0.25500000920E-02 0.  1.
       -2    1    3    3    0  502  0.17378613821E+03  0.11507435774E+03 -0.91161361630E+02  0.22749532633E+03  0.25500000920E-02 0. -1.
</event>
<event>
 5   0  0.2063692E-02  0.8013801E+03  0.7818609E-02  0.9558022E-01
       -1   -1    0    0    0  501  0.00000000000E+00  0.00000000000E+00  0.22116166779E+03  0.22116166784E+03  0.50400001928E-02 0.  1.
        1   -1    0    0  501    0  0.00000000000E+00  0.00000000000E+00 -0.72595100942E+03  0.72595100944E+03  0.50400001928E-02 0. -1.
    10030    2    1    2    0    0  0.00000000000E+00  0.00000000000E+00 -0.50478934164E+03  0.94711267728E+03  0.80138014952E+03 0.  0.
        2    1    3    3  502    0 -0.20069082861E+03 -0.19424200320E+03 -0.59194994819E+03  0.65453151617E+03  0.25500000920E-02 0. -1.
       -2    1    3    3    0  502  0.20069082861E+03  0.19424200320E+03  0.87160606552E+02  0.29258116111E+03  0.25500000920E-02 0.  1.
</event>
<event>
 5   0  0.2129257E-02  0.7525660E+03  0.7818609E-02  0.9631333E-01
        1   -1    0    0  501    0  0.00000000000E+00  0.00000000000E+00  0.26327409512E+03  0.26327409517E+03  0.50400001928E-02 0. -1.
       -1   -1    0    0    0  501  0.00000000000E+00  0.00000000000E+00 -0.53780035841E+03  0.53780035844E+03  0.50400001928E-02 0.  1.
    10030    2    1    2    0    0  0.00000000000E+00  0.00000000000E+00 -0.27452626329E+03  0.80107445360E+03  0.75256601769E+03 0.  0.
        3    1    3    3  502    0 -0.12619983203E+03  0.33640760856E+03 -0.18289287382E+02  0.35976518027E+03  0.10100000352E+00 0. -1.
       -3    1    3    3    0  502  0.12619983203E+03 -0.33640760856E+03 -0.25623697591E+03  0.44130927333E+03  0.10100000352E+00 0.  1.
</event>
<event>
 5   0  0.3404132E-02  0.7148523E+03  0.7818609E-02  0.9692165E-01
        2   -1    0    0  501    0  0.00000000000E+00  0.00000000000E+00  0.92020518488E+03  0.92020518489E+03  0.25500000920E-02 0.  1.
       -2   -1    0    0    0  501  0.00000000000E+00  0.00000000000E+00 -0.13883148882E+03  0.13883148884E+03  0.25500000920E-02 0. -1.
    10030    2    1    2    0    0  0.00000000000E+00  0.00000000000E+00  0.78137369606E+03  0.10590366737E+04  0.71485230881E+03 0.  0.
        5    1    3    3  502    0  0.27286738712E+03 -0.11975729656E+03  0.68300332956E+03  0.74519397423E+03  0.46999998093E+01 0.  1.
       -5    1    3    3    0  502 -0.27286738712E+03  0.11975729656E+03  0.98370366501E+02  0.31384269951E+03  0.46999998093E+01 0. -1.
</event>
<event>
 5   0  0.3416160E-02  0.8037442E+03  0.7818609E-02  0.9554613E-01
       -2   -1    0    0    0  501  0.00000000000E+00  0.00000000000E+00  0.83806638355E+02  0.83806638394E+02  0.25500000920E-02 0.  1.
        2   -1    0    0  501    0  0.00000000000E+00  0.00000000000E+00 -0.19270691076E+04  0.19270691076E+04  0.25500000920E-02 0. -1.
    10030    2    1    2    0    0  0.00000000000E+00  0.00000000000E+00 -0.18432624692E+04  0.20108757460E+04  0.80374419768E+03 0.  0.
        1    1    3    3  502    0 -0.94657541339E+02 -0.12840997676E+03  0.11948649396E+01  0.15953244182E+03  0.50400001928E-02 0.  1.
       -1    1    3    3    0  502  0.94657541339E+02  0.12840997676E+03 -0.18444573342E+04  0.18513433042E+04  0.50400001928E-02 0. -1.
</event>
<event>
 5   0  0.2132540E-02  0.7979078E+03  0.7818609E-02  0.9563050E-01
       -1   -1    0    0    0  501  0.00000000000E+00  0.00000000000E+00  0.45425963562E+03  0.45425963565E+03  0.50400001928E-02 0. -1.
        1   -1    0    0  501    0  0.00000000000E+00  0.00000000000E+00 -0.35038155499E+03  0.35038155503E+03  0.50400001928E-02 0.  1.
    10030    2    1    2    0    0  0.00000000000E+00  0.00000000000E+00  0.10387808062E+03  0.80464119068E+03  0.79790775789E+03 0.  0.
        4    1    3    3  502    0 -0.27230108774E+03 -0.10350963066E+03 -0.22294233842E+03  0.36683378413E+03  0.12699999809E+01 0.  1.
       -4    1    3    3    0  502  0.27230108774E+03  0.10350963066E+03  0.32682041904E+03  0.43780740654E+03  0.12699999809E+01 0. -1.
</event>
<event>
 5   0  0.2132540E-02  0.8783726E+03  0.7818609E-02  0.9453028E-01
        1   -1    0    0  501    0  0.00000000000E+00  0.00000000000E+00  0.10489455394E+04  0.10489455394E+04  0.50400001928E-02 0. -1.
       -1   -1    0    0    0  501  0.00000000000E+00  0.00000000000E+00 -0.18388427091E+03  0.18388427098E+03  0.50400001928E-02 0.  1.
    10030    2    1    2    0    0  0.00000000000E+00  0.00000000000E+00  0.86506126846E+03  0.12328298104E+04  0.87837255372E+03 0.  0.
        4    1    3    3  502    0  0.10348160515E+03  0.26237970967E+03 -0.39966884307E+02  0.28486930230E+03  0.12699999809E+01 0.  1.
       -4    1    3    3    0  502 -0.10348160515E+03 -0.26237970967E+03  0.90502815277E+03  0.94796050806E+03  0.12699999809E+01 0. -1.
</event>
<event>
 5   0  0.2129257E-02  0.8052872E+03  0.7818609E-02  0.9552396E-01
        1   -1    0    0  501    0  0.00000000000E+00  0.00000000000E+00  0.24316337142E+03  0.24316337147E+03  0.50400001928E-02 0. -1.
       -1   -1    0    0    0  501  0.00000000000E+00  0.00000000000E+00 -0.66671987990E+03  0.66671987992E+03  0.50400001928E-02 0.  1.
    10030    2    1    2    0    0  0.00000000000E+00  0.00000000000E+00 -0.42355650848E+03  0.90988325139E+03  0.80528716324E+03 0.  0.
        3    1    3    3  502    0  0.38366761763E+03 -0.99331618244E+02 -0.13145107821E+03  0.41754880836E+03  0.10100000352E+00 0.  1.
       -3    1    3    3    0  502 -0.38366761763E+03  0.99331618244E+02 -0.29210543027E+03  0.49233444303E+03  0.10100000352E+00 0. -1.
</event>
<event>
 5   0  0.3343036E-02  0.8028054E+03  0.7818609E-02  0.9555965E-01
       -2   -1    0    0    0  501  0.00000000000E+00  0.00000000000E+00  0.39832574014E+03  0.39832574014E+03  0.25500000920E-02 0. -1.
        2   -1    0    0  501    0  0.00000000000E+00  0.00000000000E+00 -0.40450339953E+03  0.40450339954E+03  0.25500000920E-02 0.  1.
    10030    2    1    2    0    0  0.00000000000E+00  0.00000000000E+00 -0.61776593936E+01  0.80282913968E+03  0.80280537121E+03 0.  0.
        4    1    3    3  502    0 -0.39615935335E+03 -0.58751899889E+02 -0.30080073800E+02  0.40162226374E+03  0.12699999809E+01 0.  1.
       -4    1    3    3    0  502  0.39615935335E+03  0.58751899889E+02  0.23902414407E+02  0.40120687594E+03  0.12699999809E+01 0. -1.
</event>
<event>
 5   0  0.2077795E-02  0.7618929E+03  0.7818609E-02  0.9616875E-01
       -1   -1    0    0    0  501  0.00000000000E+00  0.00000000000E+00  0.82733613010E+02  0.82733613164E+02  0.50400001928E-02 0.  1.
        1   -1    0    0  501    0  0.00000000000E+00  0.00000000000E+00 -0.17540656672E+04  0.17540656672E+04  0.50400001928E-02 0. -1.
    10030    2    1    2    0    0  0.00000000000E+00  0.00000000000E+00 -0.16713320542E+04  0.18367992804E+04  0.76189288027E+03 0.  0.
        5    1    3    3  502    0  0.64771754073E+02  0.37469624978E+03 -0.78146558676E+03  0.86908182182E+03  0.46999998093E+01 0. -1.
       -5    1    3    3    0  502 -0.64771754073E+02 -0.37469624978E+03 -0.88986646742E+03  0.96771745854E+03  0.46999998093E+01 0.  1.
</event>
<event>
 5   0  0.3550586E-02  0.7919676E+03  0.7818609E-02  0.9571717E-01
        2   -1    0    0  501    0  0.00000000000E+00  0.00000000000E+00  0.38566176737E+03  0.38566176737E+03  0.25500000920E-02 0. -1.
       -2   -1    0    0    0  501  0.00000000000E+00  0.00000000000E+00 -0.40658214533E+03  0.40658214533E+03  0.25500000920E-02 0.  1.
    10030    2    1    2    0    0  0.00000000000E+00  0.00000000000E+00 -0.20920377961E+02  0.79224391271E+03  0.79196764770E+03 0.  0.
        3    1    3    3  502    0 -0.32726821876E+03 -0.20666738716E+03 -0.94079315242E+02  0.39833004366E+03  0.10100000352E+00 0.  1.
       -3    1    3    3    0  502  0.32726821876E+03  0.20666738716E+03  0.73158937280E+02  0.39391386905E+03  0.10100000352E+00 0. -1.
</event>
<event>
 5   0  0.3550586E-02  0.7820927E+03  0.7818609E-02  0.9586305E-01
        2   -1    0    0  501    0  0.00000000000E+00  0.00000000000E+00  0.27203966814E+03  0.27203966816E+03  0.25500000920E-02 0. -1.
       -2   -1    0    0    0  501  0.00000000000E+00  0.00000000000E+00 -0.56211385660E+03  0.56211385661E+03  0.25500000920E-02 0.  1.
    10030    2    1    2    0    0  0.00000000000E+00  0.00000000000E+00 -0.29007418846E+03  0.83415352477E+03  0.78209274902E+03 0.  0.
        3    1    3    3  502    0  0.32436772477E+03 -0.17843163610E+03 -0.10696398654E+02  0.37036022030E+03  0.10100000352E+00 0.  1.
       -3    1    3    3    0  502 -0.32436772477E+03  0.17843163610E+03 -0.27937778981E+03  0.46379330447E+03  0.10100000352E+00 0. -1.
</event>
<event>
 5   0  0.2077795E-02  0.8221568E+03  0.7818609E-02  0.9528488E-01
        1   -1    0    0  501    0  0.00000000000E+00  0.00000000000E+00  0.77052997847E+03  0.77052997849E+03  0.50400001928E-02 0. -1.
       -1   -1    0    0    0  501  0.00000000000E+00  0.00000000000E+00 -0.21931065447E+03  0.21931065452E+03  0.50400001928E-02 0.  1.
    10030    2    1    2    0    0  0.00000000000E+00  0.00000000000E+00  0.55121932400E+03  0.98984063301E+03  0.82215675854E+03 0.  0.
        5    1    3    3  502    0 -0.54475651162E+02  0.11329233041E+03 -0.19556743176E+03  0.23253270536E+03  0.46999998093E+01 0.  1.
       -5    1    3    3    0  502  0.54475651162E+02 -0.11329233041E+03  0.74678675577E+03  0.75730792765E+03  0.46999998093E+01 0. -1.
</event>
<event>
 5   0  0.1358000E-02  0.8320736E+03  0.7818609E-02  0.9514718E-01
        3   -1    0    0  501    0  0.00000000000E+00  0.00000000000E+00  0.39770149472E+03  0.39770150755E+03  0.10100000352E+00 0. -1.
       -3   -1    0    0    0  501  0.00000000000E+00  0.00000000000E+00 -0.43521738087E+03  0.43521739259E+03  0.10100000352E+00 0.  1.
    10030    2    1    2    0    0  0.00000000000E+00  0.00000000000E+00 -0.37515886148E+02  0.83291890014E+03  0.83207358599E+03 0.  0.
        5    1    3    3  502    0  0.18817560090E+03 -0.18934976666E+03  0.30062909395E+03  0.40207379053E+03  0.46999998093E+01 0. -1.
       -5    1    3    3    0  502 -0.18817560090E+03  0.18934976666E+03 -0.33814498010E+03  0.43084510961E+03  0.46999998093E+01 0.  1.
</event>
<event>
 5   0  0.2077795E-02  0.8362665E+03  0.7818609E-02  0.9508957E-01
        1   -1    0    0  501    0  0.00000000000E+00  0.00000000000E+00  0.56562524427E+03  0.56562524429E+03  0.50400001928E-02 0.  1.
       -1   -1    0    0    0  501  0.00000000000E+00  0.00000000000E+00 -0.30910113906E+03  0.30910113910E+03  0.50400001928E-02 0. -1.
    10030    2    1    2    0    0  0.00000000000E+00  0.00000000000E+00  0.25652410521E+03  0.87472638340E+03  0.83626648221E+03 0.  0.
        5    1    3    3  502    0  0.24053588098E+03 -0.32333608170E+03  0.11740523832E+02  0.40319184227E+03  0.46999998093E+01 0.  1.
       -5    1    3    3    0  502 -0.24053588098E+03  0.32333608170E+03  0.24478358137E+03  0.47153454113E+03  0.46999998093E+01 0. -1.
</event>
<event>
 5   0  0.3550586E-02  0.8000518E+03  0.7818609E-02  0.9559942E-01
       -2   -1    0    0    0  501  0.00000000000E+00  0.00000000000E+00  0.90250286070E+02  0.90250286106E+02  0.25500000920E-02 0.  1.
        2   -1    0    0  501    0  0.00000000000E+00  0.00000000000E+00 -0.17730771788E+04  0.17730771788E+04  0.25500000920E-02 0. -1.
    10030    2    1    2    0    0  0.00000000000E+00  0.00000000000E+00 -0.16828268928E+04  0.18633274649E+04  0.80005180495E+03 0.  0.
        3    1    3    3  502    0 -0.22261300375E+03 -0.29941740634E+01 -0.16154547847E+04  0.16307236695E+04  0.10100000352E+00 0. -1.
       -3    1    3    3    0  502  0.22261300375E+03  0.29941740634E+01 -0.67372108036E+02  0.23260379546E+03  0.10100000352E+00 0.  1.
</event>
<event>
 5   0  0.1358000E-02  0.7851803E+03  0.7818609E-02  0.9581719E-01
        3   -1    0    0  501    0  0.00000000000E+00  0.00000000000E+00  0.11555250425E+04  0.11555250469E+04  0.10100000352E+00 0.  1.
       -3   -1    0    0    0  501  0.00000000000E+00  0.00000000000E+00 -0.13338264616E+03  0.13338268440E+03  0.10100000352E+00 0. -1.
    10030    2    1    2    0    0  0.00000000000E+00  0.00000000000E+00  0.10221423964E+04  0.12889077313E+04  0.78518027322E+03 0.  0.
        2    1    3    3  502    0  0.31497420773E+03  0.48572618418E+02  0.13473512479E+03  0.34600809911E+03  0.25500000920E-02 0. -1.
       -2    1    3    3    0  502 -0.31497420773E+03 -0.48572618418E+02  0.88740727157E+03  0.94289963221E+03  0.25500000920E-02 0.  1.
</event>
<event>
 5   0  0.3467240E-02  0.7970072E+03  0.7818609E-02  0.9564359E-01
       -2   -1    0    0    0  501  0.00000000000E+00  0.00000000000E+00  0.39470819433E+03  0.39470819434E+03  0.25500000920E-02 0.  1.
        2   -1    0    0  501    0  0.00000000000E+00  0.00000000000E+00 -0.40233550207E+03  0.40233550207E+03  0.25500000920E-02 0. -1.
    10030    2    1    2    0    0  0.00000000000E+00  0.00000000000E+00 -0.76273077341E+01  0.79704369641E+03  0.79700720083E+03 0.  0.
        2    1    3    3  502    0 -0.28917439205E+03 -0.57355406281E+02  0.26432853262E+03  0.39595586220E+03  0.25500000920E-02 0.  1.
       -2    1    3    3    0  502  0.28917439205E+03  0.57355406281E+02 -0.27195584036E+03  0.40108783422E+03  0.25500000920E-02 0. -1.
</event>
<event>
 5   0  0.3416160E-02  0.5029356E+03  0.7818609E-02  0.1013016E+00
        2   -1    0    0  501    0  0.00000000000E+00  0.00000000000E+00  0.53203695550E+03  0.53203695551E+03  0.25500000920E-02 0. -1.
       -2   -1    0    0    0  501  0.00000000000E+00  0.00000000000E+00 -0.11885649345E+03  0.11885649347E+03  0.25500000920E-02 0.  1.
    10030    2    1    2    0    0  0.00000000000E+00  0.00000000000E+00  0.41318046205E+03  0.65089344898E+03  0.50293557013E+03 0.  0.
        1    1    3    3  502    0  0.48152894707E+02 -0.18074760970E+03  0.42410496915E+03  0.46352284147E+03  0.50400001928E-02 0. -1.
       -1    1    3    3    0  502 -0.48152894707E+02  0.18074760970E+03 -0.10924507095E+02  0.18737060751E+03  0.50400001928E-02 0.  1.
</event>
<event>
 5   0  0.1989298E-02  0.8005045E+03  0.7818609E-02  0.9559287E-01
       -1   -1    0    0    0  501  0.00000000000E+00  0.00000000000E+00  0.23868864355E+03  0.23868864360E+03  0.50400001928E-02 0.  1.
        1   -1    0    0  501    0  0.00000000000E+00  0.00000000000E+00 -0.67117504430E+03  0.67117504431E+03  0.50400001928E-02 0. -1.
    10030    2    1    2    0    0  0.00000000000E+00  0.00000000000E+00 -0.43248640075E+03  0.90986368792E+03  0.80050449328E+03 0.  0.
        1    1    3    3  502    0 -0.36729659811E+03 -0.14968657605E+03 -0.27733546805E+03  0.48397089158E+03  0.50400001928E-02 0.  1.
       -1    1    3    3    0  502  0.36729659811E+03  0.14968657605E+03 -0.15515093270E+03  0.42589279634E+03  0.50400001928E-02 0. -1.
</event>
<event>
 5   0  0.3343036E-02  0.8005619E+03  0.7818609E-02  0.9559204E-01
       -2   -1    0    0    0  501  0.00000000000E+00  0.00000000000E+00  0.16191298458E+03  0.16191298460E+03  0.25500000920E-02 0. -1.
        2   -1    0    0  501    0  0.00000000000E+00  0.00000000000E+00 -0.98957386254E+03  0.98957386255E+03  0.25500000920E-02 0.  1.
    10030    2    1    2    0    0  0.00000000000E+00  0.00000000000E+00 -0.82766087796E+03  0.11514868471E+04  0.80056194653E+03 0.  0.
        4    1    3    3  502    0  0.32756757857E+03 -0.19496606620E+03 -0.58946777009E+03  0.70198728648E+03  0.12699999809E+01 0.  1.
       -4    1    3    3    0  502 -0.32756757857E+03  0.19496606620E+03 -0.23819310788E+03  0.44949956067E+03  0.12699999809E+01 0. -1.
</event>
<event>
 5   0  0.3343036E-02  0.7934892E+03  0.7818609E-02  0.9569489E-01
       -2   -1    0    0    0  501  0.00000000000E+00  0.00000000000E+00  0.10198102824E+03  0.10198102827E+03  0.25500000920E-02 0.  1.
        2   -1    0    0  501    0  0.00000000000E+00  0.00000000000E+00 -0.15434858795E+04  0.15434858795E+04  0.25500000920E-02 0. -1.
    10030    2    1    2    0    0  0.00000000000E+00  0.00000000000E+00 -0.14415048512E+04  0.16454669078E+04  0.79348919863E+03 0.  0.
        4    1    3    3  502    0 -0.45612310849E+02 -0.22538336030E+03 -0.50310162139E+02  0.23539513018E+03  0.12699999809E+01 0.  1.
       -4    1    3    3    0  502  0.45612310849E+02  0.22538336030E+03 -0.13911946891E+04  0.14100717776E+04  0.12699999809E+01 0. -1.
</event>
<event>
 5   0  0.3404132E-02  0.8277593E+03  0.7818609E-02  0.9520684E-01
       -2   -1    0    0    0  501  0.00000000000E+00  0.00000000000E+00  0.14424961660E+03  0.14424961662E+03  0.25500000920E-02 0.  1.
        2   -1    0    0  501    0  0.00000000000E+00  0.00000000000E+00 -0.11874996221E+04  0.11874996221E+04  0.25500000920E-02 0. -1.
    10030    2    1    2    0    0  0.00000000000E+00  0.00000000000E+00 -0.10432500055E+04  0.13317492387E+04  0.82775930126E+03 0.  0.
        5    1    3    3  502    0 -0.25863076054E+03  0.23880570314E+03 -0.87173700488E+03  0.94014122865E+03  0.46999998093E+01 0.  1.
       -5    1    3    3    0  502  0.25863076054E+03 -0.23880570314E+03 -0.17151300058E+03  0.39160801002E+03  0.46999998093E+01 0. -1.
</event>
<event>
 5   0  0.2132540E-02  0.7997538E+03  0.7818609E-02  0.9560374E-01
       -1   -1    0    0    0  501  0.00000000000E+00  0.00000000000E+00  0.31290277191E+03  0.31290277195E+03  0.50400001928E-02 0.  1.
        1   -1    0    0  501    0  0.00000000000E+00  0.00000000000E+00 -0.51102628245E+03  0.51102628247E+03  0.50400001928E-02 0. -1.
    10030    2    1    2    0    0  0.00000000000E+00  0.00000000000E+00 -0.19812351054E+03  0.82392905442E+03  0.79975381292E+03 0.  0.
        4    1    3    3  502    0 -0.13387572420E+02 -0.39903644569E+03 -0.12188114672E+03  0.41745172045E+03  0.12699999809E+01 0.  1.
       -4    1    3    3    0  502  0.13387572420E+02  0.39903644569E+03 -0.76242363828E+02  0.40647733397E+03  0.12699999809E+01 0. -1.
</event>
<event>
 5   0  0.2063692E-02  0.8137555E+03  0.7818609E-02  0.9540317E-01
       -1   -1    0    0    0  501  0.00000000000E+00  0.00000000000E+00  0.19190621147E+03  0.19190621154E+03  0.50400001928E-02 0. -1.
        1   -1    0    0  501    0  0.00000000000E+00  0.00000000000E+00 -0.86265832107E+03  0.86265832109E+03  0.50400001928E-02 0.  1.
    10030    2    1    2    0    0  0.00000000000E+00  0.00000000000E+00 -0.67075210960E+03  0.10545645326E+04  0.81375546753E+03 0.  0.
        2    1    3    3  502    0  0.25266240544E+02  0.66585028296E+02  0.18376619195E+03  0.19708364269E+03  0.25500000920E-02 0. -1.
       -2    1    3    3    0  502 -0.25266240544E+02 -0.66585028296E+02 -0.85451830156E+03  0.85748088994E+03  0.25500000920E-02 0.  1.
</event>
<event>
 5   0  0.3550586E-02  0.8127695E+03  0.7818609E-02  0.9541716E-01
        2   -1    0    0  501    0  0.00000000000E+00  0.00000000000E+00  0.16378969236E+04  0.16378969236E+04  0.25500000920E-02 0. -1.
       -2   -1    0    0    0  501  0.00000000000E+00  0.00000000000E+00 -0.10082964626E+03  0.10082964629E+03  0.25500000920E-02 0.  1.
    10030    2    1    2    0    0  0.00000000000E+00  0.00000000000E+00  0.15370672774E+04  0.17387265699E+04  0.81276950595E+03 0.  0.
        3    1    3    3  502    0  0.78796395679E+02  0.26058853796E+03  0.12308151978E+03  0.29877136543E+03  0.10100000352E+00 0.  1.
       -3    1    3    3    0  502 -0.78796395679E+02 -0.26058853796E+03  0.14139857576E+04  0.14399552045E+04  0.10100000352E+00 0. -1.
</event>
<event>
 5   0  0.3343036E-02  0.9130373E+03  0.7818609E-02  0.9409429E-01
        2   -1    0    0  501    0  0.00000000000E+00  0.00000000000E+00  0.26898843832E+04  0.26898843832E+04  0.25500000920E-02 0.  1.
       -2   -1    0    0    0  501  0.00000000000E+00  0.00000000000E+00 -0.77478900530E+02  0.77478900572E+02  0.25500000920E-02 0. -1.
    10030    2    1    2    0    0  0.00000000000E+00  0.00000000000E+00  0.26124054826E+04  0.27673632837E+04  0.91303731494E+03 0.  0.
        4    1    3    3  502    0 -0.33898410815E+03  0.29565386377E+03  0.10697457561E+04  0.11604650052E+04  0.12699999809E+01 0. -1.
       -4    1    3    3    0  502  0.33898410815E+03 -0.29565386377E+03  0.15426597266E+04  0.16068982785E+04  0.12699999809E+01 0.  1.
</event>
<event>
 5   0  0.3343036E-02  0.1020095E+04  0.7818609E-02  0.9286775E-01
       -2   -1    0    0    0  501  0.00000000000E+00  0.00000000000E+00  0.30482423267E+03  0.30482423268E+03  0.25500000920E-02 0. -1.
        2   -1    0    0  501    0  0.00000000000E+00  0.00000000000E+00 -0.85343805789E+03  0.85343805790E+03  0.25500000920E-02 0.  1.
    10030    2    1    2    0    0  0.00000000000E+00  0.00000000000E+00 -0.54861382522E+03  0.11582622906E+04  0.10200952919E+04 0.  0.
        4    1    3    3  502    0  0.16534071406E+02 -0.75576463487E+02  0.29812168493E+03  0.30799891116E+03  0.12699999809E+01 0. -1.
       -4    1    3    3    0  502 -0.16534071406E+02  0.75576463487E+02 -0.84673551015E+03  0.85026337943E+03  0.12699999809E+01 0.  1.
</event>
<event>
 5   0  0.2129257E-02  0.7497617E+03  0.7818609E-02  0.9635724E-01
       -1   -1    0    0    0  501  0.00000000000E+00  0.00000000000E+00  0.16095232992E+03  0.16095233000E+03  0.50400001928E-02 0.  1.
        1   -1    0    0  501    0  0.00000000000E+00  0.00000000000E+00 -0.87315084273E+03  0.87315084274E+03  0.50400001928E-02 0. -1.
    10030    2    1    2    0    0  0.00000000000E+00  0.00000000000E+00 -0.71219851281E+03  0.10341031727E+04  0.74976172898E+03 0.  0.
        3    1    3    3  502    0  0.24363996457E+03  0.28023964829E+03 -0.28521962066E+03  0.46823598219E+03  0.10100000352E+00 0.  1.
       -3    1    3    3    0  502 -0.24363996457E+03 -0.28023964829E+03 -0.42697889215E+03  0.56586719056E+03  0.10100000352E+00 0. -1.
</event>
<event>
 5   0  0.1989298E-02  0.8240193E+03  0.7818609E-02  0.9525886E-01
        1   -1    0    0  501    0  0.00000000000E+00  0.00000000000E+00  0.15279289511E+04  0.15279289511E+04  0.50400001928E-02 0.  1.
       -1   -1    0    0    0  501  0.00000000000E+00  0.00000000000E+00 -0.11109938702E+03  0.11109938713E+03  0.50400001928E-02 0. -1.
    10030    2    1    2    0    0  0.00000000000E+00  0.00000000000E+00  0.14168295641E+04  0.16390283382E+04  0.82401934437E+03 0.  0.
        1    1    3    3  502    0 -0.55921114431E+02 -0.68352831644E+01 -0.10340191319E+03  0.11775333461E+03  0.50400001928E-02 0. -1.
       -1    1    3    3    0  502  0.55921114431E+02  0.68352831644E+01  0.15202314773E+04  0.15212750036E+04  0.50400001928E-02 0.  1.
</event>
<event>
 5   0  0.2063692E-02  0.8002245E+03  0.7818609E-02  0.9559692E-01
       -1   -1    0    0    0  501  0.00000000000E+00  0.00000000000E+00  0.21196949552E+03  0.21196949558E+03  0.50400001928E-02 0. -1.
        1   -1    0    0  501    0  0.00000000000E+00  0.00000000000E+00 -0.75524922150E+03  0.75524922151E+03  0.50400001928E-02 0.  1.
    10030    2    1    2    0    0  0.00000000000E+00  0.00000000000E+00 -0.54327972597E+03  0.96721871710E+03  0.80022445979E+03 0.  0.
        2    1    3    3  502    0 -0.17447305907E+03  0.18800852257E+03 -0.64280974735E+03  0.69209278582E+03  0.25500000920E-02 0.  1.
       -2    1    3    3    0  502  0.17447305907E+03 -0.18800852257E+03  0.99530021371E+02  0.27512593127E+03  0.25500000920E-02 0. -1.
</event>
<event>
 5   0  0.3416160E-02  0.7990708E+03  0.7818609E-02  0.9561363E-01
       -2   -1    0    0    0  501  0.00000000000E+00  0.00000000000E+00  0.11735464932E+03  0.11735464935E+03  0.25500000920E-02 0. -1.
        2   -1    0    0  501    0  0.00000000000E+00  0.00000000000E+00 -0.13602233552E+04  0.13602233552E+04  0.25500000920E-02 0.  1.
    10030    2    1    2    0    0  0.00000000000E+00  0.00000000000E+00 -0.12428687059E+04  0.14775780045E+04  0.79907079754E+03 0.  0.
        1    1    3    3  502    0 -0.14193811626E+03 -0.60978021359E+02 -0.13027637533E+04  0.13118910568E+04  0.50400001928E-02 0.  1.
       -1    1    3    3    0  502  0.14193811626E+03  0.60978021359E+02  0.59895047411E+02  0.16568694778E+03  0.50400001928E-02 0. -1.
</event>
<event>
 5   0  0.3343036E-02  0.7837084E+03  0.7818609E-02  0.9583903E-01
        2   -1    0    0  501    0  0.00000000000E+00  0.00000000000E+00  0.15038450889E+04  0.15038450889E+04  0.25500000920E-02 0.  1.
       -2   -1    0    0    0  501  0.00000000000E+00  0.00000000000E+00 -0.10210473927E+03  0.10210473930E+03  0.25500000920E-02 0. -1.
    10030    2    1    2    0    0  0.00000000000E+00  0.00000000000E+00  0.14017403496E+04  0.16059498282E+04  0.78370839150E+03 0.  0.
        4    1    3    3  502    0  0.12950298344E+03 -0.23148965360E+03  0.10983676062E+03  0.28709616738E+03  0.12699999809E+01 0. -1.
       -4    1    3    3    0  502 -0.12950298344E+03  0.23148965360E+03  0.12919035890E+04  0.13188536608E+04  0.12699999809E+01 0.  1.
</event>
<event>
 5   0  0.2077795E-02  0.8236723E+03  0.7818609E-02  0.9526371E-01
       -1   -1    0    0    0  501  0.00000000000E+00  0.00000000000E+00  0.53644447258E+03  0.53644447261E+03  0.50400001928E-02 0.  1.
        1   -1    0    0  501    0  0.00000000000E+00  0.00000000000E+00 -0.31617255851E+03  0.31617255855E+03  0.50400001928E-02 0. -1.
    10030    2    1    2    0    0  0.00000000000E+00  0.00000000000E+00  0.22027191407E+03  0.85261703116E+03  0.82367231694E+03 0.  0.
        5    1    3    3  502    0  0.16837420198E+03  0.15404702957E+03 -0.24470244307E+03  0.33463672072E+03  0.46999998093E+01 0. -1.
       -5    1    3    3    0  502 -0.16837420198E+03 -0.15404702957E+03  0.46497435714E+03  0.51798031044E+03  0.46999998093E+01 0.  1.
</event>
<event>
 5   0  0.3416160E-02  0.8063220E+03  0.7818609E-02  0.9550911E-01
       -2   -1    0    0    0  501  0.00000000000E+00  0.00000000000E+00  0.41026693186E+03  0.41026693187E+03  0.25500000920E-02 0.  1.
        2   -1    0    0  501    0  0.00000000000E+00  0.00000000000E+00 -0.39617815025E+03  0.39617815026E+03  0.25500000920E-02 0. -1.
    10030    2    1    2    0    0  0.00000000000E+00  0.00000000000E+00  0.14088781608E+02  0.80644508212E+03  0.80632200560E+03 0.  0.
        1    1    3    3  502    0 -0.24652296421E+03 -0.30191379758E+03 -0.95992114160E+02  0.40142246955E+03  0.50400001928E-02 0. -1.
       -1    1    3    3    0  502  0.24652296421E+03  0.30191379758E+03  0.11008089577E+03  0.40502261257E+03  0.50400001928E-02 0.  1.
</event>
<event>
 5   0  0.1989298E-02  0.8172001E+03  0.7818609E-02  0.9535449E-01
       -1   -1    0    0    0  501  0.00000000000E+00  0.00000000000E+00  0.27666543826E+03  0.27666543831E+03  0.50400001928E-02 0.  1.
        1   -1    0    0  501    0  0.00000000000E+00  0.00000000000E+00 -0.60345094836E+03  0.60345094838E+03  0.50400001928E-02 0. -1.
    10030    2    1    2    0    0  0.00000000000E+00  0.00000000000E+00 -0.32678551010E+03  0.88011638669E+03  0.81720014960E+03 0.  0.
        1    1    3    3  502    0  0.28803450471E+03  0.28259841822E+03 -0.94194331417E+02  0.41436495265E+03  0.50400001928E-02 0.  1.
       -1    1    3    3    0  502 -0.28803450471E+03 -0.28259841822E+03 -0.23259117868E+03  0.46575143404E+03  0.50400001928E-02 0. -1.
</event>
<event>
 5   0  0.2077795E-02  0.8025271E+03  0.7818609E-02  0.9556366E-01
        1   -1    0    0  501    0  0.00000000000E+00  0.00000000000E+00  0.33675868748E+03  0.33675868752E+03  0.50400001928E-02 0.  1.
       -1   -1    0    0    0  501  0.00000000000E+00  0.00000000000E+00 -0.47812413427E+03  0.47812413429E+03  0.50400001928E-02 0. -1.
    10030    2    1    2    0    0  0.00000000000E+00  0.00000000000E+00 -0.14136544679E+03  0.81488282181E+03  0.80252714829E+03 0.  0.
        5    1    3    3  502    0  0.16588241736E+03 -0.23332604663E+03 -0.35613786204E+03  0.45696201943E+03  0.46999998093E+01 0. -1.
       -5    1    3    3    0  502 -0.16588241736E+03  0.23332604663E+03  0.21477241525E+03  0.35792080238E+03  0.46999998093E+01 0.  1.
</event>
<event>
 5   0  0.2077795E-02  0.7950063E+03  0.7818609E-02  0.9567273E-01
        1   -1    0    0  501    0  0.00000000000E+00  0.00000000000E+00  0.74618960912E+03  0.74618960914E+03  0.50400001928E-02 0. -1.
       -1   -1    0    0    0  501  0.00000000000E+00  0.00000000000E+00 -0.21175418265E+03  0.21175418271E+03  0.50400001928E-02 0.  1.
    10030    2    1    2    0    0  0.00000000000E+00  0.00000000000E+00  0.53443542647E+03  0.95794379185E+03  0.79500634165E+03 0.  0.
        5    1    3    3  502    0 -0.32246526905E+03  0.22920953754E+03  0.31335049088E+03  0.50470930443E+03  0.46999998093E+01 0.  1.
       -5    1    3    3    0  502  0.32246526905E+03 -0.22920953754E+03  0.22108493559E+03  0.45323448742E+03  0.46999998093E+01 0. -1.
</event>
<event>
 5   0  0.3404132E-02  0.7696310E+03  0.7818609E-02  0.9605046E-01
        2   -1    0    0  501    0  0.00000000000E+00  0.00000000000E+00  0.82382625425E+03  0.82382625425E+03  0.25500000920E-02 0. -1.
       -2   -1    0    0    0  501  0.00000000000E+00  0.00000000000E+00 -0.17975026472E+03  0.17975026474E+03  0.25500000920E-02 0.  1.
    10030    2    1    2    0    0  0.00000000000E+00  0.00000000000E+00  0.64407598953E+03  0.10035765190E+04  0.76963104743E+03 0.  0.
        5    1    3    3  502    0 -0.21141304838E+03  0.12930546179E+03  0.70586980398E+03  0.74812408706E+03  0.46999998093E+01 0. -1.
       -5    1    3    3    0  502  0.21141304838E+03 -0.12930546179E+03 -0.61793814449E+02  0.25545243193E+03  0.46999998093E+01 0.  1.
</event>
<event>
 5   0  0.3404132E-02  0.7853948E+03  0.7818609E-02  0.9581401E-01
       -2   -1    0    0    0  501  0.00000000000E+00  0.00000000000E+00  0.10096898298E+03  0.10096898301E+03  0.25500000920E-02 0.  1.
        2   -1    0    0  501    0  0.00000000000E+00  0.00000000000E+00 -0.15273130357E+04  0.15273130357E+04  0.25500000920E-02 0. -1.
    10030    2    1    2    0    0  0.00000000000E+00  0.00000000000E+00 -0.14263440527E+04  0.16282820187E+04  0.78539478972E+03 0.  0.
        5    1    3    3  502    0  0.21784169565E+03  0.32012567700E+03 -0.57795696649E+03  0.69569519084E+03  0.46999998093E+01 0. -1.
       -5    1    3    3    0  502 -0.21784169565E+03 -0.32012567700E+03 -0.84838708625E+03  0.93258682789E+03  0.46999998093E+01 0.  1.
</event>
<event>
 5   0  0.3343036E-02  0.7981847E+03  0.7818609E-02  0.9562648E-01
        2   -1    0    0  501    0  0.00000000000E+00  0.00000000000E+00  0.25378132555E+03  0.25378132556E+03  0.25500000920E-02 0. -1.
       -2   -1    0    0    0  501  0.00000000000E+00  0.00000000000E+00 -0.62760611040E+03  0.62760611041E+03  0.25500000920E-02 0.  1.
    10030    2    1    2    0    0  0.00000000000E+00  0.00000000000E+00 -0.37382478485E+03  0.88138743597E+03  0.79818471704E+03 0.  0.
        4    1    3    3  502    0 -0.93914458819E+02 -0.20466140129E+03 -0.55075380739E+03  0.59501057470E+03  0.12699999809E+01 0.  1.
       -4    1    3    3    0  502  0.93914458819E+02  0.20466140129E+03  0.17692902254E+03  0.28637686127E+03  0.12699999809E+01 0. -1.
</event>
<event>
 5   0  0.1989298E-02  0.7764389E+03  0.7818609E-02  0.9594761E-01
       -1   -1    0    0    0  501  0.00000000000E+00  0.00000000000E+00  0.10168311714E+03  0.10168311727E+03  0.50400001928E-02 0. -1.
        1   -1    0    0  501    0  0.00000000000E+00  0.00000000000E+00 -0.14821963659E+04  0.14821963659E+04  0.50400001928E-02 0.  1.
    10030    2    1    2    0    0  0.00000000000E+00  0.00000000000E+00 -0.13805132488E+04  0.15838794832E+04  0.77643891404E+03 0.  0.
        1    1    3    3  502    0 -0.36765742347E+03 -0.58174615989E+02 -0.91518659914E+03  0.98798926019E+03  0.50400001928E-02 0.  1.
       -1    1    3    3    0  502  0.36765742347E+03  0.58174615989E+02 -0.46532664961E+03  0.59589022298E+03  0.50400001928E-02 0. -1.
</event>
<event>
 5   0  0.3404132E-02  0.7988218E+03  0.7818609E-02  0.9561724E-01
        2   -1    0    0  501    0  0.00000000000E+00  0.00000000000E+00  0.10220815867E+04  0.10220815867E+04  0.25500000920E-02 0.  1.
       -2   -1    0    0    0  501  0.00000000000E+00  0.00000000000E+00 -0.15608252911E+03  0.15608252913E+03  0.25500000920E-02 0. -1.
    10030    2    1    2    0    0  0.00000000000E+00  0.00000000000E+00  0.86599905755E+03  0.11781641158E+04  0.79882183000E+03 0.  0.
        5    1    3    3  502    0  0.87294681949E+02 -0.33170853686E+03  0.73474107530E+03  0.81087449871E+03  0.46999998093E+01 0.  1.
       -5    1    3    3    0  502 -0.87294681949E+02  0.33170853686E+03  0.13125798225E+03  0.36728961709E+03  0.46999998093E+01 0. -1.
</event>
<event>
 5   0  0.2077795E-02  0.8074019E+03  0.7818609E-02  0.9549364E-01
        1   -1    0    0  501    0  0.00000000000E+00  0.00000000000E+00  0.36150408030E+03  0.36150408034E+03  0.50400001928E-02 0. -1.
       -1   -1    0    0    0  501  0.00000000000E+00  0.00000000000E+00 -0.45082332203E+03  0.45082332206E+03  0.50400001928E-02 0.  1.
    10030    2    1    2    0    0  0.00000000000E+00  0.00000000000E+00 -0.89319241724E+02  0.81232740239E+03  0.80740193320E+03 0.  0.
        5    1    3    3  502    0 -0.21285451230E+03 -0.34116711393E+03 -0.80235441783E+02  0.41007543105E+03  0.46999998093E+01 0. -1.
       -5    1    3    3    0  502  0.21285451230E+03  0.34116711393E+03 -0.90837999415E+01  0.40225197135E+03  0.46999998093E+01 0.  1.
</event>
<event>
 5   0  0.3550586E-02  0.8133753E+03  0.7818609E-02  0.9540856E-01
       -2   -1    0    0    0  501  0.00000000000E+00  0.00000000000E+00  0.30208750686E+03  0.30208750687E+03  0.25500000920E-02 0.  1.
        2   -1    0    0  501    0  0.00000000000E+00  0.00000000000E+00 -0.54750638299E+03  0.54750638300E+03  0.25500000920E-02 0. -1.
    10030    2    1    2    0    0  0.00000000000E+00  0.00000000000E+00 -0.24541887614E+03  0.84959388986E+03  0.81337528419E+03 0.  0.
        3    1    3    3  502    0  0.37760487274E+03 -0.37858855299E+02  0.30006581616E+02  0.38068246345E+03  0.10100000352E+00 0.  1.
       -3    1    3    3    0  502 -0.37760487274E+03  0.37858855299E+02 -0.27542545775E+03  0.46891142641E+03  0.10100000352E+00 0. -1.
</event>
<event>
 5   0  0.3404132E-02  0.8107107E+03  0.7818609E-02  0.9544642E-01
        2   -1    0    0  501    0  0.00000000000E+00  0.00000000000E+00  0.10803050999E+04  0.10803051000E+04  0.25500000920E-02 0. -1.
       -2   -1    0    0    0  501  0.00000000000E+00  0.00000000000E+00 -0.15209865088E+03  0.15209865090E+03  0.25500000920E-02 0.  1.
    10030    2    1    2    0    0  0.00000000000E+00  0.00000000000E+00  0.92820644907E+03  0.12324037509E+04  0.81071067158E+03 0.  0.
        5    1    3    3  502    0 -0.40007193831E+03  0.74475023677E+01  0.56236008310E+03  0.69020574772E+03  0.46999998093E+01 0.  1.
       -5    1    3    3    0  502  0.40007193831E+03 -0.74475023677E+01  0.36584636597E+03  0.54219800314E+03  0.46999998093E+01 0. -1.
</event>
<event>
 5   0  0.2132540E-02  0.7966778E+03  0.7818609E-02  0.9564838E-01
       -1   -1    0    0    0  501  0.00000000000E+00  0.00000000000E+00  0.31840125477E+03  0.31840125481E+03  0.50400001928E-02 0.  1.
        1   -1    0    0  501    0  0.00000000000E+00  0.00000000000E+00 -0.49834568147E+03  0.49834568149E+03  0.50400001928E-02 0. -1.
    10030    2    1    2    0    0  0.00000000000E+00  0.00000000000E+00 -0.17994442670E+03  0.81674693630E+03  0.79667782777E+03 0.  0.
        4    1    3    3  502    0 -0.64219045209E+02 -0.23939623130E+03 -0.40965700764E+03  0.47880592951E+03  0.12699999809E+01 0. -1.
       -4    1    3    3    0  502  0.64219045209E+02  0.23939623130E+03  0.22971258094E+03  0.33794100679E+03  0.12699999809E+01 0.  1.
</event>
<event>
 5   0  0.3550586E-02  0.6227811E+03  0.7818609E-02  0.9859238E-01
        2   -1    0    0  501    0  0.00000000000E+00  0.00000000000E+00  0.54743730991E+03  0.54743730992E+03  0.25500000920E-02 0. -1.
       -2   -1    0    0    0  501  0.00000000000E+00  0.00000000000E+00 -0.17712362066E+03  0.17712362068E+03  0.25500000920E-02 0.  1.
    10030    2    1    2    0    0  0.00000000000E+00  0.00000000000E+00  0.37031368924E+03  0.72456093060E+03  0.62278111220E+03 0.  0.
        3    1    3    3  502    0 -0.62045511272E+02 -0.41006382384E+02 -0.16663901641E+03  0.18248216586E+03  0.10100000352E+00 0.  1.
       -3    1    3    3    0  502  0.62045511272E+02  0.41006382384E+02  0.53695270566E+03  0.54207876474E+03  0.10100000352E+00 0. -1.
</event>
<event>
 5   0  0.3467240E-02  0.8101377E+03  0.7818609E-02  0.9545458E-01
       -2   -1    0    0    0  501  0.00000000000E+00  0.00000000000E+00  0.68737339405E+02  0.68737339452E+02  0.25500000920E-02 0.  1.
        2   -1    0    0  501    0  0.00000000000E+00  0.00000000000E+00 -0.23870691267E+04  0.23870691267E+04  0.25500000920E-02 0. -1.
    10030    2    1    2    0    0  0.00000000000E+00  0.00000000000E+00 -0.23183317873E+04  0.24558064662E+04  0.81013771868E+03 0.  0.
        2    1    3    3  502    0 -0.56822019346E+02  0.54540141176E+02 -0.23636339458E+04  0.23649458342E+04  0.25500000920E-02 0. -1.
       -2    1    3    3    0  502  0.56822019346E+02 -0.54540141176E+02  0.45302158461E+02  0.90860632013E+02  0.25500000920E-02 0.  1.
</event>
<event>
 5   0  0.3343036E-02  0.7960027E+03  0.7818609E-02  0.9565821E-01
        2   -1    0    0  501    0  0.00000000000E+00  0.00000000000E+00  0.12612082171E+04  0.12612082171E+04  0.25500000920E-02 0.  1.
       -2   -1    0    0    0  501  0.00000000000E+00  0.00000000000E+00 -0.12559789110E+03  0.12559789113E+03  0.25500000920E-02 0. -1.
    10030    2    1    2    0    0  0.00000000000E+00  0.00000000000E+00  0.11356103260E+04  0.13868061082E+04  0.79600274454E+03 0.  0.
        4    1    3    3  502    0 -0.32644642367E+03  0.19869581972E+03  0.37414363740E+03  0.53481994223E+03  0.12699999809E+01 0. -1.
       -4    1    3    3    0  502  0.32644642367E+03 -0.19869581972E+03  0.76146668861E+03  0.85198616601E+03  0.12699999809E+01 0.  1.
</event>
<event>
 5   0  0.3404132E-02  0.8071674E+03  0.7818609E-02  0.9549700E-01
       -2   -1    0    0    0  501  0.00000000000E+00  0.00000000000E+00  0.12267127649E+03  0.12267127652E+03  0.25500000920E-02 0. -1.
        2   -1    0    0  501    0  0.00000000000E+00  0.00000000000E+00 -0.13277746048E+04  0.13277746048E+04  0.25500000920E-02 0.  1.
    10030    2    1    2    0    0  0.00000000000E+00  0.00000000000E+00 -0.12051033283E+04  0.14504458813E+04  0.80716740688E+03 0.  0.
        5    1    3    3  502    0 -0.23745879710E+03 -0.15418347198E+03 -0.11193090686E+04  0.11545709612E+04  0.46999998093E+01 0.  1.
       -5    1    3    3    0  502  0.23745879710E+03  0.15418347198E+03 -0.85794259669E+02  0.29587492010E+03  0.46999998093E+01 0. -1.
</event>
<event>
 5   0  0.3416160E-02  0.5300877E+03  0.7818609E-02  0.1006211E+00
        2   -1    0    0  501    0  0.00000000000E+00  0.00000000000E+00  0.25809470001E+03  0.25809470002E+03  0.25500000920E-02 0.  1.
       -2   -1    0    0    0  501  0.00000000000E+00  0.00000000000E+00 -0.27218014343E+03  0.27218014344E+03  0.25500000920E-02 0. -1.
    10030    2    1    2    0    0  0.00000000000E+00  0.00000000000E+00 -0.14085443418E+02  0.53027484346E+03  0.53008773792E+03 0.  0.
        1    1    3    3  502    0 -0.15663591914E+02 -0.25629254778E+03 -0.72770055445E+02  0.26688330625E+03  0.50400001928E-02 0.  1.
       -1    1    3    3    0  502  0.15663591914E+02  0.25629254778E+03  0.58684612027E+02  0.26339153721E+03  0.50400001928E-02 0. -1.
</event>
<event>
 5   0  0.3416160E-02  0.8099193E+03  0.7818609E-02  0.9545769E-01
       -2   -1    0    0    0  501  0.00000000000E+00  0.00000000000E+00  0.13671460348E+03  0.13671460350E+03  0.25500000920E-02 0.  1.
        2   -1    0    0  501    0  0.00000000000E+00  0.00000000000E+00 -0.11995230352E+04  0.11995230352E+04  0.25500000920E-02 0. -1.
    10030    2    1    2    0    0  0.00000000000E+00  0.00000000000E+00 -0.10628084317E+04  0.13362376387E+04  0.80991929507E+03 0.  0.
        1    1    3    3  502    0  0.64395497790E+02 -0.35821240221E+02  0.12556047082E+03  0.14558630857E+03  0.50400001928E-02 0.  1.
       -1    1    3    3    0  502 -0.64395497790E+02  0.35821240221E+02 -0.11883689025E+04  0.11906513301E+04  0.50400001928E-02 0. -1.
</event>
<event>
 5   0  0.1989298E-02  0.8002177E+03  0.7818609E-02  0.9559702E-01
       -1   -1    0    0    0  501  0.00000000000E+00  0.00000000000E+00  0.73889073671E+02  0.73889073843E+02  0.50400001928E-02 0. -1.
        1   -1    0    0  501    0  0.00000000000E+00  0.00000000000E+00 -0.21665866701E+04  0.21665866701E+04  0.50400001928E-02 0.  1.
    10030    2    1    2    0    0  0.00000000000E+00  0.00000000000E+00 -0.20926975964E+04  0.22404757439E+04  0.80021767608E+03 0.  0.
        1    1    3    3  502    0 -0.21031782000E+03  0.30779097335E+03 -0.63947408952E+03  0.74019995938E+03  0.50400001928E-02 0.  1.
       -1    1    3    3    0  502  0.21031782000E+03 -0.30779097335E+03 -0.14532235069E+04  0.15002757845E+04  0.50400001928E-02 0. -1.
</event>
<event>
 5   0  0.2063692E-02  0.8031445E+03  0.7818609E-02  0.9555477E-01
        1   -1    0    0  501    0  0.00000000000E+00  0.00000000000E+00  0.10537637869E+04  0.10537637869E+04  0.50400001928E-02 0. -1.
       -1   -1    0    0    0  501  0.00000000000E+00  0.00000000000E+00 -0.15303263862E+03  0.15303263870E+03  0.50400001928E-02 0.  1.
    10030    2    1    2    0    0  0.00000000000E+00  0.00000000000E+00  0.90073114830E+03  0.12067964256E+04  0.80314445240E+03 0.  0.
        2    1    3    3  502    0  0.73802255892E+02 -0.32118088205E+03  0.79516426409E+03  0.86074975391E+03  0.25500000920E-02 0. -1.
       -2    1    3    3    0  502 -0.73802255892E+02  0.32118088205E+03  0.10556688422E+03  0.34604667173E+03  0.25500000920E-02 0.  1.
</event>
<event>
 5   0  0.3416160E-02  0.8105372E+03  0.7818609E-02  0.9544889E-01
        2   -1    0    0  501    0  0.00000000000E+00  0.00000000000E+00  0.95727657707E+03  0.95727657707E+03  0.25500000920E-02 0.  1.
       -2   -1    0    0    0  501  0.00000000000E+00  0.00000000000E+00 -0.17157282342E+03  0.17157282344E+03  0.25500000920E-02 0. -1.
    10030    2    1    2    0    0  0.00000000000E+00  0.00000000000E+00  0.78570375365E+03  0.11288494005E+04  0.81053721724E+03 0.  0.
        1    1    3    3  502    0 -0.17757542971E+03  0.20068646545E+03 -0.30576755501E+02  0.26970915568E+03  0.50400001928E-02 0. -1.
       -1    1    3    3    0  502  0.17757542971E+03 -0.20068646545E+03  0.81628050915E+03  0.85914024483E+03  0.50400001928E-02 0.  1.
</event>
<event>
 5   0  0.2129257E-02  0.8039012E+03  0.7818609E-02  0.9554387E-01
        1   -1    0    0  501    0  0.00000000000E+00  0.00000000000E+00  0.36392020227E+03  0.36392020231E+03  0.50400001928E-02 0.  1.
       -1   -1    0    0    0  501  0.00000000000E+00  0.00000000000E+00 -0.44395527574E+03  0.44395527577E+03  0.50400001928E-02 0. -1.
    10030    2    1    2    0    0  0.00000000000E+00  0.00000000000E+00 -0.80035073464E+02  0.80787547808E+03  0.80390122222E+03 0.  0.
        3    1    3    3  502    0  0.32014808209E+03 -0.19667934149E+03 -0.18350550201E+03  0.41815288748E+03  0.10100000352E+00 0.  1.
       -3    1    3    3    0  502 -0.32014808209E+03  0.19667934149E+03  0.10347042854E+03  0.38972259060E+03  0.10100000352E+00 0. -1.
</event>
<event>
 5   0  0.3404132E-02  0.7990820E+03  0.7818609E-02  0.9561347E-01
       -2   -1    0    0    0  501  0.00000000000E+00  0.00000000000E+00  0.20170471605E+03  0.20170471607E+03  0.25500000920E-02 0. -1.
        2   -1    0    0  501    0  0.00000000000E+00  0.00000000000E+00 -0.79141941678E+03  0.79141941679E+03  0.25500000920E-02 0.  1.
    10030    2    1    2    0    0  0.00000000000E+00  0.00000000000E+00 -0.58971470073E+03  0.99312413286E+03  0.79908204523E+03 0.  0.
        5    1    3    3  502    0  0.28541962619E+03 -0.21762803501E+03 -0.51291886277E+03  0.62604646347E+03  0.46999998093E+01 0.  1.
       -5    1    3    3    0  502 -0.28541962619E+03  0.21762803501E+03 -0.76795837956E+02  0.36707766939E+03  0.46999998093E+01 0. -1.
</event>
<event>
 5   0  0.2129257E-02  0.7940428E+03  0.7818609E-02  0.9568680E-01
        1   -1    0    0  501    0  0.00000000000E+00  0.00000000000E+00  0.14348921521E+04  0.14348921522E+04  0.50400001928E-02 0.  1.
       -1   -1    0    0    0  501  0.00000000000E+00  0.00000000000E+00 -0.10985214057E+03  0.10985214068E+03  0.50400001928E-02 0. -1.
    10030    2    1    2    0    0  0.00000000000E+00  0.00000000000E+00  0.13250400116E+04  0.15447442928E+04  0.79404275575E+03 0.  0.
        3    1    3    3  502    0 -0.16643260054E+03  0.28046966298E+02 -0.36584816451E+02  0.17269887619E+03  0.10100000352E+00 0. -1.
       -3    1    3    3    0  502  0.16643260054E+03 -0.28046966298E+02  0.13616248280E+04  0.13720454166E+04  0.10100000352E+00 0.  1.
</event>
<event>
 5   0  0.3467240E-02  0.8132456E+03  0.7818609E-02  0.9541040E-01
        2   -1    0    0  501    0  0.00000000000E+00  0.00000000000E+00  0.20606891065E+04  0.20606891065E+04  0.25500000920E-02 0.  1.
       -2   -1    0    0    0  501  0.00000000000E+00  0.00000000000E+00 -0.80236324909E+02  0.80236324950E+02  0.25500000920E-02 0. -1.
    10030    2    1    2    0    0  0.00000000000E+00  0.00000000000E+00  0.19804527816E+04  0.21409254314E+04  0.81324564734E+03 0.  0.
        2    1    3    3  502    0  0.25867866507E+03  0.25187116928E+03  0.49779953561E+03  0.61494561982E+03  0.25500000920E-02 0.  1.
       -2    1    3    3    0  502 -0.25867866507E+03 -0.25187116928E+03  0.14826532459E+04  0.15259798116E+04  0.25500000920E-02 0. -1.
</event>
<event>
 5   0  0.2132540E-02  0.8197431E+03  0.7818609E-02  0.9531871E-01
       -1   -1    0    0    0  501  0.00000000000E+00  0.00000000000E+00  0.82447257283E+02  0.82447257438E+02  0.50400001928E-02 0.  1.
        1   -1    0    0  501    0  0.00000000000E+00  0.00000000000E+00 -0.20376018823E+04  0.20376018823E+04  0.50400001928E-02 0. -1.
    10030    2    1    2    0    0  0.00000000000E+00  0.00000000000E+00 -0.19551546250E+04  0.21200491398E+04  0.81974309830E+03 0.  0.
        4    1    3    3  502    0  0.21587358186E+03 -0.72420696006E+02 -0.18589751789E+04  0.18728685189E+04  0.12699999809E+01 0. -1.
       -4    1    3    3    0  502 -0.21587358186E+03  0.72420696006E+02 -0.96179446139E+02  0.24718062083E+03  0.12699999809E+01 0.  1.
</event>
<event>
 5   0  0.2077795E-02  0.8004906E+03  0.7818609E-02  0.9559307E-01
       -1   -1    0    0    0  501  0.00000000000E+00  0.00000000000E+00  0.27361252127E+03  0.27361252132E+03  0.50400001928E-02 0.  1.
        1   -1    0    0  501    0  0.00000000000E+00  0.00000000000E+00 -0.58548603489E+03  0.58548603491E+03  0.50400001928E-02 0. -1.
    10030    2    1    2    0    0  0.00000000000E+00  0.00000000000E+00 -0.31187351362E+03  0.85909855623E+03  0.80049062506E+03 0.  0.
        5    1    3    3  502    0  0.39840923512E+03  0.20278371183E+02 -0.19043171775E+03  0.44207178161E+03  0.46999998093E+01 0. -1.
       -5    1    3    3    0  502 -0.39840923512E+03 -0.20278371183E+02 -0.12144179587E+03  0.41702677462E+03  0.46999998093E+01 0.  1.
</event>
<event>
 5   0  0.1989298E-02  0.8028592E+03  0.7818609E-02  0.9555888E-01
        1   -1    0    0  501    0  0.00000000000E+00  0.00000000000E+00  0.13471225374E+04  0.13471225375E+04  0.50400001928E-02 0. -1.
       -1   -1    0    0    0  501  0.00000000000E+00  0.00000000000E+00 -0.11962216685E+03  0.11962216696E+03  0.50400001928E-02 0.  1.
    10030    2    1    2    0    0  0.00000000000E+00  0.00000000000E+00  0.12275003706E+04  0.14667447044E+04  0.80285918324E+03 0.  0.
        1    1    3    3  502    0 -0.10064581259E+03 -0.30926357466E+02  0.13214469064E+04  0.13256349217E+04  0.50400001928E-02 0. -1.
       -1    1    3    3    0  502  0.10064581259E+03  0.30926357466E+02 -0.93946535768E+02  0.14110978275E+03  0.50400001928E-02 0.  1.
</event>
<event>
 5   0  0.2063692E-02  0.8212836E+03  0.7818609E-02  0.9529711E-01
       -1   -1    0    0    0  501  0.00000000000E+00  0.00000000000E+00  0.63510004987E+03  0.63510004989E+03  0.50400001928E-02 0.  1.
        1   -1    0    0  501    0  0.00000000000E+00  0.00000000000E+00 -0.26551199479E+03  0.26551199484E+03  0.50400001928E-02 0. -1.
    10030    2    1    2    0    0  0.00000000000E+00  0.00000000000E+00  0.36958805508E+03  0.90061204473E+03  0.82128358358E+03 0.  0.
        2    1    3    3  502    0 -0.27487007609E+03  0.24573894604E+03 -0.13460049749E+02  0.36894764029E+03  0.25500000920E-02 0. -1.
       -2    1    3    3    0  502  0.27487007609E+03 -0.24573894604E+03  0.38304810483E+03  0.53166440444E+03  0.25500000920E-02 0.  1.
</event>
<event>
 5   0  0.3550586E-02  0.8030808E+03  0.7818609E-02  0.9555568E-01
        2   -1    0    0  501    0  0.00000000000E+00  0.00000000000E+00  0.65405777482E+03  0.65405777483E+03  0.25500000920E-02 0.  1.
       -2   -1    0    0    0  501  0.00000000000E+00  0.00000000000E+00 -0.24651446063E+03  0.24651446064E+03  0.25500000920E-02 0. -1.
    10030    2    1    2    0    0  0.00000000000E+00  0.00000000000E+00  0.40754331419E+03  0.90057223547E+03  0.80308081683E+03 0.  0.
        3    1    3    3  502    0 -0.61767173700E+02  0.23754619739E+03 -0.15259847975E+03  0.28901502706E+03  0.10100000352E+00 0. -1.
       -3    1    3    3    0  502  0.61767173700E+02 -0.23754619739E+03  0.56014179394E+03  0.61155720842E+03  0.10100000352E+00 0.  1.
</event>
<event>
 5   0  0.3416160E-02  0.7794938E+03  0.7818609E-02  0.9590183E-01
       -2   -1    0    0    0  501  0.00000000000E+00  0.00000000000E+00  0.22347584483E+03  0.22347584484E+03  0.25500000920E-02 0. -1.
        2   -1    0    0  501    0  0.00000000000E+00  0.00000000000E+00 -0.67972727807E+03  0.67972727807E+03  0.25500000920E-02 0.  1.
    10030    2    1    2    0    0  0.00000000000E+00  0.00000000000E+00 -0.45625143324E+03  0.90320312292E+03  0.77949375297E+03 0.  0.
        1    1    3    3  502    0 -0.81091527069E+02 -0.19845082112E+03 -0.60527310505E+03  0.64211688647E+03  0.50400001928E-02 0.  1.
       -1    1    3    3    0  502  0.81091527069E+02  0.19845082112E+03  0.14902167181E+03  0.26108623645E+03  0.50400001928E-02 0. -1.
</event>
<event>
 5   0  0.2063692E-02  0.8033770E+03  0.7818609E-02  0.9555142E-01
       -1   -1    0    0    0  501  0.00000000000E+00  0.00000000000E+00  0.46851783685E+03  0.46851783688E+03  0.50400001928E-02 0. -1.
        1   -1    0    0  501    0  0.00000000000E+00  0.00000000000E+00 -0.34439173097E+03  0.34439173101E+03  0.50400001928E-02 0.  1.
    10030    2    1    2    0    0  0.00000000000E+00  0.00000000000E+00  0.12412610588E+03  0.81290956789E+03  0.80337704436E+03 0.  0.
        2    1    3    3  502    0 -0.33144804661E+03  0.13946064515E+02  0.29124863473E+03  0.44144996042E+03  0.25500000920E-02 0. -1.
       -2    1    3    3    0  502  0.33144804661E+03 -0.13946064515E+02 -0.16712252885E+03  0.37145960746E+03  0.25500000920E-02 0.  1.
</event>
<event>
 5   0  0.2063692E-02  0.7946786E+03  0.7818609E-02  0.9567752E-01
       -1   -1    0    0    0  501  0.00000000000E+00  0.00000000000E+00  0.43935635064E+03  0.43935635067E+03  0.50400001928E-02 0.  1.
        1   -1    0    0  501    0  0.00000000000E+00  0.00000000000E+00 -0.35934049315E+03  0.35934049319E+03  0.50400001928E-02 0. -1.
    10030    2    1    2    0    0  0.00000000000E+00  0.00000000000E+00  0.80015857494E+02  0.79869684386E+03  0.79467862117E+03 0.  0.
        2    1    3    3  502    0 -0.38502028448E+02  0.17913099686E+03  0.39436437754E+03  0.43484891918E+03  0.25500000920E-02 0.  1.
       -2    1    3    3    0  502  0.38502028448E+02 -0.17913099686E+03 -0.31434852005E+03  0.36384792468E+03  0.25500000920E-02 0. -1.
</event>
<event>
 5   0  0.2129257E-02  0.8049270E+03  0.7818609E-02  0.9552913E-01
        1   -1    0    0  501    0  0.00000000000E+00  0.00000000000E+00  0.28149123348E+03  0.28149123352E+03  0.50400001928E-02 0. -1.
       -1   -1    0    0    0  501  0.00000000000E+00  0.00000000000E+00 -0.57542418899E+03  0.57542418901E+03  0.50400001928E-02 0.  1.
    10030    2    1    2    0    0  0.00000000000E+00  0.00000000000E+00 -0.29393295551E+03  0.85691542253E+03  0.80492698988E+03 0.  0.
        3    1    3    3  502    0  0.38729672022E+03 -0.59596478128E+01 -0.30626041437E+02  0.38855145285E+03  0.10100000352E+00 0. -1.
       -3    1    3    3    0  502 -0.38729672022E+03  0.59596478128E+01 -0.26330691407E+03  0.46836396968E+03  0.10100000352E+00 0.  1.
</event>
<event>
 5   0  0.2132540E-02  0.6424280E+03  0.7818609E-02  0.9821092E-01
        1   -1    0    0  501    0  0.00000000000E+00  0.00000000000E+00  0.40693333429E+03  0.40693333432E+03  0.50400001928E-02 0. -1.
       -1   -1    0    0    0  501  0.00000000000E+00  0.00000000000E+00 -0.25355117046E+03  0.25355117051E+03  0.50400001928E-02 0.  1.
    10030    2    1    2    0    0  0.00000000000E+00  0.00000000000E+00  0.15338216383E+03  0.66048450483E+03  0.64242796712E+03 0.  0.
        4    1    3    3  502    0 -0.18570009378E+03  0.19015412683E+03 -0.10874954216E+03  0.28717798070E+03  0.12699999809E+01 0.  1.
       -4    1    3    3    0  502  0.18570009378E+03 -0.19015412683E+03  0.26213170598E+03  0.37330652413E+03  0.12699999809E+01 0. -1.
</event>
<event>
 5   0  0.3467240E-02  0.7866721E+03  0.7818609E-02  0.9579512E-01
        2   -1    0    0  501    0  0.00000000000E+00  0.00000000000E+00  0.62321987440E+03  0.62321987441E+03  0.25500000920E-02 0. -1.
       -2   -1    0    0    0  501  0.00000000000E+00  0.00000000000E+00 -0.24824822698E+03  0.24824822699E+03  0.25500000920E-02 0.  1.
    10030    2    1    2    0    0  0.00000000000E+00  0.00000000000E+00  0.37497164743E+03  0.87146810140E+03  0.78667205072E+03 0.  0.
        2    1    3    3  502    0  0.15838028035E+03  0.32669872534E+03  0.19858147464E+02  0.36360791571E+03  0.25500000920E-02 0. -1.
       -2    1    3    3    0  502 -0.15838028035E+03 -0.32669872534E+03  0.35511349996E+03  0.50786018569E+03  0.25500000920E-02 0.  1.
</event>
<event>
 5   0  0.3416160E-02  0.8004459E+03  0.7818609E-02  0.9559372E-01
       -2   -1    0    0    0  501  0.00000000000E+00  0.00000000000E+00  0.19030280813E+03  0.19030280814E+03  0.25500000920E-02 0.  1.
        2   -1    0    0  501    0  0.00000000000E+00  0.00000000000E+00 -0.84170276548E+03  0.84170276548E+03  0.25500000920E-02 0. -1.
    10030    2    1    2    0    0  0.00000000000E+00  0.00000000000E+00 -0.65139995735E+03  0.10320055736E+04  0.80044587547E+03 0.  0.
        1    1    3    3  502    0 -0.35927063613E+02  0.30877982462E+03 -0.65069954939E+03  0.72114189838E+03  0.50400001928E-02 0. -1.
       -1    1    3    3    0  502  0.35927063613E+02 -0.30877982462E+03 -0.70040796234E+00  0.31086367525E+03  0.50400001928E-02 0.  1.
</event>
<event>
 5   0  0.1358000E-02  0.8072594E+03  0.7818609E-02  0.9549568E-01
        3   -1    0    0  501    0  0.00000000000E+00  0.00000000000E+00  0.10201984134E+04  0.10201984184E+04  0.10100000352E+00 0.  1.
       -3   -1    0    0    0  501  0.00000000000E+00  0.00000000000E+00 -0.15969140024E+03  0.15969143218E+03  0.10100000352E+00 0. -1.
    10030    2    1    2    0    0  0.00000000000E+00  0.00000000000E+00  0.86050701319E+03  0.11798898506E+04  0.80725940058E+03 0.  0.
        1    1    3    3  502    0 -0.35564654104E+03 -0.13247148020E+03  0.22940305291E+03  0.44346241772E+03  0.50400001928E-02 0. -1.
       -1    1    3    3    0  502  0.35564654104E+03  0.13247148020E+03  0.63110396028E+03  0.73642743290E+03  0.50400001928E-02 0.  1.
</event>
<event>
 5   0  0.1989298E-02  0.8144210E+03  0.7818609E-02  0.9539375E-01
        1   -1    0    0  501    0  0.00000000000E+00  0.00000000000E+00  0.10607303965E+04  0.10607303965E+04  0.50400001928E-02 0.  1.
       -1   -1    0    0    0  501  0.00000000000E+00  0.00000000000E+00 -0.15632660052E+03  0.15632660060E+03  0.50400001928E-02 0. -1.
    10030    2    1    2    0    0  0.00000000000E+00  0.00000000000E+00  0.90440379600E+03  0.12170569971E+04  0.81442096490E+03 0.  0.
        1    1    3    3  502    0  0.52377357878E+02 -0.26152159119E+03 -0.76299023542E+01  0.26682418502E+03  0.50400001928E-02 0. -1.
       -1    1    3    3    0  502 -0.52377357878E+02  0.26152159119E+03  0.91203369836E+03  0.95023281213E+03  0.50400001928E-02 0.  1.
</event>
<event>
 5   0  0.3467240E-02  0.8291368E+03  0.7818609E-02  0.9518775E-01
        2   -1    0    0  501    0  0.00000000000E+00  0.00000000000E+00  0.80880365417E+03  0.80880365418E+03  0.25500000920E-02 0. -1.
       -2   -1    0    0    0  501  0.00000000000E+00  0.00000000000E+00 -0.21249529755E+03  0.21249529757E+03  0.25500000920E-02 0.  1.
    10030    2    1    2    0    0  0.00000000000E+00  0.00000000000E+00  0.59630835662E+03  0.10212989517E+04  0.82913683591E+03 0.  0.
        2    1    3    3  502    0  0.12167903659E+03  0.31843879935E+03  0.75578331504E+01  0.34097826577E+03  0.25500000920E-02 0.  1.
       -2    1    3    3    0  502 -0.12167903659E+03 -0.31843879935E+03  0.58875052347E+03  0.68032068598E+03  0.25500000920E-02 0. -1.
</event>
<event>
 5   0  0.1989298E-02  0.8025025E+03  0.7818609E-02  0.9556402E-01
       -1   -1    0    0    0  501  0.00000000000E+00  0.00000000000E+00  0.34974006269E+03  0.34974006273E+03  0.50400001928E-02 0.  1.
        1   -1    0    0  501    0  0.00000000000E+00  0.00000000000E+00 -0.46034923254E+03  0.46034923257E+03  0.50400001928E-02 0. -1.
    10030    2    1    2    0    0  0.00000000000E+00  0.00000000000E+00 -0.11060916985E+03  0.81008929530E+03  0.80250250959E+03 0.  0.
        1    1    3    3  502    0 -0.42263923925E+02  0.38725637422E+03 -0.15238461711E+03  0.41829990461E+03  0.50400001928E-02 0. -1.
       -1    1    3    3    0  502  0.42263923925E+02 -0.38725637422E+03  0.41775447250E+02  0.39178939069E+03  0.50400001928E-02 0.  1.
</event>
<event>
 5   0  0.3416160E-02  0.7989650E+03  0.7818609E-02  0.9561516E-01
        2   -1    0    0  501    0  0.00000000000E+00  0.00000000000E+00  0.59612451723E+03  0.59612451724E+03  0.25500000920E-02 0. -1.
       -2   -1    0    0    0  501  0.00000000000E+00  0.00000000000E+00 -0.26770627503E+03  0.26770627504E+03  0.25500000920E-02 0.  1.
    10030    2    1    2    0    0  0.00000000000E+00  0.00000000000E+00  0.32841824221E+03  0.86383079228E+03  0.79896501543E+03 0.  0.
        1    1    3    3  502    0 -0.26841859029E+03 -0.28303804693E+03  0.71031111726E+02  0.39649021991E+03  0.50400001928E-02 0.  1.
       -1    1    3    3    0  502  0.26841859029E+03  0.28303804693E+03  0.25738713048E+03  0.46734057237E+03  0.50400001928E-02 0. -1.
</event>
<event>
 5   0  0.2129257E-02  0.8034756E+03  0.7818609E-02  0.9555000E-01
        1   -1    0    0  501    0  0.00000000000E+00  0.00000000000E+00  0.95516509996E+03  0.95516509997E+03  0.50400001928E-02 0. -1.
       -1   -1    0    0    0  501  0.00000000000E+00  0.00000000000E+00 -0.16896898266E+03  0.16896898273E+03  0.50400001928E-02 0.  1.
    10030    2    1    2    0    0  0.00000000000E+00  0.00000000000E+00  0.78619611730E+03  0.11241340827E+04  0.80347563812E+03 0.  0.
        3    1    3    3  502    0  0.37255436545E+02 -0.10836435975E+03 -0.14561934695E+03  0.18529923481E+03  0.10100000352E+00 0.  1.
       -3    1    3    3    0  502 -0.37255436545E+02  0.10836435975E+03  0.93181546425E+03  0.93883484790E+03  0.10100000352E+00 0. -1.
</event>
<event>
 5   0  0.3404132E-02  0.7902049E+03  0.7818609E-02  0.9574304E-01
        2   -1    0    0  501    0  0.00000000000E+00  0.00000000000E+00  0.10328815253E+04  0.10328815253E+04  0.25500000920E-02 0.  1.
       -2   -1    0    0    0  501  0.00000000000E+00  0.00000000000E+00 -0.15113633746E+03  0.15113633748E+03  0.25500000920E-02 0. -1.
    10030    2    1    2    0    0  0.00000000000E+00  0.00000000000E+00  0.88174518780E+03  0.11840178627E+04  0.79020486147E+03 0.  0.
        5    1    3    3  502    0 -0.21367526469E+03  0.39223725052E+01 -0.57008221039E+02  0.22123410906E+03  0.46999998093E+01 0. -1.
       -5    1    3    3    0  502  0.21367526469E+03 -0.39223725052E+01  0.93875340884E+03  0.96278375369E+03  0.46999998093E+01 0.  1.
</event>
<event>
 5   0  0.3416160E-02  0.6854587E+03  0.7818609E-02  0.9742428E-01
       -2   -1    0    0    0  501  0.00000000000E+00  0.00000000000E+00  0.12244266223E+03  0.12244266225E+03  0.25500000920E-02 0.  1.
        2   -1    0    0  501    0  0.00000000000E+00  0.00000000000E+00 -0.95933412065E+03  0.95933412065E+03  0.25500000920E-02 0. -1.
    10030    2    1    2    0    0  0.00000000000E+00  0.00000000000E+00 -0.83689145842E+03  0.10817767829E+04  0.68545874774E+03 0.  0.
        1    1    3    3  502    0 -0.15354747018E+02  0.79393658730E+02 -0.94406307180E+03  0.94752002874E+03  0.50400001928E-02 0. -1.
       -1    1    3    3    0  502  0.15354747018E+02 -0.79393658730E+02  0.10717161337E+03  0.13425675417E+03  0.50400001928E-02 0.  1.
</event>
<event>
 5   0  0.2063692E-02  0.1054644E+04  0.7818609E-02  0.9250562E-01
        1   -1    0    0  501    0  0.00000000000E+00  0.00000000000E+00  0.67298311795E+03  0.67298311797E+03  0.50400001928E-02 0. -1.
       -1   -1    0    0    0  501  0.00000000000E+00  0.00000000000E+00 -0.41318827137E+03  0.41318827140E+03  0.50400001928E-02 0.  1.
    10030    2    1    2    0    0  0.00000000000E+00  0.00000000000E+00  0.25979484658E+03  0.10861713894E+04  0.10546444542E+04 0.  0.
        2    1    3    3  502    0 -0.12813640439E+03 -0.12523024650E+03  0.64067387318E+03  0.66525526270E+03  0.25500000920E-02 0. -1.
       -2    1    3    3    0  502  0.12813640439E+03  0.12523024650E+03 -0.38087902661E+03  0.42091612666E+03  0.25500000920E-02 0.  1.
</event>
<event>
 5   0  0.3467240E-02  0.7883270E+03  0.7818609E-02  0.9577069E-01
       -2   -1    0    0    0  501  0.00000000000E+00  0.00000000000E+00  0.25285188852E+03  0.25285188854E+03  0.25500000920E-02 0. -1.
        2   -1    0    0  501    0  0.00000000000E+00  0.00000000000E+00 -0.61445014301E+03  0.61445014302E+03  0.25500000920E-02 0.  1.
    10030    2    1    2    0    0  0.00000000000E+00  0.00000000000E+00 -0.36159825449E+03  0.86730203156E+03  0.78832703638E+03 0.  0.
        2    1    3    3  502    0  0.38936763230E+03  0.51395266241E+02 -0.14404169353E+03  0.41832599244E+03  0.25500000920E-02 0. -1.
       -2    1    3    3    0  502 -0.38936763230E+03 -0.51395266241E+02 -0.21755656096E+03  0.44897603911E+03  0.25500000920E-02 0.  1.
</event>
<event>
 5   0  0.3416160E-02  0.8109457E+03  0.7818609E-02  0.9544307E-01
       -2   -1    0    0    0  501  0.00000000000E+00  0.00000000000E+00  0.27735366291E+03  0.27735366292E+03  0.25500000920E-02 0.  1.
        2   -1    0    0  501    0  0.00000000000E+00  0.00000000000E+00 -0.59277469077E+03  0.59277469077E+03  0.25500000920E-02 0. -1.
    10030    2    1    2    0    0  0.00000000000E+00  0.00000000000E+00 -0.31542102785E+03  0.87012835370E+03  0.81094569923E+03 0.  0.
        1    1    3    3  502    0 -0.37309513762E+03  0.13483950132E+02 -0.32745318188E+03  0.49659579637E+03  0.50400001928E-02 0. -1.
       -1    1    3    3    0  502  0.37309513762E+03 -0.13483950132E+02  0.12032154027E+02  0.37353255732E+03  0.50400001928E-02 0.  1.
</event>
<event>
 5   0  0.2063692E-02  0.8086876E+03  0.7818609E-02  0.9547527E-01
       -1   -1    0    0    0  501  0.00000000000E+00  0.00000000000E+00  0.14633890605E+03  0.14633890614E+03  0.50400001928E-02 0.  1.
        1   -1    0    0  501    0  0.00000000000E+00  0.00000000000E+00 -0.11172278748E+04  0.11172278748E+04  0.50400001928E-02 0. -1.
    10030    2    1    2    0    0  0.00000000000E+00  0.00000000000E+00 -0.97088896875E+03  0.12635667809E+04  0.80868759127E+03 0.  0.
        2    1    3    3  502    0  0.27138342200E+03  0.14753934657E+03 -0.77765903250E+02  0.31853470178E+03  0.25500000920E-02 0.  1.
       -2    1    3    3    0  502 -0.27138342200E+03 -0.14753934657E+03 -0.89312306550E+03  0.94503207917E+03  0.25500000920E-02 0. -1.
</event>
<event>
 5   0  0.2132540E-02  0.7802561E+03  0.7818609E-02  0.9589044E-01
        1   -1    0    0  501    0  0.00000000000E+00  0.00000000000E+00  0.69667095958E+03  0.69667095960E+03  0.50400001928E-02 0. -1.
       -1   -1    0    0    0  501  0.00000000000E+00  0.00000000000E+00 -0.21846741056E+03  0.21846741061E+03  0.50400001928E-02 0.  1.
    10030    2    1    2    0    0  0.00000000000E+00  0.00000000000E+00  0.47820354903E+03  0.91513837021E+03  0.78025611330E+03 0.  0.
        4    1    3    3  502    0 -0.10504161873E+03 -0.37337260973E+03  0.28827060502E+03  0.48326224969E+03  0.12699999809E+01 0. -1.
       -4    1    3    3    0  502  0.10504161873E+03  0.37337260973E+03  0.18993294401E+03  0.43187612052E+03  0.12699999809E+01 0.  1.
</event>
<event>
 5   0  0.3404132E-02  0.8719582E+03  0.7818609E-02  0.9461330E-01
        2   -1    0    0  501    0  0.00000000000E+00  0.00000000000E+00  0.61356162754E+03  0.61356162755E+03  0.25500000920E-02 0. -1.
       -2   -1    0    0    0  501  0.00000000000E+00  0.00000000000E+00 -0.30979407701E+03  0.30979407702E+03  0.25500000920E-02 0.  1.
    10030    2    1    2    0    0  0.00000000000E+00  0.00000000000E+00  0.30376755054E+03  0.92335570456E+03  0.87195815977E+03 0.  0.
        5    1    3    3  502    0  0.40121326238E+03  0.16437214988E+03  0.10375845413E+03  0.44584548037E+03  0.46999998093E+01 0. -1.
       -5    1    3    3    0  502 -0.40121326238E+03 -0.16437214988E+03  0.20000909641E+03  0.47751022419E+03  0.46999998093E+01 0.  1.
</event>
<event>
 5   0  0.2129257E-02  0.7888397E+03  0.7818609E-02  0.9576313E-01
       -1   -1    0    0    0  501  0.00000000000E+00  0.00000000000E+00  0.23749907889E+03  0.23749907895E+03  0.50400001928E-02 0.  1.
        1   -1    0    0  501    0  0.00000000000E+00  0.00000000000E+00 -0.65502159915E+03  0.65502159917E+03  0.50400001928E-02 0. -1.
    10030    2    1    2    0    0  0.00000000000E+00  0.00000000000E+00 -0.41752252026E+03  0.89252067811E+03  0.78883972132E+03 0.  0.
        3    1    3    3  502    0 -0.32006301504E+03  0.81680360110E+01 -0.46938441574E+03  0.56818024460E+03  0.10100000352E+00 0. -1.
       -3    1    3    3    0  502  0.32006301504E+03 -0.81680360110E+01  0.51861895483E+02  0.32434043352E+03  0.10100000352E+00 0.  1.
</event>
<event>
 5   0  0.1989298E-02  0.8031340E+03  0.7818609E-02  0.9555492E-01
        1   -1    0    0  501    0  0.00000000000E+00  0.00000000000E+00  0.30941185008E+03  0.30941185012E+03  0.50400001928E-02 0.  1.
       -1   -1    0    0    0  501  0.00000000000E+00  0.00000000000E+00 -0.52116964448E+03  0.52116964450E+03  0.50400001928E-02 0. -1.
    10030    2    1    2    0    0  0.00000000000E+00  0.00000000000E+00 -0.21175779440E+03  0.83058149462E+03  0.80313402102E+03 0.  0.
        1    1    3    3  502    0 -0.26361050590E+03  0.29365577024E+03 -0.18279717826E+03  0.43490115960E+03  0.50400001928E-02 0.  1.
       -1    1    3    3    0  502  0.26361050590E+03 -0.29365577024E+03 -0.28960616136E+02  0.39568033502E+03  0.50400001928E-02 0. -1.
</event>
<event>
 5   0  0.3550586E-02  0.8121617E+03  0.7818609E-02  0.9542579E-01
        2   -1    0    0  501    0  0.00000000000E+00  0.00000000000E+00  0.16660907592E+03  0.16660907594E+03  0.25500000920E-02 0. -1.
       -2   -1    0    0    0  501  0.00000000000E+00  0.00000000000E+00 -0.98975191253E+03  0.98975191253E+03  0.25500000920E-02 0.  1.
    10030    2    1    2    0    0  0.00000000000E+00  0.00000000000E+00 -0.82314283662E+03  0.11563609885E+04  0.81216168722E+03 0.  0.
        3    1    3    3  502    0 -0.56875563438E+02 -0.16395030207E+03  0.11115580000E+03  0.20608287978E+03  0.10100000352E+00 0. -1.
       -3    1    3    3    0  502  0.56875563438E+02  0.16395030207E+03 -0.93429863661E+03  0.95027810869E+03  0.10100000352E+00 0.  1.
</event>
<event>
 5   0  0.3404132E-02  0.7541775E+03  0.7818609E-02  0.9628819E-01
        2   -1    0    0  501    0  0.00000000000E+00  0.00000000000E+00  0.69220233360E+03  0.69220233361E+03  0.25500000920E-02 0. -1.
       -2   -1    0    0    0  501  0.00000000000E+00  0.00000000000E+00 -0.20542536595E+03  0.20542536597E+03  0.25500000920E-02 0.  1.
    10030    2    1    2    0    0  0.00000000000E+00  0.00000000000E+00  0.48677696765E+03  0.89762769957E+03  0.75417747965E+03 0.  0.
        5    1    3    3  502    0 -0.56210264205E+02  0.11175140304E+03  0.66675092935E+03  0.67840022234E+03  0.46999998093E+01 0. -1.
       -5    1    3    3    0  502  0.56210264205E+02 -0.11175140304E+03 -0.17997396170E+03  0.21922747723E+03  0.46999998093E+01 0.  1.
</event>
<event>
 5   0  0.2077795E-02  0.7997899E+03  0.7818609E-02  0.9560321E-01
        1   -1    0    0  501    0  0.00000000000E+00  0.00000000000E+00  0.78368675188E+03  0.78368675190E+03  0.50400001928E-02 0. -1.
       -1   -1    0    0    0  501  0.00000000000E+00  0.00000000000E+00 -0.20405596321E+03  0.20405596327E+03  0.50400001928E-02 0.  1.
    10030    2    1    2    0    0  0.00000000000E+00  0.00000000000E+00  0.57963078867E+03  0.98774271517E+03  0.79978986002E+03 0.  0.
        5    1    3    3  502    0  0.24299456568E+03  0.12766690737E+03  0.64892028819E+03  0.70460260333E+03  0.46999998093E+01 0. -1.
       -5    1    3    3    0  502 -0.24299456568E+03 -0.12766690737E+03 -0.69289499522E+02  0.28314011184E+03  0.46999998093E+01 0.  1.
</event>
<event>
 5   0  0.2063692E-02  0.7620748E+03  0.7818609E-02  0.9616595E-01
       -1   -1    0    0    0  501  0.00000000000E+00  0.00000000000E+00  0.12351869486E+03  0.12351869497E+03  0.50400001928E-02 0. -1.
        1   -1    0    0  501    0  0.00000000000E+00  0.00000000000E+00 -0.11754456081E+04  0.11754456081E+04  0.50400001928E-02 0.  1.
    10030    2    1    2    0    0  0.00000000000E+00  0.00000000000E+00 -0.10519269132E+04  0.12989643030E+04  0.76207481907E+03 0.  0.
        2    1    3    3  502    0  0.27848198885E+03 -0.24781750928E+03 -0.39149314155E+03  0.54058543812E+03  0.25500000920E-02 0. -1.
       -2    1    3    3    0  502 -0.27848198885E+03  0.24781750928E+03 -0.66043377165E+03  0.75837886492E+03  0.25500000920E-02 0.  1.
</event>
<event>
 5   0  0.3343036E-02  0.7868123E+03  0.7818609E-02  0.9579304E-01
        2   -1    0    0  501    0  0.00000000000E+00  0.00000000000E+00  0.11768765112E+04  0.11768765113E+04  0.25500000920E-02 0. -1.
       -2   -1    0    0    0  501  0.00000000000E+00  0.00000000000E+00 -0.13150777487E+03  0.13150777489E+03  0.25500000920E-02 0.  1.
    10030    2    1    2    0    0  0.00000000000E+00  0.00000000000E+00  0.10453687364E+04  0.13083842861E+04  0.78681233164E+03 0.  0.
        4    1    3    3  502    0  0.38336590972E+03 -0.27655463184E+02  0.66213505883E+03  0.76561001457E+03  0.12699999809E+01 0.  1.
       -4    1    3    3    0  502 -0.38336590972E+03  0.27655463184E+02  0.38323367755E+03  0.54277427158E+03  0.12699999809E+01 0. -1.
</event>
<event>
 5   0  0.3404132E-02  0.7963182E+03  0.7818609E-02  0.9565362E-01
        2   -1    0    0  501    0  0.00000000000E+00  0.00000000000E+00  0.80998944030E+03  0.80998944031E+03  0.25500000920E-02 0. -1.
       -2   -1    0    0    0  501  0.00000000000E+00  0.00000000000E+00 -0.19571940793E+03  0.19571940795E+03  0.25500000920E-02 0.  1.
    10030    2    1    2    0    0  0.00000000000E+00  0.00000000000E+00  0.61427003237E+03  0.10057088483E+04  0.79631816179E+03 0.  0.
        5    1    3    3  502    0 -0.16006669866E+03 -0.35103855287E+03  0.43125882883E+03  0.57866715914E+03  0.46999998093E+01 0. -1.
       -5    1    3    3    0  502  0.16006669866E+03  0.35103855287E+03  0.18301120354E+03  0.42704168912E+03  0.46999998093E+01 0.  1.
</event>
<event>
 5   0  0.1989298E-02  0.8106613E+03  0.7818609E-02  0.9544712E-01
       -1   -1    0    0    0  501  0.00000000000E+00  0.00000000000E+00  0.20836085856E+03  0.20836085862E+03  0.50400001928E-02 0. -1.
        1   -1    0    0  501    0  0.00000000000E+00  0.00000000000E+00 -0.78850190799E+03  0.78850190800E+03  0.50400001928E-02 0.  1.
    10030    2    1    2    0    0  0.00000000000E+00  0.00000000000E+00 -0.58014104943E+03  0.99686276663E+03  0.81066129688E+03 0.  0.
        1    1    3    3  502    0  0.16907945487E+03  0.72530946854E+02  0.15405787637E+03  0.23996339222E+03  0.50400001928E-02 0. -1.
       -1    1    3    3    0  502 -0.16907945487E+03 -0.72530946854E+02 -0.73419892580E+03  0.75689937441E+03  0.50400001928E-02 0.  1.
</event>
<event>
 5   0  0.3467240E-02  0.8395263E+03  0.7818609E-02  0.9504503E-01
        2   -1    0    0  501    0  0.00000000000E+00  0.00000000000E+00  0.26473787725E+03  0.26473787727E+03  0.25500000920E-02 0.  1.
       -2   -1    0    0    0  501  0.00000000000E+00  0.00000000000E+00 -0.66556808352E+03  0.66556808352E+03  0.25500000920E-02 0. -1.
    10030    2    1    2    0    0  0.00000000000E+00  0.00000000000E+00 -0.40083020626E+03  0.93030596079E+03  0.83952625118E+03 0.  0.
        2    1    3    3  502    0 -0.26856632179E+02 -0.22506051409E+03 -0.59192863527E+03  0.63383990325E+03  0.25500000920E-02 0. -1.
       -2    1    3    3    0  502  0.26856632179E+02  0.22506051409E+03  0.19109842901E+03  0.29646605753E+03  0.25500000920E-02 0.  1.
</event>
<event>
 5   0  0.2063692E-02  0.7469379E+03  0.7818609E-02  0.9640167E-01
       -1   -1    0    0    0  501  0.00000000000E+00  0.00000000000E+00  0.33207389235E+03  0.33207389239E+03  0.50400001928E-02 0.  1.
        1   -1    0    0  501    0  0.00000000000E+00  0.00000000000E+00 -0.42002416622E+03  0.42002416625E+03  0.50400001928E-02 0. -1.
    10030    2    1    2    0    0  0.00000000000E+00  0.00000000000E+00 -0.87950273875E+02  0.75209805864E+03  0.74693790849E+03 0.  0.
        2    1    3    3  502    0  0.30741477778E+03 -0.19107120995E+03  0.48676889717E+02  0.36521431033E+03  0.25500000920E-02 0.  1.
       -2    1    3    3    0  502 -0.30741477778E+03  0.19107120995E+03 -0.13662716359E+03  0.38688374831E+03  0.25500000920E-02 0. -1.
</event>
<event>
 5   0  0.3416160E-02  0.8015205E+03  0.7818609E-02  0.9557819E-01
       -2   -1    0    0    0  501  0.00000000000E+00  0.00000000000E+00  0.21017916934E+03  0.21017916936E+03  0.25500000920E-02 0. -1.
        2   -1    0    0  501    0  0.00000000000E+00  0.00000000000E+00 -0.76415171682E+03  0.76415171682E+03  0.25500000920E-02 0.  1.
    10030    2    1    2    0    0  0.00000000000E+00  0.00000000000E+00 -0.55397254748E+03  0.97433088618E+03  0.80152048782E+03 0.  0.
        1    1    3    3  502    0  0.36447974584E+02 -0.39097909193E+03 -0.17961905170E+03  0.43180563792E+03  0.50400001928E-02 0. -1.
       -1    1    3    3    0  502 -0.36447974584E+02  0.39097909193E+03 -0.37435349578E+03  0.54252524826E+03  0.50400001928E-02 0.  1.
</event>
<event>
 5   0  0.1989298E-02  0.8174886E+03  0.7818609E-02  0.9535042E-01
        1   -1    0    0  501    0  0.00000000000E+00  0.00000000000E+00  0.38976849242E+03  0.38976849245E+03  0.50400001928E-02 0.  1.
       -1   -1    0    0    0  501  0.00000000000E+00  0.00000000000E+00 -0.42864398017E+03  0.42864398020E+03  0.50400001928E-02 0. -1.
    10030    2    1    2    0    0  0.00000000000E+00  0.00000000000E+00 -0.38875487753E+02  0.81841247265E+03  0.81748863713E+03 0.  0.
        1    1    3    3  502    0 -0.35695495471E+03 -0.87700544542E+02 -0.19842371324E+03  0.41770826567E+03  0.50400001928E-02 0. -1.
       -1    1    3    3    0  502  0.35695495471E+03  0.87700544542E+02  0.15954822549E+03  0.40070420698E+03  0.50400001928E-02 0.  1.
</event>
<event>
 5   0  0.2129257E-02  0.7955456E+03  0.7818609E-02  0.9566487E-01
        1   -1    0    0  501    0  0.00000000000E+00  0.00000000000E+00  0.54080755386E+03  0.54080755388E+03  0.50400001928E-02 0. -1.
       -1   -1    0    0    0  501  0.00000000000E+00  0.00000000000E+00 -0.29256842597E+03  0.29256842601E+03  0.50400001928E-02 0.  1.
    10030    2    1    2    0    0  0.00000000000E+00  0.00000000000E+00  0.24823912789E+03  0.83337597989E+03  0.79554563618E+03 0.  0.
        3    1    3    3  502    0  0.39281146119E+03  0.57499041612E+02  0.15012379717E+03  0.42443391536E+03  0.10100000352E+00 0. -1.
       -3    1    3    3    0  502 -0.39281146119E+03 -0.57499041612E+02  0.98115330712E+02  0.40894206454E+03  0.10100000352E+00 0.  1.
</event>
<event>
 5   0  0.3343036E-02  0.7832430E+03  0.7818609E-02  0.9584594E-01
       -2   -1    0    0    0  501  0.00000000000E+00  0.00000000000E+00  0.66646823392E+02  0.66646823441E+02  0.25500000920E-02 0.  1.
        2   -1    0    0  501    0  0.00000000000E+00  0.00000000000E+00 -0.23011957481E+04  0.23011957481E+04  0.25500000920E-02 0. -1.
    10030    2    1    2    0    0  0.00000000000E+00  0.00000000000E+00 -0.22345489247E+04  0.23678425715E+04  0.78324296785E+03 0.  0.
        4    1    3    3  502    0 -0.27335602243E+03 -0.21581958851E+03 -0.57593924628E+03  0.67305960961E+03  0.12699999809E+01 0.  1.
       -4    1    3    3    0  502  0.27335602243E+03  0.21581958851E+03 -0.16586096784E+04  0.16947829619E+04  0.12699999809E+01 0. -1.
</event>
<event>
 5   0  0.3416160E-02  0.8108865E+03  0.7818609E-02  0.9544392E-01
       -2   -1    0    0    0  501  0.00000000000E+00  0.00000000000E+00  0.21198225167E+03  0.21198225168E+03  0.25500000920E-02 0. -1.
        2   -1    0    0  501    0  0.00000000000E+00  0.00000000000E+00 -0.77546229768E+03  0.77546229768E+03  0.25500000920E-02 0.  1.
    10030    2    1    2    0    0  0.00000000000E+00  0.00000000000E+00 -0.56348004601E+03  0.98744454936E+03  0.81088653695E+03 0.  0.
        1    1    3    3  502    0 -0.32229946127E+03 -0.12695899860E+03 -0.25180046089E+02  0.34731767131E+03  0.50400001928E-02 0. -1.
       -1    1    3    3    0  502  0.32229946127E+03  0.12695899860E+03 -0.53829999992E+03  0.64012687805E+03  0.50400001928E-02 0.  1.
</event>
<event>
 5   0  0.1358000E-02  0.8097297E+03  0.7818609E-02  0.9546040E-01
       -4   -1    0    0    0  501  0.00000000000E+00  0.00000000000E+00  0.13626088061E+04  0.13626093979E+04  0.12699999809E+01 0.  1.
        4   -1    0    0  501    0  0.00000000000E+00  0.00000000000E+00 -0.12029139777E+03  0.12029810172E+03  0.12699999809E+01 0. -1.
    10030    2    1    2    0    0  0.00000000000E+00  0.00000000000E+00  0.12423174083E+04  0.14829074997E+04  0.80972965213E+03 0.  0.
        2    1    3    3  502    0  0.32587898269E+03  0.15587805157E+03  0.95595462568E+03  0.10219316634E+04  0.25500000920E-02 0.  1.
       -2    1    3    3    0  502 -0.32587898269E+03 -0.15587805157E+03  0.28636278265E+03  0.46097583626E+03  0.25500000920E-02 0. -1.
</event>
<event>
 5   0  0.2132540E-02  0.7994314E+03  0.7818609E-02  0.9560841E-01
       -1   -1    0    0    0  501  0.00000000000E+00  0.00000000000E+00  0.31945649814E+03  0.31945649818E+03  0.50400001928E-02 0.  1.
        1   -1    0    0  501    0  0.00000000000E+00  0.00000000000E+00 -0.50013890603E+03  0.50013890605E+03  0.50400001928E-02 0. -1.
    10030    2    1    2    0    0  0.00000000000E+00  0.00000000000E+00 -0.18068240789E+03  0.81959540423E+03  0.79943135673E+03 0.  0.
        4    1    3    3  502    0 -0.21324291369E+03 -0.28049060031E+03 -0.28384370796E+03  0.45245594322E+03  0.12699999809E+01 0. -1.
       -4    1    3    3    0  502  0.21324291369E+03  0.28049060031E+03  0.10316130008E+03  0.36713946101E+03  0.12699999809E+01 0.  1.
</event>
<event>
 5   0  0.2077795E-02  0.7670467E+03  0.7818609E-02  0.9608980E-01
       -1   -1    0    0    0  501  0.00000000000E+00  0.00000000000E+00  0.14504780093E+03  0.14504780101E+03  0.50400001928E-02 0. -1.
        1   -1    0    0  501    0  0.00000000000E+00  0.00000000000E+00 -0.10140806197E+04  0.10140806198E+04  0.50400001928E-02 0.  1.
    10030    2    1    2    0    0  0.00000000000E+00  0.00000000000E+00 -0.86903281882E+03  0.11591284208E+04  0.76704671022E+03 0.  0.
        5    1    3    3  502    0  0.11617154288E+03  0.36210412135E+03 -0.35967440659E+03  0.52345294997E+03  0.46999998093E+01 0.  1.
       -5    1    3    3    0  502 -0.11617154288E+03 -0.36210412135E+03 -0.50935841223E+03  0.63567547080E+03  0.46999998093E+01 0. -1.
</event>
<event>
 5   0  0.3467240E-02  0.7967475E+03  0.7818609E-02  0.9564737E-01
        2   -1    0    0  501    0  0.00000000000E+00  0.00000000000E+00  0.51875156425E+03  0.51875156426E+03  0.25500000920E-02 0.  1.
       -2   -1    0    0    0  501  0.00000000000E+00  0.00000000000E+00 -0.30592999577E+03  0.30592999578E+03  0.25500000920E-02 0. -1.
    10030    2    1    2    0    0  0.00000000000E+00  0.00000000000E+00  0.21282156848E+03  0.82468156004E+03  0.79674754813E+03 0.  0.
        2    1    3    3  502    0 -0.21114245418E+03 -0.45769290600E+01 -0.24321831419E+03  0.32211369514E+03  0.25500000920E-02 0. -1.
       -2    1    3    3    0  502  0.21114245418E+03  0.45769290600E+01  0.45603988267E+03  0.50256786490E+03  0.25500000920E-02 0.  1.
</event>
<event>
 5   0  0.2132540E-02  0.7962692E+03  0.7818609E-02  0.9565433E-01
        1   -1    0    0  501    0  0.00000000000E+00  0.00000000000E+00  0.26572171546E+03  0.26572171551E+03  0.50400001928E-02 0. -1.
       -1   -1    0    0    0  501  0.00000000000E+00  0.00000000000E+00 -0.59653067090E+03  0.59653067093E+03  0.50400001928E-02 0.  1.
    10030    2    1    2    0    0  0.00000000000E+00  0.00000000000E+00 -0.33080895544E+03  0.86225238643E+03  0.79626918370E+03 0.  0.
        4    1    3    3  502    0  0.29052888743E+03  0.24469510873E+03 -0.36244412076E+02  0.38157306113E+03  0.12699999809E+01 0. -1.
       -4    1    3    3    0  502 -0.29052888743E+03 -0.24469510873E+03 -0.29456454337E+03  0.48067932531E+03  0.12699999809E+01 0.  1.
</event>
<event>
 5   0  0.3404132E-02  0.7461975E+03  0.7818609E-02  0.9641335E-01
       -2   -1    0    0    0  501  0.00000000000E+00  0.00000000000E+00  0.14747141947E+03  0.14747141949E+03  0.25500000920E-02 0.  1.
        2   -1    0    0  501    0  0.00000000000E+00  0.00000000000E+00 -0.94392999059E+03  0.94392999059E+03  0.25500000920E-02 0. -1.
    10030    2    1    2    0    0  0.00000000000E+00  0.00000000000E+00 -0.79645857112E+03  0.10914014101E+04  0.74619754920E+03 0.  0.
        5    1    3    3  502    0  0.11864543465E+03 -0.89239425393E+02 -0.89882099977E+03  0.91101135768E+03  0.46999998093E+01 0. -1.
       -5    1    3    3    0  502 -0.11864543465E+03  0.89239425393E+02  0.10236242865E+03  0.18039005240E+03  0.46999998093E+01 0.  1.
</event>
<event>
 5   0  0.2077795E-02  0.8409108E+03  0.7818609E-02  0.9502618E-01
        1   -1    0    0  501    0  0.00000000000E+00  0.00000000000E+00  0.14089809719E+03  0.14089809728E+03  0.50400001928E-02 0. -1.
       -1   -1    0    0    0  501  0.00000000000E+00  0.00000000000E+00 -0.12546851945E+04  0.12546851946E+04  0.50400001928E-02 0.  1.
    10030    2    1    2    0    0  0.00000000000E+00  0.00000000000E+00 -0.11137870973E+04  0.13955832918E+04  0.84091083132E+03 0.  0.
        5    1    3    3  502    0  0.22003786937E+03 -0.31516868050E+03 -0.83957670333E+03  0.92339541470E+03  0.46999998093E+01 0.  1.
       -5    1    3    3    0  502 -0.22003786937E+03  0.31516868050E+03 -0.27421039402E+03  0.47218787713E+03  0.46999998093E+01 0. -1.
</event>
<event>
 5   0  0.1989298E-02  0.7975644E+03  0.7818609E-02  0.9563549E-01
       -1   -1    0    0    0  501  0.00000000000E+00  0.00000000000E+00  0.67184391884E+03  0.67184391886E+03  0.50400001928E-02 0. -1.
        1   -1    0    0  501    0  0.00000000000E+00  0.00000000000E+00 -0.23670264931E+03  0.23670264937E+03  0.50400001928E-02 0.  1.
    10030    2    1    2    0    0  0.00000000000E+00  0.00000000000E+00  0.43514126952E+03  0.90854656822E+03  0.79756438122E+03 0.  0.
        1    1    3    3  502    0  0.23146014694E+02 -0.10165859070E+03 -0.22090207805E+03  0.24427020934E+03  0.50400001928E-02 0.  1.
       -1    1    3    3    0  502 -0.23146014694E+02  0.10165859070E+03  0.65604334757E+03  0.66427635889E+03  0.50400001928E-02 0. -1.
</event>
<event>
 5   0  0.3467240E-02  0.8207450E+03  0.7818609E-02  0.9530466E-01
       -2   -1    0    0    0  501  0.00000000000E+00  0.00000000000E+00  0.14130941364E+03  0.14130941367E+03  0.25500000920E-02 0.  1.
        2   -1    0    0  501    0  0.00000000000E+00  0.00000000000E+00 -0.11917507518E+04  0.11917507518E+04  0.25500000920E-02 0. -1.
    10030    2    1    2    0    0  0.00000000000E+00  0.00000000000E+00 -0.10504413382E+04  0.13330601655E+04  0.82074502733E+03 0.  0.
        2    1    3    3  502    0 -0.36737620980E+03  0.18280575085E+03 -0.53290402776E+03  0.67258451133E+03  0.25500000920E-02 0.  1.
       -2    1    3    3    0  502  0.36737620980E+03 -0.18280575085E+03 -0.51753731044E+03  0.66047565419E+03  0.25500000920E-02 0. -1.
</event>
<event>
 5   0  0.2077795E-02  0.8074839E+03  0.7818609E-02  0.9549247E-01
       -1   -1    0    0    0  501  0.00000000000E+00  0.00000000000E+00  0.30549930736E+03  0.30549930740E+03  0.50400001928E-02 0. -1.
        1   -1    0    0  501    0  0.00000000000E+00  0.00000000000E+00 -0.53357749418E+03  0.53357749420E+03  0.50400001928E-02 0.  1.
    10030    2    1    2    0    0  0.00000000000E+00  0.00000000000E+00 -0.22807818682E+03  0.83907680160E+03  0.80748388199E+03 0.  0.
        5    1    3    3  502    0 -0.91787725681E+02 -0.10963227904E+03  0.27827880381E+03  0.31289839540E+03  0.46999998093E+01 0. -1.
       -5    1    3    3    0  502  0.91787725681E+02  0.10963227904E+03 -0.50635699063E+03  0.52617840620E+03  0.46999998093E+01 0.  1.
</event>
<event>
 5   0  0.3416160E-02  0.8039767E+03  0.7818609E-02  0.9554279E-01
        2   -1    0    0  501    0  0.00000000000E+00  0.00000000000E+00  0.24229523492E+04  0.24229523492E+04  0.25500000920E-02 0.  1.
       -2   -1    0    0    0  501  0.00000000000E+00  0.00000000000E+00 -0.66693276390E+02  0.66693276439E+02  0.25500000920E-02 0. -1.
    10030    2    1    2    0    0  0.00000000000E+00  0.00000000000E+00  0.23562590728E+04  0.24896456257E+04  0.80397669312E+03 0.  0.
        1    1    3    3  502    0 -0.18604266638E+03  0.32703477076E+03  0.16164033892E+04  0.16596154770E+04  0.50400001928E-02 0. -1.
       -1    1    3    3    0  502  0.18604266638E+03 -0.32703477076E+03  0.73985568369E+03  0.83003014867E+03  0.50400001928E-02 0.  1.
</event>
<event>
 5   0  0.1989298E-02  0.7926841E+03  0.7818609E-02  0.9570667E-01
       -1   -1    0    0    0  501  0.00000000000E+00  0.00000000000E+00  0.17209682446E+03  0.17209682453E+03  0.50400001928E-02 0.  1.
        1   -1    0    0  501    0  0.00000000000E+00  0.00000000000E+00 -0.91278283766E+03  0.91278283767E+03  0.50400001928E-02 0. -1.
    10030    2    1    2    0    0  0.00000000000E+00  0.00000000000E+00 -0.74068601320E+03  0.10848796622E+04  0.79268411824E+03 0.  0.
        1    1    3    3  502    0  0.10006711840E+03 -0.85705564467E+02 -0.88193457041E+03  0.89172162611E+03  0.50400001928E-02 0. -1.
       -1    1    3    3    0  502 -0.10006711840E+03  0.85705564467E+02  0.14124855721E+03  0.19315803609E+03  0.50400001928E-02 0.  1.
</event>
<event>
 5   0  0.2063692E-02  0.8552660E+03  0.7818609E-02  0.9483296E-01
        1   -1    0    0  501    0  0.00000000000E+00  0.00000000000E+00  0.53954104747E+03  0.53954104750E+03  0.50400001928E-02 0.  1.
       -1   -1    0    0    0  501  0.00000000000E+00  0.00000000000E+00 -0.33893620394E+03  0.33893620398E+03  0.50400001928E-02 0. -1.
    10030    2    1    2    0    0  0.00000000000E+00  0.00000000000E+00  0.20060484353E+03  0.87847725148E+03  0.85526602769E+03 0.  0.
        2    1    3    3  502    0 -0.13525950760E+03  0.70694878353E+02  0.51061475812E+03  0.53293557907E+03  0.25500000920E-02 0.  1.
       -2    1    3    3    0  502  0.13525950760E+03 -0.70694878353E+02 -0.31000991459E+03  0.34554167241E+03  0.25500000920E-02 0. -1.
</event>
<event>
 5   0  0.3343036E-02  0.7953702E+03  0.7818609E-02  0.9566743E-01
        2   -1    0    0  501    0  0.00000000000E+00  0.00000000000E+00  0.52178576675E+03  0.52178576675E+03  0.25500000920E-02 0. -1.
       -2   -1    0    0    0  501  0.00000000000E+00  0.00000000000E+00 -0.30310033596E+03  0.30310033597E+03  0.25500000920E-02 0.  1.
    10030    2    1    2    0    0  0.00000000000E+00  0.00000000000E+00  0.21868543079E+03  0.82488610272E+03  0.79537020615E+03 0.  0.
        4    1    3    3  502    0  0.17101508011E+03  0.27768733241E+03  0.34537441376E+03  0.47501737946E+03  0.12699999809E+01 0. -1.
       -4    1    3    3    0  502 -0.17101508011E+03 -0.27768733241E+03 -0.12668898298E+03  0.34986872326E+03  0.12699999809E+01 0.  1.
</event>
<event>
 5   0  0.3467240E-02  0.8072128E+03  0.7818609E-02  0.9549635E-01
        2   -1    0    0  501    0  0.00000000000E+00  0.00000000000E+00  0.55248905353E+03  0.55248905354E+03  0.25500000920E-02 0. -1.
       -2   -1    0    0    0  501  0.00000000000E+00  0.00000000000E+00 -0.29484410681E+03  0.29484410682E+03  0.25500000920E-02 0.  1.
    10030    2    1    2    0    0  0.00000000000E+00  0.00000000000E+00  0.25764494672E+03  0.84733316036E+03  0.80721283815E+03 0.  0.
        2    1    3    3  502    0  0.96657617230E+02  0.27364027038E+03 -0.16561190517E+03  0.33413918609E+03  0.25500000920E-02 0.  1.
       -2    1    3    3    0  502 -0.96657617230E+02 -0.27364027038E+03  0.42325685190E+03  0.51319397427E+03  0.25500000920E-02 0. -1.
</event>
<event>
 5   0  0.3343036E-02  0.8143635E+03  0.7818609E-02  0.9539456E-01
        2   -1    0    0  501    0  0.00000000000E+00  0.00000000000E+00  0.91759523928E+03  0.91759523928E+03  0.25500000920E-02 0.  1.
       -2   -1    0    0    0  501  0.00000000000E+00  0.00000000000E+00 -0.18068638273E+03  0.18068638275E+03  0.25500000920E-02 0. -1.
    10030    2    1    2    0    0  0.00000000000E+00  0.00000000000E+00  0.73690885655E+03  0.10982816220E+04  0.81436346825E+03 0.  0.
        4    1    3    3  502    0 -0.17426016296E+03  0.16863614548E+02  0.86424059547E+03  0.88179612476E+03  0.12699999809E+01 0.  1.
       -4    1    3    3    0  502  0.17426016296E+03 -0.16863614548E+02 -0.12733173892E+03  0.21648549726E+03  0.12699999809E+01 0. -1.
</event>
<event>
 5   0  0.2063692E-02  0.7844970E+03  0.7818609E-02  0.9582732E-01
       -1   -1    0    0    0  501  0.00000000000E+00  0.00000000000E+00  0.47420766538E+03  0.47420766541E+03  0.50400001928E-02 0. -1.
        1   -1    0    0  501    0  0.00000000000E+00  0.00000000000E+00 -0.32445469304E+03  0.32445469308E+03  0.50400001928E-02 0.  1.
    10030    2    1    2    0    0  0.00000000000E+00  0.00000000000E+00  0.14975297234E+03  0.79866235848E+03  0.78449704278E+03 0.  0.
        2    1    3    3  502    0  0.85020330449E+02  0.20349827211E+03 -0.25535523068E+03  0.33741116932E+03  0.25500000920E-02 0.  1.
       -2    1    3    3    0  502 -0.85020330449E+02 -0.20349827211E+03  0.40510820303E+03  0.46125118916E+03  0.25500000920E-02 0. -1.
</event>
<event>
 5   0  0.3416160E-02  0.7968856E+03  0.7818609E-02  0.9564536E-01
       -2   -1    0    0    0  501  0.00000000000E+00  0.00000000000E+00  0.12650261020E+03  0.12650261022E+03  0.25500000920E-02 0. -1.
        2   -1    0    0  501    0  0.00000000000E+00  0.00000000000E+00 -0.12549673605E+04  0.12549673605E+04  0.25500000920E-02 0.  1.
    10030    2    1    2    0    0  0.00000000000E+00  0.00000000000E+00 -0.11284647503E+04  0.13814699707E+04  0.79688555472E+03 0.  0.
        1    1    3    3  502    0 -0.24099865635E+03 -0.19218578793E+03 -0.12655444349E+03  0.33321428036E+03  0.50400001928E-02 0. -1.
       -1    1    3    3    0  502  0.24099865635E+03  0.19218578793E+03 -0.10019103068E+04  0.10482556903E+04  0.50400001928E-02 0.  1.
</event>
<event>
 5   0  0.2132540E-02  0.7909561E+03  0.7818609E-02  0.9573201E-01
       -1   -1    0    0    0  501  0.00000000000E+00  0.00000000000E+00  0.25454349377E+03  0.25454349382E+03  0.50400001928E-02 0.  1.
        1   -1    0    0  501    0  0.00000000000E+00  0.00000000000E+00 -0.61444470693E+03  0.61444470695E+03  0.50400001928E-02 0. -1.
    10030    2    1    2    0    0  0.00000000000E+00  0.00000000000E+00 -0.35990121316E+03  0.86898820076E+03  0.79095613648E+03 0.  0.
        4    1    3    3  502    0  0.12055457071E+03 -0.24529596068E+03 -0.49397732352E+03  0.56455178850E+03  0.12699999809E+01 0. -1.
       -4    1    3    3    0  502 -0.12055457071E+03  0.24529596068E+03  0.13407611036E+03  0.30443641227E+03  0.12699999809E+01 0.  1.
</event>
<event>
 5   0  0.2063692E-02  0.7992922E+03  0.7818609E-02  0.9561042E-01
       -1   -1    0    0    0  501  0.00000000000E+00  0.00000000000E+00  0.52600705381E+03  0.52600705383E+03  0.50400001928E-02 0. -1.
        1   -1    0    0  501    0  0.00000000000E+00  0.00000000000E+00 -0.30364044907E+03  0.30364044911E+03  0.50400001928E-02 0.  1.
    10030    2    1    2    0    0  0.00000000000E+00  0.00000000000E+00  0.22236660474E+03  0.82964750294E+03  0.79929223206E+03 0.  0.
        2    1    3    3  502    0  0.38171127591E+03 -0.40164800578E+02 -0.44024399204E+01  0.38384383654E+03  0.25500000920E-02 0.  1.
       -2    1    3    3    0  502 -0.38171127591E+03  0.40164800578E+02  0.22676904466E+03  0.44580366641E+03  0.25500000920E-02 0. -1.
</event>
<event>
 5   0  0.1989298E-02  0.8006221E+03  0.7818609E-02  0.9559117E-01
        1   -1    0    0  501    0  0.00000000000E+00  0.00000000000E+00  0.69746301059E+03  0.69746301061E+03  0.50400001928E-02 0. -1.
       -1   -1    0    0    0  501  0.00000000000E+00  0.00000000000E+00 -0.22975977582E+03  0.22975977588E+03  0.50400001928E-02 0.  1.
    10030    2    1    2    0    0  0.00000000000E+00  0.00000000000E+00  0.46770323477E+03  0.92722278649E+03  0.80062212058E+03 0.  0.
        1    1    3    3  502    0 -0.33907398824E+03 -0.49711623535E+02 -0.57620148865E+01  0.34274716024E+03  0.50400001928E-02 0.  1.
       -1    1    3    3    0  502  0.33907398824E+03  0.49711623535E+02  0.47346524966E+03  0.58447562624E+03  0.50400001928E-02 0. -1.
</event>
<event>
 5   0  0.3416160E-02  0.8034566E+03  0.7818609E-02  0.9555027E-01
        2   -1    0    0  501    0  0.00000000000E+00  0.00000000000E+00  0.52921049981E+03  0.52921049982E+03  0.25500000920E-02 0.  1.
       -2   -1    0    0    0  501  0.00000000000E+00  0.00000000000E+00 -0.30495546461E+03  0.30495546462E+03  0.25500000920E-02 0. -1.
    10030    2    1    2    0    0  0.00000000000E+00  0.00000000000E+00  0.22425503520E+03  0.83416596444E+03  0.80345661701E+03 0.  0.
        1    1    3    3  502    0 -0.26298998572E+03 -0.91907455313E+02 -0.18837426127E+03  0.33629685587E+03  0.50400001928E-02 0. -1.
       -1    1    3    3    0  502  0.26298998572E+03  0.91907455313E+02  0.41262929647E+03  0.49786910857E+03  0.50400001928E-02 0.  1.
</event>
<event>
 5   0  0.1989298E-02  0.7877018E+03  0.7818609E-02  0.9577991E-01
       -1   -1    0    0    0  501  0.00000000000E+00  0.00000000000E+00  0.38093958078E+03  0.38093958082E+03  0.50400001928E-02 0. -1.
        1   -1    0    0  501    0  0.00000000000E+00  0.00000000000E+00 -0.40719987720E+03  0.40719987724E+03  0.50400001928E-02 0.  1.
    10030    2    1    2    0    0  0.00000000000E+00  0.00000000000E+00 -0.26260296423E+02  0.78813945805E+03  0.78770184852E+03 0.  0.
        1    1    3    3  502    0  0.39217686119E+03 -0.99258262872E+01  0.21779606932E+02  0.39290655859E+03  0.50400001928E-02 0.  1.
       -1    1    3    3    0  502 -0.39217686119E+03  0.99258262872E+01 -0.48039903355E+02  0.39523289946E+03  0.50400001928E-02 0. -1.
</event>
<event>
 5   0  0.2077795E-02  0.7891938E+03  0.7818609E-02  0.9575792E-01
       -1   -1    0    0    0  501  0.00000000000E+00  0.00000000000E+00  0.78878951203E+03  0.78878951205E+03  0.50400001928E-02 0. -1.
        1   -1    0    0  501    0  0.00000000000E+00  0.00000000000E+00 -0.19739956128E+03  0.19739956135E+03  0.50400001928E-02 0.  1.
    10030    2    1    2    0    0  0.00000000000E+00  0.00000000000E+00  0.59138995075E+03  0.98618907339E+03  0.78919377509E+03 0.  0.
        5    1    3    3  502    0 -0.16008090181E+03 -0.58545915031E+02  0.74037407276E+03  0.75975612989E+03  0.46999998093E+01 0. -1.
       -5    1    3    3    0  502  0.16008090181E+03  0.58545915031E+02 -0.14898412201E+03  0.22643294350E+03  0.46999998093E+01 0.  1.
</event>
<event>
 5   0  0.2129257E-02  0.7925841E+03  0.7818609E-02  0.9570814E-01
        1   -1    0    0  501    0  0.00000000000E+00  0.00000000000E+00  0.37496988024E+03  0.37496988027E+03  0.50400001928E-02 0.  1.
       -1   -1    0    0    0  501  0.00000000000E+00  0.00000000000E+00 -0.41882667337E+03  0.41882667340E+03  0.50400001928E-02 0. -1.
    10030    2    1    2    0    0  0.00000000000E+00  0.00000000000E+00 -0.43856793136E+02  0.79379655367E+03  0.79258409669E+03 0.  0.
        3    1    3    3  502    0 -0.64908270257E+02 -0.38606856350E+03  0.39690985814E+02  0.39349384217E+03  0.10100000352E+00 0. -1.
       -3    1    3    3    0  502  0.64908270257E+02  0.38606856350E+03 -0.83547778950E+02  0.40030271150E+03  0.10100000352E+00 0.  1.
</event>
<event>
 5   0  0.3467240E-02  0.8124622E+03  0.7818609E-02  0.9542152E-01
        2   -1    0    0  501    0  0.00000000000E+00  0.00000000000E+00  0.13975418464E+04  0.13975418464E+04  0.25500000920E-02 0. -1.
       -2   -1    0    0    0  501  0.00000000000E+00  0.00000000000E+00 -0.11808139403E+03  0.11808139406E+03  0.25500000920E-02 0.  1.
    10030    2    1    2    0    0  0.00000000000E+00  0.00000000000E+00  0.12794604524E+04  0.15156232404E+04  0.81246215778E+03 0.  0.
        2    1    3    3  502    0 -0.14117280832E+03  0.36875957160E+03  0.46167505294E+03  0.60750081315E+03  0.25500000920E-02 0. -1.
       -2    1    3    3    0  502  0.14117280832E+03 -0.36875957160E+03  0.81778539941E+03  0.90812242729E+03  0.25500000920E-02 0.  1.
</event>
<event>
 5   0  0.3467240E-02  0.7972367E+03  0.7818609E-02  0.9564025E-01
        2   -1    0    0  501    0  0.00000000000E+00  0.00000000000E+00  0.12546975156E+04  0.12546975156E+04  0.25500000920E-02 0. -1.
       -2   -1    0    0    0  501  0.00000000000E+00  0.00000000000E+00 -0.12664135943E+03  0.12664135946E+03  0.25500000920E-02 0.  1.
    10030    2    1    2    0    0  0.00000000000E+00  0.00000000000E+00  0.11280561562E+04  0.13813388751E+04  0.79723672538E+03 0.  0.
        2    1    3    3  502    0 -0.12081870592E+03 -0.16996408188E+03  0.11526518037E+04  0.11713629366E+04  0.25500000920E-02 0. -1.
       -2    1    3    3    0  502  0.12081870592E+03  0.16996408188E+03 -0.24595647508E+02  0.20997593841E+03  0.25500000920E-02 0.  1.
</event>
<event>
 5   0  0.3343036E-02  0.8080926E+03  0.7818609E-02  0.9548377E-01
        2   -1    0    0  501    0  0.00000000000E+00  0.00000000000E+00  0.93134811324E+03  0.93134811324E+03  0.25500000920E-02 0.  1.
       -2   -1    0    0    0  501  0.00000000000E+00  0.00000000000E+00 -0.17528722735E+03  0.17528722737E+03  0.25500000920E-02 0. -1.
    10030    2    1    2    0    0  0.00000000000E+00  0.00000000000E+00  0.75606088589E+03  0.11066353406E+04  0.80809263945E+03 0.  0.
        4    1    3    3  502    0 -0.30257885215E+03  0.54174356806E+02  0.73713487882E+03  0.79866029398E+03  0.12699999809E+01 0.  1.
       -4    1    3    3    0  502  0.30257885215E+03 -0.54174356806E+02  0.18926007064E+02  0.30797504663E+03  0.12699999809E+01 0. -1.
</event>
<event>
 5   0  0.2077795E-02  0.9293960E+03  0.7818609E-02  0.9389563E-01
        1   -1    0    0  501    0  0.00000000000E+00  0.00000000000E+00  0.59862331752E+03  0.59862331754E+03  0.50400001928E-02 0.  1.
       -1   -1    0    0    0  501  0.00000000000E+00  0.00000000000E+00 -0.36073473582E+03  0.36073473585E+03  0.50400001928E-02 0. -1.
    10030    2    1    2    0    0  0.00000000000E+00  0.00000000000E+00  0.23788858170E+03  0.95935805340E+03  0.92939598521E+03 0.  0.
        5    1    3    3  502    0  0.45326095456E+03 -0.36015553951E+02  0.20045734982E+02  0.45515550589E+03  0.46999998093E+01 0.  1.
       -5    1    3    3    0  502 -0.45326095456E+03  0.36015553951E+02  0.21784284672E+03  0.50420254751E+03  0.46999998093E+01 0. -1.
</event>
<event>
 5   0  0.1989298E-02  0.7392221E+03  0.7818609E-02  0.9652413E-01
       -1   -1    0    0    0  501  0.00000000000E+00  0.00000000000E+00  0.57617126735E+03  0.57617126737E+03  0.50400001928E-02 0. -1.
        1   -1    0    0  501    0  0.00000000000E+00  0.00000000000E+00 -0.23710367311E+03  0.23710367317E+03  0.50400001928E-02 0.  1.
    10030    2    1    2    0    0  0.00000000000E+00  0.00000000000E+00  0.33906759423E+03  0.81327494053E+03  0.73922208804E+03 0.  0.
        1    1    3    3  502    0  0.27076477359E+03  0.12545268334E+03  0.40946411991E+03  0.50666833717E+03  0.50400001928E-02 0.  1.
       -1    1    3    3    0  502 -0.27076477359E+03 -0.12545268334E+03 -0.70396525674E+02  0.30660660336E+03  0.50400001928E-02 0. -1.
</event>
<event>
 5   0  0.2063692E-02  0.8033868E+03  0.7818609E-02  0.9555128E-01
       -1   -1    0    0    0  501  0.00000000000E+00  0.00000000000E+00  0.21890636405E+03  0.21890636411E+03  0.50400001928E-02 0.  1.
        1   -1    0    0  501    0  0.00000000000E+00  0.00000000000E+00 -0.73710778676E+03  0.73710778677E+03  0.50400001928E-02 0. -1.
    10030    2    1    2    0    0  0.00000000000E+00  0.00000000000E+00 -0.51820142271E+03  0.95601415088E+03  0.80338679488E+03 0.  0.
        2    1    3    3  502    0  0.28145933545E+03 -0.18937544198E+03 -0.31162267850E+01  0.33925230495E+03  0.25500000920E-02 0.  1.
       -2    1    3    3    0  502 -0.28145933545E+03  0.18937544198E+03 -0.51508519592E+03  0.61676184593E+03  0.25500000920E-02 0. -1.
</event>
<event>
 5   0  0.3404132E-02  0.6418421E+03  0.7818609E-02  0.9822208E-01
        2   -1    0    0  501    0  0.00000000000E+00  0.00000000000E+00  0.30598536694E+03  0.30598536695E+03  0.25500000920E-02 0. -1.
       -2   -1    0    0    0  501  0.00000000000E+00  0.00000000000E+00 -0.33658577578E+03  0.33658577579E+03  0.25500000920E-02 0.  1.
    10030    2    1    2    0    0  0.00000000000E+00  0.00000000000E+00 -0.30600408837E+02  0.64257114274E+03  0.64184210555E+03 0.  0.
        5    1    3    3  502    0  0.16437311264E+03  0.24618085632E+03 -0.13931462425E+03  0.32719136404E+03  0.46999998093E+01 0.  1.
       -5    1    3    3    0  502 -0.16437311264E+03 -0.24618085632E+03  0.10871421542E+03  0.31537977869E+03  0.46999998093E+01 0. -1.
</event>
<event>
 5   0  0.2129257E-02  0.7981383E+03  0.7818609E-02  0.9562716E-01
       -1   -1    0    0    0  501  0.00000000000E+00  0.00000000000E+00  0.36762577851E+03  0.36762577855E+03  0.50400001928E-02 0. -1.
        1   -1    0    0  501    0  0.00000000000E+00  0.00000000000E+00 -0.43320189269E+03  0.43320189272E+03  0.50400001928E-02 0.  1.
    10030    2    1    2    0    0  0.00000000000E+00  0.00000000000E+00 -0.65576114177E+02  0.80082767127E+03  0.79813829148E+03 0.  0.
        3    1    3    3  502    0 -0.36972911261E+03  0.14682604703E+03 -0.10798629827E+01  0.39781739669E+03  0.10100000352E+00 0.  1.
       -3    1    3    3    0  502  0.36972911261E+03 -0.14682604703E+03 -0.64496251194E+02  0.40301027458E+03  0.10100000352E+00 0. -1.
</event>
<event>
 5   0  0.2063692E-02  0.8078384E+03  0.7818609E-02  0.9548740E-01
       -1   -1    0    0    0  501  0.00000000000E+00  0.00000000000E+00  0.10083108863E+04  0.10083108863E+04  0.50400001928E-02 0. -1.
        1   -1    0    0  501    0  0.00000000000E+00  0.00000000000E+00 -0.16180596473E+03  0.16180596481E+03  0.50400001928E-02 0.  1.
    10030    2    1    2    0    0  0.00000000000E+00  0.00000000000E+00  0.84650492157E+03  0.11701168511E+04  0.80783838918E+03 0.  0.
        2    1    3    3  502    0 -0.38990988245E+03  0.24362223155E+02  0.57186894663E+03  0.69257297556E+03  0.25500000920E-02 0. -1.
       -2    1    3    3    0  502  0.38990988245E+03 -0.24362223155E+02  0.27463597494E+03  0.47754387556E+03  0.25500000920E-02 0.  1.
</event>
<event>
 5   0  0.3550586E-02  0.8273850E+03  0.7818609E-02  0.9521203E-01
        2   -1    0    0  501    0  0.00000000000E+00  0.00000000000E+00  0.42590546013E+03  0.42590546014E+03  0.25500000920E-02 0. -1.
       -2   -1    0    0    0  501  0.00000000000E+00  0.00000000000E+00 -0.40182976628E+03  0.40182976629E+03  0.25500000920E-02 0.  1.
    10030    2    1    2    0    0  0.00000000000E+00  0.00000000000E+00  0.24075693848E+02  0.82773522643E+03  0.82738501681E+03 0.  0.
        3    1    3    3  502    0 -0.30477067843E+03 -0.26749728416E+03  0.93935296140E+02  0.41624970093E+03  0.10100000352E+00 0.  1.
       -3    1    3    3    0  502  0.30477067843E+03  0.26749728416E+03 -0.69859602292E+02  0.41148552550E+03  0.10100000352E+00 0. -1.
</event>
<event>
 5   0  0.2129257E-02  0.8072978E+03  0.7818609E-02  0.9549513E-01
        1   -1    0    0  501    0  0.00000000000E+00  0.00000000000E+00  0.24245750130E+03  0.24245750135E+03  0.50400001928E-02 0.  1.
       -1   -1    0    0    0  501  0.00000000000E+00  0.00000000000E+00 -0.67200411654E+03  0.67200411655E+03  0.50400001928E-02 0. -1.
    10030    2    1    2    0    0  0.00000000000E+00  0.00000000000E+00 -0.42954661524E+03  0.91446161790E+03  0.80729781119E+03 0.  0.
        3    1    3    3  502    0 -0.23717821338E+03 -0.11533008345E+03  0.13136825371E+03  0.29463903566E+03  0.10100000352E+00 0.  1.
       -3    1    3    3    0  502  0.23717821338E+03  0.11533008345E+03 -0.56091486894E+03  0.61982258224E+03  0.10100000352E+00 0. -1.
</event>
<event>
 5   0  0.2129257E-02  0.7510149E+03  0.7818609E-02  0.9633759E-01
       -1   -1    0    0    0  501  0.00000000000E+00  0.00000000000E+00  0.42526246428E+03  0.42526246431E+03  0.50400001928E-02 0. -1.
        1   -1    0    0  501    0  0.00000000000E+00  0.00000000000E+00 -0.33157370045E+03  0.33157370049E+03  0.50400001928E-02 0.  1.
    10030    2    1    2    0    0  0.00000000000E+00  0.00000000000E+00  0.93688763829E+02  0.75683616480E+03  0.75101491055E+03 0.  0.
        3    1    3    3  502    0 -0.29955131335E+02 -0.17828112338E+03 -0.28483341692E+03  0.33735968111E+03  0.10100000352E+00 0.  1.
       -3    1    3    3    0  502  0.29955131335E+02  0.17828112338E+03  0.37852218074E+03  0.41947648368E+03  0.10100000352E+00 0. -1.
</event>
<event>
 5   0  0.2129257E-02  0.9820045E+03  0.7818609E-02  0.9328505E-01
        1   -1    0    0  501    0  0.00000000000E+00  0.00000000000E+00  0.11991181117E+04  0.11991181117E+04  0.50400001928E-02 0. -1.
       -1   -1    0    0    0  501  0.00000000000E+00  0.00000000000E+00 -0.20105041368E+03  0.20105041374E+03  0.50400001928E-02 0.  1.
    10030    2    1    2    0    0  0.00000000000E+00  0.00000000000E+00  0.99806769799E+03  0.14001685254E+04  0.98200446528E+03 0.  0.
        3    1    3    3  502    0  0.80079894494E+02 -0.34504844918E+03  0.98384012259E+03  0.10456637217E+04  0.10100000352E+00 0. -1.
       -3    1    3    3    0  502 -0.80079894494E+02  0.34504844918E+03  0.14227575401E+02  0.35450480376E+03  0.10100000352E+00 0.  1.
</event>
<event>
 5   0  0.1358000E-02  0.7926299E+03  0.7818609E-02  0.9570747E-01
        4   -1    0    0  501    0  0.00000000000E+00  0.00000000000E+00  0.17156418970E+03  0.17156889021E+03  0.12699999809E+01 0. -1.
       -4   -1    0    0    0  501  0.00000000000E+00  0.00000000000E+00 -0.91547378535E+03  0.91547466626E+03  0.12699999809E+01 0.  1.
    10030    2    1    2    0    0  0.00000000000E+00  0.00000000000E+00 -0.74390959566E+03  0.10870435565E+04  0.79262993077E+03 0.  0.
        4    1    3    3  502    0 -0.15347820670E+03  0.21795051634E+02  0.12826024683E+03  0.20120359844E+03  0.12699999809E+01 0. -1.
       -4    1    3    3    0  502  0.15347820670E+03 -0.21795051634E+02 -0.87216984248E+03  0.88583995803E+03  0.12699999809E+01 0.  1.
</event>
<event>
 5   0  0.2132540E-02  0.8069637E+03  0.7818609E-02  0.9549992E-01
       -1   -1    0    0    0  501  0.00000000000E+00  0.00000000000E+00  0.18476844937E+03  0.18476844944E+03  0.50400001928E-02 0.  1.
        1   -1    0    0  501    0  0.00000000000E+00  0.00000000000E+00 -0.88108984592E+03  0.88108984593E+03  0.50400001928E-02 0. -1.
    10030    2    1    2    0    0  0.00000000000E+00  0.00000000000E+00 -0.69632139654E+03  0.10658582954E+04  0.80696370335E+03 0.  0.
        4    1    3    3  502    0  0.81351893588E+02 -0.26939771373E+03 -0.73006601639E+03  0.78242652048E+03  0.12699999809E+01 0. -1.
       -4    1    3    3    0  502 -0.81351893588E+02  0.26939771373E+03  0.33744619850E+02  0.28343177489E+03  0.12699999809E+01 0.  1.
</event>
<event>
 5   0  0.2063692E-02  0.8004168E+03  0.7818609E-02  0.9559414E-01
       -1   -1    0    0    0  501  0.00000000000E+00  0.00000000000E+00  0.26397836171E+03  0.26397836176E+03  0.50400001928E-02 0. -1.
        1   -1    0    0  501    0  0.00000000000E+00  0.00000000000E+00 -0.60674201296E+03  0.60674201298E+03  0.50400001928E-02 0.  1.
    10030    2    1    2    0    0  0.00000000000E+00  0.00000000000E+00 -0.34276365125E+03  0.87072037474E+03  0.80041679790E+03 0.  0.
        2    1    3    3  502    0  0.71219888366E+02 -0.14823373268E+03 -0.56828649399E+03  0.59160379585E+03  0.25500000920E-02 0.  1.
       -2    1    3    3    0  502 -0.71219888366E+02  0.14823373268E+03  0.22552284274E+03  0.27911657889E+03  0.25500000920E-02 0. -1.
</event>
<event>
 5   0  0.3550586E-02  0.8139446E+03  0.7818609E-02  0.9540049E-01
        2   -1    0    0  501    0  0.00000000000E+00  0.00000000000E+00  0.29524724816E+03  0.29524724817E+03  0.25500000920E-02 0. -1.
       -2   -1    0    0    0  501  0.00000000000E+00  0.00000000000E+00 -0.56097549757E+03  0.56097549758E+03  0.25500000920E-02 0.  1.
    10030    2    1    2    0    0  0.00000000000E+00  0.00000000000E+00 -0.26572824941E+03  0.85622274575E+03  0.81394464665E+03 0.  0.
        3    1    3    3  502    0  0.29544476839E+03 -0.13486511851E+03 -0.39085872081E+03  0.50817985122E+03  0.10100000352E+00 0.  1.
       -3    1    3    3    0  502 -0.29544476839E+03  0.13486511851E+03  0.12513047140E+03  0.34804289453E+03  0.10100000352E+00 0. -1.
</event>
<event>
 5   0  0.3343036E-02  0.8292251E+03  0.7818609E-02  0.9518652E-01
       -2   -1    0    0    0  501  0.00000000000E+00  0.00000000000E+00  0.10531132819E+04  0.10531132819E+04  0.25500000920E-02 0.  1.
        2   -1    0    0  501    0  0.00000000000E+00  0.00000000000E+00 -0.16323369159E+03  0.16323369161E+03  0.25500000920E-02 0. -1.
    10030    2    1    2    0    0  0.00000000000E+00  0.00000000000E+00  0.88987959027E+03  0.12163469735E+04  0.82922510495E+03 0.  0.
        4    1    3    3  502    0  0.20043898779E+03  0.34515507669E+03  0.28032483084E+03  0.48774115930E+03  0.12699999809E+01 0. -1.
       -4    1    3    3    0  502 -0.20043898779E+03 -0.34515507669E+03  0.60955475943E+03  0.72860581416E+03  0.12699999809E+01 0.  1.
</event>
<event>
 5   0  0.3343036E-02  0.7948154E+03  0.7818609E-02  0.9567552E-01
        2   -1    0    0  501    0  0.00000000000E+00  0.00000000000E+00  0.11851440425E+04  0.11851440425E+04  0.25500000920E-02 0. -1.
       -2   -1    0    0    0  501  0.00000000000E+00  0.00000000000E+00 -0.13326050930E+03  0.13326050932E+03  0.25500000920E-02 0.  1.
    10030    2    1    2    0    0  0.00000000000E+00  0.00000000000E+00  0.10518835332E+04  0.13184045518E+04  0.79481544704E+03 0.  0.
        4    1    3    3  502    0 -0.24864620727E+03 -0.17683148702E+03  0.94831244946E+03  0.99618895090E+03  0.12699999809E+01 0. -1.
       -4    1    3    3    0  502  0.24864620727E+03  0.17683148702E+03  0.10357108374E+03  0.32221560093E+03  0.12699999809E+01 0.  1.
</event>
<event>
 5   0  0.2077795E-02  0.7954251E+03  0.7818609E-02  0.9566663E-01
        1   -1    0    0  501    0  0.00000000000E+00  0.00000000000E+00  0.67767809628E+03  0.67767809629E+03  0.50400001928E-02 0. -1.
       -1   -1    0    0    0  501  0.00000000000E+00  0.00000000000E+00 -0.23340770391E+03  0.23340770396E+03  0.50400001928E-02 0.  1.
    10030    2    1    2    0    0  0.00000000000E+00  0.00000000000E+00  0.44427039237E+03  0.91108580026E+03  0.79542514035E+03 0.  0.
        5    1    3    3  502    0  0.25079372186E+03  0.16578342709E+03  0.52031876971E+03  0.60094537833E+03  0.46999998093E+01 0. -1.
       -5    1    3    3    0  502 -0.25079372186E+03 -0.16578342709E+03 -0.76048377342E+02  0.31014042193E+03  0.46999998093E+01 0.  1.
</event>
<event>
 5   0  0.2129257E-02  0.7617480E+03  0.7818609E-02  0.9617098E-01
       -1   -1    0    0    0  501  0.00000000000E+00  0.00000000000E+00  0.88816964939E+03  0.88816964941E+03  0.50400001928E-02 0. -1.
        1   -1    0    0  501    0  0.00000000000E+00  0.00000000000E+00 -0.16333030424E+03  0.16333030432E+03  0.50400001928E-02 0.  1.
    10030    2    1    2    0    0  0.00000000000E+00  0.00000000000E+00  0.72483934515E+03  0.10514999537E+04  0.76174803998E+03 0.  0.
        3    1    3    3  502    0 -0.14119537337E+03  0.15145002810E+03 -0.78851809491E+02  0.22156457870E+03  0.10100000352E+00 0.  1.
       -3    1    3    3    0  502  0.14119537337E+03 -0.15145002810E+03  0.80369115464E+03  0.82993537503E+03  0.10100000352E+00 0. -1.
</event>
<event>
 5   0  0.3343036E-02  0.8201311E+03  0.7818609E-02  0.9531327E-01
        2   -1    0    0  501    0  0.00000000000E+00  0.00000000000E+00  0.13217328327E+04  0.13217328327E+04  0.25500000920E-02 0.  1.
       -2   -1    0    0    0  501  0.00000000000E+00  0.00000000000E+00 -0.12722218374E+03  0.12722218377E+03  0.25500000920E-02 0. -1.
    10030    2    1    2    0    0  0.00000000000E+00  0.00000000000E+00  0.11945106490E+04  0.14489550165E+04  0.82013105617E+03 0.  0.
        4    1    3    3  502    0 -0.17880542559E+03  0.32635571377E+03  0.90158907733E+03  0.97536860181E+03  0.12699999809E+01 0.  1.
       -4    1    3    3    0  502  0.17880542559E+03 -0.32635571377E+03  0.29292157163E+03  0.47358641467E+03  0.12699999809E+01 0. -1.
</event>
<event>
 5   0  0.3404132E-02  0.8025946E+03  0.7818609E-02  0.9556269E-01
       -2   -1    0    0    0  501  0.00000000000E+00  0.00000000000E+00  0.20466972712E+03  0.20466972713E+03  0.25500000920E-02 0.  1.
        2   -1    0    0  501    0  0.00000000000E+00  0.00000000000E+00 -0.78682635694E+03  0.78682635694E+03  0.25500000920E-02 0. -1.
    10030    2    1    2    0    0  0.00000000000E+00  0.00000000000E+00 -0.58215662982E+03  0.99149608408E+03  0.80259463186E+03 0.  0.
        5    1    3    3  502    0 -0.25679074707E+03  0.30562944869E+03 -0.24064585028E+03  0.46613663549E+03  0.46999998093E+01 0. -1.
       -5    1    3    3    0  502  0.25679074707E+03 -0.30562944869E+03 -0.34151077954E+03  0.52535944859E+03  0.46999998093E+01 0.  1.
</event>
<event>
 5   0  0.2077795E-02  0.7571085E+03  0.7818609E-02  0.9624264E-01
       -1   -1    0    0    0  501  0.00000000000E+00  0.00000000000E+00  0.11340193312E+03  0.11340193323E+03  0.50400001928E-02 0.  1.
        1   -1    0    0  501    0  0.00000000000E+00  0.00000000000E+00 -0.12636760759E+04  0.12636760759E+04  0.50400001928E-02 0. -1.
    10030    2    1    2    0    0  0.00000000000E+00  0.00000000000E+00 -0.11502741428E+04  0.13770780092E+04  0.75710847288E+03 0.  0.
        5    1    3    3  502    0  0.40971786919E+02 -0.37531776299E+03 -0.62458576205E+03  0.72984352754E+03  0.46999998093E+01 0. -1.
       -5    1    3    3    0  502 -0.40971786919E+02  0.37531776299E+03 -0.52568838075E+03  0.64723448161E+03  0.46999998093E+01 0.  1.
</event>
<event>
 5   0  0.2129257E-02  0.8033526E+03  0.7818609E-02  0.9555177E-01
        1   -1    0    0  501    0  0.00000000000E+00  0.00000000000E+00  0.17495080312E+04  0.17495080312E+04  0.50400001928E-02 0.  1.
       -1   -1    0    0    0  501  0.00000000000E+00  0.00000000000E+00 -0.92222404045E+02  0.92222404182E+02  0.50400001928E-02 0. -1.
    10030    2    1    2    0    0  0.00000000000E+00  0.00000000000E+00  0.16572856271E+04  0.18417304354E+04  0.80335256685E+03 0.  0.
        3    1    3    3  502    0 -0.32175347470E+02  0.11665000724E+03  0.17067285722E+04  0.17110128306E+04  0.10100000352E+00 0.  1.
       -3    1    3    3    0  502  0.32175347470E+02 -0.11665000724E+03 -0.49442945067E+02  0.13071760475E+03  0.10100000352E+00 0. -1.
</event>
<event>
 5   0  0.3467240E-02  0.8061823E+03  0.7818609E-02  0.9551111E-01
       -2   -1    0    0    0  501  0.00000000000E+00  0.00000000000E+00  0.40846832799E+03  0.40846832800E+03  0.25500000920E-02 0. -1.
        2   -1    0    0  501    0  0.00000000000E+00  0.00000000000E+00 -0.39778471634E+03  0.39778471635E+03  0.25500000920E-02 0.  1.
    10030    2    1    2    0    0  0.00000000000E+00  0.00000000000E+00  0.10683611645E+02  0.80625304435E+03  0.80618225729E+03 0.  0.
        2    1    3    3  502    0  0.26326120807E+03 -0.26504038723E+03 -0.14609667773E+03  0.40111981974E+03  0.25500000920E-02 0.  1.
       -2    1    3    3    0  502 -0.26326120807E+03  0.26504038723E+03  0.15678028937E+03  0.40513322461E+03  0.25500000920E-02 0. -1.
</event>
<event>
 5   0  0.3404132E-02  0.8254185E+03  0.7818609E-02  0.9523936E-01
       -2   -1    0    0    0  501  0.00000000000E+00  0.00000000000E+00  0.12682225444E+03  0.12682225446E+03  0.25500000920E-02 0.  1.
        2   -1    0    0  501    0  0.00000000000E+00  0.00000000000E+00 -0.13430524784E+04  0.13430524784E+04  0.25500000920E-02 0. -1.
    10030    2    1    2    0    0  0.00000000000E+00  0.00000000000E+00 -0.12162302240E+04  0.14698747329E+04  0.82541854392E+03 0.  0.
        5    1    3    3  502    0  0.21234430236E+03  0.13297722535E+03 -0.11920690822E+04  0.12181230775E+04  0.46999998093E+01 0. -1.
       -5    1    3    3    0  502 -0.21234430236E+03 -0.13297722535E+03 -0.24161141766E+02  0.25175165536E+03  0.46999998093E+01 0.  1.
</event>
<event>
 5   0  0.3416160E-02  0.7780020E+03  0.7818609E-02  0.9592416E-01
        2   -1    0    0  501    0  0.00000000000E+00  0.00000000000E+00  0.83735701414E+03  0.83735701414E+03  0.25500000920E-02 0. -1.
       -2   -1    0    0    0  501  0.00000000000E+00  0.00000000000E+00 -0.18071356788E+03  0.18071356790E+03  0.25500000920E-02 0.  1.
    10030    2    1    2    0    0  0.00000000000E+00  0.00000000000E+00  0.65664344625E+03  0.10180705820E+04  0.77800198876E+03 0.  0.
        1    1    3    3  502    0 -0.29249287748E+03 -0.25581894841E+03  0.30468197252E+03  0.49378793236E+03  0.50400001928E-02 0. -1.
       -1    1    3    3    0  502  0.29249287748E+03  0.25581894841E+03  0.35196147373E+03  0.52428264968E+03  0.50400001928E-02 0.  1.
</event>
<event>
 5   0  0.3343036E-02  0.8087171E+03  0.7818609E-02  0.9547484E-01
        2   -1    0    0  501    0  0.00000000000E+00  0.00000000000E+00  0.18154870384E+04  0.18154870384E+04  0.25500000920E-02 0. -1.
       -2   -1    0    0    0  501  0.00000000000E+00  0.00000000000E+00 -0.90061694987E+02  0.90061695023E+02  0.25500000920E-02 0.  1.
    10030    2    1    2    0    0  0.00000000000E+00  0.00000000000E+00  0.17254253434E+04  0.19055487334E+04  0.80871710738E+03 0.  0.
        4    1    3    3  502    0 -0.14560615545E+03  0.24579321599E+03  0.15369854126E+04  0.15633109828E+04  0.12699999809E+01 0. -1.
       -4    1    3    3    0  502  0.14560615545E+03 -0.24579321599E+03  0.18843993085E+03  0.34223775065E+03  0.12699999809E+01 0.  1.
</event>
<event>
 5   0  0.3404132E-02  0.7984303E+03  0.7818609E-02  0.9562292E-01
       -2   -1    0    0    0  501  0.00000000000E+00  0.00000000000E+00  0.14039160516E+04  0.14039160516E+04  0.25500000920E-02 0.  1.
        2   -1    0    0  501    0  0.00000000000E+00  0.00000000000E+00 -0.11352011971E+03  0.11352011973E+03  0.25500000920E-02 0. -1.
    10030    2    1    2    0    0  0.00000000000E+00  0.00000000000E+00  0.12903959319E+04  0.15174361713E+04  0.79843025558E+03 0.  0.
        5    1    3    3  502    0  0.30376819859E+02 -0.37258924183E+03  0.91130622482E+03  0.98501097441E+03  0.46999998093E+01 0. -1.
       -5    1    3    3    0  502 -0.30376819859E+02  0.37258924183E+03  0.37908970704E+03  0.53242519690E+03  0.46999998093E+01 0.  1.
</event>
<event>
 5   0  0.3550586E-02  0.8267704E+03  0.7818609E-02  0.9522056E-01
       -2   -1    0    0    0  501  0.00000000000E+00  0.00000000000E+00  0.24458655539E+03  0.24458655540E+03  0.25500000920E-02 0. -1.
        2   -1    0    0  501    0  0.00000000000E+00  0.00000000000E+00 -0.69867829593E+03  0.69867829594E+03  0.25500000920E-02 0.  1.
    10030    2    1    2    0    0  0.00000000000E+00  0.00000000000E+00 -0.45409174055E+03  0.94326485134E+03  0.82677038586E+03 0.  0.
        3    1    3    3  502    0 -0.16861606639E+03  0.33104364282E+03 -0.43388009575E+03  0.57120330792E+03  0.10100000352E+00 0.  1.
       -3    1    3    3    0  502  0.16861606639E+03 -0.33104364282E+03 -0.20211644799E+02  0.37206154341E+03  0.10100000352E+00 0. -1.
</event>
<event>
 5   0  0.2063692E-02  0.7971464E+03  0.7818609E-02  0.9564157E-01
       -1   -1    0    0    0  501  0.00000000000E+00  0.00000000000E+00  0.56907569649E+03  0.56907569651E+03  0.50400001928E-02 0.  1.
        1   -1    0    0  501    0  0.00000000000E+00  0.00000000000E+00 -0.27915546219E+03  0.27915546224E+03  0.50400001928E-02 0. -1.
    10030    2    1    2    0    0  0.00000000000E+00  0.00000000000E+00  0.28992023430E+03  0.84823115875E+03  0.79714638331E+03 0.  0.
        2    1    3    3  502    0  0.11233194745E+03  0.10669177648E+02 -0.26180461841E+03  0.28508587477E+03  0.25500000920E-02 0. -1.
       -2    1    3    3    0  502 -0.11233194745E+03 -0.10669177648E+02  0.55172485271E+03  0.56314528398E+03  0.25500000920E-02 0.  1.
</event>
<event>
 5   0  0.3404132E-02  0.8165682E+03  0.7818609E-02  0.9536340E-01
       -2   -1    0    0    0  501  0.00000000000E+00  0.00000000000E+00  0.21016185389E+03  0.21016185390E+03  0.25500000920E-02 0. -1.
        2   -1    0    0  501    0  0.00000000000E+00  0.00000000000E+00 -0.79317861054E+03  0.79317861055E+03  0.25500000920E-02 0.  1.
    10030    2    1    2    0    0  0.00000000000E+00  0.00000000000E+00 -0.58301675666E+03  0.10033404645E+04  0.81656815335E+03 0.  0.
        5    1    3    3  502    0 -0.29240334864E+03  0.28159544553E+03 -0.23825914016E+03  0.47072839421E+03  0.46999998093E+01 0.  1.
       -5    1    3    3    0  502  0.29240334864E+03 -0.28159544553E+03 -0.34475761650E+03  0.53261207025E+03  0.46999998093E+01 0. -1.
</event>
<event>
 5   0  0.2077795E-02  0.7959917E+03  0.7818609E-02  0.9565837E-01
       -1   -1    0    0    0  501  0.00000000000E+00  0.00000000000E+00  0.68208549736E+03  0.68208549738E+03  0.50400001928E-02 0.  1.
        1   -1    0    0  501    0  0.00000000000E+00  0.00000000000E+00 -0.23222997178E+03  0.23222997184E+03  0.50400001928E-02 0. -1.
    10030    2    1    2    0    0  0.00000000000E+00  0.00000000000E+00  0.44985552558E+03  0.91431546922E+03  0.79599169805E+03 0.  0.
        5    1    3    3  502    0 -0.22677618430E+03 -0.19073995961E+03  0.53006545150E+03  0.60728958729E+03  0.46999998093E+01 0.  1.
       -5    1    3    3    0  502  0.22677618430E+03  0.19073995961E+03 -0.80209925922E+02  0.30702588193E+03  0.46999998093E+01 0. -1.
</event>
<event>
 5   0  0.2077795E-02  0.7904859E+03  0.7818609E-02  0.9573891E-01
        1   -1    0    0  501    0  0.00000000000E+00  0.00000000000E+00  0.26888840470E+03  0.26888840475E+03  0.50400001928E-02 0. -1.
       -1   -1    0    0    0  501  0.00000000000E+00  0.00000000000E+00 -0.58097331824E+03  0.58097331826E+03  0.50400001928E-02 0.  1.
    10030    2    1    2    0    0  0.00000000000E+00  0.00000000000E+00 -0.31208491354E+03  0.84986172301E+03  0.79048589803E+03 0.  0.
        5    1    3    3  502    0  0.11934761103E+03 -0.11012158484E+03 -0.54341792056E+03  0.56718228294E+03  0.46999998093E+01 0.  1.
       -5    1    3    3    0  502 -0.11934761103E+03  0.11012158484E+03  0.23133300701E+03  0.28267944007E+03  0.46999998093E+01 0. -1.
</event>
<event>
 5   0  0.2077795E-02  0.7991680E+03  0.7818609E-02  0.9561222E-01
       -1   -1    0    0    0  501  0.00000000000E+00  0.00000000000E+00  0.14979208846E+03  0.14979208855E+03  0.50400001928E-02 0.  1.
        1   -1    0    0  501    0  0.00000000000E+00  0.00000000000E+00 -0.10659266171E+04  0.10659266171E+04  0.50400001928E-02 0. -1.
    10030    2    1    2    0    0  0.00000000000E+00  0.00000000000E+00 -0.91613452863E+03  0.12157187057E+04  0.79916800282E+03 0.  0.
        5    1    3    3  502    0  0.26488866744E+03 -0.29511291958E+03 -0.53239992600E+03  0.66387454586E+03  0.46999998093E+01 0.  1.
       -5    1    3    3    0  502 -0.26488866744E+03  0.29511291958E+03 -0.38373460264E+03  0.55184415980E+03  0.46999998093E+01 0. -1.
</event>
<event>
 5   0  0.2132540E-02  0.7980687E+03  0.7818609E-02  0.9562817E-01
       -1   -1    0    0    0  501  0.00000000000E+00  0.00000000000E+00  0.10415686220E+03  0.10415686232E+03  0.50400001928E-02 0.  1.
        1   -1    0    0  501    0  0.00000000000E+00  0.00000000000E+00 -0.15287366669E+04  0.15287366669E+04  0.50400001928E-02 0. -1.
    10030    2    1    2    0    0  0.00000000000E+00  0.00000000000E+00 -0.14245798047E+04  0.16328935292E+04  0.79806870497E+03 0.  0.
        4    1    3    3  502    0  0.13263054357E+03 -0.33754249610E+03 -0.37175209097E+03  0.51935250823E+03  0.12699999809E+01 0.  1.
       -4    1    3    3    0  502 -0.13263054357E+03  0.33754249610E+03 -0.10528277137E+04  0.11135410210E+04  0.12699999809E+01 0. -1.
</event>
<event>
 5   0  0.3550586E-02  0.7991253E+03  0.7818609E-02  0.9561284E-01
        2   -1    0    0  501    0  0.00000000000E+00  0.00000000000E+00  0.73745830740E+03  0.73745830740E+03  0.25500000920E-02 0. -1.
       -2   -1    0    0    0  501  0.00000000000E+00  0.00000000000E+00 -0.21648725708E+03  0.21648725709E+03  0.25500000920E-02 0.  1.
    10030    2    1    2    0    0  0.00000000000E+00  0.00000000000E+00  0.52097105032E+03  0.95394556450E+03  0.79912533732E+03 0.  0.
        3    1    3    3  502    0 -0.52523431392E+02 -0.26273139600E+03 -0.93360017715E+02  0.28372980174E+03  0.10100000352E+00 0.  1.
       -3    1    3    3    0  502  0.52523431392E+02  0.26273139600E+03  0.61433106803E+03  0.67021576275E+03  0.10100000352E+00 0. -1.
</event>
<event>
 5   0  0.1358000E-02  0.8030410E+03  0.7818609E-02  0.9555626E-01
        4   -1    0    0  501    0  0.00000000000E+00  0.00000000000E+00  0.68016397458E+03  0.68016516025E+03  0.12699999809E+01 0. -1.
       -4   -1    0    0    0  501  0.00000000000E+00  0.00000000000E+00 -0.23702610738E+03  0.23702950972E+03  0.12699999809E+01 0.  1.
    10030    2    1    2    0    0  0.00000000000E+00  0.00000000000E+00  0.44313786721E+03  0.91719466997E+03  0.80304102839E+03 0.  0.
        2    1    3    3  502    0  0.24699976024E+03  0.13048151968E+02 -0.13968262864E+03  0.28406050866E+03  0.25500000920E-02 0.  1.
       -2    1    3    3    0  502 -0.24699976024E+03 -0.13048151968E+02  0.58282049585E+03  0.63313416131E+03  0.25500000920E-02 0. -1.
</event>
<event>
 5   0  0.2132540E-02  0.8317431E+03  0.7818609E-02  0.9515174E-01
       -1   -1    0    0    0  501  0.00000000000E+00  0.00000000000E+00  0.35875298672E+03  0.35875298675E+03  0.50400001928E-02 0.  1.
        1   -1    0    0  501    0  0.00000000000E+00  0.00000000000E+00 -0.48208417693E+03  0.48208417695E+03  0.50400001928E-02 0. -1.
    10030    2    1    2    0    0  0.00000000000E+00  0.00000000000E+00 -0.12333119021E+03  0.84083716371E+03  0.83174308136E+03 0.  0.
        4    1    3    3  502    0 -0.40269195424E+03  0.78083128152E+00  0.43326121969E+02  0.40501874704E+03  0.12699999809E+01 0. -1.
       -4    1    3    3    0  502  0.40269195424E+03 -0.78083128152E+00 -0.16665731218E+03  0.43581841667E+03  0.12699999809E+01 0.  1.
</event>
<event>
 5   0  0.3467240E-02  0.8100425E+03  0.7818609E-02  0.9545594E-01
       -2   -1    0    0    0  501  0.00000000000E+00  0.00000000000E+00  0.22051812050E+03  0.22051812051E+03  0.25500000920E-02 0. -1.
        2   -1    0    0  501    0  0.00000000000E+00  0.00000000000E+00 -0.74389440119E+03  0.74389440120E+03  0.25500000920E-02 0.  1.
    10030    2    1    2    0    0  0.00000000000E+00  0.00000000000E+00 -0.52337628069E+03  0.96441252171E+03  0.81004245619E+03 0.  0.
        2    1    3    3  502    0 -0.30734535923E+03  0.20045280838E+03 -0.57548904025E+02  0.37142209760E+03  0.25500000920E-02 0. -1.
       -2    1    3    3    0  502  0.30734535923E+03 -0.20045280838E+03 -0.46582737667E+03  0.59299042411E+03  0.25500000920E-02 0.  1.
</event>
<event>
 5   0  0.3467240E-02  0.7616522E+03  0.7818609E-02  0.9617245E-01
        2   -1    0    0  501    0  0.00000000000E+00  0.00000000000E+00  0.88590562093E+03  0.88590562094E+03  0.25500000920E-02 0. -1.
       -2   -1    0    0    0  501  0.00000000000E+00  0.00000000000E+00 -0.16370651757E+03  0.16370651759E+03  0.25500000920E-02 0.  1.
    10030    2    1    2    0    0  0.00000000000E+00  0.00000000000E+00  0.72219910336E+03  0.10496121385E+04  0.76165221490E+03 0.  0.
        2    1    3    3  502    0  0.25206379164E+03  0.14289007087E+03  0.20532091763E+02  0.29047425739E+03  0.25500000920E-02 0.  1.
       -2    1    3    3    0  502 -0.25206379164E+03 -0.14289007087E+03  0.70166701160E+03  0.75913788114E+03  0.25500000920E-02 0. -1.
</event>
<event>
 5   0  0.2132540E-02  0.8328970E+03  0.7818609E-02  0.9513584E-01
        1   -1    0    0  501    0  0.00000000000E+00  0.00000000000E+00  0.40753803715E+03  0.40753803718E+03  0.50400001928E-02 0. -1.
       -1   -1    0    0    0  501  0.00000000000E+00  0.00000000000E+00 -0.42555382137E+03  0.42555382140E+03  0.50400001928E-02 0.  1.
    10030    2    1    2    0    0  0.00000000000E+00  0.00000000000E+00 -0.18015784227E+02  0.83309185858E+03  0.83289703826E+03 0.  0.
        4    1    3    3  502    0  0.32136896219E+03  0.30223417020E+02  0.25418155460E+03  0.41085440292E+03  0.12699999809E+01 0. -1.
       -4    1    3    3    0  502 -0.32136896219E+03 -0.30223417020E+02 -0.27219733883E+03  0.42223745566E+03  0.12699999809E+01 0.  1.
</event>
<event>
 5   0  0.3404132E-02  0.7990236E+03  0.7818609E-02  0.9561431E-01
        2   -1    0    0  501    0  0.00000000000E+00  0.00000000000E+00  0.11943263102E+04  0.11943263102E+04  0.25500000920E-02 0. -1.
       -2   -1    0    0    0  501  0.00000000000E+00  0.00000000000E+00 -0.13363993487E+03  0.13363993490E+03  0.25500000920E-02 0.  1.
    10030    2    1    2    0    0  0.00000000000E+00  0.00000000000E+00  0.10606863753E+04  0.13279662451E+04  0.79902363002E+03 0.  0.
        5    1    3    3  502    0 -0.50700151702E+02  0.20491593313E+03  0.10940151979E+04  0.11142048233E+04  0.46999998093E+01 0. -1.
       -5    1    3    3    0  502  0.50700151702E+02 -0.20491593313E+03 -0.33328822577E+02  0.21376142179E+03  0.46999998093E+01 0.  1.
</event>
<event>
 5   0  0.2129257E-02  0.5659790E+03  0.7818609E-02  0.9978616E-01
        1   -1    0    0  501    0  0.00000000000E+00  0.00000000000E+00  0.15617158159E+03  0.15617158167E+03  0.50400001928E-02 0. -1.
       -1   -1    0    0    0  501  0.00000000000E+00  0.00000000000E+00 -0.51278887844E+03  0.51278887846E+03  0.50400001928E-02 0.  1.
    10030    2    1    2    0    0  0.00000000000E+00  0.00000000000E+00 -0.35661729685E+03  0.66896046013E+03  0.56597897559E+03 0.  0.
        3    1    3    3  502    0 -0.13999825867E+03  0.23234896734E+03 -0.27358229568E+03  0.38526982462E+03  0.10100000352E+00 0.  1.
       -3    1    3    3    0  502  0.13999825867E+03 -0.23234896734E+03 -0.83035001173E+02  0.28369063551E+03  0.10100000352E+00 0. -1.
</event>
<event>
 5   0  0.3343036E-02  0.8007896E+03  0.7818609E-02  0.9558875E-01
        2   -1    0    0  501    0  0.00000000000E+00  0.00000000000E+00  0.88672277672E+03  0.88672277673E+03  0.25500000920E-02 0. -1.
       -2   -1    0    0    0  501  0.00000000000E+00  0.00000000000E+00 -0.18079606403E+03  0.18079606404E+03  0.25500000920E-02 0.  1.
    10030    2    1    2    0    0  0.00000000000E+00  0.00000000000E+00  0.70592671270E+03  0.10675188408E+04  0.80078958016E+03 0.  0.
        4    1    3    3  502    0  0.59216568486E+02  0.39552522125E+03  0.32740525544E+03  0.51685841081E+03  0.12699999809E+01 0. -1.
       -4    1    3    3    0  502 -0.59216568486E+02 -0.39552522125E+03  0.37852145725E+03  0.55066042996E+03  0.12699999809E+01 0.  1.
</event>
<event>
 5   0  0.1358000E-02  0.8422921E+03  0.7818609E-02  0.9500741E-01
       -3   -1    0    0    0  501  0.00000000000E+00  0.00000000000E+00  0.33568653266E+03  0.33568654785E+03  0.10100000352E+00 0. -1.
        3   -1    0    0  501    0  0.00000000000E+00  0.00000000000E+00 -0.52836193017E+03  0.52836193982E+03  0.10100000352E+00 0.  1.
    10030    2    1    2    0    0  0.00000000000E+00  0.00000000000E+00 -0.19267539751E+03  0.86404848768E+03  0.84229209913E+03 0.  0.
        4    1    3    3  502    0 -0.33997347158E+03  0.16362831774E+03 -0.28826989712E+03  0.47482347692E+03  0.12699999809E+01 0.  1.
       -4    1    3    3    0  502  0.33997347158E+03 -0.16362831774E+03  0.95594499607E+02  0.38922501076E+03  0.12699999809E+01 0. -1.
</event>
<event>
 5   0  0.1358000E-02  0.7762812E+03  0.7818609E-02  0.9594998E-01
        4   -1    0    0  501    0  0.00000000000E+00  0.00000000000E+00  0.32764785188E+03  0.32765031320E+03  0.12699999809E+01 0.  1.
       -4   -1    0    0    0  501  0.00000000000E+00  0.00000000000E+00 -0.45979693501E+03  0.45979868893E+03  0.12699999809E+01 0. -1.
    10030    2    1    2    0    0  0.00000000000E+00  0.00000000000E+00 -0.13214908313E+03  0.78744900213E+03  0.77628123176E+03 0.  0.
        2    1    3    3  502    0  0.36786103561E+01 -0.14977467459E+03  0.29713686397E+03  0.33277064362E+03  0.25500000920E-02 0.  1.
       -2    1    3    3    0  502 -0.36786103561E+01  0.14977467459E+03 -0.42928594709E+03  0.45467835851E+03  0.25500000920E-02 0. -1.
</event>
<event>
 5   0  0.1989298E-02  0.8296362E+03  0.7818609E-02  0.9518084E-01
        1   -1    0    0  501    0  0.00000000000E+00  0.00000000000E+00  0.55745642857E+03  0.55745642859E+03  0.50400001928E-02 0.  1.
       -1   -1    0    0    0  501  0.00000000000E+00  0.00000000000E+00 -0.30867713246E+03  0.30867713251E+03  0.50400001928E-02 0. -1.
    10030    2    1    2    0    0  0.00000000000E+00  0.00000000000E+00  0.24877929610E+03  0.86613356110E+03  0.82963618984E+03 0.  0.
        1    1    3    3  502    0 -0.31643593287E+03 -0.17065098601E+03 -0.91645054087E+02  0.37101519457E+03  0.50400001928E-02 0. -1.
       -1    1    3    3    0  502  0.31643593287E+03  0.17065098601E+03  0.34042435019E+03  0.49511836652E+03  0.50400001928E-02 0.  1.
</event>
<event>
 5   0  0.1989298E-02  0.8148741E+03  0.7818609E-02  0.9538734E-01
       -1   -1    0    0    0  501  0.00000000000E+00  0.00000000000E+00  0.26035865070E+03  0.26035865075E+03  0.50400001928E-02 0. -1.
        1   -1    0    0  501    0  0.00000000000E+00  0.00000000000E+00 -0.63760101323E+03  0.63760101325E+03  0.50400001928E-02 0.  1.
    10030    2    1    2    0    0  0.00000000000E+00  0.00000000000E+00 -0.37724236252E+03  0.89795966399E+03  0.81487407498E+03 0.  0.
        1    1    3    3  502    0  0.21648357239E+03  0.13547599368E+03 -0.53845883871E+03  0.59595033600E+03  0.50400001928E-02 0.  1.
       -1    1    3    3    0  502 -0.21648357239E+03 -0.13547599368E+03  0.16121647618E+03  0.30200932799E+03  0.50400001928E-02 0. -1.
</event>
<event>
 5   0  0.2129257E-02  0.7974652E+03  0.7818609E-02  0.9563693E-01
       -1   -1    0    0    0  501  0.00000000000E+00  0.00000000000E+00  0.23058532871E+03  0.23058532877E+03  0.50400001928E-02 0. -1.
        1   -1    0    0  501    0  0.00000000000E+00  0.00000000000E+00 -0.68949609122E+03  0.68949609123E+03  0.50400001928E-02 0.  1.
    10030    2    1    2    0    0  0.00000000000E+00  0.00000000000E+00 -0.45891076251E+03  0.92008142000E+03  0.79746519139E+03 0.  0.
        3    1    3    3  502    0  0.21694656395E+02  0.34914999950E+03 -0.45021623001E+03  0.57015001906E+03  0.10100000352E+00 0.  1.
       -3    1    3    3    0  502 -0.21694656395E+02 -0.34914999950E+03 -0.86945324962E+01  0.34993140094E+03  0.10100000352E+00 0. -1.
</event>
<event>
 5   0  0.3343036E-02  0.6216184E+03  0.7818609E-02  0.9861543E-01
        2   -1    0    0  501    0  0.00000000000E+00  0.00000000000E+00  0.79967799385E+03  0.79967799386E+03  0.25500000920E-02 0. -1.
       -2   -1    0    0    0  501  0.00000000000E+00  0.00000000000E+00 -0.12080158814E+03  0.12080158817E+03  0.25500000920E-02 0.  1.
    10030    2    1    2    0    0  0.00000000000E+00  0.00000000000E+00  0.67887640571E+03  0.92047958203E+03  0.62161844141E+03 0.  0.
        4    1    3    3  502    0 -0.75608999454E+02  0.22617295072E+03  0.63459218464E+03  0.67792313587E+03  0.12699999809E+01 0. -1.
       -4    1    3    3    0  502  0.75608999454E+02 -0.22617295072E+03  0.44284221069E+02  0.24255644616E+03  0.12699999809E+01 0.  1.
</event>
<event>
 5   0  0.3416160E-02  0.8022733E+03  0.7818609E-02  0.9556732E-01
        2   -1    0    0  501    0  0.00000000000E+00  0.00000000000E+00  0.42917309145E+03  0.42917309145E+03  0.25500000920E-02 0. -1.
       -2   -1    0    0    0  501  0.00000000000E+00  0.00000000000E+00 -0.37493171770E+03  0.37493171771E+03  0.25500000920E-02 0.  1.
    10030    2    1    2    0    0  0.00000000000E+00  0.00000000000E+00  0.54241373749E+02  0.80410480916E+03  0.80227328105E+03 0.  0.
        1    1    3    3  502    0 -0.16486756786E+02 -0.11141854283E+03 -0.35875784734E+03  0.37602273586E+03  0.50400001928E-02 0.  1.
       -1    1    3    3    0  502  0.16486756786E+02  0.11141854283E+03  0.41299922109E+03  0.42808207330E+03  0.50400001928E-02 0. -1.
</event>
<event>
 5   0  0.1358000E-02  0.7747832E+03  0.7818609E-02  0.9597252E-01
        4   -1    0    0  501    0  0.00000000000E+00  0.00000000000E+00  0.26905692787E+03  0.26905992517E+03  0.12699999809E+01 0. -1.
       -4   -1    0    0    0  501  0.00000000000E+00  0.00000000000E+00 -0.55776450242E+03  0.55776594828E+03  0.12699999809E+01 0.  1.
    10030    2    1    2    0    0  0.00000000000E+00  0.00000000000E+00 -0.28870757455E+03  0.82682587345E+03  0.77478317057E+03 0.  0.
        2    1    3    3  502    0  0.16231389187E+03 -0.13769266783E+03 -0.48977299702E+03  0.53402496091E+03  0.25500000920E-02 0.  1.
       -2    1    3    3    0  502 -0.16231389187E+03  0.13769266783E+03  0.20106542246E+03  0.29280091254E+03  0.25500000920E-02 0. -1.
</event>
<event>
 5   0  0.2063692E-02  0.8110218E+03  0.7818609E-02  0.9544199E-01
       -1   -1    0    0    0  501  0.00000000000E+00  0.00000000000E+00  0.41858989655E+03  0.41858989658E+03  0.50400001928E-02 0.  1.
        1   -1    0    0  501    0  0.00000000000E+00  0.00000000000E+00 -0.39284051680E+03  0.39284051684E+03  0.50400001928E-02 0. -1.
    10030    2    1    2    0    0  0.00000000000E+00  0.00000000000E+00  0.25749379743E+02  0.81143041341E+03  0.81102175387E+03 0.  0.
        2    1    3    3  502    0 -0.13072197084E+03 -0.26550100627E+03 -0.26450146209E+03  0.39691314093E+03  0.25500000920E-02 0. -1.
       -2    1    3    3    0  502  0.13072197084E+03  0.26550100627E+03  0.29025084183E+03  0.41451727248E+03  0.25500000920E-02 0.  1.
</event>
<event>
 5   0  0.2077795E-02  0.8045748E+03  0.7818609E-02  0.9553419E-01
       -1   -1    0    0    0  501  0.00000000000E+00  0.00000000000E+00  0.14444566159E+03  0.14444566168E+03  0.50400001928E-02 0. -1.
        1   -1    0    0  501    0  0.00000000000E+00  0.00000000000E+00 -0.11203876454E+04  0.11203876455E+04  0.50400001928E-02 0.  1.
    10030    2    1    2    0    0  0.00000000000E+00  0.00000000000E+00 -0.97594198386E+03  0.12648333071E+04  0.80457475663E+03 0.  0.
        5    1    3    3  502    0  0.32134598224E+03 -0.86406807813E+02 -0.84328139868E+03  0.90657320946E+03  0.46999998093E+01 0.  1.
       -5    1    3    3    0  502 -0.32134598224E+03  0.86406807813E+02 -0.13266058517E+03  0.35826009769E+03  0.46999998093E+01 0. -1.
</event>
<event>
 5   0  0.3343036E-02  0.7766272E+03  0.7818609E-02  0.9594478E-01
       -2   -1    0    0    0  501  0.00000000000E+00  0.00000000000E+00  0.14748237518E+03  0.14748237520E+03  0.25500000920E-02 0.  1.
        2   -1    0    0  501    0  0.00000000000E+00  0.00000000000E+00 -0.10224099399E+04  0.10224099399E+04  0.25500000920E-02 0. -1.
    10030    2    1    2    0    0  0.00000000000E+00  0.00000000000E+00 -0.87492756468E+03  0.11698923151E+04  0.77662718560E+03 0.  0.
        4    1    3    3  502    0  0.13202133049E+03 -0.22292772954E+02  0.11160805845E+03  0.17431170656E+03  0.12699999809E+01 0.  1.
       -4    1    3    3    0  502 -0.13202133049E+03  0.22292772954E+02 -0.98653562313E+03  0.99558060851E+03  0.12699999809E+01 0. -1.
</event>
<event>
 5   0  0.2129257E-02  0.8193265E+03  0.7818609E-02  0.9532457E-01
       -1   -1    0    0    0  501  0.00000000000E+00  0.00000000000E+00  0.15629896105E+03  0.15629896113E+03  0.50400001928E-02 0. -1.
        1   -1    0    0  501    0  0.00000000000E+00  0.00000000000E+00 -0.10737370408E+04  0.10737370408E+04  0.50400001928E-02 0.  1.
    10030    2    1    2    0    0  0.00000000000E+00  0.00000000000E+00 -0.91743807977E+03  0.12300360020E+04  0.81932651360E+03 0.  0.
        3    1    3    3  502    0 -0.30357146307E+02  0.37538126698E+03 -0.70075227039E+03  0.79554158068E+03  0.10100000352E+00 0.  1.
       -3    1    3    3    0  502  0.30357146307E+02 -0.37538126698E+03 -0.21668580939E+03  0.43449442128E+03  0.10100000352E+00 0. -1.
</event>
<event>
 5   0  0.3343036E-02  0.7956516E+03  0.7818609E-02  0.9566333E-01
        2   -1    0    0  501    0  0.00000000000E+00  0.00000000000E+00  0.30307054759E+03  0.30307054760E+03  0.25500000920E-02 0.  1.
       -2   -1    0    0    0  501  0.00000000000E+00  0.00000000000E+00 -0.52220633473E+03  0.52220633473E+03  0.25500000920E-02 0. -1.
    10030    2    1    2    0    0  0.00000000000E+00  0.00000000000E+00 -0.21913578714E+03  0.82527688233E+03  0.79565158160E+03 0.  0.
        4    1    3    3  502    0 -0.16640564902E+02  0.55624459441E+02  0.29865025236E+03  0.30424426868E+03  0.12699999809E+01 0.  1.
       -4    1    3    3    0  502  0.16640564902E+02 -0.55624459441E+02 -0.51778603950E+03  0.52103261365E+03  0.12699999809E+01 0. -1.
</event>
<event>
 5   0  0.1989298E-02  0.7966358E+03  0.7818609E-02  0.9564899E-01
       -1   -1    0    0    0  501  0.00000000000E+00  0.00000000000E+00  0.38036342568E+03  0.38036342571E+03  0.50400001928E-02 0.  1.
        1   -1    0    0  501    0  0.00000000000E+00  0.00000000000E+00 -0.41711992924E+03  0.41711992927E+03  0.50400001928E-02 0. -1.
    10030    2    1    2    0    0  0.00000000000E+00  0.00000000000E+00 -0.36756503563E+02  0.79748335498E+03  0.79663583959E+03 0.  0.
        1    1    3    3  502    0  0.96200724900E+02 -0.36978203367E+03 -0.13103167134E+03  0.40393394362E+03  0.50400001928E-02 0. -1.
       -1    1    3    3    0  502 -0.96200724900E+02  0.36978203367E+03  0.94275167774E+02  0.39354941135E+03  0.50400001928E-02 0.  1.
</event>
<event>
 5   0  0.1989298E-02  0.8130989E+03  0.7818609E-02  0.9541248E-01
       -1   -1    0    0    0  501  0.00000000000E+00  0.00000000000E+00  0.11080853309E+04  0.11080853309E+04  0.50400001928E-02 0. -1.
        1   -1    0    0  501    0  0.00000000000E+00  0.00000000000E+00 -0.14916040289E+03  0.14916040297E+03  0.50400001928E-02 0.  1.
    10030    2    1    2    0    0  0.00000000000E+00  0.00000000000E+00  0.95892492804E+03  0.12572457339E+04  0.81309889793E+03 0.  0.
        1    1    3    3  502    0  0.17223199920E+03 -0.20317066830E+03  0.95438782470E+03  0.99085735702E+03  0.50400001928E-02 0. -1.
       -1    1    3    3    0  502 -0.17223199920E+03  0.20317066830E+03  0.45371033419E+01  0.26638837689E+03  0.50400001928E-02 0.  1.
</event>
<event>
 5   0  0.3343036E-02  0.8045150E+03  0.7818609E-02  0.9553505E-01
       -2   -1    0    0    0  501  0.00000000000E+00  0.00000000000E+00  0.13850508982E+03  0.13850508985E+03  0.25500000920E-02 0.  1.
        2   -1    0    0  501    0  0.00000000000E+00  0.00000000000E+00 -0.11682681261E+04  0.11682681261E+04  0.25500000920E-02 0. -1.
    10030    2    1    2    0    0  0.00000000000E+00  0.00000000000E+00 -0.10297630363E+04  0.13067732160E+04  0.80451496385E+03 0.  0.
        4    1    3    3  502    0 -0.36395257634E+03  0.99916333340E+02 -0.28884860645E+03  0.47526822095E+03  0.12699999809E+01 0.  1.
       -4    1    3    3    0  502  0.36395257634E+03 -0.99916333340E+02 -0.74091442984E+03  0.83150499501E+03  0.12699999809E+01 0. -1.
</event>
<event>
 5   0  0.3416160E-02  0.7899724E+03  0.7818609E-02  0.9574646E-01
       -2   -1    0    0    0  501  0.00000000000E+00  0.00000000000E+00  0.85001999890E+02  0.85001999928E+02  0.25500000920E-02 0.  1.
        2   -1    0    0  501    0  0.00000000000E+00  0.00000000000E+00 -0.18354166425E+04  0.18354166425E+04  0.25500000920E-02 0. -1.
    10030    2    1    2    0    0  0.00000000000E+00  0.00000000000E+00 -0.17504146426E+04  0.19204186425E+04  0.78997236733E+03 0.  0.
        1    1    3    3  502    0 -0.74580899132E+02  0.31991193171E+03 -0.14084111437E+04  0.14462115696E+04  0.50400001928E-02 0. -1.
       -1    1    3    3    0  502  0.74580899132E+02 -0.31991193171E+03 -0.34200349899E+03  0.47420707282E+03  0.50400001928E-02 0.  1.
</event>
<event>
 5   0  0.3343036E-02  0.8066646E+03  0.7818609E-02  0.9550420E-01
        2   -1    0    0  501    0  0.00000000000E+00  0.00000000000E+00  0.83228059367E+03  0.83228059368E+03  0.25500000920E-02 0. -1.
       -2   -1    0    0    0  501  0.00000000000E+00  0.00000000000E+00 -0.19545923447E+03  0.19545923449E+03  0.25500000920E-02 0.  1.
    10030    2    1    2    0    0  0.00000000000E+00  0.00000000000E+00  0.63682135920E+03  0.10277398282E+04  0.80666455907E+03 0.  0.
        4    1    3    3  502    0 -0.15881729505E+03 -0.32133604745E+03  0.82810912825E+02  0.36788455904E+03  0.12699999809E+01 0.  1.
       -4    1    3    3    0  502  0.15881729505E+03  0.32133604745E+03  0.55401044637E+03  0.65985526912E+03  0.12699999809E+01 0. -1.
</event>
<event>
 5   0  0.3343036E-02  0.8152653E+03  0.7818609E-02  0.9538180E-01
        2   -1    0    0  501    0  0.00000000000E+00  0.00000000000E+00  0.16652373513E+04  0.16652373513E+04  0.25500000920E-02 0. -1.
       -2   -1    0    0    0  501  0.00000000000E+00  0.00000000000E+00 -0.99784199956E+02  0.99784199989E+02  0.25500000920E-02 0.  1.
    10030    2    1    2    0    0  0.00000000000E+00  0.00000000000E+00  0.15654531514E+04  0.17650215513E+04  0.81526529883E+03 0.  0.
        4    1    3    3  502    0 -0.72873734130E+01 -0.19610958238E+03  0.15562307084E+04  0.15685559297E+04  0.12699999809E+01 0. -1.
       -4    1    3    3    0  502  0.72873734130E+01  0.19610958238E+03  0.92224429990E+01  0.19646562159E+03  0.12699999809E+01 0.  1.
</event>
<event>
 5   0  0.1989298E-02  0.8117666E+03  0.7818609E-02  0.9543140E-01
        1   -1    0    0  501    0  0.00000000000E+00  0.00000000000E+00  0.36520725505E+03  0.36520725508E+03  0.50400001928E-02 0.  1.
       -1   -1    0    0    0  501  0.00000000000E+00  0.00000000000E+00 -0.45108971109E+03  0.45108971112E+03  0.50400001928E-02 0. -1.
    10030    2    1    2    0    0  0.00000000000E+00  0.00000000000E+00 -0.85882456042E+02  0.81629696620E+03  0.81176655558E+03 0.  0.
        1    1    3    3  502    0  0.26227347415E+03 -0.24842667239E+03  0.14312670294E+03  0.38857230976E+03  0.50400001928E-02 0.  1.
       -1    1    3    3    0  502 -0.26227347415E+03  0.24842667239E+03 -0.22900915898E+03  0.42772465643E+03  0.50400001928E-02 0. -1.
</event>
<event>
 5   0  0.2129257E-02  0.8216647E+03  0.7818609E-02  0.9529177E-01
       -1   -1    0    0    0  501  0.00000000000E+00  0.00000000000E+00  0.18827465397E+03  0.18827465403E+03  0.50400001928E-02 0. -1.
        1   -1    0    0  501    0  0.00000000000E+00  0.00000000000E+00 -0.89647342215E+03  0.89647342217E+03  0.50400001928E-02 0.  1.
    10030    2    1    2    0    0  0.00000000000E+00  0.00000000000E+00 -0.70819876819E+03  0.10847480762E+04  0.82166470872E+03 0.  0.
        3    1    3    3  502    0  0.78240625521E+02  0.23619429538E+02  0.17743427638E+03  0.19535200427E+03  0.10100000352E+00 0. -1.
       -3    1    3    3    0  502 -0.78240625521E+02 -0.23619429538E+02 -0.88563304457E+03  0.88939607193E+03  0.10100000352E+00 0.  1.
</event>
<event>
 5   0  0.3467240E-02  0.7818951E+03  0.7818609E-02  0.9586599E-01
        2   -1    0    0  501    0  0.00000000000E+00  0.00000000000E+00  0.24867639043E+03  0.24867639044E+03  0.25500000920E-02 0.  1.
       -2   -1    0    0    0  501  0.00000000000E+00  0.00000000000E+00 -0.61461394317E+03  0.61461394318E+03  0.25500000920E-02 0. -1.
    10030    2    1    2    0    0  0.00000000000E+00  0.00000000000E+00 -0.36593755275E+03  0.86329033362E+03  0.78189507455E+03 0.  0.
        2    1    3    3  502    0 -0.92252760455E+02  0.32857030674E+03  0.27596024802E+02  0.34238948418E+03  0.25500000920E-02 0.  1.
       -2    1    3    3    0  502  0.92252760455E+02 -0.32857030674E+03 -0.39353357755E+03  0.52090084944E+03  0.25500000920E-02 0. -1.
</event>
<event>
 5   0  0.1358000E-02  0.8095293E+03  0.7818609E-02  0.9546325E-01
        3   -1    0    0  501    0  0.00000000000E+00  0.00000000000E+00  0.13296271112E+03  0.13296274948E+03  0.10100000352E+00 0. -1.
       -3   -1    0    0    0  501  0.00000000000E+00  0.00000000000E+00 -0.12321829526E+04  0.12321829568E+04  0.10100000352E+00 0.  1.
    10030    2    1    2    0    0  0.00000000000E+00  0.00000000000E+00 -0.10992202415E+04  0.13651457063E+04  0.80952928293E+03 0.  0.
        3    1    3    3  502    0  0.30029199396E+03 -0.10398686856E+03 -0.97236123563E+03  0.10229735741E+04  0.10100000352E+00 0.  1.
       -3    1    3    3    0  502 -0.30029199396E+03  0.10398686856E+03 -0.12685900589E+03  0.34217213219E+03  0.10100000352E+00 0. -1.
</event>
<event>
 5   0  0.2063692E-02  0.6628128E+03  0.7818609E-02  0.9783029E-01
       -1   -1    0    0    0  501  0.00000000000E+00  0.00000000000E+00  0.11626093494E+03  0.11626093505E+03  0.50400001928E-02 0. -1.
        1   -1    0    0  501    0  0.00000000000E+00  0.00000000000E+00 -0.94468717455E+03  0.94468717457E+03  0.50400001928E-02 0.  1.
    10030    2    1    2    0    0  0.00000000000E+00  0.00000000000E+00 -0.82842623961E+03  0.10609481096E+04  0.66281283694E+03 0.  0.
        2    1    3    3  502    0 -0.75465564760E+02 -0.13599892978E+03  0.54212000277E+02  0.16471096304E+03  0.25500000920E-02 0. -1.
       -2    1    3    3    0  502  0.75465564760E+02  0.13599892978E+03 -0.88263823989E+03  0.89623714657E+03  0.25500000920E-02 0.  1.
</event>
<event>
 5   0  0.2063692E-02  0.7934801E+03  0.7818609E-02  0.9569503E-01
       -1   -1    0    0    0  501  0.00000000000E+00  0.00000000000E+00  0.76870929926E+02  0.76870930091E+02  0.50400001928E-02 0. -1.
        1   -1    0    0  501    0  0.00000000000E+00  0.00000000000E+00 -0.20476227019E+04  0.20476227019E+04  0.50400001928E-02 0.  1.
    10030    2    1    2    0    0  0.00000000000E+00  0.00000000000E+00 -0.19707517720E+04  0.21244936320E+04  0.79348008523E+03 0.  0.
        2    1    3    3  502    0 -0.18901714186E+03  0.34019877854E+03 -0.77902248929E+03  0.87082646243E+03  0.25500000920E-02 0. -1.
       -2    1    3    3    0  502  0.18901714186E+03 -0.34019877854E+03 -0.11917292827E+04  0.12536671696E+04  0.25500000920E-02 0.  1.
</event>
<event>
 5   0  0.2132540E-02  0.7610376E+03  0.7818609E-02  0.9618192E-01
       -1   -1    0    0    0  501  0.00000000000E+00  0.00000000000E+00  0.23144607414E+03  0.23144607420E+03  0.50400001928E-02 0.  1.
        1   -1    0    0  501    0  0.00000000000E+00  0.00000000000E+00 -0.62560816054E+03  0.62560816056E+03  0.50400001928E-02 0. -1.
    10030    2    1    2    0    0  0.00000000000E+00  0.00000000000E+00 -0.39416208639E+03  0.85705423475E+03  0.76103758840E+03 0.  0.
        4    1    3    3  502    0  0.21438755510E+03 -0.10097230182E+03  0.13819774053E+03  0.27433129224E+03  0.12699999809E+01 0.  1.
       -4    1    3    3    0  502 -0.21438755510E+03  0.10097230182E+03 -0.53235982692E+03  0.58272294251E+03  0.12699999809E+01 0. -1.
</event>
<event>
 5   0  0.3467240E-02  0.7959603E+03  0.7818609E-02  0.9565883E-01
        2   -1    0    0  501    0  0.00000000000E+00  0.00000000000E+00  0.67183670914E+03  0.67183670914E+03  0.25500000920E-02 0.  1.
       -2   -1    0    0    0  501  0.00000000000E+00  0.00000000000E+00 -0.23575402508E+03  0.23575402509E+03  0.25500000920E-02 0. -1.
    10030    2    1    2    0    0  0.00000000000E+00  0.00000000000E+00  0.43608268406E+03  0.90759073424E+03  0.79596032159E+03 0.  0.
        2    1    3    3  502    0  0.39511335061E+03  0.47682776631E+02  0.21799929918E+03  0.45377516621E+03  0.25500000920E-02 0. -1.
       -2    1    3    3    0  502 -0.39511335061E+03 -0.47682776631E+02  0.21808338488E+03  0.45381556803E+03  0.25500000920E-02 0.  1.
</event>
<event>
 5   0  0.1989298E-02  0.7970201E+03  0.7818609E-02  0.9564340E-01
       -1   -1    0    0    0  501  0.00000000000E+00  0.00000000000E+00  0.15633816480E+03  0.15633816488E+03  0.50400001928E-02 0. -1.
        1   -1    0    0  501    0  0.00000000000E+00  0.00000000000E+00 -0.10158124653E+04  0.10158124653E+04  0.50400001928E-02 0.  1.
    10030    2    1    2    0    0  0.00000000000E+00  0.00000000000E+00 -0.85947430048E+03  0.11721506302E+04  0.79702009173E+03 0.  0.
        1    1    3    3  502    0 -0.57837584567E+02 -0.30819132766E+03 -0.79142294316E+03  0.85127983391E+03  0.50400001928E-02 0.  1.
       -1    1    3    3    0  502  0.57837584567E+02  0.30819132766E+03 -0.68051357322E+02  0.32087079626E+03  0.50400001928E-02 0. -1.
</event>
<event>
 5   0  0.3467240E-02  0.7866334E+03  0.7818609E-02  0.9579569E-01
       -2   -1    0    0    0  501  0.00000000000E+00  0.00000000000E+00  0.13544007171E+03  0.13544007173E+03  0.25500000920E-02 0.  1.
        2   -1    0    0  501    0  0.00000000000E+00  0.00000000000E+00 -0.11421881101E+04  0.11421881101E+04  0.25500000920E-02 0. -1.
    10030    2    1    2    0    0  0.00000000000E+00  0.00000000000E+00 -0.10067480384E+04  0.12776281818E+04  0.78663343320E+03 0.  0.
        2    1    3    3  502    0 -0.10291659822E+03 -0.27385346984E+03 -0.93035061422E+03  0.97526397171E+03  0.25500000920E-02 0. -1.
       -2    1    3    3    0  502  0.10291659822E+03  0.27385346984E+03 -0.76397424162E+02  0.30236421012E+03  0.25500000920E-02 0.  1.
</event>
<event>
 5   0  0.3467240E-02  0.7924446E+03  0.7818609E-02  0.9571018E-01
       -2   -1    0    0    0  501  0.00000000000E+00  0.00000000000E+00  0.40600626034E+03  0.40600626035E+03  0.25500000920E-02 0. -1.
        2   -1    0    0  501    0  0.00000000000E+00  0.00000000000E+00 -0.38667413845E+03  0.38667413845E+03  0.25500000920E-02 0.  1.
    10030    2    1    2    0    0  0.00000000000E+00  0.00000000000E+00  0.19332121898E+02  0.79268039881E+03  0.79244462502E+03 0.  0.
        2    1    3    3  502    0  0.21301625954E+03  0.19739910906E+03  0.27928249745E+03  0.40291568408E+03  0.25500000920E-02 0. -1.
       -2    1    3    3    0  502 -0.21301625954E+03 -0.19739910906E+03 -0.25995037556E+03  0.38976471473E+03  0.25500000920E-02 0.  1.
</event>
<event>
 5   0  0.3467240E-02  0.7962770E+03  0.7818609E-02  0.9565422E-01
       -2   -1    0    0    0  501  0.00000000000E+00  0.00000000000E+00  0.31329360246E+03  0.31329360247E+03  0.25500000920E-02 0.  1.
        2   -1    0    0  501    0  0.00000000000E+00  0.00000000000E+00 -0.50596077281E+03  0.50596077282E+03  0.25500000920E-02 0. -1.
    10030    2    1    2    0    0  0.00000000000E+00  0.00000000000E+00 -0.19266717035E+03  0.81925437529E+03  0.79627702020E+03 0.  0.
        2    1    3    3  502    0  0.39380949590E+03 -0.58461461522E+02 -0.99685141669E+02  0.41041538594E+03  0.25500000920E-02 0. -1.
       -2    1    3    3    0  502 -0.39380949590E+03  0.58461461522E+02 -0.92982028684E+02  0.40883898935E+03  0.25500000920E-02 0.  1.
</event>
<event>
 5   0  0.3416160E-02  0.7917626E+03  0.7818609E-02  0.9572018E-01
       -2   -1    0    0    0  501  0.00000000000E+00  0.00000000000E+00  0.82733904601E+03  0.82733904601E+03  0.25500000920E-02 0.  1.
        2   -1    0    0  501    0  0.00000000000E+00  0.00000000000E+00 -0.18942899784E+03  0.18942899786E+03  0.25500000920E-02 0. -1.
    10030    2    1    2    0    0  0.00000000000E+00  0.00000000000E+00  0.63791004817E+03  0.10167680439E+04  0.79176260677E+03 0.  0.
        1    1    3    3  502    0 -0.10384373232E+03  0.22430018169E+03 -0.78162674098E+02  0.25923637071E+03  0.50400001928E-02 0. -1.
       -1    1    3    3    0  502  0.10384373232E+03 -0.22430018169E+03  0.71607272226E+03  0.75753167316E+03  0.50400001928E-02 0.  1.
</event>
<event>
 5   0  0.2063692E-02  0.8410127E+03  0.7818609E-02  0.9502479E-01
        1   -1    0    0  501    0  0.00000000000E+00  0.00000000000E+00  0.70849860701E+03  0.70849860703E+03  0.50400001928E-02 0. -1.
       -1   -1    0    0    0  501  0.00000000000E+00  0.00000000000E+00 -0.24957789073E+03  0.24957789078E+03  0.50400001928E-02 0.  1.
    10030    2    1    2    0    0  0.00000000000E+00  0.00000000000E+00  0.45892071628E+03  0.95807649781E+03  0.84101269421E+03 0.  0.
        2    1    3    3  502    0  0.15647924544E+03 -0.27580578641E+03  0.54407386332E+03  0.62973879889E+03  0.25500000920E-02 0. -1.
       -2    1    3    3    0  502 -0.15647924544E+03  0.27580578641E+03 -0.85153147035E+02  0.32833769892E+03  0.25500000920E-02 0.  1.
</event>
<event>
 5   0  0.3343036E-02  0.7977232E+03  0.7818609E-02  0.9563319E-01
        2   -1    0    0  501    0  0.00000000000E+00  0.00000000000E+00  0.14509048405E+03  0.14509048407E+03  0.25500000920E-02 0.  1.
       -2   -1    0    0    0  501  0.00000000000E+00  0.00000000000E+00 -0.10964920499E+04  0.10964920499E+04  0.25500000920E-02 0. -1.
    10030    2    1    2    0    0  0.00000000000E+00  0.00000000000E+00 -0.95140156583E+03  0.12415825339E+04  0.79772316573E+03 0.  0.
        4    1    3    3  502    0 -0.96233000586E+01  0.35654584820E+03 -0.19784210929E+03  0.40787334172E+03  0.12699999809E+01 0. -1.
       -4    1    3    3    0  502  0.96233000586E+01 -0.35654584820E+03 -0.75355945654E+03  0.83370919223E+03  0.12699999809E+01 0.  1.
</event>
<event>
 5   0  0.3404132E-02  0.7330806E+03  0.7818609E-02  0.9662275E-01
        2   -1    0    0  501    0  0.00000000000E+00  0.00000000000E+00  0.75228858434E+03  0.75228858434E+03  0.25500000920E-02 0.  1.
       -2   -1    0    0    0  501  0.00000000000E+00  0.00000000000E+00 -0.17859078037E+03  0.17859078039E+03  0.25500000920E-02 0. -1.
    10030    2    1    2    0    0  0.00000000000E+00  0.00000000000E+00  0.57369780397E+03  0.93087936473E+03  0.73308063772E+03 0.  0.
        5    1    3    3  502    0  0.80169819712E+01  0.57363390183E+02 -0.17270416282E+03  0.18221868287E+03  0.46999998093E+01 0. -1.
       -5    1    3    3    0  502 -0.80169819712E+01 -0.57363390183E+02  0.74640196679E+03  0.74866068186E+03  0.46999998093E+01 0.  1.
</event>
<event>
 5   0  0.2129257E-02  0.8071380E+03  0.7818609E-02  0.9549742E-01
        1   -1    0    0  501    0  0.00000000000E+00  0.00000000000E+00  0.15817591192E+03  0.15817591200E+03  0.50400001928E-02 0.  1.
       -1   -1    0    0    0  501  0.00000000000E+00  0.00000000000E+00 -0.10296633938E+04  0.10296633938E+04  0.50400001928E-02 0. -1.
    10030    2    1    2    0    0  0.00000000000E+00  0.00000000000E+00 -0.87148748191E+03  0.11878393058E+04  0.80713802127E+03 0.  0.
        3    1    3    3  502    0 -0.31266080991E+03  0.10181914932E+03 -0.91411087754E+02  0.34129154456E+03  0.10100000352E+00 0.  1.
       -3    1    3    3    0  502  0.31266080991E+03 -0.10181914932E+03 -0.78007639416E+03  0.84654776129E+03  0.10100000352E+00 0. -1.
</event>
<event>
 5   0  0.3404132E-02  0.8812044E+03  0.7818609E-02  0.9449387E-01
        2   -1    0    0  501    0  0.00000000000E+00  0.00000000000E+00  0.10405934277E+04  0.10405934278E+04  0.25500000920E-02 0.  1.
       -2   -1    0    0    0  501  0.00000000000E+00  0.00000000000E+00 -0.18655728965E+03  0.18655728967E+03  0.25500000920E-02 0. -1.
    10030    2    1    2    0    0  0.00000000000E+00  0.00000000000E+00  0.85403613810E+03  0.12271507174E+04  0.88120437930E+03 0.  0.
        5    1    3    3  502    0  0.29594981619E+03  0.25124529331E+03  0.71712269737E+03  0.81547381577E+03  0.46999998093E+01 0.  1.
       -5    1    3    3    0  502 -0.29594981619E+03 -0.25124529331E+03  0.13691344072E+03  0.41167690166E+03  0.46999998093E+01 0. -1.
</event>
<event>
 5   0  0.2077795E-02  0.8033726E+03  0.7818609E-02  0.9555148E-01
        1   -1    0    0  501    0  0.00000000000E+00  0.00000000000E+00  0.59993342487E+03  0.59993342489E+03  0.50400001928E-02 0.  1.
       -1   -1    0    0    0  501  0.00000000000E+00  0.00000000000E+00 -0.26894964616E+03  0.26894964621E+03  0.50400001928E-02 0. -1.
    10030    2    1    2    0    0  0.00000000000E+00  0.00000000000E+00  0.33098377871E+03  0.86888307110E+03  0.80337259691E+03 0.  0.
        5    1    3    3  502    0  0.10272023275E+03  0.16658710355E+03  0.54484590486E+03  0.57894892636E+03  0.46999998093E+01 0.  1.
       -5    1    3    3    0  502 -0.10272023275E+03 -0.16658710355E+03 -0.21386212615E+03  0.28993414474E+03  0.46999998093E+01 0. -1.
</event>
<event>
 5   0  0.3404132E-02  0.7868623E+03  0.7818609E-02  0.9579230E-01
       -2   -1    0    0    0  501  0.00000000000E+00  0.00000000000E+00  0.89315650202E+02  0.89315650238E+02  0.25500000920E-02 0. -1.
        2   -1    0    0  501    0  0.00000000000E+00  0.00000000000E+00 -0.17330453392E+04  0.17330453392E+04  0.25500000920E-02 0.  1.
    10030    2    1    2    0    0  0.00000000000E+00  0.00000000000E+00 -0.16437296890E+04  0.18223609895E+04  0.78686230393E+03 0.  0.
        5    1    3    3  502    0 -0.20460338788E+00 -0.21493427396E+03 -0.15849780755E+04  0.15994919111E+04  0.46999998093E+01 0.  1.
       -5    1    3    3    0  502  0.20460338788E+00  0.21493427396E+03 -0.58751613526E+02  0.22286907833E+03  0.46999998093E+01 0. -1.
</event>
<event>
 5   0  0.3467240E-02  0.7967428E+03  0.7818609E-02  0.9564744E-01
       -2   -1    0    0    0  501  0.00000000000E+00  0.00000000000E+00  0.10333687974E+03  0.10333687978E+03  0.25500000920E-02 0.  1.
        2   -1    0    0  501    0  0.00000000000E+00  0.00000000000E+00 -0.15357517114E+04  0.15357517114E+04  0.25500000920E-02 0. -1.
    10030    2    1    2    0    0  0.00000000000E+00  0.00000000000E+00 -0.14324148317E+04  0.16390885912E+04  0.79674284421E+03 0.  0.
        2    1    3    3  502    0  0.30348033241E+03  0.15008227728E+03 -0.11481036039E+04  0.11969824090E+04  0.25500000920E-02 0. -1.
       -2    1    3    3    0  502 -0.30348033241E+03 -0.15008227728E+03 -0.28431122780E+03  0.44210618224E+03  0.25500000920E-02 0.  1.
</event>
<event>
 5   0  0.1989298E-02  0.7988867E+03  0.7818609E-02  0.9561630E-01
       -1   -1    0    0    0  501  0.00000000000E+00  0.00000000000E+00  0.76520140572E+03  0.76520140574E+03  0.50400001928E-02 0. -1.
        1   -1    0    0  501    0  0.00000000000E+00  0.00000000000E+00 -0.20851371927E+03  0.20851371933E+03  0.50400001928E-02 0.  1.
    10030    2    1    2    0    0  0.00000000000E+00  0.00000000000E+00  0.55668768645E+03  0.97371512507E+03  0.79888670320E+03 0.  0.
        1    1    3    3  502    0 -0.12590745942E+02 -0.18105575965E+02  0.76445884540E+03  0.76477687275E+03  0.50400001928E-02 0. -1.
       -1    1    3    3    0  502  0.12590745942E+02  0.18105575965E+02 -0.20777115895E+03  0.20893825232E+03  0.50400001928E-02 0.  1.
</event>
<event>
 5   0  0.1989298E-02  0.5964328E+03  0.7818609E-02  0.9912835E-01
        1   -1    0    0  501    0  0.00000000000E+00  0.00000000000E+00  0.23051295305E+04  0.23051295305E+04  0.50400001928E-02 0.  1.
       -1   -1    0    0    0  501  0.00000000000E+00  0.00000000000E+00 -0.38580482711E+02  0.38580483041E+02  0.50400001928E-02 0. -1.
    10030    2    1    2    0    0  0.00000000000E+00  0.00000000000E+00  0.22665490478E+04  0.23437100136E+04  0.59643276366E+03 0.  0.
        1    1    3    3  502    0  0.15749512889E+03 -0.51807253893E+02  0.21073288844E+04  0.21138409908E+04  0.50400001928E-02 0.  1.
       -1    1    3    3    0  502 -0.15749512889E+03  0.51807253893E+02  0.15922016338E+03  0.22986902278E+03  0.50400001928E-02 0. -1.
</event>
<event>
 5   0  0.3343036E-02  0.7978693E+03  0.7818609E-02  0.9563106E-01
        2   -1    0    0  501    0  0.00000000000E+00  0.00000000000E+00  0.39418532479E+03  0.39418532480E+03  0.25500000920E-02 0.  1.
       -2   -1    0    0    0  501  0.00000000000E+00  0.00000000000E+00 -0.40374118063E+03  0.40374118064E+03  0.25500000920E-02 0. -1.
    10030    2    1    2    0    0  0.00000000000E+00  0.00000000000E+00 -0.95558558442E+01  0.79792650544E+03  0.79786928359E+03 0.  0.
        4    1    3    3  502    0  0.76577678762E+02  0.13660075689E+03  0.36215890379E+03  0.39456886872E+03  0.12699999809E+01 0.  1.
       -4    1    3    3    0  502 -0.76577678762E+02 -0.13660075689E+03 -0.37171475964E+03  0.40335763672E+03  0.12699999809E+01 0. -1.
</event>
<event>
 5   0  0.3343036E-02  0.7915593E+03  0.7818609E-02  0.9572316E-01
        2   -1    0    0  501    0  0.00000000000E+00  0.00000000000E+00  0.82287405503E+03  0.82287405503E+03  0.25500000920E-02 0.  1.
       -2   -1    0    0    0  501  0.00000000000E+00  0.00000000000E+00 -0.19035908163E+03  0.19035908164E+03  0.25500000920E-02 0. -1.
    10030    2    1    2    0    0  0.00000000000E+00  0.00000000000E+00  0.63251497340E+03  0.10132331367E+04  0.79155934565E+03 0.  0.
        4    1    3    3  502    0 -0.15453502665E+03  0.16088228420E+03  0.73472861198E+03  0.76784889789E+03  0.12699999809E+01 0.  1.
       -4    1    3    3    0  502  0.15453502665E+03 -0.16088228420E+03 -0.10221363858E+03  0.24538423878E+03  0.12699999809E+01 0. -1.
</event>
<event>
 5   0  0.3416160E-02  0.8029293E+03  0.7818609E-02  0.9555787E-01
       -2   -1    0    0    0  501  0.00000000000E+00  0.00000000000E+00  0.23105554817E+03  0.23105554819E+03  0.25500000920E-02 0.  1.
        2   -1    0    0  501    0  0.00000000000E+00  0.00000000000E+00 -0.69755459750E+03  0.69755459750E+03  0.25500000920E-02 0. -1.
    10030    2    1    2    0    0  0.00000000000E+00  0.00000000000E+00 -0.46649904933E+03  0.92861014569E+03  0.80292928684E+03 0.  0.
        1    1    3    3  502    0 -0.22151144782E+03  0.32676936309E+02 -0.61863329338E+03  0.65790748239E+03  0.50400001928E-02 0. -1.
       -1    1    3    3    0  502  0.22151144782E+03 -0.32676936309E+02  0.15213424405E+03  0.27070266330E+03  0.50400001928E-02 0.  1.
</event>
<event>
 5   0  0.3404132E-02  0.7894704E+03  0.7818609E-02  0.9575385E-01
       -2   -1    0    0    0  501  0.00000000000E+00  0.00000000000E+00  0.83480841504E+02  0.83480841543E+02  0.25500000920E-02 0.  1.
        2   -1    0    0  501    0  0.00000000000E+00  0.00000000000E+00 -0.18664864396E+04  0.18664864396E+04  0.25500000920E-02 0. -1.
    10030    2    1    2    0    0  0.00000000000E+00  0.00000000000E+00 -0.17830055981E+04  0.19499672811E+04  0.78947035074E+03 0.  0.
        5    1    3    3  502    0  0.28158500304E+03  0.18894244931E+03 -0.13904390137E+04  0.14311995333E+04  0.46999998093E+01 0.  1.
       -5    1    3    3    0  502 -0.28158500304E+03 -0.18894244931E+03 -0.39256658435E+03  0.51876774788E+03  0.46999998093E+01 0. -1.
</event>
<event>
 5   0  0.2129257E-02  0.8064080E+03  0.7818609E-02  0.9550788E-01
       -1   -1    0    0    0  501  0.00000000000E+00  0.00000000000E+00  0.17222344731E+03  0.17222344738E+03  0.50400001928E-02 0.  1.
        1   -1    0    0  501    0  0.00000000000E+00  0.00000000000E+00 -0.94396824787E+03  0.94396824788E+03  0.50400001928E-02 0. -1.
    10030    2    1    2    0    0  0.00000000000E+00  0.00000000000E+00 -0.77174480056E+03  0.11161916953E+04  0.80640800057E+03 0.  0.
        3    1    3    3  502    0  0.32008215570E+03 -0.23396646644E+03 -0.28434160871E+03  0.48789656123E+03  0.10100000352E+00 0.  1.
       -3    1    3    3    0  502 -0.32008215570E+03  0.23396646644E+03 -0.48740319185E+03  0.62829513403E+03  0.10100000352E+00 0. -1.
</event>
<event>
 5   0  0.1989298E-02  0.7694981E+03  0.7818609E-02  0.9605248E-01
       -1   -1    0    0    0  501  0.00000000000E+00  0.00000000000E+00  0.13458676339E+03  0.13458676349E+03  0.50400001928E-02 0.  1.
        1   -1    0    0  501    0  0.00000000000E+00  0.00000000000E+00 -0.10998987453E+04  0.10998987453E+04  0.50400001928E-02 0. -1.
    10030    2    1    2    0    0  0.00000000000E+00  0.00000000000E+00 -0.96531198192E+03  0.12344855088E+04  0.76949805005E+03 0.  0.
        1    1    3    3  502    0 -0.12024136483E+03  0.24588564126E+03 -0.48866550466E+02  0.27803897959E+03  0.50400001928E-02 0.  1.
       -1    1    3    3    0  502  0.12024136483E+03 -0.24588564126E+03 -0.91644543146E+03  0.95644652922E+03  0.50400001928E-02 0. -1.
</event>
<event>
 5   0  0.3467240E-02  0.7918030E+03  0.7818609E-02  0.9571958E-01
       -2   -1    0    0    0  501  0.00000000000E+00  0.00000000000E+00  0.92583449180E+02  0.92583449216E+02  0.25500000920E-02 0. -1.
        2   -1    0    0  501    0  0.00000000000E+00  0.00000000000E+00 -0.16929377236E+04  0.16929377236E+04  0.25500000920E-02 0.  1.
    10030    2    1    2    0    0  0.00000000000E+00  0.00000000000E+00 -0.16003542745E+04  0.17855211729E+04  0.79180304050E+03 0.  0.
        2    1    3    3  502    0 -0.25194309859E+03  0.28079210710E+03 -0.52940273857E+03  0.65006675961E+03  0.25500000920E-02 0.  1.
       -2    1    3    3    0  502  0.25194309859E+03 -0.28079210710E+03 -0.10709515359E+04  0.11354544132E+04  0.25500000920E-02 0. -1.
</event>
<event>
 5   0  0.2077795E-02  0.8138786E+03  0.7818609E-02  0.9540143E-01
       -1   -1    0    0    0  501  0.00000000000E+00  0.00000000000E+00  0.10271593930E+04  0.10271593931E+04  0.50400001928E-02 0. -1.
        1   -1    0    0  501    0  0.00000000000E+00  0.00000000000E+00 -0.16122092444E+03  0.16122092452E+03  0.50400001928E-02 0.  1.
    10030    2    1    2    0    0  0.00000000000E+00  0.00000000000E+00  0.86593846860E+03  0.11883803176E+04  0.81387858295E+03 0.  0.
        5    1    3    3  502    0 -0.97719548280E+02 -0.33089108223E+03  0.74796635669E+03  0.82371947843E+03  0.46999998093E+01 0. -1.
       -5    1    3    3    0  502  0.97719548280E+02  0.33089108223E+03  0.11797211192E+03  0.36466083914E+03  0.46999998093E+01 0.  1.
</event>
<event>
 5   0  0.1989298E-02  0.8100682E+03  0.7818609E-02  0.9545557E-01
        1   -1    0    0  501    0  0.00000000000E+00  0.00000000000E+00  0.29972323098E+03  0.29972323102E+03  0.50400001928E-02 0. -1.
       -1   -1    0    0    0  501  0.00000000000E+00  0.00000000000E+00 -0.54734698200E+03  0.54734698202E+03  0.50400001928E-02 0.  1.
    10030    2    1    2    0    0  0.00000000000E+00  0.00000000000E+00 -0.24762375102E+03  0.84707021304E+03  0.81006815994E+03 0.  0.
        1    1    3    3  502    0  0.23093057745E+03 -0.28948151818E+03  0.47768907902E+02  0.37337695370E+03  0.50400001928E-02 0. -1.
       -1    1    3    3    0  502 -0.23093057745E+03  0.28948151818E+03 -0.29539265892E+03  0.47369325934E+03  0.50400001928E-02 0.  1.
</event>
<event>
 5   0  0.2063692E-02  0.7868930E+03  0.7818609E-02  0.9579185E-01
        1   -1    0    0  501    0  0.00000000000E+00  0.00000000000E+00  0.20933576706E+03  0.20933576712E+03  0.50400001928E-02 0.  1.
       -1   -1    0    0    0  501  0.00000000000E+00  0.00000000000E+00 -0.73948259450E+03  0.73948259452E+03  0.50400001928E-02 0. -1.
    10030    2    1    2    0    0  0.00000000000E+00  0.00000000000E+00 -0.53014682744E+03  0.94881836164E+03  0.78689301988E+03 0.  0.
        2    1    3    3  502    0 -0.42274039440E+02 -0.35250413718E+03 -0.46953688475E+03  0.58865197467E+03  0.25500000920E-02 0. -1.
       -2    1    3    3    0  502  0.42274039440E+02  0.35250413718E+03 -0.60609942692E+02  0.36016638697E+03  0.25500000920E-02 0.  1.
</event>
<event>
 5   0  0.3467240E-02  0.7910291E+03  0.7818609E-02  0.9573094E-01
        2   -1    0    0  501    0  0.00000000000E+00  0.00000000000E+00  0.63760529277E+03  0.63760529277E+03  0.25500000920E-02 0. -1.
       -2   -1    0    0    0  501  0.00000000000E+00  0.00000000000E+00 -0.24534260625E+03  0.24534260627E+03  0.25500000920E-02 0.  1.
    10030    2    1    2    0    0  0.00000000000E+00  0.00000000000E+00  0.39226268651E+03  0.88294789904E+03  0.79102906216E+03 0.  0.
        2    1    3    3  502    0 -0.11662784017E+01 -0.38248404915E+03  0.83752866283E+02  0.39154814605E+03  0.25500000920E-02 0.  1.
       -2    1    3    3    0  502  0.11662784017E+01  0.38248404915E+03  0.30850982023E+03  0.49139975299E+03  0.25500000920E-02 0. -1.
</event>
<event>
 5   0  0.3550586E-02  0.8061389E+03  0.7818609E-02  0.9551174E-01
       -2   -1    0    0    0  501  0.00000000000E+00  0.00000000000E+00  0.93962348472E+02  0.93962348507E+02  0.25500000920E-02 0. -1.
        2   -1    0    0  501    0  0.00000000000E+00  0.00000000000E+00 -0.17290434099E+04  0.17290434099E+04  0.25500000920E-02 0.  1.
    10030    2    1    2    0    0  0.00000000000E+00  0.00000000000E+00 -0.16350810614E+04  0.18230057584E+04  0.80613889482E+03 0.  0.
        3    1    3    3  502    0  0.18527844338E+03  0.34802704100E+03 -0.10069329019E+04  0.10813717224E+04  0.10100000352E+00 0.  1.
       -3    1    3    3    0  502 -0.18527844338E+03 -0.34802704100E+03 -0.62814815946E+03  0.74163403596E+03  0.10100000352E+00 0. -1.
</event>
<event>
 5   0  0.2077795E-02  0.8143779E+03  0.7818609E-02  0.9539436E-01
        1   -1    0    0  501    0  0.00000000000E+00  0.00000000000E+00  0.29322374133E+03  0.29322374137E+03  0.50400001928E-02 0.  1.
       -1   -1    0    0    0  501  0.00000000000E+00  0.00000000000E+00 -0.56544825170E+03  0.56544825172E+03  0.50400001928E-02 0. -1.
    10030    2    1    2    0    0  0.00000000000E+00  0.00000000000E+00 -0.27222451037E+03  0.85867199309E+03  0.81437792681E+03 0.  0.
        5    1    3    3  502    0  0.64342673685E+02 -0.40034913135E+03 -0.97208901185E+02  0.41700247853E+03  0.46999998093E+01 0.  1.
       -5    1    3    3    0  502 -0.64342673685E+02  0.40034913135E+03 -0.17501560919E+03  0.44166951456E+03  0.46999998093E+01 0. -1.
</event>
<event>
 5   0  0.1989298E-02  0.8195408E+03  0.7818609E-02  0.9532156E-01
       -1   -1    0    0    0  501  0.00000000000E+00  0.00000000000E+00  0.22747069385E+03  0.22747069390E+03  0.50400001928E-02 0. -1.
        1   -1    0    0  501    0  0.00000000000E+00  0.00000000000E+00 -0.73816883823E+03  0.73816883825E+03  0.50400001928E-02 0.  1.
    10030    2    1    2    0    0  0.00000000000E+00  0.00000000000E+00 -0.51069814439E+03  0.96563953215E+03  0.81954079299E+03 0.  0.
        1    1    3    3  502    0  0.36363953215E+03  0.17201449754E+03 -0.34729242593E+03  0.53144588232E+03  0.50400001928E-02 0. -1.
       -1    1    3    3    0  502 -0.36363953215E+03 -0.17201449754E+03 -0.16340571846E+03  0.43419364983E+03  0.50400001928E-02 0.  1.
</event>
<event>
 5   0  0.2129257E-02  0.8096135E+03  0.7818609E-02  0.9546205E-01
       -1   -1    0    0    0  501  0.00000000000E+00  0.00000000000E+00  0.23290730338E+03  0.23290730344E+03  0.50400001928E-02 0. -1.
        1   -1    0    0  501    0  0.00000000000E+00  0.00000000000E+00 -0.70357814502E+03  0.70357814504E+03  0.50400001928E-02 0.  1.
    10030    2    1    2    0    0  0.00000000000E+00  0.00000000000E+00 -0.47067084164E+03  0.93648544848E+03  0.80961345964E+03 0.  0.
        3    1    3    3  502    0 -0.13086515950E+03  0.31337955598E+03  0.19497477577E+02  0.34016554486E+03  0.10100000352E+00 0. -1.
       -3    1    3    3    0  502  0.13086515950E+03 -0.31337955598E+03 -0.49016831922E+03  0.59631990361E+03  0.10100000352E+00 0.  1.
</event>
<event>
 5   0  0.3404132E-02  0.9013655E+03  0.7818609E-02  0.9423876E-01
        2   -1    0    0  501    0  0.00000000000E+00  0.00000000000E+00  0.21070808298E+04  0.21070808298E+04  0.25500000920E-02 0. -1.
       -2   -1    0    0    0  501  0.00000000000E+00  0.00000000000E+00 -0.96396358409E+02  0.96396358442E+02  0.25500000920E-02 0.  1.
    10030    2    1    2    0    0  0.00000000000E+00  0.00000000000E+00  0.20106844714E+04  0.22034771883E+04  0.90136545065E+03 0.  0.
        5    1    3    3  502    0  0.33288053385E+03 -0.22806423944E+03  0.14959098872E+04  0.15493841447E+04  0.46999998093E+01 0. -1.
       -5    1    3    3    0  502 -0.33288053385E+03  0.22806423944E+03  0.51477458419E+03  0.65409304358E+03  0.46999998093E+01 0.  1.
</event>
<event>
 5   0  0.1358000E-02  0.7715060E+03  0.7818609E-02  0.9602202E-01
       -3   -1    0    0    0  501  0.00000000000E+00  0.00000000000E+00  0.19826431126E+03  0.19826433699E+03  0.10100000352E+00 0. -1.
        3   -1    0    0  501    0  0.00000000000E+00  0.00000000000E+00 -0.75054036438E+03  0.75054037118E+03  0.10100000352E+00 0.  1.
    10030    2    1    2    0    0  0.00000000000E+00  0.00000000000E+00 -0.55227605312E+03  0.94880470816E+03  0.77150601772E+03 0.  0.
        2    1    3    3  502    0  0.28343219939E+02 -0.83717206896E+02 -0.73792004791E+03  0.74319439311E+03  0.25500000920E-02 0.  1.
       -2    1    3    3    0  502 -0.28343219939E+02  0.83717206896E+02  0.18564399479E+03  0.20561031505E+03  0.25500000920E-02 0. -1.
</event>
<event>
 5   0  0.3467240E-02  0.7834899E+03  0.7818609E-02  0.9584227E-01
        2   -1    0    0  501    0  0.00000000000E+00  0.00000000000E+00  0.18610601712E+04  0.18610601712E+04  0.25500000920E-02 0. -1.
       -2   -1    0    0    0  501  0.00000000000E+00  0.00000000000E+00 -0.82460585148E+02  0.82460585187E+02  0.25500000920E-02 0.  1.
    10030    2    1    2    0    0  0.00000000000E+00  0.00000000000E+00  0.17785995860E+04  0.19435207564E+04  0.78348991251E+03 0.  0.
        2    1    3    3  502    0 -0.19314154802E+03 -0.10281652641E+03  0.83243162817E+02  0.23410322475E+03  0.25500000920E-02 0.  1.
       -2    1    3    3    0  502  0.19314154802E+03  0.10281652641E+03  0.16953564232E+04  0.17094175316E+04  0.25500000920E-02 0. -1.
</event>
<event>
 5   0  0.3467240E-02  0.7534577E+03  0.7818609E-02  0.9629941E-01
       -2   -1    0    0    0  501  0.00000000000E+00  0.00000000000E+00  0.10794579677E+03  0.10794579680E+03  0.25500000920E-02 0. -1.
        2   -1    0    0  501    0  0.00000000000E+00  0.00000000000E+00 -0.13147769474E+04  0.13147769474E+04  0.25500000920E-02 0.  1.
    10030    2    1    2    0    0  0.00000000000E+00  0.00000000000E+00 -0.12068311506E+04  0.14227227442E+04  0.75345774980E+03 0.  0.
        2    1    3    3  502    0  0.22897140874E+03 -0.24373483015E+03 -0.27586906136E+03  0.43351852610E+03  0.25500000920E-02 0. -1.
       -2    1    3    3    0  502 -0.22897140874E+03  0.24373483015E+03 -0.93096208924E+03  0.98920421807E+03  0.25500000920E-02 0.  1.
</event>
<event>
 5   0  0.3404132E-02  0.7978818E+03  0.7818609E-02  0.9563088E-01
        2   -1    0    0  501    0  0.00000000000E+00  0.00000000000E+00  0.73477991726E+03  0.73477991727E+03  0.25500000920E-02 0. -1.
       -2   -1    0    0    0  501  0.00000000000E+00  0.00000000000E+00 -0.21660068170E+03  0.21660068172E+03  0.25500000920E-02 0.  1.
    10030    2    1    2    0    0  0.00000000000E+00  0.00000000000E+00  0.51817923556E+03  0.95138059898E+03  0.79788177317E+03 0.  0.
        5    1    3    3  502    0 -0.32120855990E+03  0.20355626797E+03  0.40277867541E+03  0.55395202369E+03  0.46999998093E+01 0. -1.
       -5    1    3    3    0  502  0.32120855990E+03 -0.20355626797E+03  0.11540056015E+03  0.39742857530E+03  0.46999998093E+01 0.  1.
</event>
<event>
 5   0  0.3416160E-02  0.8075177E+03  0.7818609E-02  0.9549199E-01
       -2   -1    0    0    0  501  0.00000000000E+00  0.00000000000E+00  0.26041530944E+03  0.26041530946E+03  0.25500000920E-02 0.  1.
        2   -1    0    0  501    0  0.00000000000E+00  0.00000000000E+00 -0.62600463805E+03  0.62600463806E+03  0.25500000920E-02 0. -1.
    10030    2    1    2    0    0  0.00000000000E+00  0.00000000000E+00 -0.36558932861E+03  0.88641994752E+03  0.80751765687E+03 0.  0.
        1    1    3    3  502    0 -0.11235969532E+03  0.37365678478E+03 -0.29675098029E+03  0.49020938207E+03  0.50400001928E-02 0. -1.
       -1    1    3    3    0  502  0.11235969532E+03 -0.37365678478E+03 -0.68838348317E+02  0.39621056544E+03  0.50400001928E-02 0.  1.
</event>
<event>
 5   0  0.3467240E-02  0.8094845E+03  0.7818609E-02  0.9546389E-01
       -2   -1    0    0    0  501  0.00000000000E+00  0.00000000000E+00  0.57024344488E+03  0.57024344489E+03  0.25500000920E-02 0.  1.
        2   -1    0    0  501    0  0.00000000000E+00  0.00000000000E+00 -0.28727430593E+03  0.28727430594E+03  0.25500000920E-02 0. -1.
    10030    2    1    2    0    0  0.00000000000E+00  0.00000000000E+00  0.28296913895E+03  0.85751775082E+03  0.80948450225E+03 0.  0.
        2    1    3    3  502    0 -0.16175538937E+03  0.27259029101E+03 -0.12513635940E+03  0.34077761252E+03  0.25500000920E-02 0. -1.
       -2    1    3    3    0  502  0.16175538937E+03 -0.27259029101E+03  0.40810549835E+03  0.51674013831E+03  0.25500000920E-02 0.  1.
</event>
<event>
 5   0  0.3416160E-02  0.8059920E+03  0.7818609E-02  0.9551384E-01
        2   -1    0    0  501    0  0.00000000000E+00  0.00000000000E+00  0.56608045490E+03  0.56608045491E+03  0.25500000920E-02 0. -1.
       -2   -1    0    0    0  501  0.00000000000E+00  0.00000000000E+00 -0.28689520970E+03  0.28689520971E+03  0.25500000920E-02 0.  1.
    10030    2    1    2    0    0  0.00000000000E+00  0.00000000000E+00  0.27918524521E+03  0.85297566462E+03  0.80599198711E+03 0.  0.
        1    1    3    3  502    0 -0.71018149975E+01 -0.68102610136E+02  0.55987935387E+03  0.56405078867E+03  0.50400001928E-02 0. -1.
       -1    1    3    3    0  502  0.71018149975E+01  0.68102610136E+02 -0.28069410866E+03  0.28892487595E+03  0.50400001928E-02 0.  1.
</event>
<event>
 5   0  0.2063692E-02  0.7814439E+03  0.7818609E-02  0.9587272E-01
        1   -1    0    0  501    0  0.00000000000E+00  0.00000000000E+00  0.52768957939E+03  0.52768957941E+03  0.50400001928E-02 0.  1.
       -1   -1    0    0    0  501  0.00000000000E+00  0.00000000000E+00 -0.28930574549E+03  0.28930574554E+03  0.50400001928E-02 0. -1.
    10030    2    1    2    0    0  0.00000000000E+00  0.00000000000E+00  0.23838383389E+03  0.81699532495E+03  0.78144386153E+03 0.  0.
        2    1    3    3  502    0  0.66770496166E+02 -0.29056870063E+02  0.52053252671E+03  0.52560128637E+03  0.25500000920E-02 0.  1.
       -2    1    3    3    0  502 -0.66770496166E+02  0.29056870063E+02 -0.28214869282E+03  0.29139403858E+03  0.25500000920E-02 0. -1.
</event>
<event>
 5   0  0.2132540E-02  0.8007653E+03  0.7818609E-02  0.9558910E-01
       -1   -1    0    0    0  501  0.00000000000E+00  0.00000000000E+00  0.13887094341E+03  0.13887094350E+03  0.50400001928E-02 0. -1.
        1   -1    0    0  501    0  0.00000000000E+00  0.00000000000E+00 -0.11543543549E+04  0.11543543549E+04  0.50400001928E-02 0.  1.
    10030    2    1    2    0    0  0.00000000000E+00  0.00000000000E+00 -0.10154834115E+04  0.12932252984E+04  0.80076532982E+03 0.  0.
        4    1    3    3  502    0 -0.13253178479E+03 -0.49483051534E+02 -0.11126429591E+04  0.11216011830E+04  0.12699999809E+01 0.  1.
       -4    1    3    3    0  502  0.13253178479E+03  0.49483051534E+02  0.97159547670E+02  0.17162411536E+03  0.12699999809E+01 0. -1.
</event>
<event>
 5   0  0.2132540E-02  0.8048946E+03  0.7818609E-02  0.9552959E-01
       -1   -1    0    0    0  501  0.00000000000E+00  0.00000000000E+00  0.10608257449E+03  0.10608257461E+03  0.50400001928E-02 0.  1.
        1   -1    0    0  501    0  0.00000000000E+00  0.00000000000E+00 -0.15267714208E+04  0.15267714208E+04  0.50400001928E-02 0. -1.
    10030    2    1    2    0    0  0.00000000000E+00  0.00000000000E+00 -0.14206888463E+04  0.16328539954E+04  0.80489463430E+03 0.  0.
        4    1    3    3  502    0  0.16742308940E+03 -0.96856993496E+02 -0.14262916194E+04  0.14393474787E+04  0.12699999809E+01 0. -1.
       -4    1    3    3    0  502 -0.16742308940E+03  0.96856993496E+02  0.56027730387E+01  0.19350651674E+03  0.12699999809E+01 0.  1.
</event>
<event>
 5   0  0.3343036E-02  0.8088026E+03  0.7818609E-02  0.9547362E-01
       -2   -1    0    0    0  501  0.00000000000E+00  0.00000000000E+00  0.18785485098E+03  0.18785485100E+03  0.25500000920E-02 0. -1.
        2   -1    0    0  501    0  0.00000000000E+00  0.00000000000E+00 -0.87056784674E+03  0.87056784674E+03  0.25500000920E-02 0.  1.
    10030    2    1    2    0    0  0.00000000000E+00  0.00000000000E+00 -0.68271299576E+03  0.10584226977E+04  0.80880255472E+03 0.  0.
        4    1    3    3  502    0 -0.18559692783E+03 -0.20500346244E+03 -0.72749337349E+03  0.77828070810E+03  0.12699999809E+01 0.  1.
       -4    1    3    3    0  502  0.18559692783E+03  0.20500346244E+03  0.44780377730E+02  0.28014198964E+03  0.12699999809E+01 0. -1.
</event>
<event>
 5   0  0.2077795E-02  0.8159426E+03  0.7818609E-02  0.9537223E-01
       -1   -1    0    0    0  501  0.00000000000E+00  0.00000000000E+00  0.29406095241E+03  0.29406095245E+03  0.50400001928E-02 0. -1.
        1   -1    0    0  501    0  0.00000000000E+00  0.00000000000E+00 -0.56600714631E+03  0.56600714633E+03  0.50400001928E-02 0.  1.
    10030    2    1    2    0    0  0.00000000000E+00  0.00000000000E+00 -0.27194619390E+03  0.86006809878E+03  0.81594264637E+03 0.  0.
        5    1    3    3  502    0 -0.14948974390E+03  0.14552353633E+03 -0.50549394709E+03  0.54687338910E+03  0.46999998093E+01 0.  1.
       -5    1    3    3    0  502  0.14948974390E+03 -0.14552353633E+03  0.23354775319E+03  0.31319470969E+03  0.46999998093E+01 0. -1.
</event>
<event>
 5   0  0.2063692E-02  0.8020158E+03  0.7818609E-02  0.9557104E-01
       -1   -1    0    0    0  501  0.00000000000E+00  0.00000000000E+00  0.73315098506E+03  0.73315098508E+03  0.50400001928E-02 0. -1.
        1   -1    0    0  501    0  0.00000000000E+00  0.00000000000E+00 -0.21933725026E+03  0.21933725031E+03  0.50400001928E-02 0.  1.
    10030    2    1    2    0    0  0.00000000000E+00  0.00000000000E+00  0.51381373481E+03  0.95248823540E+03  0.80201576324E+03 0.  0.
        2    1    3    3  502    0  0.21357592498E+03  0.10423070822E+03 -0.12669297129E+03  0.26931361875E+03  0.25500000920E-02 0.  1.
       -2    1    3    3    0  502 -0.21357592498E+03 -0.10423070822E+03  0.64050670610E+03  0.68317461664E+03  0.25500000920E-02 0. -1.
</event>
<event>
 5   0  0.2132540E-02  0.8038634E+03  0.7818609E-02  0.9554442E-01
       -1   -1    0    0    0  501  0.00000000000E+00  0.00000000000E+00  0.36619649378E+03  0.36619649382E+03  0.50400001928E-02 0. -1.
        1   -1    0    0  501    0  0.00000000000E+00  0.00000000000E+00 -0.44115411059E+03  0.44115411062E+03  0.50400001928E-02 0.  1.
    10030    2    1    2    0    0  0.00000000000E+00  0.00000000000E+00 -0.74957616803E+02  0.80735060444E+03  0.80386339273E+03 0.  0.
        4    1    3    3  502    0 -0.12565809666E+03  0.19143375675E+03 -0.36923074369E+03  0.43447646135E+03  0.12699999809E+01 0.  1.
       -4    1    3    3    0  502  0.12565809666E+03 -0.19143375675E+03  0.29427312688E+03  0.37287414309E+03  0.12699999809E+01 0. -1.
</event>
<event>
 5   0  0.2132540E-02  0.7731253E+03  0.7818609E-02  0.9599753E-01
        1   -1    0    0  501    0  0.00000000000E+00  0.00000000000E+00  0.58151230654E+03  0.58151230657E+03  0.50400001928E-02 0.  1.
       -1   -1    0    0    0  501  0.00000000000E+00  0.00000000000E+00 -0.25696907998E+03  0.25696908002E+03  0.50400001928E-02 0. -1.
    10030    2    1    2    0    0  0.00000000000E+00  0.00000000000E+00  0.32454322657E+03  0.83848138659E+03  0.77312530016E+03 0.  0.
        4    1    3    3  502    0  0.18654738561E+03  0.33856307768E+03  0.16005298001E+03  0.41838194746E+03  0.12699999809E+01 0.  1.
       -4    1    3    3    0  502 -0.18654738561E+03 -0.33856307768E+03  0.16449024656E+03  0.42009943913E+03  0.12699999809E+01 0. -1.
</event>
<event>
 5   0  0.3550586E-02  0.8042658E+03  0.7818609E-02  0.9553863E-01
       -2   -1    0    0    0  501  0.00000000000E+00  0.00000000000E+00  0.37424636060E+03  0.37424636061E+03  0.25500000920E-02 0.  1.
        2   -1    0    0  501    0  0.00000000000E+00  0.00000000000E+00 -0.43209734985E+03  0.43209734986E+03  0.25500000920E-02 0. -1.
    10030    2    1    2    0    0  0.00000000000E+00  0.00000000000E+00 -0.57850989250E+02  0.80634371047E+03  0.80426577849E+03 0.  0.
        3    1    3    3  502    0 -0.23281412172E+03  0.25542522417E+03  0.17719358327E+03  0.38838387784E+03  0.10100000352E+00 0.  1.
       -3    1    3    3    0  502  0.23281412172E+03 -0.25542522417E+03 -0.23504457252E+03  0.41795983262E+03  0.10100000352E+00 0. -1.
</event>
<event>
 5   0  0.2063692E-02  0.8036555E+03  0.7818609E-02  0.9554741E-01
        1   -1    0    0  501    0  0.00000000000E+00  0.00000000000E+00  0.66881006873E+03  0.66881006875E+03  0.50400001928E-02 0.  1.
       -1   -1    0    0    0  501  0.00000000000E+00  0.00000000000E+00 -0.24142209859E+03  0.24142209864E+03  0.50400001928E-02 0. -1.
    10030    2    1    2    0    0  0.00000000000E+00  0.00000000000E+00  0.42738797014E+03  0.91023216740E+03  0.80365547440E+03 0.  0.
        2    1    3    3  502    0 -0.85084731391E+02 -0.39270162614E+03  0.20984447854E+03  0.45330859673E+03  0.25500000920E-02 0.  1.
       -2    1    3    3    0  502  0.85084731391E+02  0.39270162614E+03  0.21754349160E+03  0.45692357067E+03  0.25500000920E-02 0. -1.
</event>
<event>
 5   0  0.3550586E-02  0.7913252E+03  0.7818609E-02  0.9572659E-01
        2   -1    0    0  501    0  0.00000000000E+00  0.00000000000E+00  0.90658646450E+03  0.90658646450E+03  0.25500000920E-02 0.  1.
       -2   -1    0    0    0  501  0.00000000000E+00  0.00000000000E+00 -0.17267948934E+03  0.17267948936E+03  0.25500000920E-02 0. -1.
    10030    2    1    2    0    0  0.00000000000E+00  0.00000000000E+00  0.73390697516E+03  0.10792659539E+04  0.79132518662E+03 0.  0.
        3    1    3    3  502    0 -0.92043350695E+02  0.35482526476E+03  0.57005558833E+03  0.67774355836E+03  0.10100000352E+00 0. -1.
       -3    1    3    3    0  502  0.92043350695E+02 -0.35482526476E+03  0.16385138683E+03  0.40152239550E+03  0.10100000352E+00 0.  1.
</event>
<event>
 5   0  0.2077795E-02  0.7950890E+03  0.7818609E-02  0.9567153E-01
        1   -1    0    0  501    0  0.00000000000E+00  0.00000000000E+00  0.25905283551E+03  0.25905283556E+03  0.50400001928E-02 0.  1.
       -1   -1    0    0    0  501  0.00000000000E+00  0.00000000000E+00 -0.61007494506E+03  0.61007494508E+03  0.50400001928E-02 0. -1.
    10030    2    1    2    0    0  0.00000000000E+00  0.00000000000E+00 -0.35102210955E+03  0.86912778064E+03  0.79508903759E+03 0.  0.
        5    1    3    3  502    0  0.32450036233E+02 -0.36139922010E+03 -0.35297785438E+03  0.50623893254E+03  0.46999998093E+01 0.  1.
       -5    1    3    3    0  502 -0.32450036233E+02  0.36139922010E+03  0.19557448319E+01  0.36288884810E+03  0.46999998093E+01 0. -1.
</event>
<event>
 5   0  0.3550586E-02  0.7580610E+03  0.7818609E-02  0.9622788E-01
       -2   -1    0    0    0  501  0.00000000000E+00  0.00000000000E+00  0.20273675570E+03  0.20273675571E+03  0.25500000920E-02 0.  1.
        2   -1    0    0  501    0  0.00000000000E+00  0.00000000000E+00 -0.70862393725E+03  0.70862393725E+03  0.25500000920E-02 0. -1.
    10030    2    1    2    0    0  0.00000000000E+00  0.00000000000E+00 -0.50588718155E+03  0.91136069296E+03  0.75806099505E+03 0.  0.
        3    1    3    3  502    0 -0.21503760871E+03  0.28856864751E+03 -0.10992885516E+03  0.37629430089E+03  0.10100000352E+00 0.  1.
       -3    1    3    3    0  502  0.21503760871E+03 -0.28856864751E+03 -0.39595832639E+03  0.53506639207E+03  0.10100000352E+00 0. -1.
</event>
<event>
 5   0  0.1989298E-02  0.7964964E+03  0.7818609E-02  0.9565102E-01
       -1   -1    0    0    0  501  0.00000000000E+00  0.00000000000E+00  0.64865308601E+03  0.64865308603E+03  0.50400001928E-02 0.  1.
        1   -1    0    0  501    0  0.00000000000E+00  0.00000000000E+00 -0.24450919010E+03  0.24450919015E+03  0.50400001928E-02 0. -1.
    10030    2    1    2    0    0  0.00000000000E+00  0.00000000000E+00  0.40414389591E+03  0.89316227618E+03  0.79649642999E+03 0.  0.
        1    1    3    3  502    0  0.72736497268E+02 -0.39148236658E+03  0.21020468409E+03  0.45026109161E+03  0.50400001928E-02 0. -1.
       -1    1    3    3    0  502 -0.72736497268E+02  0.39148236658E+03  0.19393921182E+03  0.44290118456E+03  0.50400001928E-02 0.  1.
</event>
<event>
 5   0  0.2077795E-02  0.8037272E+03  0.7818609E-02  0.9554638E-01
        1   -1    0    0  501    0  0.00000000000E+00  0.00000000000E+00  0.74201746117E+03  0.74201746119E+03  0.50400001928E-02 0. -1.
       -1   -1    0    0    0  501  0.00000000000E+00  0.00000000000E+00 -0.21764225122E+03  0.21764225128E+03  0.50400001928E-02 0.  1.
    10030    2    1    2    0    0  0.00000000000E+00  0.00000000000E+00  0.52437520995E+03  0.95965971247E+03  0.80372719434E+03 0.  0.
        5    1    3    3  502    0  0.25258791470E+02 -0.15315168689E+03 -0.18036864959E+03  0.23800921305E+03  0.46999998093E+01 0.  1.
       -5    1    3    3    0  502 -0.25258791470E+02  0.15315168689E+03  0.70474385954E+03  0.72165049942E+03  0.46999998093E+01 0. -1.
</event>
<event>
 5   0  0.3404132E-02  0.7998101E+03  0.7818609E-02  0.9560292E-01
        2   -1    0    0  501    0  0.00000000000E+00  0.00000000000E+00  0.87508581950E+03  0.87508581951E+03  0.25500000920E-02 0. -1.
       -2   -1    0    0    0  501  0.00000000000E+00  0.00000000000E+00 -0.18275240714E+03  0.18275240716E+03  0.25500000920E-02 0.  1.
    10030    2    1    2    0    0  0.00000000000E+00  0.00000000000E+00  0.69233341236E+03  0.10578382267E+04  0.79981007741E+03 0.  0.
        5    1    3    3  502    0  0.27007617546E+03  0.26530181747E+02 -0.42278222803E+02  0.27468987826E+03  0.46999998093E+01 0.  1.
       -5    1    3    3    0  502 -0.27007617546E+03 -0.26530181747E+02  0.73461163516E+03  0.78314834841E+03  0.46999998093E+01 0. -1.
</event>
<event>
 5   0  0.1989298E-02  0.7947236E+03  0.7818609E-02  0.9567686E-01
        1   -1    0    0  501    0  0.00000000000E+00  0.00000000000E+00  0.41903412143E+03  0.41903412146E+03  0.50400001928E-02 0.  1.
       -1   -1    0    0    0  501  0.00000000000E+00  0.00000000000E+00 -0.37681034455E+03  0.37681034459E+03  0.50400001928E-02 0. -1.
    10030    2    1    2    0    0  0.00000000000E+00  0.00000000000E+00  0.42223776878E+02  0.79584446605E+03  0.79472357886E+03 0.  0.
        1    1    3    3  502    0  0.10798461441E+03 -0.62613388264E+02 -0.35666715759E+03  0.37787904767E+03  0.50400001928E-02 0. -1.
       -1    1    3    3    0  502 -0.10798461441E+03  0.62613388264E+02  0.39889093446E+03  0.41796541838E+03  0.50400001928E-02 0.  1.
</event>
<event>
 5   0  0.2063692E-02  0.8935273E+03  0.7818609E-02  0.9433709E-01
        1   -1    0    0  501    0  0.00000000000E+00  0.00000000000E+00  0.41131016950E+03  0.41131016953E+03  0.50400001928E-02 0.  1.
       -1   -1    0    0    0  501  0.00000000000E+00  0.00000000000E+00 -0.48527311452E+03  0.48527311455E+03  0.50400001928E-02 0. -1.
    10030    2    1    2    0    0  0.00000000000E+00  0.00000000000E+00 -0.73962945027E+02  0.89658328407E+03  0.89352731802E+03 0.  0.
        2    1    3    3  502    0 -0.33579910814E+03  0.20956563880E+03  0.17089600739E+03  0.43114295001E+03  0.25500000920E-02 0.  1.
       -2    1    3    3    0  502  0.33579910814E+03 -0.20956563880E+03 -0.24485895242E+03  0.46544033407E+03  0.25500000920E-02 0. -1.
</event>
<event>
 5   0  0.3467240E-02  0.8102215E+03  0.7818609E-02  0.9545339E-01
       -2   -1    0    0    0  501  0.00000000000E+00  0.00000000000E+00  0.22878520147E+03  0.22878520149E+03  0.25500000920E-02 0. -1.
        2   -1    0    0  501    0  0.00000000000E+00  0.00000000000E+00 -0.71733094535E+03  0.71733094535E+03  0.25500000920E-02 0.  1.
    10030    2    1    2    0    0  0.00000000000E+00  0.00000000000E+00 -0.48854574388E+03  0.94611614684E+03  0.81022146321E+03 0.  0.
        2    1    3    3  502    0 -0.16506146680E+03  0.29608544272E+03  0.14748584914E+02  0.33930723243E+03  0.25500000920E-02 0. -1.
       -2    1    3    3    0  502  0.16506146680E+03 -0.29608544272E+03 -0.50329432879E+03  0.60680891442E+03  0.25500000920E-02 0.  1.
</event>
<event>
 5   0  0.3467240E-02  0.7708663E+03  0.7818609E-02  0.9603171E-01
        2   -1    0    0  501    0  0.00000000000E+00  0.00000000000E+00  0.21143577027E+04  0.21143577027E+04  0.25500000920E-02 0. -1.
       -2   -1    0    0    0  501  0.00000000000E+00  0.00000000000E+00 -0.70261855673E+02  0.70261855719E+02  0.25500000920E-02 0.  1.
    10030    2    1    2    0    0  0.00000000000E+00  0.00000000000E+00  0.20440958470E+04  0.21846195584E+04  0.77086625507E+03 0.  0.
        2    1    3    3  502    0 -0.13165329953E+02 -0.37554528681E+02 -0.64424124256E+02  0.75724080251E+02  0.25500000920E-02 0.  1.
       -2    1    3    3    0  502  0.13165329953E+02  0.37554528681E+02  0.21085199713E+04  0.21088954782E+04  0.25500000920E-02 0. -1.
</event>
<event>
 5   0  0.3343036E-02  0.7992078E+03  0.7818609E-02  0.9561165E-01
       -2   -1    0    0    0  501  0.00000000000E+00  0.00000000000E+00  0.58852059547E+03  0.58852059547E+03  0.25500000920E-02 0.  1.
        2   -1    0    0  501    0  0.00000000000E+00  0.00000000000E+00 -0.27132995505E+03  0.27132995506E+03  0.25500000920E-02 0. -1.
    10030    2    1    2    0    0  0.00000000000E+00  0.00000000000E+00  0.31719064042E+03  0.85985055053E+03  0.79920777454E+03 0.  0.
        4    1    3    3  502    0 -0.23605896522E+02 -0.37766924687E+03  0.29675403418E+03  0.48089070285E+03  0.12699999809E+01 0. -1.
       -4    1    3    3    0  502  0.23605896522E+02  0.37766924687E+03  0.20436606243E+02  0.37895984769E+03  0.12699999809E+01 0.  1.
</event>
<event>
 5   0  0.3416160E-02  0.8000427E+03  0.7818609E-02  0.9559955E-01
        2   -1    0    0  501    0  0.00000000000E+00  0.00000000000E+00  0.26424259847E+03  0.26424259848E+03  0.25500000920E-02 0.  1.
       -2   -1    0    0    0  501  0.00000000000E+00  0.00000000000E+00 -0.60556883163E+03  0.60556883164E+03  0.25500000920E-02 0. -1.
    10030    2    1    2    0    0  0.00000000000E+00  0.00000000000E+00 -0.34132623317E+03  0.86981143012E+03  0.80004270293E+03 0.  0.
        1    1    3    3  502    0  0.76518278123E+02 -0.38693276711E+03 -0.24314862154E+03  0.46335004622E+03  0.50400001928E-02 0. -1.
       -1    1    3    3    0  502 -0.76518278123E+02  0.38693276711E+03 -0.98177611627E+02  0.40646138390E+03  0.50400001928E-02 0.  1.
</event>
<event>
 5   0  0.1358000E-02  0.8068701E+03  0.7818609E-02  0.9550126E-01
        4   -1    0    0  501    0  0.00000000000E+00  0.00000000000E+00  0.29894922007E+03  0.29895191767E+03  0.12699999809E+01 0. -1.
       -4   -1    0    0    0  501  0.00000000000E+00  0.00000000000E+00 -0.54443383317E+03  0.54443531444E+03  0.12699999809E+01 0.  1.
    10030    2    1    2    0    0  0.00000000000E+00  0.00000000000E+00 -0.24548461311E+03  0.84338723211E+03  0.80687008124E+03 0.  0.
        2    1    3    3  502    0 -0.23716250265E+03  0.13652686135E+02  0.21809409644E+03  0.32248640810E+03  0.25500000920E-02 0. -1.
       -2    1    3    3    0  502  0.23716250265E+03 -0.13652686135E+02 -0.46357870954E+03  0.52090082401E+03  0.25500000920E-02 0.  1.
</event>
<event>
 5   0  0.3343036E-02  0.8798372E+03  0.7818609E-02  0.9451143E-01
       -2   -1    0    0    0  501  0.00000000000E+00  0.00000000000E+00  0.13612834332E+03  0.13612834335E+03  0.25500000920E-02 0. -1.
        2   -1    0    0  501    0  0.00000000000E+00  0.00000000000E+00 -0.14216611186E+04  0.14216611186E+04  0.25500000920E-02 0.  1.
    10030    2    1    2    0    0  0.00000000000E+00  0.00000000000E+00 -0.12855327753E+04  0.15577894620E+04  0.87983719601E+03 0.  0.
        4    1    3    3  502    0 -0.17317976572E+03  0.86632795756E+02 -0.13421426659E+04  0.13560401989E+04  0.12699999809E+01 0.  1.
       -4    1    3    3    0  502  0.17317976572E+03 -0.86632795756E+02  0.56609890549E+02  0.20174926311E+03  0.12699999809E+01 0. -1.
</event>
<event>
 5   0  0.3550586E-02  0.8002287E+03  0.7818609E-02  0.9559686E-01
        2   -1    0    0  501    0  0.00000000000E+00  0.00000000000E+00  0.34803096138E+03  0.34803096139E+03  0.25500000920E-02 0.  1.
       -2   -1    0    0    0  501  0.00000000000E+00  0.00000000000E+00 -0.45999208395E+03  0.45999208396E+03  0.25500000920E-02 0. -1.
    10030    2    1    2    0    0  0.00000000000E+00  0.00000000000E+00 -0.11196112257E+03  0.80802304535E+03  0.80022868534E+03 0.  0.
        3    1    3    3  502    0 -0.83753453566E+02 -0.37569677380E+03  0.54302158444E+02  0.38873055121E+03  0.10100000352E+00 0. -1.
       -3    1    3    3    0  502  0.83753453566E+02  0.37569677380E+03 -0.16626328102E+03  0.41929249414E+03  0.10100000352E+00 0.  1.
</event>
<event>
 5   0  0.1358000E-02  0.8263228E+03  0.7818609E-02  0.9522679E-01
       -3   -1    0    0    0  501  0.00000000000E+00  0.00000000000E+00  0.24917976387E+03  0.24917978434E+03  0.10100000352E+00 0. -1.
        3   -1    0    0  501    0  0.00000000000E+00  0.00000000000E+00 -0.68505695840E+03  0.68505696585E+03  0.10100000352E+00 0.  1.
    10030    2    1    2    0    0  0.00000000000E+00  0.00000000000E+00 -0.43587719453E+03  0.93423675019E+03  0.82632280416E+03 0.  0.
        2    1    3    3  502    0  0.26023410092E+03 -0.29615843619E+03 -0.35765172512E+03  0.53230288662E+03  0.25500000920E-02 0.  1.
       -2    1    3    3    0  502 -0.26023410092E+03  0.29615843619E+03 -0.78225469411E+02  0.40193386357E+03  0.25500000920E-02 0. -1.
</event>
<event>
 5   0  0.1358000E-02  0.7926105E+03  0.7818609E-02  0.9570775E-01
       -3   -1    0    0    0  501  0.00000000000E+00  0.00000000000E+00  0.13575550584E+03  0.13575554341E+03  0.10100000352E+00 0. -1.
        3   -1    0    0  501    0  0.00000000000E+00  0.00000000000E+00 -0.11569167701E+04  0.11569167745E+04  0.10100000352E+00 0.  1.
    10030    2    1    2    0    0  0.00000000000E+00  0.00000000000E+00 -0.10211612643E+04  0.12926723179E+04  0.79261049318E+03 0.  0.
        2    1    3    3  502    0  0.16021017596E+03  0.29445093941E+03 -0.16581030284E+03  0.37398089889E+03  0.25500000920E-02 0.  1.
       -2    1    3    3    0  502 -0.16021017596E+03 -0.29445093941E+03 -0.85535096143E+03  0.91869141904E+03  0.25500000920E-02 0. -1.
</event>
<event>
 5   0  0.2129257E-02  0.7972963E+03  0.7818609E-02  0.9563939E-01
       -1   -1    0    0    0  501  0.00000000000E+00  0.00000000000E+00  0.17171832008E+03  0.17171832015E+03  0.50400001928E-02 0. -1.
        1   -1    0    0  501    0  0.00000000000E+00  0.00000000000E+00 -0.92547120841E+03  0.92547120842E+03  0.50400001928E-02 0.  1.
    10030    2    1    2    0    0  0.00000000000E+00  0.00000000000E+00 -0.75375288834E+03  0.10971895286E+04  0.79729633446E+03 0.  0.
        3    1    3    3  502    0  0.17010156670E+03  0.23354390581E+03 -0.75485878610E+03  0.80826301171E+03  0.10100000352E+00 0.  1.
       -3    1    3    3    0  502 -0.17010156670E+03 -0.23354390581E+03  0.11058977654E+01  0.28892651687E+03  0.10100000352E+00 0. -1.
</event>
<event>
 5   0  0.3404132E-02  0.7840638E+03  0.7818609E-02  0.9583375E-01
       -2   -1    0    0    0  501  0.00000000000E+00  0.00000000000E+00  0.15708106665E+03  0.15708106667E+03  0.25500000920E-02 0.  1.
        2   -1    0    0  501    0  0.00000000000E+00  0.00000000000E+00 -0.97840569197E+03  0.97840569197E+03  0.25500000920E-02 0. -1.
    10030    2    1    2    0    0  0.00000000000E+00  0.00000000000E+00 -0.82132462532E+03  0.11354867586E+04  0.78406379772E+03 0.  0.
        5    1    3    3  502    0  0.21243398105E+03  0.24278871082E+03 -0.73316852415E+03  0.80101980575E+03  0.46999998093E+01 0. -1.
       -5    1    3    3    0  502 -0.21243398105E+03 -0.24278871082E+03 -0.88156101169E+02  0.33446695289E+03  0.46999998093E+01 0.  1.
</event>
<event>
 5   0  0.2132540E-02  0.8256876E+03  0.7818609E-02  0.9523562E-01
        1   -1    0    0  501    0  0.00000000000E+00  0.00000000000E+00  0.14134529174E+04  0.14134529174E+04  0.50400001928E-02 0.  1.
       -1   -1    0    0    0  501  0.00000000000E+00  0.00000000000E+00 -0.12058413087E+03  0.12058413097E+03  0.50400001928E-02 0. -1.
    10030    2    1    2    0    0  0.00000000000E+00  0.00000000000E+00  0.12928687866E+04  0.15340370484E+04  0.82568757205E+03 0.  0.
        4    1    3    3  502    0 -0.20907665661E+03  0.10165743639E+03  0.12802748845E+04  0.13012120026E+04  0.12699999809E+01 0.  1.
       -4    1    3    3    0  502  0.20907665661E+03 -0.10165743639E+03  0.12593902024E+02  0.23282504586E+03  0.12699999809E+01 0. -1.
</event>
<event>
 5   0  0.3416160E-02  0.7422391E+03  0.7818609E-02  0.9647605E-01
       -2   -1    0    0    0  501  0.00000000000E+00  0.00000000000E+00  0.97189834640E+02  0.97189834673E+02  0.25500000920E-02 0.  1.
        2   -1    0    0  501    0  0.00000000000E+00  0.00000000000E+00 -0.14171206749E+04  0.14171206749E+04  0.25500000920E-02 0. -1.
    10030    2    1    2    0    0  0.00000000000E+00  0.00000000000E+00 -0.13199308403E+04  0.15143105096E+04  0.74223910995E+03 0.  0.
        1    1    3    3  502    0  0.24296759514E+03 -0.27120098236E+03 -0.51360385474E+03  0.62958092788E+03  0.50400001928E-02 0.  1.
       -1    1    3    3    0  502 -0.24296759514E+03  0.27120098236E+03 -0.80632698553E+03  0.88472958171E+03  0.50400001928E-02 0. -1.
</event>
<event>
 5   0  0.1358000E-02  0.6488806E+03  0.7818609E-02  0.9808882E-01
        3   -1    0    0  501    0  0.00000000000E+00  0.00000000000E+00  0.28562714739E+03  0.28562716525E+03  0.10100000352E+00 0.  1.
       -3   -1    0    0    0  501  0.00000000000E+00  0.00000000000E+00 -0.36852762005E+03  0.36852763389E+03  0.10100000352E+00 0. -1.
    10030    2    1    2    0    0  0.00000000000E+00  0.00000000000E+00 -0.82900472653E+02  0.65415479914E+03  0.64888058444E+03 0.  0.
        1    1    3    3  502    0 -0.13045103796E+03  0.28584298001E+03 -0.12296424553E+03  0.33740759954E+03  0.50400001928E-02 0. -1.
       -1    1    3    3    0  502  0.13045103796E+03 -0.28584298001E+03  0.40063772881E+02  0.31674719959E+03  0.50400001928E-02 0.  1.
</event>
<event>
 5   0  0.3467240E-02  0.8021178E+03  0.7818609E-02  0.9556957E-01
       -2   -1    0    0    0  501  0.00000000000E+00  0.00000000000E+00  0.23913820960E+03  0.23913820961E+03  0.25500000920E-02 0.  1.
        2   -1    0    0  501    0  0.00000000000E+00  0.00000000000E+00 -0.67261621903E+03  0.67261621904E+03  0.25500000920E-02 0. -1.
    10030    2    1    2    0    0  0.00000000000E+00  0.00000000000E+00 -0.43347800943E+03  0.91175442865E+03  0.80211779278E+03 0.  0.
        2    1    3    3  502    0 -0.35619766062E+03 -0.17591008937E+03 -0.15419963464E+03  0.42614394317E+03  0.25500000920E-02 0. -1.
       -2    1    3    3    0  502  0.35619766062E+03  0.17591008937E+03 -0.27927837480E+03  0.48561048548E+03  0.25500000920E-02 0.  1.
</event>
<event>
 5   0  0.2077795E-02  0.8039405E+03  0.7818609E-02  0.9554331E-01
        1   -1    0    0  501    0  0.00000000000E+00  0.00000000000E+00  0.65611677446E+03  0.65611677448E+03  0.50400001928E-02 0. -1.
       -1   -1    0    0    0  501  0.00000000000E+00  0.00000000000E+00 -0.24626725678E+03  0.24626725683E+03  0.50400001928E-02 0.  1.
    10030    2    1    2    0    0  0.00000000000E+00  0.00000000000E+00  0.40984951768E+03  0.90238403131E+03  0.80394049084E+03 0.  0.
        5    1    3    3  502    0  0.17529595143E+03 -0.44553451214E+02  0.60782740221E+03  0.63418445382E+03  0.46999998093E+01 0. -1.
       -5    1    3    3    0  502 -0.17529595143E+03  0.44553451214E+02 -0.19797788453E+03  0.26819957748E+03  0.46999998093E+01 0.  1.
</event>
<event>
 5   0  0.3343036E-02  0.8065566E+03  0.7818609E-02  0.9550575E-01
       -2   -1    0    0    0  501  0.00000000000E+00  0.00000000000E+00  0.83059591780E+03  0.83059591780E+03  0.25500000920E-02 0.  1.
        2   -1    0    0  501    0  0.00000000000E+00  0.00000000000E+00 -0.19580326828E+03  0.19580326830E+03  0.25500000920E-02 0. -1.
    10030    2    1    2    0    0  0.00000000000E+00  0.00000000000E+00  0.63479264951E+03  0.10263991861E+04  0.80655662005E+03 0.  0.
        4    1    3    3  502    0  0.30082799371E+02 -0.27714806190E+03 -0.53434295692E+02  0.28385358882E+03  0.12699999809E+01 0. -1.
       -4    1    3    3    0  502 -0.30082799371E+02  0.27714806190E+03  0.68822694521E+03  0.74254559728E+03  0.12699999809E+01 0.  1.
</event>
<event>
 5   0  0.3404132E-02  0.8024947E+03  0.7818609E-02  0.9556413E-01
       -2   -1    0    0    0  501  0.00000000000E+00  0.00000000000E+00  0.18495155154E+03  0.18495155156E+03  0.25500000920E-02 0.  1.
        2   -1    0    0  501    0  0.00000000000E+00  0.00000000000E+00 -0.87049514096E+03  0.87049514096E+03  0.25500000920E-02 0. -1.
    10030    2    1    2    0    0  0.00000000000E+00  0.00000000000E+00 -0.68554358942E+03  0.10554466925E+04  0.80249467771E+03 0.  0.
        5    1    3    3  502    0  0.75935624092E+02 -0.24526457201E+03  0.62722586995E+02  0.26434284974E+03  0.46999998093E+01 0.  1.
       -5    1    3    3    0  502 -0.75935624092E+02  0.24526457201E+03 -0.74826617641E+03  0.79110384278E+03  0.46999998093E+01 0. -1.
</event>
<event>
 5   0  0.2132540E-02  0.8231243E+03  0.7818609E-02  0.9527136E-01
        1   -1    0    0  501    0  0.00000000000E+00  0.00000000000E+00  0.15149206192E+04  0.15149206192E+04  0.50400001928E-02 0.  1.
       -1   -1    0    0    0  501  0.00000000000E+00  0.00000000000E+00 -0.11181007943E+03  0.11181007954E+03  0.50400001928E-02 0. -1.
    10030    2    1    2    0    0  0.00000000000E+00  0.00000000000E+00  0.14031105398E+04  0.16267306987E+04  0.82312427944E+03 0.  0.
        4    1    3    3  502    0  0.25757887219E+02  0.22121294582E+02 -0.10903359292E+03  0.11420489356E+03  0.12699999809E+01 0. -1.
       -4    1    3    3    0  502 -0.25757887219E+02 -0.22121294582E+02  0.15121441327E+04  0.15125258052E+04  0.12699999809E+01 0.  1.
</event>
<event>
 5   0  0.3416160E-02  0.7905685E+03  0.7818609E-02  0.9573770E-01
        2   -1    0    0  501    0  0.00000000000E+00  0.00000000000E+00  0.18111277370E+04  0.18111277370E+04  0.25500000920E-02 0.  1.
       -2   -1    0    0    0  501  0.00000000000E+00  0.00000000000E+00 -0.86272004731E+02  0.86272004768E+02  0.25500000920E-02 0. -1.
    10030    2    1    2    0    0  0.00000000000E+00  0.00000000000E+00  0.17248557322E+04  0.18973997417E+04  0.79056845555E+03 0.  0.
        1    1    3    3  502    0 -0.34461096418E+03 -0.73922322618E+02  0.43290435735E+03  0.55823597972E+03  0.50400001928E-02 0. -1.
       -1    1    3    3    0  502  0.34461096418E+03  0.73922322618E+02  0.12919513749E+04  0.13391637620E+04  0.50400001928E-02 0.  1.
</event>
<event>
 5   0  0.2077795E-02  0.8008887E+03  0.7818609E-02  0.9558732E-01
       -1   -1    0    0    0  501  0.00000000000E+00  0.00000000000E+00  0.21330541995E+03  0.21330542001E+03  0.50400001928E-02 0.  1.
        1   -1    0    0  501    0  0.00000000000E+00  0.00000000000E+00 -0.75176567724E+03  0.75176567726E+03  0.50400001928E-02 0. -1.
    10030    2    1    2    0    0  0.00000000000E+00  0.00000000000E+00 -0.53846025729E+03  0.96507109727E+03  0.80088874015E+03 0.  0.
        5    1    3    3  502    0  0.29972069440E+03  0.23888546994E+03 -0.12956004640E+03  0.40460679433E+03  0.46999998093E+01 0.  1.
       -5    1    3    3    0  502 -0.29972069440E+03 -0.23888546994E+03 -0.40890021089E+03  0.56046430293E+03  0.46999998093E+01 0. -1.
</event>
<event>
 5   0  0.1989298E-02  0.7783314E+03  0.7818609E-02  0.9591922E-01
       -1   -1    0    0    0  501  0.00000000000E+00  0.00000000000E+00  0.22953423576E+03  0.22953423581E+03  0.50400001928E-02 0. -1.
        1   -1    0    0  501    0  0.00000000000E+00  0.00000000000E+00 -0.65981421926E+03  0.65981421927E+03  0.50400001928E-02 0.  1.
    10030    2    1    2    0    0  0.00000000000E+00  0.00000000000E+00 -0.43027998350E+03  0.88934845509E+03  0.77833142707E+03 0.  0.
        1    1    3    3  502    0 -0.32774547480E+03  0.18756243116E+03 -0.32265208033E+03  0.49669017184E+03  0.50400001928E-02 0. -1.
       -1    1    3    3    0  502  0.32774547480E+03 -0.18756243116E+03 -0.10762790317E+03  0.39265828325E+03  0.50400001928E-02 0.  1.
</event>
<event>
 5   0  0.2129257E-02  0.8002018E+03  0.7818609E-02  0.9559725E-01
       -1   -1    0    0    0  501  0.00000000000E+00  0.00000000000E+00  0.60229451957E+03  0.60229451959E+03  0.50400001928E-02 0. -1.
        1   -1    0    0  501    0  0.00000000000E+00  0.00000000000E+00 -0.26578477793E+03  0.26578477797E+03  0.50400001928E-02 0.  1.
    10030    2    1    2    0    0  0.00000000000E+00  0.00000000000E+00  0.33650974165E+03  0.86807929757E+03  0.80020176246E+03 0.  0.
        3    1    3    3  502    0 -0.30172800415E+03  0.63327519088E+02  0.44489716761E+03  0.54127965333E+03  0.10100000352E+00 0. -1.
       -3    1    3    3    0  502  0.30172800415E+03 -0.63327519088E+02 -0.10838742597E+03  0.32679964423E+03  0.10100000352E+00 0.  1.
</event>
<event>
 5   0  0.2132540E-02  0.8022589E+03  0.7818609E-02  0.9556753E-01
        1   -1    0    0  501    0  0.00000000000E+00  0.00000000000E+00  0.81796398105E+03  0.81796398106E+03  0.50400001928E-02 0. -1.
       -1   -1    0    0    0  501  0.00000000000E+00  0.00000000000E+00 -0.19671385523E+03  0.19671385529E+03  0.50400001928E-02 0.  1.
    10030    2    1    2    0    0  0.00000000000E+00  0.00000000000E+00  0.62125012582E+03  0.10146778364E+04  0.80225893124E+03 0.  0.
        4    1    3    3  502    0  0.17224081556E+03  0.22075941713E+03 -0.52657742354E+02  0.28491414413E+03  0.12699999809E+01 0.  1.
       -4    1    3    3    0  502 -0.17224081556E+03 -0.22075941713E+03  0.67390786818E+03  0.72976369222E+03  0.12699999809E+01 0. -1.
</event>
<event>
 5   0  0.3550586E-02  0.7417073E+03  0.7818609E-02  0.9648451E-01
       -2   -1    0    0    0  501  0.00000000000E+00  0.00000000000E+00  0.24581173014E+03  0.24581173016E+03  0.25500000920E-02 0. -1.
        2   -1    0    0  501    0  0.00000000000E+00  0.00000000000E+00 -0.55950310965E+03  0.55950310966E+03  0.25500000920E-02 0.  1.
    10030    2    1    2    0    0  0.00000000000E+00  0.00000000000E+00 -0.31369137951E+03  0.80531483982E+03  0.74170729378E+03 0.  0.
        3    1    3    3  502    0  0.20443983483E+03 -0.67186197074E+02  0.17108708088E+03  0.27491895276E+03  0.10100000352E+00 0. -1.
       -3    1    3    3    0  502 -0.20443983483E+03  0.67186197074E+02 -0.48477846039E+03  0.53039588705E+03  0.10100000352E+00 0.  1.
</event>
<event>
 5   0  0.2077795E-02  0.8037957E+03  0.7818609E-02  0.9554539E-01
        1   -1    0    0  501    0  0.00000000000E+00  0.00000000000E+00  0.17753792633E+03  0.17753792640E+03  0.50400001928E-02 0.  1.
       -1   -1    0    0    0  501  0.00000000000E+00  0.00000000000E+00 -0.90978799779E+03  0.90978799780E+03  0.50400001928E-02 0. -1.
    10030    2    1    2    0    0  0.00000000000E+00  0.00000000000E+00 -0.73225007146E+03  0.10873259242E+04  0.80379568193E+03 0.  0.
        5    1    3    3  502    0 -0.14029092255E+03 -0.29300560525E+03 -0.46105831618E+02  0.32814884636E+03  0.46999998093E+01 0.  1.
       -5    1    3    3    0  502  0.14029092255E+03  0.29300560525E+03 -0.68614423984E+03  0.75917707785E+03  0.46999998093E+01 0. -1.
</event>
<event>
 5   0  0.3550586E-02  0.8514301E+03  0.7818609E-02  0.9488419E-01
        2   -1    0    0  501    0  0.00000000000E+00  0.00000000000E+00  0.11795898135E+04  0.11795898135E+04  0.25500000920E-02 0. -1.
       -2   -1    0    0    0  501  0.00000000000E+00  0.00000000000E+00 -0.15364096612E+03  0.15364096614E+03  0.25500000920E-02 0.  1.
    10030    2    1    2    0    0  0.00000000000E+00  0.00000000000E+00  0.10259488474E+04  0.13332307797E+04  0.85143013475E+03 0.  0.
        3    1    3    3  502    0 -0.33135695839E+03  0.53383979421E+02  0.10288918973E+03  0.35104626290E+03  0.10100000352E+00 0.  1.
       -3    1    3    3    0  502  0.33135695839E+03 -0.53383979421E+02  0.92305965770E+03  0.98218451678E+03  0.10100000352E+00 0. -1.
</event>
<event>
 5   0  0.3404132E-02  0.8070601E+03  0.7818609E-02  0.9549854E-01
        2   -1    0    0  501    0  0.00000000000E+00  0.00000000000E+00  0.82846073674E+03  0.82846073674E+03  0.25500000920E-02 0.  1.
       -2   -1    0    0    0  501  0.00000000000E+00  0.00000000000E+00 -0.19655305921E+03  0.19655305922E+03  0.25500000920E-02 0. -1.
    10030    2    1    2    0    0  0.00000000000E+00  0.00000000000E+00  0.63190767753E+03  0.10250137960E+04  0.80706007769E+03 0.  0.
        5    1    3    3  502    0 -0.36329107080E+03 -0.91729091632E+02  0.12578495389E+03  0.39527025312E+03  0.46999998093E+01 0. -1.
       -5    1    3    3    0  502  0.36329107080E+03  0.91729091632E+02  0.50612272364E+03  0.62974354285E+03  0.46999998093E+01 0.  1.
</event>
<event>
 5   0  0.2063692E-02  0.8022500E+03  0.7818609E-02  0.9556766E-01
        1   -1    0    0  501    0  0.00000000000E+00  0.00000000000E+00  0.49698614617E+03  0.49698614619E+03  0.50400001928E-02 0. -1.
       -1   -1    0    0    0  501  0.00000000000E+00  0.00000000000E+00 -0.32375402587E+03  0.32375402590E+03  0.50400001928E-02 0.  1.
    10030    2    1    2    0    0  0.00000000000E+00  0.00000000000E+00  0.17323212030E+03  0.82074017210E+03  0.80225000006E+03 0.  0.
        2    1    3    3  502    0 -0.55059377325E+02 -0.23984879442E+03  0.41068541279E+03  0.47877080895E+03  0.25500000920E-02 0. -1.
       -2    1    3    3    0  502  0.55059377325E+02  0.23984879442E+03 -0.23745329249E+03  0.34196936315E+03  0.25500000920E-02 0.  1.
</event>
<event>
 5   0  0.2132540E-02  0.7999104E+03  0.7818609E-02  0.9560147E-01
       -1   -1    0    0    0  501  0.00000000000E+00  0.00000000000E+00  0.10435606552E+03  0.10435606564E+03  0.50400001928E-02 0.  1.
        1   -1    0    0  501    0  0.00000000000E+00  0.00000000000E+00 -0.15328687225E+04  0.15328687225E+04  0.50400001928E-02 0. -1.
    10030    2    1    2    0    0  0.00000000000E+00  0.00000000000E+00 -0.14285126569E+04  0.16372247881E+04  0.79991036733E+03 0.  0.
        4    1    3    3  502    0 -0.19020375270E+03 -0.27463478142E+03 -0.26415142103E+03  0.42588650699E+03  0.12699999809E+01 0.  1.
       -4    1    3    3    0  502  0.19020375270E+03  0.27463478142E+03 -0.11643612359E+04  0.12113382811E+04  0.12699999809E+01 0. -1.
</event>
<event>
 5   0  0.3467240E-02  0.8141303E+03  0.7818609E-02  0.9539786E-01
       -2   -1    0    0    0  501  0.00000000000E+00  0.00000000000E+00  0.32595948748E+03  0.32595948749E+03  0.25500000920E-02 0. -1.
        2   -1    0    0  501    0  0.00000000000E+00  0.00000000000E+00 -0.50835168239E+03  0.50835168240E+03  0.25500000920E-02 0.  1.
    10030    2    1    2    0    0  0.00000000000E+00  0.00000000000E+00 -0.18239219491E+03  0.83431116989E+03  0.81413034303E+03 0.  0.
        2    1    3    3  502    0  0.13855196945E+03 -0.25548471053E+03  0.20088286558E+03  0.35330300203E+03  0.25500000920E-02 0. -1.
       -2    1    3    3    0  502 -0.13855196945E+03  0.25548471053E+03 -0.38327506049E+03  0.48100816786E+03  0.25500000920E-02 0.  1.
</event>
<event>
 5   0  0.3550586E-02  0.7934446E+03  0.7818609E-02  0.9569554E-01
       -2   -1    0    0    0  501  0.00000000000E+00  0.00000000000E+00  0.12192885481E+03  0.12192885484E+03  0.25500000920E-02 0.  1.
        2   -1    0    0  501    0  0.00000000000E+00  0.00000000000E+00 -0.12908232217E+04  0.12908232217E+04  0.25500000920E-02 0. -1.
    10030    2    1    2    0    0  0.00000000000E+00  0.00000000000E+00 -0.11688943669E+04  0.14127520765E+04  0.79344463502E+03 0.  0.
        3    1    3    3  502    0  0.39243629757E+03 -0.96382657459E+01 -0.68656711654E+03  0.79086886368E+03  0.10100000352E+00 0. -1.
       -3    1    3    3    0  502 -0.39243629757E+03  0.96382657459E+01 -0.48232725035E+03  0.62188321287E+03  0.10100000352E+00 0.  1.
</event>
<event>
 5   0  0.1989298E-02  0.7917178E+03  0.7818609E-02  0.9572083E-01
       -1   -1    0    0    0  501  0.00000000000E+00  0.00000000000E+00  0.27610095779E+03  0.27610095783E+03  0.50400001928E-02 0.  1.
        1   -1    0    0  501    0  0.00000000000E+00  0.00000000000E+00 -0.56756145688E+03  0.56756145690E+03  0.50400001928E-02 0. -1.
    10030    2    1    2    0    0  0.00000000000E+00  0.00000000000E+00 -0.29146049909E+03  0.84366241473E+03  0.79171778274E+03 0.  0.
        1    1    3    3  502    0 -0.88814095010E+02 -0.38429770671E+03 -0.10988405616E+03  0.40944740404E+03  0.50400001928E-02 0.  1.
       -1    1    3    3    0  502  0.88814095010E+02  0.38429770671E+03 -0.18157644293E+03  0.43421501069E+03  0.50400001928E-02 0. -1.
</event>
<event>
 5   0  0.3404132E-02  0.8148554E+03  0.7818609E-02  0.9538760E-01
        2   -1    0    0  501    0  0.00000000000E+00  0.00000000000E+00  0.67254311439E+03  0.67254311439E+03  0.25500000920E-02 0.  1.
       -2   -1    0    0    0  501  0.00000000000E+00  0.00000000000E+00 -0.24682037399E+03  0.24682037400E+03  0.25500000920E-02 0. -1.
    10030    2    1    2    0    0  0.00000000000E+00  0.00000000000E+00  0.42572274040E+03  0.91936348839E+03  0.81485543018E+03 0.  0.
        5    1    3    3  502    0  0.14885922269E+03  0.28061692397E+03 -0.74943528790E+02  0.32641009283E+03  0.46999998093E+01 0. -1.
       -5    1    3    3    0  502 -0.14885922269E+03 -0.28061692397E+03  0.50066626919E+03  0.59295339556E+03  0.46999998093E+01 0.  1.
</event>
<event>
 5   0  0.2132540E-02  0.7615516E+03  0.7818609E-02  0.9617400E-01
        1   -1    0    0  501    0  0.00000000000E+00  0.00000000000E+00  0.44855736843E+03  0.44855736846E+03  0.50400001928E-02 0. -1.
       -1   -1    0    0    0  501  0.00000000000E+00  0.00000000000E+00 -0.32323672718E+03  0.32323672721E+03  0.50400001928E-02 0.  1.
    10030    2    1    2    0    0  0.00000000000E+00  0.00000000000E+00  0.12532064125E+03  0.77179409567E+03  0.76155161545E+03 0.  0.
        4    1    3    3  502    0  0.13270872135E+03 -0.93511414492E+02 -0.28640295286E+03  0.32921763876E+03  0.12699999809E+01 0.  1.
       -4    1    3    3    0  502 -0.13270872135E+03  0.93511414492E+02  0.41172359411E+03  0.44257645691E+03  0.12699999809E+01 0. -1.
</event>
<event>
 5   0  0.2077795E-02  0.7800982E+03  0.7818609E-02  0.9589279E-01
       -1   -1    0    0    0  501  0.00000000000E+00  0.00000000000E+00  0.75384856412E+03  0.75384856414E+03  0.50400001928E-02 0.  1.
        1   -1    0    0  501    0  0.00000000000E+00  0.00000000000E+00 -0.20181545117E+03  0.20181545124E+03  0.50400001928E-02 0. -1.
    10030    2    1    2    0    0  0.00000000000E+00  0.00000000000E+00  0.55203311295E+03  0.95566401537E+03  0.78009816850E+03 0.  0.
        5    1    3    3  502    0 -0.18576387252E+03  0.15068048303E+02 -0.14369870269E+03  0.23538621362E+03  0.46999998093E+01 0. -1.
       -5    1    3    3    0  502  0.18576387252E+03 -0.15068048303E+02  0.69573181563E+03  0.72027780175E+03  0.46999998093E+01 0.  1.
</event>
<event>
 5   0  0.3467240E-02  0.7948404E+03  0.7818609E-02  0.9567516E-01
       -2   -1    0    0    0  501  0.00000000000E+00  0.00000000000E+00  0.12575224087E+03  0.12575224090E+03  0.25500000920E-02 0.  1.
        2   -1    0    0  501    0  0.00000000000E+00  0.00000000000E+00 -0.12559842232E+04  0.12559842232E+04  0.25500000920E-02 0. -1.
    10030    2    1    2    0    0  0.00000000000E+00  0.00000000000E+00 -0.11302319823E+04  0.13817364641E+04  0.79484043830E+03 0.  0.
        2    1    3    3  502    0 -0.40850917934E+02 -0.38425500467E+03 -0.72653415718E+03  0.82290496880E+03  0.25500000920E-02 0. -1.
       -2    1    3    3    0  502  0.40850917934E+02  0.38425500467E+03 -0.40369782515E+03  0.55883149531E+03  0.25500000920E-02 0.  1.
</event>
<event>
 5   0  0.1989298E-02  0.8025584E+03  0.7818609E-02  0.9556321E-01
        1   -1    0    0  501    0  0.00000000000E+00  0.00000000000E+00  0.14063646405E+04  0.14063646405E+04  0.50400001928E-02 0.  1.
       -1   -1    0    0    0  501  0.00000000000E+00  0.00000000000E+00 -0.11449734322E+03  0.11449734333E+03  0.50400001928E-02 0. -1.
    10030    2    1    2    0    0  0.00000000000E+00  0.00000000000E+00  0.12918672973E+04  0.15208619839E+04  0.80255844653E+03 0.  0.
        1    1    3    3  502    0  0.17881974394E+03 -0.10934489859E+03  0.12943845987E+04  0.13112453230E+04  0.50400001928E-02 0.  1.
       -1    1    3    3    0  502 -0.17881974394E+03  0.10934489859E+03 -0.25173014271E+01  0.20961666084E+03  0.50400001928E-02 0. -1.
</event>
<event>
 5   0  0.2063692E-02  0.7719918E+03  0.7818609E-02  0.9601467E-01
       -1   -1    0    0    0  501  0.00000000000E+00  0.00000000000E+00  0.24643899475E+03  0.24643899481E+03  0.50400001928E-02 0.  1.
        1   -1    0    0  501    0  0.00000000000E+00  0.00000000000E+00 -0.60458303451E+03  0.60458303453E+03  0.50400001928E-02 0. -1.
    10030    2    1    2    0    0  0.00000000000E+00  0.00000000000E+00 -0.35814403975E+03  0.85102202933E+03  0.77199180125E+03 0.  0.
        2    1    3    3  502    0 -0.40762704268E+02 -0.17809203218E+03  0.19575785826E+03  0.26776764006E+03  0.25500000920E-02 0.  1.
       -2    1    3    3    0  502  0.40762704268E+02  0.17809203218E+03 -0.55390189801E+03  0.58325438927E+03  0.25500000920E-02 0. -1.
</event>
<event>
 5   0  0.3404132E-02  0.8159038E+03  0.7818609E-02  0.9537278E-01
       -2   -1    0    0    0  501  0.00000000000E+00  0.00000000000E+00  0.11424882701E+04  0.11424882701E+04  0.25500000920E-02 0. -1.
        2   -1    0    0  501    0  0.00000000000E+00  0.00000000000E+00 -0.14566868366E+03  0.14566868368E+03  0.25500000920E-02 0.  1.
    10030    2    1    2    0    0  0.00000000000E+00  0.00000000000E+00  0.99681958644E+03  0.12881569538E+04  0.81590382379E+03 0.  0.
        5    1    3    3  502    0 -0.33524451296E+03  0.13106587210E+02  0.86475493040E+03  0.92756878222E+03  0.46999998093E+01 0. -1.
       -5    1    3    3    0  502  0.33524451296E+03 -0.13106587210E+02  0.13206465604E+03  0.36058817157E+03  0.46999998093E+01 0.  1.
</event>
<event>
 5   0  0.3343036E-02  0.8055857E+03  0.7818609E-02  0.9551967E-01
        2   -1    0    0  501    0  0.00000000000E+00  0.00000000000E+00  0.77935539972E+03  0.77935539972E+03  0.25500000920E-02 0. -1.
       -2   -1    0    0    0  501  0.00000000000E+00  0.00000000000E+00 -0.20817472521E+03  0.20817472523E+03  0.25500000920E-02 0.  1.
    10030    2    1    2    0    0  0.00000000000E+00  0.00000000000E+00  0.57118067450E+03  0.98753012495E+03  0.80558574016E+03 0.  0.
        4    1    3    3  502    0  0.14479156097E+03 -0.25873155598E+03 -0.48629291145E+02  0.30045471380E+03  0.12699999809E+01 0.  1.
       -4    1    3    3    0  502 -0.14479156097E+03  0.25873155598E+03  0.61980996565E+03  0.68707541115E+03  0.12699999809E+01 0. -1.
</event>
<event>
 5   0  0.2063692E-02  0.8071597E+03  0.7818609E-02  0.9549711E-01
       -1   -1    0    0    0  501  0.00000000000E+00  0.00000000000E+00  0.26439217433E+03  0.26439217438E+03  0.50400001928E-02 0.  1.
        1   -1    0    0  501    0  0.00000000000E+00  0.00000000000E+00 -0.61604203052E+03  0.61604203054E+03  0.50400001928E-02 0. -1.
    10030    2    1    2    0    0  0.00000000000E+00  0.00000000000E+00 -0.35164985619E+03  0.88043420492E+03  0.80715969166E+03 0.  0.
        2    1    3    3  502    0 -0.36181546220E+03 -0.96065988165E+02 -0.34030362195E+03  0.50591072127E+03  0.25500000920E-02 0. -1.
       -2    1    3    3    0  502  0.36181546220E+03  0.96065988165E+02 -0.11346234234E+02  0.37452348365E+03  0.25500000920E-02 0.  1.
</event>
<event>
 5   0  0.2129257E-02  0.7897553E+03  0.7818609E-02  0.9574965E-01
        1   -1    0    0  501    0  0.00000000000E+00  0.00000000000E+00  0.38214548533E+03  0.38214548536E+03  0.50400001928E-02 0. -1.
       -1   -1    0    0    0  501  0.00000000000E+00  0.00000000000E+00 -0.40803401824E+03  0.40803401827E+03  0.50400001928E-02 0.  1.
    10030    2    1    2    0    0  0.00000000000E+00  0.00000000000E+00 -0.25888532910E+02  0.79017950363E+03  0.78975529870E+03 0.  0.
        3    1    3    3  502    0  0.21041597426E+03 -0.74970169305E+02 -0.33874616603E+03  0.40576395073E+03  0.10100000352E+00 0.  1.
       -3    1    3    3    0  502 -0.21041597426E+03  0.74970169305E+02  0.31285763312E+03  0.38441555290E+03  0.10100000352E+00 0. -1.
</event>
<event>
 5   0  0.2063692E-02  0.8134654E+03  0.7818609E-02  0.9540728E-01
        1   -1    0    0  501    0  0.00000000000E+00  0.00000000000E+00  0.47291018360E+03  0.47291018363E+03  0.50400001928E-02 0.  1.
       -1   -1    0    0    0  501  0.00000000000E+00  0.00000000000E+00 -0.34981585034E+03  0.34981585038E+03  0.50400001928E-02 0. -1.
    10030    2    1    2    0    0  0.00000000000E+00  0.00000000000E+00  0.12309433326E+03  0.82272603401E+03  0.81346537244E+03 0.  0.
        2    1    3    3  502    0 -0.24455309461E+03 -0.73737020383E+02  0.38167561502E+03  0.45925988216E+03  0.25500000920E-02 0.  1.
       -2    1    3    3    0  502  0.24455309461E+03  0.73737020383E+02 -0.25858128176E+03  0.36346615185E+03  0.25500000920E-02 0. -1.
</event>
<event>
 5   0  0.3550586E-02  0.7509324E+03  0.7818609E-02  0.9633889E-01
       -2   -1    0    0    0  501  0.00000000000E+00  0.00000000000E+00  0.28340178620E+03  0.28340178621E+03  0.25500000920E-02 0. -1.
        2   -1    0    0  501    0  0.00000000000E+00  0.00000000000E+00 -0.49743811827E+03  0.49743811828E+03  0.25500000920E-02 0.  1.
    10030    2    1    2    0    0  0.00000000000E+00  0.00000000000E+00 -0.21403633207E+03  0.78083990449E+03  0.75093235714E+03 0.  0.
        3    1    3    3  502    0 -0.15188028537E+03  0.16284844315E+02 -0.46366832756E+03  0.48818146772E+03  0.10100000352E+00 0.  1.
       -3    1    3    3    0  502  0.15188028537E+03 -0.16284844315E+02  0.24963199549E+03  0.29265843677E+03  0.10100000352E+00 0. -1.
</event>
<event>
 5   0  0.2077795E-02  0.8590252E+03  0.7818609E-02  0.9478303E-01
       -1   -1    0    0    0  501  0.00000000000E+00  0.00000000000E+00  0.79412023940E+03  0.79412023942E+03  0.50400001928E-02 0. -1.
        1   -1    0    0  501    0  0.00000000000E+00  0.00000000000E+00 -0.23230871606E+03  0.23230871611E+03  0.50400001928E-02 0.  1.
    10030    2    1    2    0    0  0.00000000000E+00  0.00000000000E+00  0.56181152334E+03  0.10264289555E+04  0.85902515271E+03 0.  0.
        5    1    3    3  502    0 -0.36235870461E+03  0.23258686682E+02  0.68276460846E+01  0.36319898687E+03  0.46999998093E+01 0.  1.
       -5    1    3    3    0  502  0.36235870461E+03 -0.23258686682E+02  0.55498387725E+03  0.66322996866E+03  0.46999998093E+01 0. -1.
</event>
<event>
 5   0  0.2132540E-02  0.8011007E+03  0.7818609E-02  0.9558425E-01
       -1   -1    0    0    0  501  0.00000000000E+00  0.00000000000E+00  0.81083643107E+03  0.81083643109E+03  0.50400001928E-02 0.  1.
        1   -1    0    0  501    0  0.00000000000E+00  0.00000000000E+00 -0.19787046823E+03  0.19787046829E+03  0.50400001928E-02 0. -1.
    10030    2    1    2    0    0  0.00000000000E+00  0.00000000000E+00  0.61296596284E+03  0.10087068994E+04  0.80110070356E+03 0.  0.
        4    1    3    3  502    0 -0.33845243753E+03 -0.39483112394E+02  0.41372586016E+02  0.34325249075E+03  0.12699999809E+01 0. -1.
       -4    1    3    3    0  502  0.33845243753E+03  0.39483112394E+02  0.57159337683E+03  0.66545440863E+03  0.12699999809E+01 0.  1.
</event>
<event>
 5   0  0.1989298E-02  0.8274652E+03  0.7818609E-02  0.9521092E-01
       -1   -1    0    0    0  501  0.00000000000E+00  0.00000000000E+00  0.21516180849E+03  0.21516180855E+03  0.50400001928E-02 0.  1.
        1   -1    0    0  501    0  0.00000000000E+00  0.00000000000E+00 -0.79556243644E+03  0.79556243646E+03  0.50400001928E-02 0. -1.
    10030    2    1    2    0    0  0.00000000000E+00  0.00000000000E+00 -0.58040062796E+03  0.10107242450E+04  0.82746517178E+03 0.  0.
        1    1    3    3  502    0  0.15037427603E+03  0.29785929158E+03 -0.58900422109E+03  0.67694796917E+03  0.50400001928E-02 0. -1.
       -1    1    3    3    0  502 -0.15037427603E+03 -0.29785929158E+03  0.86035931350E+01  0.33377627584E+03  0.50400001928E-02 0.  1.
</event>
<event>
 5   0  0.3416160E-02  0.8478257E+03  0.7818609E-02  0.9493260E-01
        2   -1    0    0  501    0  0.00000000000E+00  0.00000000000E+00  0.84785262572E+03  0.84785262573E+03  0.25500000920E-02 0.  1.
       -2   -1    0    0    0  501  0.00000000000E+00  0.00000000000E+00 -0.21194971659E+03  0.21194971660E+03  0.25500000920E-02 0. -1.
    10030    2    1    2    0    0  0.00000000000E+00  0.00000000000E+00  0.63590290914E+03  0.10598023423E+04  0.84782574563E+03 0.  0.
        1    1    3    3  502    0  0.23334285027E+03 -0.27069449294E+03  0.60293968623E+03  0.70089989267E+03  0.50400001928E-02 0.  1.
       -1    1    3    3    0  502 -0.23334285027E+03  0.27069449294E+03  0.32963222907E+02  0.35890244966E+03  0.50400001928E-02 0. -1.
</event>
<event>
 5   0  0.1989298E-02  0.8051142E+03  0.7818609E-02  0.9552644E-01
       -1   -1    0    0    0  501  0.00000000000E+00  0.00000000000E+00  0.67649854736E+03  0.67649854737E+03  0.50400001928E-02 0. -1.
        1   -1    0    0  501    0  0.00000000000E+00  0.00000000000E+00 -0.23954553193E+03  0.23954553198E+03  0.50400001928E-02 0.  1.
    10030    2    1    2    0    0  0.00000000000E+00  0.00000000000E+00  0.43695301543E+03  0.91604407936E+03  0.80511416435E+03 0.  0.
        1    1    3    3  502    0  0.75179020421E+02 -0.19481996328E+03 -0.17310140747E+03  0.27123937859E+03  0.50400001928E-02 0.  1.
       -1    1    3    3    0  502 -0.75179020421E+02  0.19481996328E+03  0.61005442290E+03  0.64480470077E+03  0.50400001928E-02 0. -1.
</event>
<event>
 5   0  0.3550586E-02  0.8872032E+03  0.7818609E-02  0.9441721E-01
        2   -1    0    0  501    0  0.00000000000E+00  0.00000000000E+00  0.47339926688E+03  0.47339926689E+03  0.25500000920E-02 0.  1.
       -2   -1    0    0    0  501  0.00000000000E+00  0.00000000000E+00 -0.41567953327E+03  0.41567953327E+03  0.25500000920E-02 0. -1.
    10030    2    1    2    0    0  0.00000000000E+00  0.00000000000E+00  0.57719733618E+02  0.88907880016E+03  0.88720321531E+03 0.  0.
        3    1    3    3  502    0  0.23163726123E+03 -0.17255449612E+03 -0.30852902963E+03  0.42263583290E+03  0.10100000352E+00 0. -1.
       -3    1    3    3    0  502 -0.23163726123E+03  0.17255449612E+03  0.36624876325E+03  0.46644296726E+03  0.10100000352E+00 0.  1.
</event>
<event>
 5   0  0.3550586E-02  0.8182771E+03  0.7818609E-02  0.9533932E-01
        2   -1    0    0  501    0  0.00000000000E+00  0.00000000000E+00  0.96563101278E+03  0.96563101278E+03  0.25500000920E-02 0. -1.
       -2   -1    0    0    0  501  0.00000000000E+00  0.00000000000E+00 -0.17335231471E+03  0.17335231473E+03  0.25500000920E-02 0.  1.
    10030    2    1    2    0    0  0.00000000000E+00  0.00000000000E+00  0.79227869807E+03  0.11389833275E+04  0.81827714433E+03 0.  0.
        3    1    3    3  502    0 -0.17664076965E+03  0.14276766591E+03 -0.77545603614E+02  0.23999562240E+03  0.10100000352E+00 0.  1.
       -3    1    3    3    0  502  0.17664076965E+03 -0.14276766591E+03  0.86982430168E+03  0.89898770510E+03  0.10100000352E+00 0. -1.
</event>
<event>
 5   0  0.3343036E-02  0.8083403E+03  0.7818609E-02  0.9548023E-01
       -2   -1    0    0    0  501  0.00000000000E+00  0.00000000000E+00  0.14543979425E+03  0.14543979427E+03  0.25500000920E-02 0.  1.
        2   -1    0    0  501    0  0.00000000000E+00  0.00000000000E+00 -0.11231694177E+04  0.11231694177E+04  0.25500000920E-02 0. -1.
    10030    2    1    2    0    0  0.00000000000E+00  0.00000000000E+00 -0.97772962342E+03  0.12686092119E+04  0.80834034670E+03 0.  0.
        4    1    3    3  502    0 -0.20123855216E+03  0.10429926251E+03  0.36302022553E+02  0.22955335061E+03  0.12699999809E+01 0.  1.
       -4    1    3    3    0  502  0.20123855216E+03 -0.10429926251E+03 -0.10140316460E+04  0.10390558613E+04  0.12699999809E+01 0. -1.
</event>
<event>
 5   0  0.2129257E-02  0.7982584E+03  0.7818609E-02  0.9562541E-01
        1   -1    0    0  501    0  0.00000000000E+00  0.00000000000E+00  0.44670933681E+03  0.44670933684E+03  0.50400001928E-02 0. -1.
       -1   -1    0    0    0  501  0.00000000000E+00  0.00000000000E+00 -0.35661690681E+03  0.35661690684E+03  0.50400001928E-02 0.  1.
    10030    2    1    2    0    0  0.00000000000E+00  0.00000000000E+00  0.90092430007E+02  0.80332624368E+03  0.79825835908E+03 0.  0.
        3    1    3    3  502    0  0.15776102704E+03 -0.18035804511E+03  0.36626937978E+03  0.43768805656E+03  0.10100000352E+00 0. -1.
       -3    1    3    3    0  502 -0.15776102704E+03  0.18035804511E+03 -0.27617694978E+03  0.36563818712E+03  0.10100000352E+00 0.  1.
</event>
<event>
 5   0  0.3343036E-02  0.7993175E+03  0.7818609E-02  0.9561005E-01
       -2   -1    0    0    0  501  0.00000000000E+00  0.00000000000E+00  0.27381658435E+03  0.27381658437E+03  0.25500000920E-02 0.  1.
        2   -1    0    0  501    0  0.00000000000E+00  0.00000000000E+00 -0.58333621106E+03  0.58333621107E+03  0.25500000920E-02 0. -1.
    10030    2    1    2    0    0  0.00000000000E+00  0.00000000000E+00 -0.30951962671E+03  0.85715279543E+03  0.79931753102E+03 0.  0.
        4    1    3    3  502    0  0.21271143516E+03  0.22897215547E+03  0.11236467087E+03  0.33211720038E+03  0.12699999809E+01 0.  1.
       -4    1    3    3    0  502 -0.21271143516E+03 -0.22897215547E+03 -0.42188429758E+03  0.52503559505E+03  0.12699999809E+01 0. -1.
</event>
<event>
 5   0  0.2077795E-02  0.8151274E+03  0.7818609E-02  0.9538375E-01
        1   -1    0    0  501    0  0.00000000000E+00  0.00000000000E+00  0.52672839188E+03  0.52672839191E+03  0.50400001928E-02 0.  1.
       -1   -1    0    0    0  501  0.00000000000E+00  0.00000000000E+00 -0.31535826917E+03  0.31535826921E+03  0.50400001928E-02 0. -1.
    10030    2    1    2    0    0  0.00000000000E+00  0.00000000000E+00  0.21137012272E+03  0.84208666111E+03  0.81512736186E+03 0.  0.
        5    1    3    3  502    0  0.20111918025E+03 -0.13535502001E+03  0.44411118099E+03  0.50599084694E+03  0.46999998093E+01 0.  1.
       -5    1    3    3    0  502 -0.20111918025E+03  0.13535502001E+03 -0.23274105827E+03  0.33609581418E+03  0.46999998093E+01 0. -1.
</event>
<event>
 5   0  0.3416160E-02  0.7864385E+03  0.7818609E-02  0.9579857E-01
       -2   -1    0    0    0  501  0.00000000000E+00  0.00000000000E+00  0.25956998523E+03  0.25956998524E+03  0.25500000920E-02 0. -1.
        2   -1    0    0  501    0  0.00000000000E+00  0.00000000000E+00 -0.59568282975E+03  0.59568282975E+03  0.25500000920E-02 0.  1.
    10030    2    1    2    0    0  0.00000000000E+00  0.00000000000E+00 -0.33611284452E+03  0.85525281499E+03  0.78643851209E+03 0.  0.
        1    1    3    3  502    0 -0.38842050816E+03  0.52600191555E+02 -0.20217194271E+03  0.44103374673E+03  0.50400001928E-02 0.  1.
       -1    1    3    3    0  502  0.38842050816E+03 -0.52600191555E+02 -0.13394090180E+03  0.41421906826E+03  0.50400001928E-02 0. -1.
</event>
<event>
 5   0  0.2063692E-02  0.8049144E+03  0.7818609E-02  0.9552931E-01
       -1   -1    0    0    0  501  0.00000000000E+00  0.00000000000E+00  0.10869142937E+03  0.10869142949E+03  0.50400001928E-02 0.  1.
        1   -1    0    0  501    0  0.00000000000E+00  0.00000000000E+00 -0.14901983758E+04  0.14901983758E+04  0.50400001928E-02 0. -1.
    10030    2    1    2    0    0  0.00000000000E+00  0.00000000000E+00 -0.13815069465E+04  0.15988898053E+04  0.80491438455E+03 0.  0.
        2    1    3    3  502    0  0.23793663635E+02 -0.41881280867E+02 -0.14844518608E+04  0.14852331491E+04  0.25500000920E-02 0. -1.
       -2    1    3    3    0  502 -0.23793663635E+02  0.41881280867E+02  0.10294491433E+03  0.11365665624E+03  0.25500000920E-02 0.  1.
</event>
<event>
 5   0  0.3404132E-02  0.8051488E+03  0.7818609E-02  0.9552594E-01
       -2   -1    0    0    0  501  0.00000000000E+00  0.00000000000E+00  0.27211844735E+03  0.27211844736E+03  0.25500000920E-02 0. -1.
        2   -1    0    0  501    0  0.00000000000E+00  0.00000000000E+00 -0.59557214417E+03  0.59557214418E+03  0.25500000920E-02 0.  1.
    10030    2    1    2    0    0  0.00000000000E+00  0.00000000000E+00 -0.32345369682E+03  0.86769059154E+03  0.80514884876E+03 0.  0.
        5    1    3    3  502    0 -0.25790609182E+03  0.16998679338E+03  0.11645798236E+03  0.33014483757E+03  0.46999998093E+01 0. -1.
       -5    1    3    3    0  502  0.25790609182E+03 -0.16998679338E+03 -0.43991167919E+03  0.53754575396E+03  0.46999998093E+01 0.  1.
</event>
<event>
 5   0  0.2129257E-02  0.8354283E+03  0.7818609E-02  0.9510106E-01
       -1   -1    0    0    0  501  0.00000000000E+00  0.00000000000E+00  0.13468524477E+03  0.13468524487E+03  0.50400001928E-02 0. -1.
        1   -1    0    0  501    0  0.00000000000E+00  0.00000000000E+00 -0.12955028944E+04  0.12955028944E+04  0.50400001928E-02 0.  1.
    10030    2    1    2    0    0  0.00000000000E+00  0.00000000000E+00 -0.11608176496E+04  0.14301881393E+04  0.83542833207E+03 0.  0.
        3    1    3    3  502    0  0.27494318821E+03  0.60342079457E+02 -0.11087529712E+04  0.11439266081E+04  0.10100000352E+00 0.  1.
       -3    1    3    3    0  502 -0.27494318821E+03 -0.60342079457E+02 -0.52064678395E+02  0.28626153118E+03  0.10100000352E+00 0. -1.
</event>
<event>
 5   0  0.1989298E-02  0.8164134E+03  0.7818609E-02  0.9536559E-01
       -1   -1    0    0    0  501  0.00000000000E+00  0.00000000000E+00  0.76194297048E+03  0.76194297050E+03  0.50400001928E-02 0. -1.
        1   -1    0    0  501    0  0.00000000000E+00  0.00000000000E+00 -0.21869444422E+03  0.21869444428E+03  0.50400001928E-02 0.  1.
    10030    2    1    2    0    0  0.00000000000E+00  0.00000000000E+00  0.54324852627E+03  0.98063741478E+03  0.81641336220E+03 0.  0.
        1    1    3    3  502    0 -0.65207746842E+02 -0.38408034056E+03  0.12518731746E+03  0.40919631319E+03  0.50400001928E-02 0.  1.
       -1    1    3    3    0  502  0.65207746842E+02  0.38408034056E+03  0.41806120881E+03  0.57144110159E+03  0.50400001928E-02 0. -1.
</event>
<event>
 5   0  0.1358000E-02  0.8049950E+03  0.7818609E-02  0.9552815E-01
       -3   -1    0    0    0  501  0.00000000000E+00  0.00000000000E+00  0.14063356573E+03  0.14063360200E+03  0.10100000352E+00 0.  1.
        3   -1    0    0  501    0  0.00000000000E+00  0.00000000000E+00 -0.11519596545E+04  0.11519596590E+04  0.10100000352E+00 0. -1.
    10030    2    1    2    0    0  0.00000000000E+00  0.00000000000E+00 -0.10113260888E+04  0.12925932610E+04  0.80499495674E+03 0.  0.
        2    1    3    3  502    0  0.69366329663E+02  0.20614699043E+03  0.38141422539E+02  0.22082354375E+03  0.25500000920E-02 0.  1.
       -2    1    3    3    0  502 -0.69366329663E+02 -0.20614699043E+03 -0.10494675113E+04  0.10717697172E+04  0.25500000920E-02 0. -1.
</event>
<event>
 5   0  0.1989298E-02  0.7779969E+03  0.7818609E-02  0.9592423E-01
        1   -1    0    0  501    0  0.00000000000E+00  0.00000000000E+00  0.57732401898E+03  0.57732401900E+03  0.50400001928E-02 0.  1.
       -1   -1    0    0    0  501  0.00000000000E+00  0.00000000000E+00 -0.26210551055E+03  0.26210551060E+03  0.50400001928E-02 0. -1.
    10030    2    1    2    0    0  0.00000000000E+00  0.00000000000E+00  0.31521850843E+03  0.83942952960E+03  0.77799693258E+03 0.  0.
        1    1    3    3  502    0 -0.18792486006E+03 -0.33736237465E+03  0.20810979371E+03  0.43867848262E+03  0.50400001928E-02 0. -1.
       -1    1    3    3    0  502  0.18792486006E+03  0.33736237465E+03  0.10710871472E+03  0.40075104697E+03  0.50400001928E-02 0.  1.
</event>
<event>
 5   0  0.2063692E-02  0.8346984E+03  0.7818609E-02  0.9511108E-01
       -1   -1    0    0    0  501  0.00000000000E+00  0.00000000000E+00  0.56423726694E+03  0.56423726697E+03  0.50400001928E-02 0.  1.
        1   -1    0    0  501    0  0.00000000000E+00  0.00000000000E+00 -0.30870051506E+03  0.30870051510E+03  0.50400001928E-02 0. -1.
    10030    2    1    2    0    0  0.00000000000E+00  0.00000000000E+00  0.25553675189E+03  0.87293778207E+03  0.83469835258E+03 0.  0.
        2    1    3    3  502    0  0.96577783716E+02  0.33287453697E+03  0.37090029533E+03  0.50764136430E+03  0.25500000920E-02 0.  1.
       -2    1    3    3    0  502 -0.96577783716E+02 -0.33287453697E+03 -0.11536354345E+03  0.36529641776E+03  0.25500000920E-02 0. -1.
</event>
<event>
 5   0  0.2077795E-02  0.8226990E+03  0.7818609E-02  0.9527730E-01
        1   -1    0    0  501    0  0.00000000000E+00  0.00000000000E+00  0.16399440461E+04  0.16399440461E+04  0.50400001928E-02 0. -1.
       -1   -1    0    0    0  501  0.00000000000E+00  0.00000000000E+00 -0.10317938173E+03  0.10317938185E+03  0.50400001928E-02 0.  1.
    10030    2    1    2    0    0  0.00000000000E+00  0.00000000000E+00  0.15367646644E+04  0.17431234280E+04  0.82269900417E+03 0.  0.
        5    1    3    3  502    0  0.85025137565E+02 -0.23693020134E+03  0.14576269171E+04  0.14792104359E+04  0.46999998093E+01 0. -1.
       -5    1    3    3    0  502 -0.85025137565E+02  0.23693020134E+03  0.79137747293E+02  0.26391299205E+03  0.46999998093E+01 0.  1.
</event>
<event>
 5   0  0.3404132E-02  0.7961031E+03  0.7818609E-02  0.9565675E-01
        2   -1    0    0  501    0  0.00000000000E+00  0.00000000000E+00  0.12089630294E+04  0.12089630294E+04  0.25500000920E-02 0. -1.
       -2   -1    0    0    0  501  0.00000000000E+00  0.00000000000E+00 -0.13105861602E+03  0.13105861605E+03  0.25500000920E-02 0.  1.
    10030    2    1    2    0    0  0.00000000000E+00  0.00000000000E+00  0.10779044134E+04  0.13400216454E+04  0.79610306235E+03 0.  0.
        5    1    3    3  502    0  0.28691706542E+02  0.16107166073E+03 -0.71796068792E+02  0.17872901110E+03  0.46999998093E+01 0.  1.
       -5    1    3    3    0  502 -0.28691706542E+02 -0.16107166073E+03  0.11497004821E+04  0.11612926343E+04  0.46999998093E+01 0. -1.
</event>
<event>
 5   0  0.2077795E-02  0.7516667E+03  0.7818609E-02  0.9632739E-01
       -1   -1    0    0    0  501  0.00000000000E+00  0.00000000000E+00  0.36623275406E+03  0.36623275410E+03  0.50400001928E-02 0.  1.
        1   -1    0    0  501    0  0.00000000000E+00  0.00000000000E+00 -0.38568560074E+03  0.38568560077E+03  0.50400001928E-02 0. -1.
    10030    2    1    2    0    0  0.00000000000E+00  0.00000000000E+00 -0.19452846680E+02  0.75191835487E+03  0.75166668088E+03 0.  0.
        5    1    3    3  502    0 -0.36481211937E+03  0.67233542020E+02 -0.69916147879E+02  0.37751634315E+03  0.46999998093E+01 0. -1.
       -5    1    3    3    0  502  0.36481211937E+03 -0.67233542020E+02  0.50463301199E+02  0.37440201172E+03  0.46999998093E+01 0.  1.
</event>
<event>
 5   0  0.3416160E-02  0.7924468E+03  0.7818609E-02  0.9571015E-01
        2   -1    0    0  501    0  0.00000000000E+00  0.00000000000E+00  0.61556154320E+03  0.61556154320E+03  0.25500000920E-02 0.  1.
       -2   -1    0    0    0  501  0.00000000000E+00  0.00000000000E+00 -0.25504028985E+03  0.25504028986E+03  0.25500000920E-02 0. -1.
    10030    2    1    2    0    0  0.00000000000E+00  0.00000000000E+00  0.36052125335E+03  0.87060183307E+03  0.79244682952E+03 0.  0.
        1    1    3    3  502    0  0.12927372816E+03 -0.22253146826E+03  0.51123867032E+03  0.57236083829E+03  0.50400001928E-02 0.  1.
       -1    1    3    3    0  502 -0.12927372816E+03  0.22253146826E+03 -0.15071741697E+03  0.29824099477E+03  0.50400001928E-02 0. -1.
</event>
<event>
 5   0  0.1989298E-02  0.7893867E+03  0.7818609E-02  0.9575508E-01
       -1   -1    0    0    0  501  0.00000000000E+00  0.00000000000E+00  0.84959818866E+03  0.84959818867E+03  0.50400001928E-02 0. -1.
        1   -1    0    0  501    0  0.00000000000E+00  0.00000000000E+00 -0.18336059928E+03  0.18336059935E+03  0.50400001928E-02 0.  1.
    10030    2    1    2    0    0  0.00000000000E+00  0.00000000000E+00  0.66623758937E+03  0.10329587880E+04  0.78938668108E+03 0.  0.
        1    1    3    3  502    0  0.26022388257E+03  0.17286700636E+02 -0.54549379029E+02  0.26644123903E+03  0.50400001928E-02 0.  1.
       -1    1    3    3    0  502 -0.26022388257E+03 -0.17286700636E+02  0.72078696840E+03  0.76651754900E+03  0.50400001928E-02 0. -1.
</event>
<event>
 5   0  0.3343036E-02  0.7948344E+03  0.7818609E-02  0.9567524E-01
       -2   -1    0    0    0  501  0.00000000000E+00  0.00000000000E+00  0.13820256580E+03  0.13820256582E+03  0.25500000920E-02 0. -1.
        2   -1    0    0  501    0  0.00000000000E+00  0.00000000000E+00 -0.11428184755E+04  0.11428184755E+04  0.25500000920E-02 0.  1.
    10030    2    1    2    0    0  0.00000000000E+00  0.00000000000E+00 -0.10046159097E+04  0.12810210413E+04  0.79483443703E+03 0.  0.
        4    1    3    3  502    0  0.17802762120E+02 -0.22203311400E+03 -0.10327528936E+04  0.10565016773E+04  0.12699999809E+01 0.  1.
       -4    1    3    3    0  502 -0.17802762120E+02  0.22203311400E+03  0.28136983887E+02  0.22451936401E+03  0.12699999809E+01 0. -1.
</event>
<event>
 5   0  0.3550586E-02  0.7911295E+03  0.7818609E-02  0.9572946E-01
       -2   -1    0    0    0  501  0.00000000000E+00  0.00000000000E+00  0.12956955696E+03  0.12956955699E+03  0.25500000920E-02 0. -1.
        2   -1    0    0  501    0  0.00000000000E+00  0.00000000000E+00 -0.12076251251E+04  0.12076251251E+04  0.25500000920E-02 0.  1.
    10030    2    1    2    0    0  0.00000000000E+00  0.00000000000E+00 -0.10780555682E+04  0.13371946821E+04  0.79112945201E+03 0.  0.
        3    1    3    3  502    0 -0.18427423788E+03  0.66619361502E+02 -0.11198302761E+04  0.11368443128E+04  0.10100000352E+00 0.  1.
       -3    1    3    3    0  502  0.18427423788E+03 -0.66619361502E+02  0.41774707911E+02  0.20035036935E+03  0.10100000352E+00 0. -1.
</event>
<event>
 5   0  0.2129257E-02  0.7874651E+03  0.7818609E-02  0.9578340E-01
       -1   -1    0    0    0  501  0.00000000000E+00  0.00000000000E+00  0.28795007663E+03  0.28795007668E+03  0.50400001928E-02 0.  1.
        1   -1    0    0  501    0  0.00000000000E+00  0.00000000000E+00 -0.53837564859E+03  0.53837564861E+03  0.50400001928E-02 0. -1.
    10030    2    1    2    0    0  0.00000000000E+00  0.00000000000E+00 -0.25042557195E+03  0.82632572529E+03  0.78746507045E+03 0.  0.
        3    1    3    3  502    0  0.23544061925E+03  0.11483854168E+03 -0.43366629952E+03  0.50664252228E+03  0.10100000352E+00 0. -1.
       -3    1    3    3    0  502 -0.23544061925E+03 -0.11483854168E+03  0.18324072756E+03  0.31968320301E+03  0.10100000352E+00 0.  1.
</event>
<event>
 5   0  0.2077795E-02  0.8249299E+03  0.7818609E-02  0.9524617E-01
        1   -1    0    0  501    0  0.00000000000E+00  0.00000000000E+00  0.25907948019E+03  0.25907948024E+03  0.50400001928E-02 0. -1.
       -1   -1    0    0    0  501  0.00000000000E+00  0.00000000000E+00 -0.65666078797E+03  0.65666078799E+03  0.50400001928E-02 0.  1.
    10030    2    1    2    0    0  0.00000000000E+00  0.00000000000E+00 -0.39758130778E+03  0.91574026823E+03  0.82492990160E+03 0.  0.
        5    1    3    3  502    0 -0.23350326057E+03  0.24457149349E+03 -0.46093531427E+03  0.57168386549E+03  0.46999998093E+01 0.  1.
       -5    1    3    3    0  502  0.23350326057E+03 -0.24457149349E+03  0.63354006490E+02  0.34405640274E+03  0.46999998093E+01 0. -1.
</event>
<event>
 5   0  0.1358000E-02  0.6224886E+03  0.7818609E-02  0.9859817E-01
        3   -1    0    0  501    0  0.00000000000E+00  0.00000000000E+00  0.10017428469E+03  0.10017433561E+03  0.10100000352E+00 0. -1.
       -3   -1    0    0    0  501  0.00000000000E+00  0.00000000000E+00 -0.96704458420E+03  0.96704458948E+03  0.10100000352E+00 0.  1.
    10030    2    1    2    0    0  0.00000000000E+00  0.00000000000E+00 -0.86687029951E+03  0.10672189251E+04  0.62248864880E+03 0.  0.
        4    1    3    3  502    0  0.41532919357E+02  0.64514485491E+02  0.83701532592E+02  0.11355466387E+03  0.12699999809E+01 0. -1.
       -4    1    3    3    0  502 -0.41532919357E+02 -0.64514485491E+02 -0.95057183210E+03  0.95366426122E+03  0.12699999809E+01 0.  1.
</event>
<event>
 5   0  0.2063692E-02  0.7941511E+03  0.7818609E-02  0.9568522E-01
       -1   -1    0    0    0  501  0.00000000000E+00  0.00000000000E+00  0.25858067704E+03  0.25858067709E+03  0.50400001928E-02 0.  1.
        1   -1    0    0  501    0  0.00000000000E+00  0.00000000000E+00 -0.60974774638E+03  0.60974774640E+03  0.50400001928E-02 0. -1.
    10030    2    1    2    0    0  0.00000000000E+00  0.00000000000E+00 -0.35116706934E+03  0.86832842349E+03  0.79415108162E+03 0.  0.
        2    1    3    3  502    0 -0.61478280234E+02 -0.25613102259E+03  0.14929989190E+03  0.30277572128E+03  0.25500000920E-02 0.  1.
       -2    1    3    3    0  502  0.61478280234E+02  0.25613102259E+03 -0.50046696124E+03  0.56555270220E+03  0.25500000920E-02 0. -1.
</event>
<event>
 5   0  0.3550586E-02  0.8196441E+03  0.7818609E-02  0.9532010E-01
        2   -1    0    0  501    0  0.00000000000E+00  0.00000000000E+00  0.67754493781E+03  0.67754493781E+03  0.25500000920E-02 0.  1.
       -2   -1    0    0    0  501  0.00000000000E+00  0.00000000000E+00 -0.24788631907E+03  0.24788631908E+03  0.25500000920E-02 0. -1.
    10030    2    1    2    0    0  0.00000000000E+00  0.00000000000E+00  0.42965861874E+03  0.92543125689E+03  0.81964411946E+03 0.  0.
        3    1    3    3  502    0  0.20723839159E+03  0.35270217909E+03  0.24265869018E+03  0.47563623517E+03  0.10100000352E+00 0.  1.
       -3    1    3    3    0  502 -0.20723839159E+03 -0.35270217909E+03  0.18699992856E+03  0.44979502172E+03  0.10100000352E+00 0. -1.
</event>
<event>
 5   0  0.3467240E-02  0.8005615E+03  0.7818609E-02  0.9559205E-01
        2   -1    0    0  501    0  0.00000000000E+00  0.00000000000E+00  0.12544818795E+04  0.12544818795E+04  0.25500000920E-02 0. -1.
       -2   -1    0    0    0  501  0.00000000000E+00  0.00000000000E+00 -0.12772180365E+03  0.12772180367E+03  0.25500000920E-02 0.  1.
    10030    2    1    2    0    0  0.00000000000E+00  0.00000000000E+00  0.11267600759E+04  0.13822036832E+04  0.80056152372E+03 0.  0.
        2    1    3    3  502    0 -0.41448165882E+00 -0.85634128789E+02  0.12384810157E+04  0.12414381185E+04  0.25500000920E-02 0. -1.
       -2    1    3    3    0  502  0.41448165882E+00  0.85634128789E+02 -0.11172093981E+03  0.14076556471E+03  0.25500000920E-02 0.  1.
</event>
<event>
 5   0  0.3550586E-02  0.7953504E+03  0.7818609E-02  0.9566772E-01
       -2   -1    0    0    0  501  0.00000000000E+00  0.00000000000E+00  0.89572094905E+02  0.89572094941E+02  0.25500000920E-02 0. -1.
        2   -1    0    0  501    0  0.00000000000E+00  0.00000000000E+00 -0.17655673440E+04  0.17655673440E+04  0.25500000920E-02 0.  1.
    10030    2    1    2    0    0  0.00000000000E+00  0.00000000000E+00 -0.16759952491E+04  0.18551394389E+04  0.79535040261E+03 0.  0.
        3    1    3    3  502    0  0.23016638888E+03 -0.27606077500E+03 -0.12349268839E+04  0.12861689379E+04  0.10100000352E+00 0.  1.
       -3    1    3    3    0  502 -0.23016638888E+03  0.27606077500E+03 -0.44106836521E+03  0.56897050104E+03  0.10100000352E+00 0. -1.
</event>
<event>
 5   0  0.3467240E-02  0.7827306E+03  0.7818609E-02  0.9585356E-01
        2   -1    0    0  501    0  0.00000000000E+00  0.00000000000E+00  0.99636999015E+03  0.99636999015E+03  0.25500000920E-02 0.  1.
       -2   -1    0    0    0  501  0.00000000000E+00  0.00000000000E+00 -0.15372483915E+03  0.15372483918E+03  0.25500000920E-02 0. -1.
    10030    2    1    2    0    0  0.00000000000E+00  0.00000000000E+00  0.84264515099E+03  0.11500948293E+04  0.78273064713E+03 0.  0.
        2    1    3    3  502    0 -0.16850415007E+03 -0.32887199269E+02 -0.95440430736E+02  0.19642833882E+03  0.25500000920E-02 0. -1.
       -2    1    3    3    0  502  0.16850415007E+03  0.32887199269E+02  0.93808558173E+03  0.95366649051E+03  0.25500000920E-02 0.  1.
</event>
<event>
 5   0  0.3550586E-02  0.6596417E+03  0.7818609E-02  0.9788854E-01
       -2   -1    0    0    0  501  0.00000000000E+00  0.00000000000E+00  0.50549804004E+02  0.50549804069E+02  0.25500000920E-02 0. -1.
        2   -1    0    0  501    0  0.00000000000E+00  0.00000000000E+00 -0.21519725193E+04  0.21519725193E+04  0.25500000920E-02 0.  1.
    10030    2    1    2    0    0  0.00000000000E+00  0.00000000000E+00 -0.21014227153E+04  0.22025223234E+04  0.65964168803E+03 0.  0.
        3    1    3    3  502    0  0.11808398505E+03  0.21824451040E+03 -0.17761768122E+04  0.17934264892E+04  0.10100000352E+00 0.  1.
       -3    1    3    3    0  502 -0.11808398505E+03 -0.21824451040E+03 -0.32524590316E+03  0.40909583421E+03  0.10100000352E+00 0. -1.
</event>
<event>
 5   0  0.3404132E-02  0.8851139E+03  0.7818609E-02  0.9444384E-01
        2   -1    0    0  501    0  0.00000000000E+00  0.00000000000E+00  0.21009099414E+03  0.21009099416E+03  0.25500000920E-02 0.  1.
       -2   -1    0    0    0  501  0.00000000000E+00  0.00000000000E+00 -0.93224669699E+03  0.93224669699E+03  0.25500000920E-02 0. -1.
    10030    2    1    2    0    0  0.00000000000E+00  0.00000000000E+00 -0.72215570285E+03  0.11423376911E+04  0.88511385791E+03 0.  0.
        5    1    3    3  502    0  0.11387294799E+03 -0.20727385883E+03  0.12166077804E+03  0.26599424007E+03  0.46999998093E+01 0.  1.
       -5    1    3    3    0  502 -0.11387294799E+03  0.20727385883E+03 -0.84381648089E+03  0.87634345108E+03  0.46999998093E+01 0. -1.
</event>
<event>
 5   0  0.3343036E-02  0.7989140E+03  0.7818609E-02  0.9561590E-01
       -2   -1    0    0    0  501  0.00000000000E+00  0.00000000000E+00  0.14389893742E+03  0.14389893744E+03  0.25500000920E-02 0.  1.
        2   -1    0    0  501    0  0.00000000000E+00  0.00000000000E+00 -0.11088747973E+04  0.11088747973E+04  0.25500000920E-02 0. -1.
    10030    2    1    2    0    0  0.00000000000E+00  0.00000000000E+00 -0.96497585988E+03  0.12527737347E+04  0.79891402560E+03 0.  0.
        4    1    3    3  502    0 -0.34757186484E+03  0.19057146188E+03 -0.55995581267E+03  0.68605816688E+03  0.12699999809E+01 0.  1.
       -4    1    3    3    0  502  0.34757186484E+03 -0.19057146188E+03 -0.40502004721E+03  0.56671556786E+03  0.12699999809E+01 0. -1.
</event>
<event>
 5   0  0.3343036E-02  0.7456229E+03  0.7818609E-02  0.9642243E-01
       -2   -1    0    0    0  501  0.00000000000E+00  0.00000000000E+00  0.13090294132E+03  0.13090294134E+03  0.25500000920E-02 0.  1.
        2   -1    0    0  501    0  0.00000000000E+00  0.00000000000E+00 -0.10617665379E+04  0.10617665379E+04  0.25500000920E-02 0. -1.
    10030    2    1    2    0    0  0.00000000000E+00  0.00000000000E+00 -0.93086359658E+03  0.11926694792E+04  0.74562286129E+03 0.  0.
        4    1    3    3  502    0  0.91314582766E+02 -0.14180349224E+03 -0.99724724520E+03  0.10114100377E+04  0.12699999809E+01 0. -1.
       -4    1    3    3    0  502 -0.91314582766E+02  0.14180349224E+03  0.66383648619E+02  0.18125944153E+03  0.12699999809E+01 0.  1.
</event>
<event>
 5   0  0.1989298E-02  0.7751018E+03  0.7818609E-02  0.9596772E-01
        1   -1    0    0  501    0  0.00000000000E+00  0.00000000000E+00  0.10635391966E+03  0.10635391978E+03  0.50400001928E-02 0.  1.
       -1   -1    0    0    0  501  0.00000000000E+00  0.00000000000E+00 -0.14122253781E+04  0.14122253781E+04  0.50400001928E-02 0. -1.
    10030    2    1    2    0    0  0.00000000000E+00  0.00000000000E+00 -0.13058714585E+04  0.15185792979E+04  0.77510181138E+03 0.  0.
        1    1    3    3  502    0 -0.65500494977E+02 -0.72597843540E+02  0.81790160706E+02  0.12747702594E+03  0.50400001928E-02 0.  1.
       -1    1    3    3    0  502  0.65500494977E+02  0.72597843540E+02 -0.13876616192E+04  0.13911022720E+04  0.50400001928E-02 0. -1.
</event>
<event>
 5   0  0.3467240E-02  0.7961652E+03  0.7818609E-02  0.9565584E-01
        2   -1    0    0  501    0  0.00000000000E+00  0.00000000000E+00  0.13231963066E+04  0.13231963066E+04  0.25500000920E-02 0.  1.
       -2   -1    0    0    0  501  0.00000000000E+00  0.00000000000E+00 -0.11976284205E+03  0.11976284207E+03  0.25500000920E-02 0. -1.
    10030    2    1    2    0    0  0.00000000000E+00  0.00000000000E+00  0.12034334646E+04  0.14429591487E+04  0.79616518458E+03 0.  0.
        2    1    3    3  502    0  0.14925874796E+03  0.40480492546E+02 -0.63093040165E+02  0.16702567420E+03  0.25500000920E-02 0. -1.
       -2    1    3    3    0  502 -0.14925874796E+03 -0.40480492546E+02  0.12665265047E+04  0.12759334745E+04  0.25500000920E-02 0.  1.
</event>
<event>
 5   0  0.2077795E-02  0.7501589E+03  0.7818609E-02  0.9635101E-01
        1   -1    0    0  501    0  0.00000000000E+00  0.00000000000E+00  0.79036158258E+03  0.79036158260E+03  0.50400001928E-02 0.  1.
       -1   -1    0    0    0  501  0.00000000000E+00  0.00000000000E+00 -0.17800028852E+03  0.17800028859E+03  0.50400001928E-02 0. -1.
    10030    2    1    2    0    0  0.00000000000E+00  0.00000000000E+00  0.61236129407E+03  0.96836187119E+03  0.75015888923E+03 0.  0.
        5    1    3    3  502    0 -0.28472281880E+03 -0.18607393206E+03  0.10218998637E+03  0.35518372013E+03  0.46999998093E+01 0. -1.
       -5    1    3    3    0  502  0.28472281880E+03  0.18607393206E+03  0.51017130769E+03  0.61317815105E+03  0.46999998093E+01 0.  1.
</event>
<event>
 5   0  0.2132540E-02  0.8056388E+03  0.7818609E-02  0.9551891E-01
        1   -1    0    0  501    0  0.00000000000E+00  0.00000000000E+00  0.53577832637E+03  0.53577832639E+03  0.50400001928E-02 0.  1.
       -1   -1    0    0    0  501  0.00000000000E+00  0.00000000000E+00 -0.30285557838E+03  0.30285557842E+03  0.50400001928E-02 0. -1.
    10030    2    1    2    0    0  0.00000000000E+00  0.00000000000E+00  0.23292274799E+03  0.83863390481E+03  0.80563876506E+03 0.  0.
        4    1    3    3  502    0 -0.18252974149E+03 -0.25485500064E+01 -0.25732453980E+03  0.31550139987E+03  0.12699999809E+01 0. -1.
       -4    1    3    3    0  502  0.18252974149E+03  0.25485500064E+01  0.49024728779E+03  0.52313250494E+03  0.12699999809E+01 0.  1.
</event>
<event>
 5   0  0.2077795E-02  0.7881691E+03  0.7818609E-02  0.9577302E-01
        1   -1    0    0  501    0  0.00000000000E+00  0.00000000000E+00  0.61551820970E+03  0.61551820972E+03  0.50400001928E-02 0.  1.
       -1   -1    0    0    0  501  0.00000000000E+00  0.00000000000E+00 -0.25231198368E+03  0.25231198373E+03  0.50400001928E-02 0. -1.
    10030    2    1    2    0    0  0.00000000000E+00  0.00000000000E+00  0.36320622602E+03  0.86783019346E+03  0.78816906946E+03 0.  0.
        5    1    3    3  502    0 -0.32943919766E+02  0.24412295509E+03  0.52025938757E+03  0.57565027525E+03  0.46999998093E+01 0.  1.
       -5    1    3    3    0  502  0.32943919766E+02 -0.24412295509E+03 -0.15705316154E+03  0.29217991820E+03  0.46999998093E+01 0. -1.
</event>
<event>
 5   0  0.3416160E-02  0.8052490E+03  0.7818609E-02  0.9552450E-01
       -2   -1    0    0    0  501  0.00000000000E+00  0.00000000000E+00  0.10526807243E+04  0.10526807243E+04  0.25500000920E-02 0.  1.
        2   -1    0    0  501    0  0.00000000000E+00  0.00000000000E+00 -0.15399396133E+03  0.15399396135E+03  0.25500000920E-02 0. -1.
    10030    2    1    2    0    0  0.00000000000E+00  0.00000000000E+00  0.89868676296E+03  0.12066746856E+04  0.80524896713E+03 0.  0.
        1    1    3    3  502    0  0.35792414753E+03 -0.82147124817E+02  0.20198173936E+03  0.41911152283E+03  0.50400001928E-02 0. -1.
       -1    1    3    3    0  502 -0.35792414753E+03  0.82147124817E+02  0.69670502360E+03  0.78756316282E+03  0.50400001928E-02 0.  1.
</event>
<event>
 5   0  0.3550586E-02  0.7994432E+03  0.7818609E-02  0.9560823E-01
       -2   -1    0    0    0  501  0.00000000000E+00  0.00000000000E+00  0.32654613450E+03  0.32654613451E+03  0.25500000920E-02 0.  1.
        2   -1    0    0  501    0  0.00000000000E+00  0.00000000000E+00 -0.48929492875E+03  0.48929492876E+03  0.25500000920E-02 0. -1.
    10030    2    1    2    0    0  0.00000000000E+00  0.00000000000E+00 -0.16274879426E+03  0.81584106327E+03  0.79944322531E+03 0.  0.
        3    1    3    3  502    0  0.39043531169E+03 -0.80988764378E+02 -0.52901486918E+02  0.40224058732E+03  0.10100000352E+00 0. -1.
       -3    1    3    3    0  502 -0.39043531169E+03  0.80988764378E+02 -0.10984730734E+03  0.41360047595E+03  0.10100000352E+00 0.  1.
</event>
<event>
 5   0  0.3404132E-02  0.7968309E+03  0.7818609E-02  0.9564616E-01
       -2   -1    0    0    0  501  0.00000000000E+00  0.00000000000E+00  0.14689580960E+03  0.14689580962E+03  0.25500000920E-02 0. -1.
        2   -1    0    0  501    0  0.00000000000E+00  0.00000000000E+00 -0.10805949924E+04  0.10805949924E+04  0.25500000920E-02 0.  1.
    10030    2    1    2    0    0  0.00000000000E+00  0.00000000000E+00 -0.93369918276E+03  0.12274908020E+04  0.79683091373E+03 0.  0.
        5    1    3    3  502    0  0.31453695610E+02 -0.26780977307E+03 -0.15092713019E+02  0.27011347524E+03  0.46999998093E+01 0. -1.
       -5    1    3    3    0  502 -0.31453695610E+02  0.26780977307E+03 -0.91860646974E+03  0.95737732675E+03  0.46999998093E+01 0.  1.
</event>
<event>
 5   0  0.2077795E-02  0.7926130E+03  0.7818609E-02  0.9570772E-01
        1   -1    0    0  501    0  0.00000000000E+00  0.00000000000E+00  0.83256972481E+03  0.83256972482E+03  0.50400001928E-02 0.  1.
       -1   -1    0    0    0  501  0.00000000000E+00  0.00000000000E+00 -0.18864344935E+03  0.18864344941E+03  0.50400001928E-02 0. -1.
    10030    2    1    2    0    0  0.00000000000E+00  0.00000000000E+00  0.64392627546E+03  0.10212131742E+04  0.79261295662E+03 0.  0.
        5    1    3    3  502    0 -0.28438322683E+02 -0.10469569663E+03  0.81302752302E+03  0.82024738358E+03  0.46999998093E+01 0.  1.
       -5    1    3    3    0  502  0.28438322683E+02  0.10469569663E+03 -0.16910124756E+03  0.20096579065E+03  0.46999998093E+01 0. -1.
</event>
<event>
 5   0  0.3550586E-02  0.8215719E+03  0.7818609E-02  0.9529307E-01
        2   -1    0    0  501    0  0.00000000000E+00  0.00000000000E+00  0.89249101594E+03  0.89249101594E+03  0.25500000920E-02 0. -1.
       -2   -1    0    0    0  501  0.00000000000E+00  0.00000000000E+00 -0.18907203613E+03  0.18907203615E+03  0.25500000920E-02 0.  1.
    10030    2    1    2    0    0  0.00000000000E+00  0.00000000000E+00  0.70341897980E+03  0.10815630521E+04  0.82157189247E+03 0.  0.
        3    1    3    3  502    0 -0.13276942377E+03 -0.33903619943E+03  0.60208476785E+03  0.70361874782E+03  0.10100000352E+00 0. -1.
       -3    1    3    3    0  502  0.13276942377E+03  0.33903619943E+03  0.10133421196E+03  0.37794430427E+03  0.10100000352E+00 0.  1.
</event>
<event>
 5   0  0.3343036E-02  0.7984005E+03  0.7818609E-02  0.9562335E-01
        2   -1    0    0  501    0  0.00000000000E+00  0.00000000000E+00  0.59249332931E+03  0.59249332931E+03  0.25500000920E-02 0.  1.
       -2   -1    0    0    0  501  0.00000000000E+00  0.00000000000E+00 -0.26896647786E+03  0.26896647788E+03  0.25500000920E-02 0. -1.
    10030    2    1    2    0    0  0.00000000000E+00  0.00000000000E+00  0.32352685144E+03  0.86145980719E+03  0.79840051089E+03 0.  0.
        4    1    3    3  502    0  0.36326046231E+03 -0.14953885186E+03  0.85169384652E+02  0.40196451171E+03  0.12699999809E+01 0. -1.
       -4    1    3    3    0  502 -0.36326046231E+03  0.14953885186E+03  0.23835746679E+03  0.45949529548E+03  0.12699999809E+01 0.  1.
</event>
<event>
 5   0  0.3404132E-02  0.7898928E+03  0.7818609E-02  0.9574763E-01
        2   -1    0    0  501    0  0.00000000000E+00  0.00000000000E+00  0.93561965135E+03  0.93561965136E+03  0.25500000920E-02 0.  1.
       -2   -1    0    0    0  501  0.00000000000E+00  0.00000000000E+00 -0.16671588727E+03  0.16671588729E+03  0.25500000920E-02 0. -1.
    10030    2    1    2    0    0  0.00000000000E+00  0.00000000000E+00  0.76890376408E+03  0.11023355386E+04  0.78989280371E+03 0.  0.
        5    1    3    3  502    0 -0.26463947995E+03 -0.31058820281E+02 -0.22326319679E+02  0.26743084941E+03  0.46999998093E+01 0. -1.
       -5    1    3    3    0  502  0.26463947995E+03  0.31058820281E+02  0.79123008376E+03  0.83490468924E+03  0.46999998093E+01 0.  1.
</event>
<event>
 5   0  0.2077795E-02  0.8058406E+03  0.7818609E-02  0.9551601E-01
        1   -1    0    0  501    0  0.00000000000E+00  0.00000000000E+00  0.37459398623E+03  0.37459398626E+03  0.50400001928E-02 0.  1.
       -1   -1    0    0    0  501  0.00000000000E+00  0.00000000000E+00 -0.43338859460E+03  0.43338859463E+03  0.50400001928E-02 0. -1.
    10030    2    1    2    0    0  0.00000000000E+00  0.00000000000E+00 -0.58794608373E+02  0.80798258089E+03  0.80584058290E+03 0.  0.
        5    1    3    3  502    0  0.25703133325E+03  0.27777921583E+03 -0.16795388628E+03  0.41407366125E+03  0.46999998093E+01 0. -1.
       -5    1    3    3    0  502 -0.25703133325E+03 -0.27777921583E+03  0.10915927791E+03  0.39390891964E+03  0.46999998093E+01 0.  1.
</event>
<event>
 5   0  0.3550586E-02  0.8079321E+03  0.7818609E-02  0.9548606E-01
        2   -1    0    0  501    0  0.00000000000E+00  0.00000000000E+00  0.76750559488E+03  0.76750559488E+03  0.25500000920E-02 0.  1.
       -2   -1    0    0    0  501  0.00000000000E+00  0.00000000000E+00 -0.21262201689E+03  0.21262201690E+03  0.25500000920E-02 0. -1.
    10030    2    1    2    0    0  0.00000000000E+00  0.00000000000E+00  0.55488357799E+03  0.98012761178E+03  0.80793214459E+03 0.  0.
        3    1    3    3  502    0  0.34984193769E+01 -0.20900047488E+03 -0.14191420778E+03  0.25265211261E+03  0.10100000352E+00 0. -1.
       -3    1    3    3    0  502 -0.34984193769E+01  0.20900047488E+03  0.69679778577E+03  0.72747549917E+03  0.10100000352E+00 0.  1.
</event>
<event>
 5   0  0.3416160E-02  0.8177142E+03  0.7818609E-02  0.9534725E-01
        2   -1    0    0  501    0  0.00000000000E+00  0.00000000000E+00  0.19816759971E+04  0.19816759971E+04  0.25500000920E-02 0. -1.
       -2   -1    0    0    0  501  0.00000000000E+00  0.00000000000E+00 -0.84354929293E+02  0.84354929332E+02  0.25500000920E-02 0.  1.
    10030    2    1    2    0    0  0.00000000000E+00  0.00000000000E+00  0.18973210679E+04  0.20660309265E+04  0.81771422554E+03 0.  0.
        1    1    3    3  502    0  0.20844808107E+03 -0.23800187774E+02  0.62020499601E+02  0.21877749847E+03  0.50400001928E-02 0.  1.
       -1    1    3    3    0  502 -0.20844808107E+03  0.23800187774E+02  0.18353005682E+04  0.18472534280E+04  0.50400001928E-02 0. -1.
</event>
<event>
 5   0  0.3343036E-02  0.7978703E+03  0.7818609E-02  0.9563105E-01
       -2   -1    0    0    0  501  0.00000000000E+00  0.00000000000E+00  0.22295177915E+03  0.22295177916E+03  0.25500000920E-02 0. -1.
        2   -1    0    0  501    0  0.00000000000E+00  0.00000000000E+00 -0.71382822583E+03  0.71382822584E+03  0.25500000920E-02 0.  1.
    10030    2    1    2    0    0  0.00000000000E+00  0.00000000000E+00 -0.49087644668E+03  0.93678000500E+03  0.79787034777E+03 0.  0.
        4    1    3    3  502    0  0.25227481079E+03  0.26220799659E+03 -0.43747472773E+03  0.56901789422E+03  0.12699999809E+01 0. -1.
       -4    1    3    3    0  502 -0.25227481079E+03 -0.26220799659E+03 -0.53401718955E+02  0.36776211078E+03  0.12699999809E+01 0.  1.
</event>
<event>
 5   0  0.3416160E-02  0.7912529E+03  0.7818609E-02  0.9572765E-01
        2   -1    0    0  501    0  0.00000000000E+00  0.00000000000E+00  0.11598458199E+04  0.11598458199E+04  0.25500000920E-02 0.  1.
       -2   -1    0    0    0  501  0.00000000000E+00  0.00000000000E+00 -0.13494922248E+03  0.13494922250E+03  0.25500000920E-02 0. -1.
    10030    2    1    2    0    0  0.00000000000E+00  0.00000000000E+00  0.10248965974E+04  0.12947950424E+04  0.79125290926E+03 0.  0.
        1    1    3    3  502    0 -0.26445431968E+02 -0.15450635039E+03 -0.81964697449E+02  0.17688918801E+03  0.50400001928E-02 0. -1.
       -1    1    3    3    0  502  0.26445431968E+02  0.15450635039E+03  0.11068612948E+04  0.11179058544E+04  0.50400001928E-02 0.  1.
</event>
<event>
 5   0  0.3550586E-02  0.8097566E+03  0.7818609E-02  0.9546001E-01
        2   -1    0    0  501    0  0.00000000000E+00  0.00000000000E+00  0.11726772203E+04  0.11726772203E+04  0.25500000920E-02 0. -1.
       -2   -1    0    0    0  501  0.00000000000E+00  0.00000000000E+00 -0.13978818548E+03  0.13978818550E+03  0.25500000920E-02 0.  1.
    10030    2    1    2    0    0  0.00000000000E+00  0.00000000000E+00  0.10328890348E+04  0.13124654058E+04  0.80975655797E+03 0.  0.
        3    1    3    3  502    0 -0.38839596822E+03 -0.11201177103E+03  0.55370019326E+03  0.68555231689E+03  0.10100000352E+00 0.  1.
       -3    1    3    3    0  502  0.38839596822E+03  0.11201177103E+03  0.47918884155E+03  0.62691308891E+03  0.10100000352E+00 0. -1.
</event>
<event>
 5   0  0.3467240E-02  0.8034118E+03  0.7818609E-02  0.9555092E-01
       -2   -1    0    0    0  501  0.00000000000E+00  0.00000000000E+00  0.44049212535E+03  0.44049212536E+03  0.25500000920E-02 0.  1.
        2   -1    0    0  501    0  0.00000000000E+00  0.00000000000E+00 -0.36633491601E+03  0.36633491602E+03  0.25500000920E-02 0. -1.
    10030    2    1    2    0    0  0.00000000000E+00  0.00000000000E+00  0.74157209346E+02  0.80682704138E+03  0.80341183897E+03 0.  0.
        2    1    3    3  502    0 -0.21587592862E+03  0.50422776453E+02 -0.29934209976E+03  0.37249236990E+03  0.25500000920E-02 0. -1.
       -2    1    3    3    0  502  0.21587592862E+03 -0.50422776453E+02  0.37349930910E+03  0.43433467148E+03  0.25500000920E-02 0.  1.
</event>
<event>
 5   0  0.3416160E-02  0.7877878E+03  0.7818609E-02  0.9577864E-01
        2   -1    0    0  501    0  0.00000000000E+00  0.00000000000E+00  0.13979580423E+04  0.13979580423E+04  0.25500000920E-02 0.  1.
       -2   -1    0    0    0  501  0.00000000000E+00  0.00000000000E+00 -0.11098501429E+03  0.11098501432E+03  0.25500000920E-02 0. -1.
    10030    2    1    2    0    0  0.00000000000E+00  0.00000000000E+00  0.12869730280E+04  0.15089430566E+04  0.78778777173E+03 0.  0.
        1    1    3    3  502    0 -0.21682362085E+03 -0.28927157931E+03  0.94306346109E+03  0.10099798121E+04  0.50400001928E-02 0. -1.
       -1    1    3    3    0  502  0.21682362085E+03  0.28927157931E+03  0.34390956695E+03  0.49896324455E+03  0.50400001928E-02 0.  1.
</event>
<event>
 5   0  0.3467240E-02  0.9843561E+03  0.7818609E-02  0.9325871E-01
        2   -1    0    0  501    0  0.00000000000E+00  0.00000000000E+00  0.92779552847E+03  0.92779552847E+03  0.25500000920E-02 0.  1.
       -2   -1    0    0    0  501  0.00000000000E+00  0.00000000000E+00 -0.26109116920E+03  0.26109116921E+03  0.25500000920E-02 0. -1.
    10030    2    1    2    0    0  0.00000000000E+00  0.00000000000E+00  0.66670435927E+03  0.11888866977E+04  0.98435607239E+03 0.  0.
        2    1    3    3  502    0  0.24220481485E+03  0.30538743194E+02 -0.18281486483E+03  0.30498698658E+03  0.25500000920E-02 0. -1.
       -2    1    3    3    0  502 -0.24220481485E+03 -0.30538743194E+02  0.84951922410E+03  0.88389971110E+03  0.25500000920E-02 0.  1.
</event>
<event>
 5   0  0.1989298E-02  0.7736534E+03  0.7818609E-02  0.9598956E-01
        1   -1    0    0  501    0  0.00000000000E+00  0.00000000000E+00  0.18115224034E+04  0.18115224035E+04  0.50400001928E-02 0.  1.
       -1   -1    0    0    0  501  0.00000000000E+00  0.00000000000E+00 -0.82601734790E+02  0.82601734944E+02  0.50400001928E-02 0. -1.
    10030    2    1    2    0    0  0.00000000000E+00  0.00000000000E+00  0.17289206687E+04  0.18941241384E+04  0.77365339342E+03 0.  0.
        1    1    3    3  502    0  0.65927114423E+01 -0.35099136842E+03  0.46668753276E+03  0.58398258348E+03  0.50400001928E-02 0. -1.
       -1    1    3    3    0  502 -0.65927114423E+01  0.35099136842E+03  0.12622331359E+04  0.13101415549E+04  0.50400001928E-02 0.  1.
</event>
<event>
 5   0  0.2063692E-02  0.7860239E+03  0.7818609E-02  0.9580470E-01
       -1   -1    0    0    0  501  0.00000000000E+00  0.00000000000E+00  0.29033008944E+03  0.29033008948E+03  0.50400001928E-02 0. -1.
        1   -1    0    0  501    0  0.00000000000E+00  0.00000000000E+00 -0.53200956767E+03  0.53200956769E+03  0.50400001928E-02 0.  1.
    10030    2    1    2    0    0  0.00000000000E+00  0.00000000000E+00 -0.24167947823E+03  0.82233965718E+03  0.78602388104E+03 0.  0.
        2    1    3    3  502    0  0.14157598941E+03 -0.33255321088E+03  0.40638348062E+02  0.36371262582E+03  0.25500000920E-02 0. -1.
       -2    1    3    3    0  502 -0.14157598941E+03  0.33255321088E+03 -0.28231782629E+03  0.45862703135E+03  0.25500000920E-02 0.  1.
</event>
<event>
 5   0  0.2132540E-02  0.7933045E+03  0.7818609E-02  0.9569759E-01
        1   -1    0    0  501    0  0.00000000000E+00  0.00000000000E+00  0.98778076299E+02  0.98778076428E+02  0.50400001928E-02 0. -1.
       -1   -1    0    0    0  501  0.00000000000E+00  0.00000000000E+00 -0.15927929046E+04  0.15927929046E+04  0.50400001928E-02 0.  1.
    10030    2    1    2    0    0  0.00000000000E+00  0.00000000000E+00 -0.14940148283E+04  0.16915709810E+04  0.79330452960E+03 0.  0.
        4    1    3    3  502    0  0.34927983721E+03  0.18263199603E+03 -0.65211230856E+03  0.76197304843E+03  0.12699999809E+01 0.  1.
       -4    1    3    3    0  502 -0.34927983721E+03 -0.18263199603E+03 -0.84190251971E+03  0.92959793258E+03  0.12699999809E+01 0. -1.
</event>
<event>
 5   0  0.2077795E-02  0.8083130E+03  0.7818609E-02  0.9548062E-01
       -1   -1    0    0    0  501  0.00000000000E+00  0.00000000000E+00  0.20446072567E+03  0.20446072573E+03  0.50400001928E-02 0. -1.
        1   -1    0    0  501    0  0.00000000000E+00  0.00000000000E+00 -0.79889410225E+03  0.79889410227E+03  0.50400001928E-02 0.  1.
    10030    2    1    2    0    0  0.00000000000E+00  0.00000000000E+00 -0.59443337659E+03  0.10033548280E+04  0.80831297879E+03 0.  0.
        5    1    3    3  502    0 -0.18511835964E+03  0.34156797392E+03 -0.43534604866E+03  0.58351157655E+03  0.46999998093E+01 0.  1.
       -5    1    3    3    0  502  0.18511835964E+03 -0.34156797392E+03 -0.15908732793E+03  0.41984325145E+03  0.46999998093E+01 0. -1.
</event>
<event>
 5   0  0.3550586E-02  0.8225348E+03  0.7818609E-02  0.9527960E-01
        2   -1    0    0  501    0  0.00000000000E+00  0.00000000000E+00  0.39261348445E+03  0.39261348446E+03  0.25500000920E-02 0.  1.
       -2   -1    0    0    0  501  0.00000000000E+00  0.00000000000E+00 -0.43080755734E+03  0.43080755734E+03  0.25500000920E-02 0. -1.
    10030    2    1    2    0    0  0.00000000000E+00  0.00000000000E+00 -0.38194072890E+02  0.82342104180E+03  0.82253475603E+03 0.  0.
        3    1    3    3  502    0  0.11067962269E+03 -0.59454977841E+02  0.37293183319E+03  0.39352641039E+03  0.10100000352E+00 0.  1.
       -3    1    3    3    0  502 -0.11067962269E+03  0.59454977841E+02 -0.41112590608E+03  0.42989463141E+03  0.10100000352E+00 0. -1.
</event>
<event>
 5   0  0.1358000E-02  0.8049163E+03  0.7818609E-02  0.9552928E-01
        3   -1    0    0  501    0  0.00000000000E+00  0.00000000000E+00  0.55527113259E+03  0.55527114178E+03  0.10100000352E+00 0.  1.
       -3   -1    0    0    0  501  0.00000000000E+00  0.00000000000E+00 -0.29169989721E+03  0.29169991469E+03  0.10100000352E+00 0. -1.
    10030    2    1    2    0    0  0.00000000000E+00  0.00000000000E+00  0.26357123538E+03  0.84697105647E+03  0.80491625302E+03 0.  0.
        4    1    3    3  502    0  0.91193137198E+02  0.71898262709E+02 -0.27368531239E+03  0.29730592253E+03  0.12699999809E+01 0. -1.
       -4    1    3    3    0  502 -0.91193137198E+02 -0.71898262709E+02  0.53725654777E+03  0.54966513394E+03  0.12699999809E+01 0.  1.
</event>
<event>
 5   0  0.3550586E-02  0.8080379E+03  0.7818609E-02  0.9548455E-01
       -2   -1    0    0    0  501  0.00000000000E+00  0.00000000000E+00  0.28092177352E+03  0.28092177353E+03  0.25500000920E-02 0.  1.
        2   -1    0    0  501    0  0.00000000000E+00  0.00000000000E+00 -0.58105616310E+03  0.58105616311E+03  0.25500000920E-02 0. -1.
    10030    2    1    2    0    0  0.00000000000E+00  0.00000000000E+00 -0.30013438959E+03  0.86197793663E+03  0.80803793935E+03 0.  0.
        3    1    3    3  502    0  0.40076796687E+03 -0.64149331281E+01 -0.95933192863E+02  0.41213990625E+03  0.10100000352E+00 0. -1.
       -3    1    3    3    0  502 -0.40076796687E+03  0.64149331281E+01 -0.20420119672E+03  0.44983803038E+03  0.10100000352E+00 0.  1.
</event>
<event>
 5   0  0.2129257E-02  0.7958066E+03  0.7818609E-02  0.9566107E-01
        1   -1    0    0  501    0  0.00000000000E+00  0.00000000000E+00  0.75669369559E+03  0.75669369561E+03  0.50400001928E-02 0. -1.
       -1   -1    0    0    0  501  0.00000000000E+00  0.00000000000E+00 -0.20923527993E+03  0.20923527999E+03  0.50400001928E-02 0.  1.
    10030    2    1    2    0    0  0.00000000000E+00  0.00000000000E+00  0.54745841566E+03  0.96592897560E+03  0.79580655252E+03 0.  0.
        3    1    3    3  502    0 -0.11082842983E+02 -0.32561912641E+03 -0.35227242865E+01  0.32582674028E+03  0.10100000352E+00 0.  1.
       -3    1    3    3    0  502  0.11082842983E+02  0.32561912641E+03  0.55098113994E+03  0.64010223532E+03  0.10100000352E+00 0. -1.
</event>
<event>
 5   0  0.2063692E-02  0.7646607E+03  0.7818609E-02  0.9612627E-01
       -1   -1    0    0    0  501  0.00000000000E+00  0.00000000000E+00  0.60430820159E+03  0.60430820161E+03  0.50400001928E-02 0. -1.
        1   -1    0    0  501    0  0.00000000000E+00  0.00000000000E+00 -0.24189061047E+03  0.24189061052E+03  0.50400001928E-02 0.  1.
    10030    2    1    2    0    0  0.00000000000E+00  0.00000000000E+00  0.36241759113E+03  0.84619881213E+03  0.76466065630E+03 0.  0.
        2    1    3    3  502    0  0.21141804495E+03 -0.26321561605E+03 -0.17358409342E+02  0.33805526863E+03  0.25500000920E-02 0.  1.
       -2    1    3    3    0  502 -0.21141804495E+03  0.26321561605E+03  0.37977600047E+03  0.50814354350E+03  0.25500000920E-02 0. -1.
</event>
<event>
 5   0  0.2077795E-02  0.8067625E+03  0.7818609E-02  0.9550280E-01
        1   -1    0    0  501    0  0.00000000000E+00  0.00000000000E+00  0.52168741578E+03  0.52168741581E+03  0.50400001928E-02 0. -1.
       -1   -1    0    0    0  501  0.00000000000E+00  0.00000000000E+00 -0.31190411329E+03  0.31190411333E+03  0.50400001928E-02 0.  1.
    10030    2    1    2    0    0  0.00000000000E+00  0.00000000000E+00  0.20978330249E+03  0.83359152914E+03  0.80676254465E+03 0.  0.
        5    1    3    3  502    0 -0.16317249860E+03 -0.19068209360E+03  0.43116056338E+03  0.49890524805E+03  0.46999998093E+01 0. -1.
       -5    1    3    3    0  502  0.16317249860E+03  0.19068209360E+03 -0.22137726088E+03  0.33468628110E+03  0.46999998093E+01 0.  1.
</event>
<event>
 5   0  0.3343036E-02  0.8001213E+03  0.7818609E-02  0.9559842E-01
        2   -1    0    0  501    0  0.00000000000E+00  0.00000000000E+00  0.33562049081E+03  0.33562049082E+03  0.25500000920E-02 0. -1.
       -2   -1    0    0    0  501  0.00000000000E+00  0.00000000000E+00 -0.47687349580E+03  0.47687349580E+03  0.25500000920E-02 0.  1.
    10030    2    1    2    0    0  0.00000000000E+00  0.00000000000E+00 -0.14125300499E+03  0.81249398662E+03  0.80012128260E+03 0.  0.
        4    1    3    3  502    0 -0.30397376375E+03  0.91447927117E+02 -0.31787494442E+03  0.44923141655E+03  0.12699999809E+01 0.  1.
       -4    1    3    3    0  502  0.30397376375E+03 -0.91447927117E+02  0.17662193943E+03  0.36326257007E+03  0.12699999809E+01 0. -1.
</event>
<event>
 5   0  0.3343036E-02  0.8068700E+03  0.7818609E-02  0.9550126E-01
       -2   -1    0    0    0  501  0.00000000000E+00  0.00000000000E+00  0.16782609901E+03  0.16782609903E+03  0.25500000920E-02 0.  1.
        2   -1    0    0  501    0  0.00000000000E+00  0.00000000000E+00 -0.96981230551E+03  0.96981230552E+03  0.25500000920E-02 0. -1.
    10030    2    1    2    0    0  0.00000000000E+00  0.00000000000E+00 -0.80198620651E+03  0.11376384045E+04  0.80687004162E+03 0.  0.
        4    1    3    3  502    0 -0.84149312222E+02 -0.26504243331E+03  0.11109020598E+02  0.27830490732E+03  0.12699999809E+01 0.  1.
       -4    1    3    3    0  502  0.84149312222E+02  0.26504243331E+03 -0.81309522710E+03  0.85933349722E+03  0.12699999809E+01 0. -1.
</event>
<event>
 5   0  0.3550586E-02  0.7534001E+03  0.7818609E-02  0.9630031E-01
       -2   -1    0    0    0  501  0.00000000000E+00  0.00000000000E+00  0.50663414121E+03  0.50663414121E+03  0.25500000920E-02 0.  1.
        2   -1    0    0  501    0  0.00000000000E+00  0.00000000000E+00 -0.28008953079E+03  0.28008953080E+03  0.25500000920E-02 0. -1.
    10030    2    1    2    0    0  0.00000000000E+00  0.00000000000E+00  0.22654461042E+03  0.78672367202E+03  0.75340007672E+03 0.  0.
        3    1    3    3  502    0 -0.13389520030E+03  0.21461600038E+03  0.40475110592E+03  0.47729594617E+03  0.10100000352E+00 0.  1.
       -3    1    3    3    0  502  0.13389520030E+03 -0.21461600038E+03 -0.17820649550E+03  0.30942772585E+03  0.10100000352E+00 0. -1.
</event>
<event>
 5   0  0.1989298E-02  0.8387023E+03  0.7818609E-02  0.9505627E-01
        1   -1    0    0  501    0  0.00000000000E+00  0.00000000000E+00  0.56947612613E+03  0.56947612615E+03  0.50400001928E-02 0. -1.
       -1   -1    0    0    0  501  0.00000000000E+00  0.00000000000E+00 -0.30880201742E+03  0.30880201746E+03  0.50400001928E-02 0.  1.
    10030    2    1    2    0    0  0.00000000000E+00  0.00000000000E+00  0.26067410871E+03  0.87827814360E+03  0.83870227529E+03 0.  0.
        1    1    3    3  502    0  0.20693300054E+03 -0.26004361829E+03 -0.13748791520E+03  0.35964826842E+03  0.50400001928E-02 0.  1.
       -1    1    3    3    0  502 -0.20693300054E+03  0.26004361829E+03  0.39816202391E+03  0.51862987519E+03  0.50400001928E-02 0. -1.
</event>
<event>
 5   0  0.3343036E-02  0.8001869E+03  0.7818609E-02  0.9559747E-01
        2   -1    0    0  501    0  0.00000000000E+00  0.00000000000E+00  0.98187380256E+03  0.98187380257E+03  0.25500000920E-02 0.  1.
       -2   -1    0    0    0  501  0.00000000000E+00  0.00000000000E+00 -0.16302987032E+03  0.16302987034E+03  0.25500000920E-02 0. -1.
    10030    2    1    2    0    0  0.00000000000E+00  0.00000000000E+00  0.81884393224E+03  0.11449036729E+04  0.80018687497E+03 0.  0.
        4    1    3    3  502    0 -0.37357168091E+03 -0.66938343453E+02  0.22823217807E+03  0.44286350336E+03  0.12699999809E+01 0. -1.
       -4    1    3    3    0  502  0.37357168091E+03  0.66938343453E+02  0.59061175417E+03  0.70204016955E+03  0.12699999809E+01 0.  1.
</event>
<event>
 5   0  0.2132540E-02  0.7944361E+03  0.7818609E-02  0.9568106E-01
        1   -1    0    0  501    0  0.00000000000E+00  0.00000000000E+00  0.78691097411E+03  0.78691097412E+03  0.50400001928E-02 0. -1.
       -1   -1    0    0    0  501  0.00000000000E+00  0.00000000000E+00 -0.20050829972E+03  0.20050829979E+03  0.50400001928E-02 0.  1.
    10030    2    1    2    0    0  0.00000000000E+00  0.00000000000E+00  0.58640267438E+03  0.98741927391E+03  0.79443610565E+03 0.  0.
        4    1    3    3  502    0  0.18914558270E+03  0.26599976240E+03  0.11827434851E+02  0.32660898053E+03  0.12699999809E+01 0.  1.
       -4    1    3    3    0  502 -0.18914558270E+03 -0.26599976240E+03  0.57457523953E+03  0.66081029338E+03  0.12699999809E+01 0. -1.
</event>
<event>
 5   0  0.3416160E-02  0.7978505E+03  0.7818609E-02  0.9563134E-01
       -2   -1    0    0    0  501  0.00000000000E+00  0.00000000000E+00  0.10302706742E+03  0.10302706745E+03  0.25500000920E-02 0. -1.
        2   -1    0    0  501    0  0.00000000000E+00  0.00000000000E+00 -0.15446556733E+04  0.15446556733E+04  0.25500000920E-02 0.  1.
    10030    2    1    2    0    0  0.00000000000E+00  0.00000000000E+00 -0.14416286059E+04  0.16476827408E+04  0.79785047274E+03 0.  0.
        1    1    3    3  502    0 -0.35282679211E+02 -0.26899999571E+03 -0.11683058405E+03  0.29538999735E+03  0.50400001928E-02 0. -1.
       -1    1    3    3    0  502  0.35282679211E+02  0.26899999571E+03 -0.13247980218E+04  0.13522927434E+04  0.50400001928E-02 0.  1.
</event>
<event>
 5   0  0.3404132E-02  0.8003503E+03  0.7818609E-02  0.9559510E-01
        2   -1    0    0  501    0  0.00000000000E+00  0.00000000000E+00  0.74260196858E+03  0.74260196858E+03  0.25500000920E-02 0.  1.
       -2   -1    0    0    0  501  0.00000000000E+00  0.00000000000E+00 -0.21564732980E+03  0.21564732982E+03  0.25500000920E-02 0. -1.
    10030    2    1    2    0    0  0.00000000000E+00  0.00000000000E+00  0.52695463878E+03  0.95824929840E+03  0.80035025242E+03 0.  0.
        5    1    3    3  502    0 -0.20466599114E+03  0.33608641703E+03  0.17651275247E+03  0.43130162233E+03  0.46999998093E+01 0.  1.
       -5    1    3    3    0  502  0.20466599114E+03 -0.33608641703E+03  0.35044188630E+03  0.52694767607E+03  0.46999998093E+01 0. -1.
</event>
<event>
 5   0  0.2132540E-02  0.7998545E+03  0.7818609E-02  0.9560228E-01
        1   -1    0    0  501    0  0.00000000000E+00  0.00000000000E+00  0.29923073664E+03  0.29923073668E+03  0.50400001928E-02 0. -1.
       -1   -1    0    0    0  501  0.00000000000E+00  0.00000000000E+00 -0.53450997760E+03  0.53450997762E+03  0.50400001928E-02 0.  1.
    10030    2    1    2    0    0  0.00000000000E+00  0.00000000000E+00 -0.23527924096E+03  0.83374071430E+03  0.79985452268E+03 0.  0.
        4    1    3    3  502    0 -0.27532834147E+03  0.18986375651E+03  0.11093631430E+03  0.35236688321E+03  0.12699999809E+01 0.  1.
       -4    1    3    3    0  502  0.27532834147E+03 -0.18986375651E+03 -0.34621555525E+03  0.48137383109E+03  0.12699999809E+01 0. -1.
</event>
<event>
 5   0  0.1989298E-02  0.8241719E+03  0.7818609E-02  0.9525674E-01
       -1   -1    0    0    0  501  0.00000000000E+00  0.00000000000E+00  0.25097842295E+03  0.25097842300E+03  0.50400001928E-02 0. -1.
        1   -1    0    0  501    0  0.00000000000E+00  0.00000000000E+00 -0.67661124523E+03  0.67661124525E+03  0.50400001928E-02 0.  1.
    10030    2    1    2    0    0  0.00000000000E+00  0.00000000000E+00 -0.42563282228E+03  0.92758966824E+03  0.82417188331E+03 0.  0.
        1    1    3    3  502    0 -0.36392057584E+03  0.17623094967E+03 -0.30228534378E+03  0.50484845472E+03  0.50400001928E-02 0.  1.
       -1    1    3    3    0  502  0.36392057584E+03 -0.17623094967E+03 -0.12334747850E+03  0.42274121353E+03  0.50400001928E-02 0. -1.
</event>
<event>
 5   0  0.2132540E-02  0.8128222E+03  0.7818609E-02  0.9541641E-01
        1   -1    0    0  501    0  0.00000000000E+00  0.00000000000E+00  0.67393773122E+03  0.67393773124E+03  0.50400001928E-02 0. -1.
       -1   -1    0    0    0  501  0.00000000000E+00  0.00000000000E+00 -0.24508198797E+03  0.24508198802E+03  0.50400001928E-02 0.  1.
    10030    2    1    2    0    0  0.00000000000E+00  0.00000000000E+00  0.42885574325E+03  0.91901971927E+03  0.81282224126E+03 0.  0.
        4    1    3    3  502    0 -0.19856796777E+03  0.27165053018E+03  0.47212032622E+03  0.57976069520E+03  0.12699999809E+01 0. -1.
       -4    1    3    3    0  502  0.19856796777E+03 -0.27165053018E+03 -0.43264582967E+02  0.33925902407E+03  0.12699999809E+01 0.  1.
</event>
<event>
 5   0  0.3343036E-02  0.7926461E+03  0.7818609E-02  0.9570723E-01
       -2   -1    0    0    0  501  0.00000000000E+00  0.00000000000E+00  0.10367976813E+03  0.10367976816E+03  0.25500000920E-02 0. -1.
        2   -1    0    0  501    0  0.00000000000E+00  0.00000000000E+00 -0.15149720372E+04  0.15149720372E+04  0.25500000920E-02 0.  1.
    10030    2    1    2    0    0  0.00000000000E+00  0.00000000000E+00 -0.14112922690E+04  0.16186518053E+04  0.79264607378E+03 0.  0.
        4    1    3    3  502    0  0.82874989572E+02 -0.38739306671E+02  0.81819414144E+02  0.12273967251E+03  0.12699999809E+01 0. -1.
       -4    1    3    3    0  502 -0.82874989572E+02  0.38739306671E+02 -0.14931116832E+04  0.14959121328E+04  0.12699999809E+01 0.  1.
</event>
<event>
 5   0  0.1989298E-02  0.8004067E+03  0.7818609E-02  0.9559429E-01
        1   -1    0    0  501    0  0.00000000000E+00  0.00000000000E+00  0.32735767423E+03  0.32735767427E+03  0.50400001928E-02 0.  1.
       -1   -1    0    0    0  501  0.00000000000E+00  0.00000000000E+00 -0.48925906671E+03  0.48925906674E+03  0.50400001928E-02 0. -1.
    10030    2    1    2    0    0  0.00000000000E+00  0.00000000000E+00 -0.16190139248E+03  0.81661674101E+03  0.80040667214E+03 0.  0.
        1    1    3    3  502    0  0.54719379184E+01 -0.32850489382E+03  0.15218823239E+03  0.36208654417E+03  0.50400001928E-02 0.  1.
       -1    1    3    3    0  502 -0.54719379184E+01  0.32850489382E+03 -0.31408962487E+03  0.45453019684E+03  0.50400001928E-02 0. -1.
</event>
<event>
 5   0  0.3416160E-02  0.7635916E+03  0.7818609E-02  0.9614265E-01
       -2   -1    0    0    0  501  0.00000000000E+00  0.00000000000E+00  0.11051536254E+03  0.11051536257E+03  0.25500000920E-02 0.  1.
        2   -1    0    0  501    0  0.00000000000E+00  0.00000000000E+00 -0.13189842920E+04  0.13189842920E+04  0.25500000920E-02 0. -1.
    10030    2    1    2    0    0  0.00000000000E+00  0.00000000000E+00 -0.12084689295E+04  0.14294996546E+04  0.76359158520E+03 0.  0.
        1    1    3    3  502    0 -0.14725134394E+02 -0.37342850300E+03 -0.45799267097E+03  0.59112009196E+03  0.50400001928E-02 0.  1.
       -1    1    3    3    0  502  0.14725134394E+02  0.37342850300E+03 -0.75047625852E+03  0.83837956265E+03  0.50400001928E-02 0. -1.
</event>
<event>
 5   0  0.1358000E-02  0.8049614E+03  0.7818609E-02  0.9552863E-01
        3   -1    0    0  501    0  0.00000000000E+00  0.00000000000E+00  0.47071739227E+03  0.47071740311E+03  0.10100000352E+00 0. -1.
       -3   -1    0    0    0  501  0.00000000000E+00  0.00000000000E+00 -0.34413578435E+03  0.34413579917E+03  0.10100000352E+00 0.  1.
    10030    2    1    2    0    0  0.00000000000E+00  0.00000000000E+00  0.12658160793E+03  0.81485320228E+03  0.80496138901E+03 0.  0.
        2    1    3    3  502    0  0.24305573484E+03 -0.31908304240E+02  0.38642574141E+03  0.45762329896E+03  0.25500000920E-02 0. -1.
       -2    1    3    3    0  502 -0.24305573484E+03  0.31908304240E+02 -0.25984413348E+03  0.35722990332E+03  0.25500000920E-02 0.  1.
</event>
<event>
 5   0  0.2077795E-02  0.8133468E+03  0.7818609E-02  0.9540897E-01
        1   -1    0    0  501    0  0.00000000000E+00  0.00000000000E+00  0.24109860382E+03  0.24109860388E+03  0.50400001928E-02 0.  1.
       -1   -1    0    0    0  501  0.00000000000E+00  0.00000000000E+00 -0.68595687373E+03  0.68595687375E+03  0.50400001928E-02 0. -1.
    10030    2    1    2    0    0  0.00000000000E+00  0.00000000000E+00 -0.44485826991E+03  0.92705547763E+03  0.81334677616E+03 0.  0.
        5    1    3    3  502    0  0.11766205461E+03 -0.87604693616E+02 -0.65471710802E+03  0.67096611164E+03  0.46999998093E+01 0. -1.
       -5    1    3    3    0  502 -0.11766205461E+03  0.87604693616E+02  0.20985883811E+03  0.25608936599E+03  0.46999998093E+01 0.  1.
</event>
<event>
 5   0  0.3550586E-02  0.7756102E+03  0.7818609E-02  0.9596007E-01
       -2   -1    0    0    0  501  0.00000000000E+00  0.00000000000E+00  0.36421842133E+03  0.36421842134E+03  0.25500000920E-02 0.  1.
        2   -1    0    0  501    0  0.00000000000E+00  0.00000000000E+00 -0.41291929344E+03  0.41291929345E+03  0.25500000920E-02 0. -1.
    10030    2    1    2    0    0  0.00000000000E+00  0.00000000000E+00 -0.48700872115E+02  0.77713771479E+03  0.77561024542E+03 0.  0.
        3    1    3    3  502    0  0.38296247763E+03  0.60081028373E+02 -0.35454397735E+02  0.38926470912E+03  0.10100000352E+00 0. -1.
       -3    1    3    3    0  502 -0.38296247763E+03 -0.60081028373E+02 -0.13246474379E+02  0.38787300567E+03  0.10100000352E+00 0.  1.
</event>
<event>
 5   0  0.1989298E-02  0.7482626E+03  0.7818609E-02  0.9638080E-01
        1   -1    0    0  501    0  0.00000000000E+00  0.00000000000E+00  0.76453881282E+03  0.76453881284E+03  0.50400001928E-02 0. -1.
       -1   -1    0    0    0  501  0.00000000000E+00  0.00000000000E+00 -0.18308322687E+03  0.18308322693E+03  0.50400001928E-02 0.  1.
    10030    2    1    2    0    0  0.00000000000E+00  0.00000000000E+00  0.58145558596E+03  0.94762203977E+03  0.74826260886E+03 0.  0.
        1    1    3    3  502    0 -0.55922875010E+02  0.11297834541E+03 -0.15537693797E+03  0.20008365091E+03  0.50400001928E-02 0.  1.
       -1    1    3    3    0  502  0.55922875010E+02 -0.11297834541E+03  0.73683252393E+03  0.74753838886E+03  0.50400001928E-02 0. -1.
</event>
<event>
 5   0  0.2077795E-02  0.8131890E+03  0.7818609E-02  0.9541120E-01
        1   -1    0    0  501    0  0.00000000000E+00  0.00000000000E+00  0.69233924339E+03  0.69233924341E+03  0.50400001928E-02 0.  1.
       -1   -1    0    0    0  501  0.00000000000E+00  0.00000000000E+00 -0.23878335127E+03  0.23878335132E+03  0.50400001928E-02 0. -1.
    10030    2    1    2    0    0  0.00000000000E+00  0.00000000000E+00  0.45355589213E+03  0.93112259473E+03  0.81318899349E+03 0.  0.
        5    1    3    3  502    0  0.43079989982E+02  0.18776341828E+03 -0.18317657948E+03  0.26586977273E+03  0.46999998093E+01 0. -1.
       -5    1    3    3    0  502 -0.43079989982E+02 -0.18776341828E+03  0.63673247161E+03  0.66525282200E+03  0.46999998093E+01 0.  1.
</event>
<event>
 5   0  0.1358000E-02  0.8206756E+03  0.7818609E-02  0.9530563E-01
       -3   -1    0    0    0  501  0.00000000000E+00  0.00000000000E+00  0.10388708291E+04  0.10388708340E+04  0.10100000352E+00 0.  1.
        3   -1    0    0  501    0  0.00000000000E+00  0.00000000000E+00 -0.16207703958E+03  0.16207707105E+03  0.10100000352E+00 0. -1.
    10030    2    1    2    0    0  0.00000000000E+00  0.00000000000E+00  0.87679378952E+03  0.12009479051E+04  0.82067564928E+03 0.  0.
        1    1    3    3  502    0 -0.16155050317E+02  0.16915269807E+03  0.98496613639E+03  0.99951583818E+03  0.50400001928E-02 0.  1.
       -1    1    3    3    0  502  0.16155050317E+02 -0.16915269807E+03 -0.10817234687E+03  0.20143206688E+03  0.50400001928E-02 0. -1.
</event>
<event>
 5   0  0.3404132E-02  0.8146167E+03  0.7818609E-02  0.9539098E-01
       -2   -1    0    0    0  501  0.00000000000E+00  0.00000000000E+00  0.37451362575E+03  0.37451362576E+03  0.25500000920E-02 0. -1.
        2   -1    0    0  501    0  0.00000000000E+00  0.00000000000E+00 -0.44297475513E+03  0.44297475514E+03  0.25500000920E-02 0.  1.
    10030    2    1    2    0    0  0.00000000000E+00  0.00000000000E+00 -0.68461129383E+02  0.81748838090E+03  0.81461667468E+03 0.  0.
        5    1    3    3  502    0 -0.29117852504E+03 -0.10811881755E+03 -0.29860447967E+03  0.43088436666E+03  0.46999998093E+01 0.  1.
       -5    1    3    3    0  502  0.29117852504E+03  0.10811881755E+03  0.23014335028E+03  0.38660401425E+03  0.46999998093E+01 0. -1.
</event>
<event>
 5   0  0.1989298E-02  0.8147093E+03  0.7818609E-02  0.9538967E-01
       -1   -1    0    0    0  501  0.00000000000E+00  0.00000000000E+00  0.72357366838E+03  0.72357366839E+03  0.50400001928E-02 0.  1.
        1   -1    0    0  501    0  0.00000000000E+00  0.00000000000E+00 -0.22933089097E+03  0.22933089102E+03  0.50400001928E-02 0. -1.
    10030    2    1    2    0    0  0.00000000000E+00  0.00000000000E+00  0.49424277741E+03  0.95290455942E+03  0.81470925877E+03 0.  0.
        1    1    3    3  502    0 -0.30420269913E+03 -0.60194044517E+02 -0.61835059328E+02  0.31620591351E+03  0.50400001928E-02 0. -1.
       -1    1    3    3    0  502  0.30420269913E+03  0.60194044517E+02  0.55607783674E+03  0.63669864590E+03  0.50400001928E-02 0.  1.
</event>
<event>
 5   0  0.2077795E-02  0.7783832E+03  0.7818609E-02  0.9591845E-01
        1   -1    0    0  501    0  0.00000000000E+00  0.00000000000E+00  0.41978865839E+03  0.41978865842E+03  0.50400001928E-02 0.  1.
       -1   -1    0    0    0  501  0.00000000000E+00  0.00000000000E+00 -0.36082470119E+03  0.36082470123E+03  0.50400001928E-02 0. -1.
    10030    2    1    2    0    0  0.00000000000E+00  0.00000000000E+00  0.58963957200E+02  0.78061335964E+03  0.77838324045E+03 0.  0.
        5    1    3    3  502    0 -0.19960277270E+03 -0.33381619532E+03  0.42691966344E+02  0.39130450178E+03  0.46999998093E+01 0.  1.
       -5    1    3    3    0  502  0.19960277270E+03  0.33381619532E+03  0.16271990856E+02  0.38930885786E+03  0.46999998093E+01 0. -1.
</event>
<event>
 5   0  0.2129257E-02  0.8142449E+03  0.7818609E-02  0.9539624E-01
       -1   -1    0    0    0  501  0.00000000000E+00  0.00000000000E+00  0.56294229715E+03  0.56294229718E+03  0.50400001928E-02 0.  1.
        1   -1    0    0  501    0  0.00000000000E+00  0.00000000000E+00 -0.29443283153E+03  0.29443283158E+03  0.50400001928E-02 0. -1.
    10030    2    1    2    0    0  0.00000000000E+00  0.00000000000E+00  0.26850946562E+03  0.85737512875E+03  0.81424491296E+03 0.  0.
        3    1    3    3  502    0 -0.29830780721E+03 -0.27481523669E+03  0.97209918718E+02  0.41708601110E+03  0.10100000352E+00 0. -1.
       -3    1    3    3    0  502  0.29830780721E+03  0.27481523669E+03  0.17129954690E+03  0.44028911766E+03  0.10100000352E+00 0.  1.
</event>
<event>
 5   0  0.3343036E-02  0.7894703E+03  0.7818609E-02  0.9575385E-01
       -2   -1    0    0    0  501  0.00000000000E+00  0.00000000000E+00  0.35752486729E+03  0.35752486729E+03  0.25500000920E-02 0.  1.
        2   -1    0    0  501    0  0.00000000000E+00  0.00000000000E+00 -0.43581818546E+03  0.43581818547E+03  0.25500000920E-02 0. -1.
    10030    2    1    2    0    0  0.00000000000E+00  0.00000000000E+00 -0.78293318172E+02  0.79334305276E+03  0.78947030070E+03 0.  0.
        4    1    3    3  502    0 -0.24445428623E+03  0.18533284343E+03  0.21048300410E+03  0.37203611226E+03  0.12699999809E+01 0.  1.
       -4    1    3    3    0  502  0.24445428623E+03 -0.18533284343E+03 -0.28877632227E+03  0.42130694050E+03  0.12699999809E+01 0. -1.
</event>
<event>
 5   0  0.2063692E-02  0.7966663E+03  0.7818609E-02  0.9564855E-01
       -1   -1    0    0    0  501  0.00000000000E+00  0.00000000000E+00  0.36997653976E+03  0.36997653980E+03  0.50400001928E-02 0.  1.
        1   -1    0    0  501    0  0.00000000000E+00  0.00000000000E+00 -0.42886312382E+03  0.42886312385E+03  0.50400001928E-02 0. -1.
    10030    2    1    2    0    0  0.00000000000E+00  0.00000000000E+00 -0.58886584058E+02  0.79883966365E+03  0.79666629051E+03 0.  0.
        2    1    3    3  502    0 -0.38077134425E+03  0.87132456145E+02 -0.10769729346E+03  0.40518833712E+03  0.25500000920E-02 0. -1.
       -2    1    3    3    0  502  0.38077134425E+03 -0.87132456145E+02  0.48810709407E+02  0.39365132653E+03  0.25500000920E-02 0.  1.
</event>
<event>
 5   0  0.1358000E-02  0.7923708E+03  0.7818609E-02  0.9571126E-01
        3   -1    0    0  501    0  0.00000000000E+00  0.00000000000E+00  0.28117888344E+03  0.28117890158E+03  0.10100000352E+00 0.  1.
       -3   -1    0    0    0  501  0.00000000000E+00  0.00000000000E+00 -0.55823128710E+03  0.55823129624E+03  0.10100000352E+00 0. -1.
    10030    2    1    2    0    0  0.00000000000E+00  0.00000000000E+00 -0.27705240366E+03  0.83941019782E+03  0.79237077548E+03 0.  0.
        2    1    3    3  502    0 -0.22106964726E+03 -0.30359847691E+03 -0.48653599390E+01  0.37558953108E+03  0.25500000920E-02 0.  1.
       -2    1    3    3    0  502  0.22106964726E+03  0.30359847691E+03 -0.27218704372E+03  0.46382066674E+03  0.25500000920E-02 0. -1.
</event>
<event>
 5   0  0.3416160E-02  0.7335309E+03  0.7818609E-02  0.9661548E-01
       -2   -1    0    0    0  501  0.00000000000E+00  0.00000000000E+00  0.56255271290E+02  0.56255271348E+02  0.25500000920E-02 0.  1.
        2   -1    0    0  501    0  0.00000000000E+00  0.00000000000E+00 -0.23911873003E+04  0.23911873003E+04  0.25500000920E-02 0. -1.
    10030    2    1    2    0    0  0.00000000000E+00  0.00000000000E+00 -0.23349320290E+04  0.24474425716E+04  0.73353088648E+03 0.  0.
        1    1    3    3  502    0  0.13769410177E+03  0.47724569413E+02 -0.22904406301E+04  0.22950720207E+04  0.50400001928E-02 0. -1.
       -1    1    3    3    0  502 -0.13769410177E+03 -0.47724569413E+02 -0.44491398890E+02  0.15237055092E+03  0.50400001928E-02 0.  1.
</event>
<event>
 5   0  0.3343036E-02  0.7969155E+03  0.7818609E-02  0.9564493E-01
       -2   -1    0    0    0  501  0.00000000000E+00  0.00000000000E+00  0.45253091700E+03  0.45253091701E+03  0.25500000920E-02 0.  1.
        2   -1    0    0  501    0  0.00000000000E+00  0.00000000000E+00 -0.35084578657E+03  0.35084578658E+03  0.25500000920E-02 0. -1.
    10030    2    1    2    0    0  0.00000000000E+00  0.00000000000E+00  0.10168513044E+03  0.80337670359E+03  0.79691546736E+03 0.  0.
        4    1    3    3  502    0 -0.13779994364E+03  0.34667286539E+03  0.19196344509E+03  0.41955032739E+03  0.12699999809E+01 0.  1.
       -4    1    3    3    0  502  0.13779994364E+03 -0.34667286539E+03 -0.90278314653E+02  0.38382637619E+03  0.12699999809E+01 0. -1.
</event>
<event>
 5   0  0.3343036E-02  0.7967432E+03  0.7818609E-02  0.9564743E-01
       -2   -1    0    0    0  501  0.00000000000E+00  0.00000000000E+00  0.75736712306E+02  0.75736712349E+02  0.25500000920E-02 0. -1.
        2   -1    0    0  501    0  0.00000000000E+00  0.00000000000E+00 -0.20954160220E+04  0.20954160220E+04  0.25500000920E-02 0.  1.
    10030    2    1    2    0    0  0.00000000000E+00  0.00000000000E+00 -0.20196793097E+04  0.21711527344E+04  0.79674317184E+03 0.  0.
        4    1    3    3  502    0 -0.14884716121E+03  0.12660998070E+03 -0.63845372763E+02  0.20558066333E+03  0.12699999809E+01 0. -1.
       -4    1    3    3    0  502  0.14884716121E+03 -0.12660998070E+03 -0.19558339369E+04  0.19655720710E+04  0.12699999809E+01 0.  1.
</event>
<event>
 5   0  0.3467240E-02  0.7750005E+03  0.7818609E-02  0.9596925E-01
       -2   -1    0    0    0  501  0.00000000000E+00  0.00000000000E+00  0.21127856858E+03  0.21127856859E+03  0.25500000920E-02 0. -1.
        2   -1    0    0  501    0  0.00000000000E+00  0.00000000000E+00 -0.71070358532E+03  0.71070358533E+03  0.25500000920E-02 0.  1.
    10030    2    1    2    0    0  0.00000000000E+00  0.00000000000E+00 -0.49942501675E+03  0.92198215392E+03  0.77500048051E+03 0.  0.
        2    1    3    3  502    0  0.54392268963E+02  0.38365814551E+03 -0.24723281366E+03  0.45964786053E+03  0.25500000920E-02 0. -1.
       -2    1    3    3    0  502 -0.54392268963E+02 -0.38365814551E+03 -0.25219220309E+03  0.46233429339E+03  0.25500000920E-02 0.  1.
</event>
<event>
 5   0  0.3550586E-02  0.7994525E+03  0.7818609E-02  0.9560810E-01
       -2   -1    0    0    0  501  0.00000000000E+00  0.00000000000E+00  0.88871354305E+02  0.88871354341E+02  0.25500000920E-02 0.  1.
        2   -1    0    0  501    0  0.00000000000E+00  0.00000000000E+00 -0.17978917948E+04  0.17978917948E+04  0.25500000920E-02 0. -1.
    10030    2    1    2    0    0  0.00000000000E+00  0.00000000000E+00 -0.17090204405E+04  0.18867631491E+04  0.79945250949E+03 0.  0.
        3    1    3    3  502    0  0.24646532060E+03 -0.24403209995E+03 -0.38554930000E+03  0.51859916409E+03  0.10100000352E+00 0.  1.
       -3    1    3    3    0  502 -0.24646532060E+03  0.24403209995E+03 -0.13234711405E+04  0.13681639850E+04  0.10100000352E+00 0. -1.
</event>
<event>
 5   0  0.2129257E-02  0.8017117E+03  0.7818609E-02  0.9557543E-01
        1   -1    0    0  501    0  0.00000000000E+00  0.00000000000E+00  0.42396015439E+03  0.42396015442E+03  0.50400001928E-02 0. -1.
       -1   -1    0    0    0  501  0.00000000000E+00  0.00000000000E+00 -0.37901067815E+03  0.37901067819E+03  0.50400001928E-02 0.  1.
    10030    2    1    2    0    0  0.00000000000E+00  0.00000000000E+00  0.44949476239E+02  0.80297083261E+03  0.80171173286E+03 0.  0.
        3    1    3    3  502    0 -0.13076353426E+03  0.28355202041E+03 -0.22928543675E+03  0.38739214225E+03  0.10100000352E+00 0.  1.
       -3    1    3    3    0  502  0.13076353426E+03 -0.28355202041E+03  0.27423491299E+03  0.41557869035E+03  0.10100000352E+00 0. -1.
</event>
<event>
 5   0  0.2132540E-02  0.5228632E+03  0.7818609E-02  0.1007978E+00
        1   -1    0    0  501    0  0.00000000000E+00  0.00000000000E+00  0.37341811068E+03  0.37341811072E+03  0.50400001928E-02 0. -1.
       -1   -1    0    0    0  501  0.00000000000E+00  0.00000000000E+00 -0.18302934323E+03  0.18302934330E+03  0.50400001928E-02 0.  1.
    10030    2    1    2    0    0  0.00000000000E+00  0.00000000000E+00  0.19038876745E+03  0.55644745402E+03  0.52286316213E+03 0.  0.
        4    1    3    3  502    0 -0.93248146450E+02 -0.17767267146E+03 -0.83146380970E+02  0.21720434749E+03  0.12699999809E+01 0.  1.
       -4    1    3    3    0  502  0.93248146450E+02  0.17767267146E+03  0.27353514842E+03  0.33924310652E+03  0.12699999809E+01 0. -1.
</event>
<event>
 5   0  0.3550586E-02  0.8078454E+03  0.7818609E-02  0.9548730E-01
       -2   -1    0    0    0  501  0.00000000000E+00  0.00000000000E+00  0.73995122646E+02  0.73995122690E+02  0.25500000920E-02 0. -1.
        2   -1    0    0  501    0  0.00000000000E+00  0.00000000000E+00 -0.22049227692E+04  0.22049227692E+04  0.25500000920E-02 0.  1.
    10030    2    1    2    0    0  0.00000000000E+00  0.00000000000E+00 -0.21309276465E+04  0.22789178918E+04  0.80784535842E+03 0.  0.
        3    1    3    3  502    0  0.10696475796E+03  0.65926754813E+02 -0.21483895850E+04  0.21520607835E+04  0.10100000352E+00 0.  1.
       -3    1    3    3    0  502 -0.10696475796E+03 -0.65926754813E+02  0.17461938537E+02  0.12685710837E+03  0.10100000352E+00 0. -1.
</event>
<event>
 5   0  0.3467240E-02  0.7897290E+03  0.7818609E-02  0.9575004E-01
       -2   -1    0    0    0  501  0.00000000000E+00  0.00000000000E+00  0.10215020178E+03  0.10215020182E+03  0.25500000920E-02 0.  1.
        2   -1    0    0  501    0  0.00000000000E+00  0.00000000000E+00 -0.15263600698E+04  0.15263600698E+04  0.25500000920E-02 0. -1.
    10030    2    1    2    0    0  0.00000000000E+00  0.00000000000E+00 -0.14242098680E+04  0.16285102716E+04  0.78972903999E+03 0.  0.
        2    1    3    3  502    0 -0.16654590861E+03  0.12906555133E+03 -0.23462617421E+02  0.21200460051E+03  0.25500000920E-02 0.  1.
       -2    1    3    3    0  502  0.16654590861E+03 -0.12906555133E+03 -0.14007472506E+04  0.14165056711E+04  0.25500000920E-02 0. -1.
</event>
<event>
 5   0  0.1989298E-02  0.7983089E+03  0.7818609E-02  0.9562468E-01
        1   -1    0    0  501    0  0.00000000000E+00  0.00000000000E+00  0.47804586542E+03  0.47804586544E+03  0.50400001928E-02 0.  1.
       -1   -1    0    0    0  501  0.00000000000E+00  0.00000000000E+00 -0.33328244371E+03  0.33328244375E+03  0.50400001928E-02 0. -1.
    10030    2    1    2    0    0  0.00000000000E+00  0.00000000000E+00  0.14476342170E+03  0.81132830919E+03  0.79830894836E+03 0.  0.
        1    1    3    3  502    0 -0.29469655133E+03 -0.26174171372E+03  0.83501333879E+01  0.39423914927E+03  0.50400001928E-02 0. -1.
       -1    1    3    3    0  502  0.29469655133E+03  0.26174171372E+03  0.13641328831E+03  0.41708915992E+03  0.50400001928E-02 0.  1.
</event>
<event>
 5   0  0.3416160E-02  0.8026122E+03  0.7818609E-02  0.9556244E-01
        2   -1    0    0  501    0  0.00000000000E+00  0.00000000000E+00  0.63690972544E+03  0.63690972544E+03  0.25500000920E-02 0. -1.
       -2   -1    0    0    0  501  0.00000000000E+00  0.00000000000E+00 -0.25285620447E+03  0.25285620449E+03  0.25500000920E-02 0.  1.
    10030    2    1    2    0    0  0.00000000000E+00  0.00000000000E+00  0.38405352096E+03  0.88976592993E+03  0.80261217477E+03 0.  0.
        1    1    3    3  502    0 -0.29392578332E+03  0.24441713515E+03  0.56640686312E+02  0.38644568756E+03  0.50400001928E-02 0.  1.
       -1    1    3    3    0  502  0.29392578332E+03 -0.24441713515E+03  0.32741283465E+03  0.50332024237E+03  0.50400001928E-02 0. -1.
</event>
<event>
 5   0  0.2063692E-02  0.7978627E+03  0.7818609E-02  0.9563116E-01
        1   -1    0    0  501    0  0.00000000000E+00  0.00000000000E+00  0.59724820311E+03  0.59724820313E+03  0.50400001928E-02 0. -1.
       -1   -1    0    0    0  501  0.00000000000E+00  0.00000000000E+00 -0.26646582718E+03  0.26646582723E+03  0.50400001928E-02 0.  1.
    10030    2    1    2    0    0  0.00000000000E+00  0.00000000000E+00  0.33078237593E+03  0.86371403036E+03  0.79786273632E+03 0.  0.
        2    1    3    3  502    0 -0.22006871518E+03 -0.81600508531E+02  0.51459436136E+03  0.56559370501E+03  0.25500000920E-02 0. -1.
       -2    1    3    3    0  502  0.22006871518E+03  0.81600508531E+02 -0.18381198543E+03  0.29812032535E+03  0.25500000920E-02 0.  1.
</event>
<event>
 5   0  0.3404132E-02  0.7967288E+03  0.7818609E-02  0.9564764E-01
       -2   -1    0    0    0  501  0.00000000000E+00  0.00000000000E+00  0.61770673882E+03  0.61770673882E+03  0.25500000920E-02 0.  1.
        2   -1    0    0  501    0  0.00000000000E+00  0.00000000000E+00 -0.25690863436E+03  0.25690863437E+03  0.25500000920E-02 0. -1.
    10030    2    1    2    0    0  0.00000000000E+00  0.00000000000E+00  0.36079810446E+03  0.87461537320E+03  0.79672879881E+03 0.  0.
        5    1    3    3  502    0 -0.18232369609E+03 -0.15123388530E+03  0.53195333471E+03  0.58233157095E+03  0.46999998093E+01 0.  1.
       -5    1    3    3    0  502  0.18232369609E+03  0.15123388530E+03 -0.17115523025E+03  0.29228380225E+03  0.46999998093E+01 0. -1.
</event>
<event>
 5   0  0.2063692E-02  0.8057657E+03  0.7818609E-02  0.9551709E-01
        1   -1    0    0  501    0  0.00000000000E+00  0.00000000000E+00  0.13284966724E+04  0.13284966724E+04  0.50400001928E-02 0.  1.
       -1   -1    0    0    0  501  0.00000000000E+00  0.00000000000E+00 -0.12217914244E+03  0.12217914255E+03  0.50400001928E-02 0. -1.
    10030    2    1    2    0    0  0.00000000000E+00  0.00000000000E+00  0.12063175300E+04  0.14506758150E+04  0.80576568369E+03 0.  0.
        2    1    3    3  502    0  0.34356617233E+03 -0.11733595149E+03  0.91762687775E+03  0.98683561299E+03  0.25500000920E-02 0.  1.
       -2    1    3    3    0  502 -0.34356617233E+03  0.11733595149E+03  0.28869065220E+03  0.46384020196E+03  0.25500000920E-02 0. -1.
</event>
<event>
 5   0  0.1989298E-02  0.7878422E+03  0.7818609E-02  0.9577784E-01
        1   -1    0    0  501    0  0.00000000000E+00  0.00000000000E+00  0.75846164056E+03  0.75846164057E+03  0.50400001928E-02 0.  1.
       -1   -1    0    0    0  501  0.00000000000E+00  0.00000000000E+00 -0.20459019770E+03  0.20459019777E+03  0.50400001928E-02 0. -1.
    10030    2    1    2    0    0  0.00000000000E+00  0.00000000000E+00  0.55387144285E+03  0.96305183834E+03  0.78784215940E+03 0.  0.
        1    1    3    3  502    0  0.18639949805E+03  0.27136606196E+03  0.54134985808E+03  0.63359607110E+03  0.50400001928E-02 0.  1.
       -1    1    3    3    0  502 -0.18639949805E+03 -0.27136606196E+03  0.12521584777E+02  0.32945576724E+03  0.50400001928E-02 0. -1.
</event>
<event>
 5   0  0.2077795E-02  0.8255819E+03  0.7818609E-02  0.9523709E-01
       -1   -1    0    0    0  501  0.00000000000E+00  0.00000000000E+00  0.12744602874E+03  0.12744602884E+03  0.50400001928E-02 0. -1.
        1   -1    0    0  501    0  0.00000000000E+00  0.00000000000E+00 -0.13370082161E+04  0.13370082161E+04  0.50400001928E-02 0.  1.
    10030    2    1    2    0    0  0.00000000000E+00  0.00000000000E+00 -0.12095621874E+04  0.14644542450E+04  0.82558194656E+03 0.  0.
        5    1    3    3  502    0 -0.29055089078E+03  0.28939351688E+02 -0.11222970587E+04  0.11596680923E+04  0.46999998093E+01 0.  1.
       -5    1    3    3    0  502  0.29055089078E+03 -0.28939351688E+02 -0.87265128672E+02  0.30478615272E+03  0.46999998093E+01 0. -1.
</event>
<event>
 5   0  0.3416160E-02  0.7969973E+03  0.7818609E-02  0.9564374E-01
        2   -1    0    0  501    0  0.00000000000E+00  0.00000000000E+00  0.13507813259E+04  0.13507813260E+04  0.25500000920E-02 0. -1.
       -2   -1    0    0    0  501  0.00000000000E+00  0.00000000000E+00 -0.11756246937E+03  0.11756246940E+03  0.25500000920E-02 0.  1.
    10030    2    1    2    0    0  0.00000000000E+00  0.00000000000E+00  0.12332188566E+04  0.14683437953E+04  0.79699733570E+03 0.  0.
        1    1    3    3  502    0 -0.18366918078E+03 -0.29970667440E+03  0.27074519587E+03  0.44369068027E+03  0.50400001928E-02 0.  1.
       -1    1    3    3    0  502  0.18366918078E+03  0.29970667440E+03  0.96247366072E+03  0.10246531151E+04  0.50400001928E-02 0. -1.
</event>
<event>
 5   0  0.2129257E-02  0.7923107E+03  0.7818609E-02  0.9571214E-01
       -1   -1    0    0    0  501  0.00000000000E+00  0.00000000000E+00  0.18059287531E+03  0.18059287538E+03  0.50400001928E-02 0. -1.
        1   -1    0    0  501    0  0.00000000000E+00  0.00000000000E+00 -0.86902140365E+03  0.86902140366E+03  0.50400001928E-02 0.  1.
    10030    2    1    2    0    0  0.00000000000E+00  0.00000000000E+00 -0.68842852834E+03  0.10496142790E+04  0.79231073207E+03 0.  0.
        3    1    3    3  502    0  0.85749810873E+02  0.21475328740E+03 -0.77033752788E+03  0.80429591667E+03  0.10100000352E+00 0.  1.
       -3    1    3    3    0  502 -0.85749810873E+02 -0.21475328740E+03  0.81908999541E+02  0.24531836238E+03  0.10100000352E+00 0. -1.
</event>
<event>
 5   0  0.3467240E-02  0.8116252E+03  0.7818609E-02  0.9543341E-01
        2   -1    0    0  501    0  0.00000000000E+00  0.00000000000E+00  0.78721551140E+03  0.78721551141E+03  0.25500000920E-02 0.  1.
       -2   -1    0    0    0  501  0.00000000000E+00  0.00000000000E+00 -0.20919795893E+03  0.20919795894E+03  0.25500000920E-02 0. -1.
    10030    2    1    2    0    0  0.00000000000E+00  0.00000000000E+00  0.57801755248E+03  0.99641347035E+03  0.81162522936E+03 0.  0.
        2    1    3    3  502    0 -0.38380529273E+03 -0.35556381431E+02  0.13317059828E+03  0.40780530556E+03  0.25500000920E-02 0. -1.
       -2    1    3    3    0  502  0.38380529273E+03  0.35556381431E+02  0.44484695420E+03  0.58860816479E+03  0.25500000920E-02 0.  1.
</event>
<event>
 5   0  0.2132540E-02  0.6955808E+03  0.7818609E-02  0.9724820E-01
        1   -1    0    0  501    0  0.00000000000E+00  0.00000000000E+00  0.19036441527E+04  0.19036441527E+04  0.50400001928E-02 0.  1.
       -1   -1    0    0    0  501  0.00000000000E+00  0.00000000000E+00 -0.63540325289E+02  0.63540325489E+02  0.50400001928E-02 0. -1.
    10030    2    1    2    0    0  0.00000000000E+00  0.00000000000E+00  0.18401038274E+04  0.19671844782E+04  0.69558081889E+03 0.  0.
        4    1    3    3  502    0 -0.20252667502E+03  0.87854862720E+02  0.16002439827E+03  0.27266270728E+03  0.12699999809E+01 0. -1.
       -4    1    3    3    0  502  0.20252667502E+03 -0.87854862720E+02  0.16800794292E+04  0.16945217710E+04  0.12699999809E+01 0.  1.
</event>
<event>
 5   0  0.2077795E-02  0.7994847E+03  0.7818609E-02  0.9560763E-01
        1   -1    0    0  501    0  0.00000000000E+00  0.00000000000E+00  0.63564038257E+03  0.63564038259E+03  0.50400001928E-02 0.  1.
       -1   -1    0    0    0  501  0.00000000000E+00  0.00000000000E+00 -0.25139050805E+03  0.25139050810E+03  0.50400001928E-02 0. -1.
    10030    2    1    2    0    0  0.00000000000E+00  0.00000000000E+00  0.38424987451E+03  0.88703089069E+03  0.79948473092E+03 0.  0.
        5    1    3    3  502    0  0.14752099551E+03 -0.32456523993E+03  0.39265618891E+03  0.53038289167E+03  0.46999998093E+01 0.  1.
       -5    1    3    3    0  502 -0.14752099551E+03  0.32456523993E+03 -0.84063143995E+01  0.35664799902E+03  0.46999998093E+01 0. -1.
</event>
<event>
 5   0  0.3404132E-02  0.8018329E+03  0.7818609E-02  0.9557368E-01
       -2   -1    0    0    0  501  0.00000000000E+00  0.00000000000E+00  0.17058289046E+03  0.17058289048E+03  0.25500000920E-02 0.  1.
        2   -1    0    0  501    0  0.00000000000E+00  0.00000000000E+00 -0.94226321037E+03  0.94226321037E+03  0.25500000920E-02 0. -1.
    10030    2    1    2    0    0  0.00000000000E+00  0.00000000000E+00 -0.77168031991E+03  0.11128461008E+04  0.80183285543E+03 0.  0.
        5    1    3    3  502    0 -0.26044989845E+02  0.23236996162E+03 -0.83778092426E+03  0.86981211052E+03  0.46999998093E+01 0. -1.
       -5    1    3    3    0  502  0.26044989845E+02 -0.23236996162E+03  0.66100604355E+02  0.24303399032E+03  0.46999998093E+01 0.  1.
</event>
<event>
 5   0  0.2077795E-02  0.8043070E+03  0.7818609E-02  0.9553804E-01
        1   -1    0    0  501    0  0.00000000000E+00  0.00000000000E+00  0.93740857043E+03  0.93740857044E+03  0.50400001928E-02 0. -1.
       -1   -1    0    0    0  501  0.00000000000E+00  0.00000000000E+00 -0.17252607547E+03  0.17252607555E+03  0.50400001928E-02 0.  1.
    10030    2    1    2    0    0  0.00000000000E+00  0.00000000000E+00  0.76488249496E+03  0.11099346460E+04  0.80430696085E+03 0.  0.
        5    1    3    3  502    0  0.39646995999E+03 -0.67140980150E+02  0.38657924159E+03  0.55781891364E+03  0.46999998093E+01 0.  1.
       -5    1    3    3    0  502 -0.39646995999E+03  0.67140980150E+02  0.37830325337E+03  0.55211573234E+03  0.46999998093E+01 0. -1.
</event>
<event>
 5   0  0.1358000E-02  0.6997831E+03  0.7818609E-02  0.9717603E-01
        4   -1    0    0  501    0  0.00000000000E+00  0.00000000000E+00  0.38767722481E+03  0.38767930502E+03  0.12699999809E+01 0. -1.
       -4   -1    0    0    0  501  0.00000000000E+00  0.00000000000E+00 -0.31578450578E+03  0.31578705957E+03  0.12699999809E+01 0.  1.
    10030    2    1    2    0    0  0.00000000000E+00  0.00000000000E+00  0.71892719027E+02  0.70346636459E+03  0.69978308286E+03 0.  0.
        5    1    3    3  502    0  0.11190453121E+03 -0.31724005563E+02 -0.29574940137E+03  0.31783460329E+03  0.46999998093E+01 0.  1.
       -5    1    3    3    0  502 -0.11190453121E+03  0.31724005563E+02  0.36764212040E+03  0.38563176130E+03  0.46999998093E+01 0. -1.
</event>
<event>
 5   0  0.3416160E-02  0.8803895E+03  0.7818609E-02  0.9450433E-01
        2   -1    0    0  501    0  0.00000000000E+00  0.00000000000E+00  0.11513120039E+04  0.11513120039E+04  0.25500000920E-02 0.  1.
       -2   -1    0    0    0  501  0.00000000000E+00  0.00000000000E+00 -0.16830488957E+03  0.16830488959E+03  0.25500000920E-02 0. -1.
    10030    2    1    2    0    0  0.00000000000E+00  0.00000000000E+00  0.98300711432E+03  0.13196168935E+04  0.88038954943E+03 0.  0.
        1    1    3    3  502    0 -0.36584458896E+03 -0.15921317024E+03  0.21277104105E+03  0.45217542258E+03  0.50400001928E-02 0. -1.
       -1    1    3    3    0  502  0.36584458896E+03  0.15921317024E+03  0.77023607327E+03  0.86744147091E+03  0.50400001928E-02 0.  1.
</event>
<event>
 5   0  0.2132540E-02  0.8000072E+03  0.7818609E-02  0.9560007E-01
        1   -1    0    0  501    0  0.00000000000E+00  0.00000000000E+00  0.95983510529E+03  0.95983510531E+03  0.50400001928E-02 0. -1.
       -1   -1    0    0    0  501  0.00000000000E+00  0.00000000000E+00 -0.16669828639E+03  0.16669828647E+03  0.50400001928E-02 0.  1.
    10030    2    1    2    0    0  0.00000000000E+00  0.00000000000E+00  0.79313681890E+03  0.11265333918E+04  0.80000716828E+03 0.  0.
        4    1    3    3  502    0 -0.26117124329E+03  0.25148447266E+03  0.15865121236E+03  0.39576088538E+03  0.12699999809E+01 0.  1.
       -4    1    3    3    0  502  0.26117124329E+03 -0.25148447266E+03  0.63448560654E+03  0.73077250640E+03  0.12699999809E+01 0. -1.
</event>
<event>
 5   0  0.3416160E-02  0.8008250E+03  0.7818609E-02  0.9558824E-01
       -2   -1    0    0    0  501  0.00000000000E+00  0.00000000000E+00  0.96919765257E+02  0.96919765291E+02  0.25500000920E-02 0. -1.
        2   -1    0    0  501    0  0.00000000000E+00  0.00000000000E+00 -0.16542565816E+04  0.16542565816E+04  0.25500000920E-02 0.  1.
    10030    2    1    2    0    0  0.00000000000E+00  0.00000000000E+00 -0.15573368163E+04  0.17511763468E+04  0.80082497361E+03 0.  0.
        1    1    3    3  502    0 -0.84425904276E+02  0.34071855490E+03 -0.11999349982E+04  0.12502243266E+04  0.50400001928E-02 0.  1.
       -1    1    3    3    0  502  0.84425904276E+02 -0.34071855490E+03 -0.35740181815E+03  0.50095202026E+03  0.50400001928E-02 0. -1.
</event>
<event>
 5   0  0.3416160E-02  0.7794448E+03  0.7818609E-02  0.9590256E-01
        2   -1    0    0  501    0  0.00000000000E+00  0.00000000000E+00  0.24772632479E+03  0.24772632480E+03  0.25500000920E-02 0.  1.
       -2   -1    0    0    0  501  0.00000000000E+00  0.00000000000E+00 -0.61311017327E+03  0.61311017327E+03  0.25500000920E-02 0. -1.
    10030    2    1    2    0    0  0.00000000000E+00  0.00000000000E+00 -0.36538384848E+03  0.86083649807E+03  0.77944475089E+03 0.  0.
        1    1    3    3  502    0  0.27815650718E+03 -0.21073427494E+03  0.89295654502E+01  0.34908410775E+03  0.50400001928E-02 0.  1.
       -1    1    3    3    0  502 -0.27815650718E+03  0.21073427494E+03 -0.37431341393E+03  0.51175239032E+03  0.50400001928E-02 0. -1.
</event>
<event>
 5   0  0.2132540E-02  0.7816475E+03  0.7818609E-02  0.9586968E-01
       -1   -1    0    0    0  501  0.00000000000E+00  0.00000000000E+00  0.16363796255E+03  0.16363796263E+03  0.50400001928E-02 0. -1.
        1   -1    0    0  501    0  0.00000000000E+00  0.00000000000E+00 -0.93342145542E+03  0.93342145544E+03  0.50400001928E-02 0.  1.
    10030    2    1    2    0    0  0.00000000000E+00  0.00000000000E+00 -0.76978349288E+03  0.10970594181E+04  0.78164745305E+03 0.  0.
        4    1    3    3  502    0  0.15443397041E+03  0.87972594659E+02  0.10363180031E+03  0.20574302312E+03  0.12699999809E+01 0. -1.
       -4    1    3    3    0  502 -0.15443397041E+03 -0.87972594659E+02 -0.87341529318E+03  0.89131639494E+03  0.12699999809E+01 0.  1.
</event>
<event>
 5   0  0.2129257E-02  0.7968824E+03  0.7818609E-02  0.9564541E-01
        1   -1    0    0  501    0  0.00000000000E+00  0.00000000000E+00  0.26911087248E+03  0.26911087253E+03  0.50400001928E-02 0.  1.
       -1   -1    0    0    0  501  0.00000000000E+00  0.00000000000E+00 -0.58992565279E+03  0.58992565281E+03  0.50400001928E-02 0. -1.
    10030    2    1    2    0    0  0.00000000000E+00  0.00000000000E+00 -0.32081478031E+03  0.85903652534E+03  0.79688244340E+03 0.  0.
        3    1    3    3  502    0 -0.50592844012E+00  0.24814622811E+03 -0.49645643783E+03  0.55501874865E+03  0.10100000352E+00 0. -1.
       -3    1    3    3    0  502  0.50592844012E+00 -0.24814622811E+03  0.17564165752E+03  0.30401777669E+03  0.10100000352E+00 0.  1.
</event>
<event>
 5   0  0.1358000E-02  0.8081007E+03  0.7818609E-02  0.9548365E-01
       -3   -1    0    0    0  501  0.00000000000E+00  0.00000000000E+00  0.38800255005E+03  0.38800256320E+03  0.10100000352E+00 0.  1.
        3   -1    0    0  501    0  0.00000000000E+00  0.00000000000E+00 -0.42076189348E+03  0.42076190560E+03  0.10100000352E+00 0. -1.
    10030    2    1    2    0    0  0.00000000000E+00  0.00000000000E+00 -0.32759343427E+02  0.80876446879E+03  0.80810073097E+03 0.  0.
        3    1    3    3  502    0  0.38632941350E+03 -0.10915979252E+03 -0.62138244262E+02  0.40623570454E+03  0.10100000352E+00 0.  1.
       -3    1    3    3    0  502 -0.38632941350E+03  0.10915979252E+03  0.29378900835E+02  0.40252876426E+03  0.10100000352E+00 0. -1.
</event>
<event>
 5   0  0.3343036E-02  0.6821636E+03  0.7818609E-02  0.9748231E-01
       -2   -1    0    0    0  501  0.00000000000E+00  0.00000000000E+00  0.40679664772E+03  0.40679664773E+03  0.25500000920E-02 0.  1.
        2   -1    0    0  501    0  0.00000000000E+00  0.00000000000E+00 -0.28598266459E+03  0.28598266460E+03  0.25500000920E-02 0. -1.
    10030    2    1    2    0    0  0.00000000000E+00  0.00000000000E+00  0.12081398313E+03  0.69277931232E+03  0.68216358527E+03 0.  0.
        4    1    3    3  502    0  0.19567191360E+03 -0.10970941791E+03 -0.20051834460E+03  0.30088681189E+03  0.12699999809E+01 0. -1.
       -4    1    3    3    0  502 -0.19567191360E+03  0.10970941791E+03  0.32133232773E+03  0.39189250043E+03  0.12699999809E+01 0.  1.
</event>
<event>
 5   0  0.2132540E-02  0.8158412E+03  0.7818609E-02  0.9537367E-01
        1   -1    0    0  501    0  0.00000000000E+00  0.00000000000E+00  0.13537877942E+03  0.13537877951E+03  0.50400001928E-02 0. -1.
       -1   -1    0    0    0  501  0.00000000000E+00  0.00000000000E+00 -0.12291380833E+04  0.12291380833E+04  0.50400001928E-02 0.  1.
    10030    2    1    2    0    0  0.00000000000E+00  0.00000000000E+00 -0.10937593038E+04  0.13645168628E+04  0.81584119415E+03 0.  0.
        4    1    3    3  502    0 -0.29453426307E+03 -0.12446834916E+03 -0.97051076573E+03  0.10218295168E+04  0.12699999809E+01 0. -1.
       -4    1    3    3    0  502  0.29453426307E+03  0.12446834916E+03 -0.12324853812E+03  0.34268734601E+03  0.12699999809E+01 0.  1.
</event>
<event>
 5   0  0.1989298E-02  0.7954054E+03  0.7818609E-02  0.9566692E-01
       -1   -1    0    0    0  501  0.00000000000E+00  0.00000000000E+00  0.24890296553E+03  0.24890296558E+03  0.50400001928E-02 0.  1.
        1   -1    0    0  501    0  0.00000000000E+00  0.00000000000E+00 -0.63545822544E+03  0.63545822546E+03  0.50400001928E-02 0. -1.
    10030    2    1    2    0    0  0.00000000000E+00  0.00000000000E+00 -0.38655525991E+03  0.88436119104E+03  0.79540539805E+03 0.  0.
        1    1    3    3  502    0 -0.16462486745E+03 -0.25742271698E+03  0.89749078285E+02  0.31846930665E+03  0.50400001928E-02 0.  1.
       -1    1    3    3    0  502  0.16462486745E+03  0.25742271698E+03 -0.47630433820E+03  0.56589188439E+03  0.50400001928E-02 0. -1.
</event>
<event>
 5   0  0.2077795E-02  0.7980016E+03  0.7818609E-02  0.9562914E-01
       -1   -1    0    0    0  501  0.00000000000E+00  0.00000000000E+00  0.69914072879E+03  0.69914072881E+03  0.50400001928E-02 0. -1.
        1   -1    0    0  501    0  0.00000000000E+00  0.00000000000E+00 -0.22771044167E+03  0.22771044173E+03  0.50400001928E-02 0.  1.
    10030    2    1    2    0    0  0.00000000000E+00  0.00000000000E+00  0.47143028712E+03  0.92685117053E+03  0.79800161448E+03 0.  0.
        5    1    3    3  502    0  0.17916665141E+02  0.26969704502E+03 -0.10513494820E+03  0.29005680532E+03  0.46999998093E+01 0.  1.
       -5    1    3    3    0  502 -0.17916665141E+02 -0.26969704502E+03  0.57656523532E+03  0.63679436521E+03  0.46999998093E+01 0. -1.
</event>
<event>
 5   0  0.3343036E-02  0.7840906E+03  0.7818609E-02  0.9583335E-01
        2   -1    0    0  501    0  0.00000000000E+00  0.00000000000E+00  0.61420102811E+03  0.61420102812E+03  0.25500000920E-02 0. -1.
       -2   -1    0    0    0  501  0.00000000000E+00  0.00000000000E+00 -0.25024302246E+03  0.25024302247E+03  0.25500000920E-02 0.  1.
    10030    2    1    2    0    0  0.00000000000E+00  0.00000000000E+00  0.36395800566E+03  0.86444405059E+03  0.78409061129E+03 0.  0.
        4    1    3    3  502    0  0.11678583136E+03 -0.33721560800E+03  0.30352504124E+01  0.35688110391E+03  0.12699999809E+01 0.  1.
       -4    1    3    3    0  502 -0.11678583136E+03  0.33721560800E+03  0.36092275524E+03  0.50756294668E+03  0.12699999809E+01 0. -1.
</event>
<event>
 5   0  0.3467240E-02  0.7936420E+03  0.7818609E-02  0.9569266E-01
        2   -1    0    0  501    0  0.00000000000E+00  0.00000000000E+00  0.74895994777E+03  0.74895994778E+03  0.25500000920E-02 0. -1.
       -2   -1    0    0    0  501  0.00000000000E+00  0.00000000000E+00 -0.21024742228E+03  0.21024742230E+03  0.25500000920E-02 0.  1.
    10030    2    1    2    0    0  0.00000000000E+00  0.00000000000E+00  0.53871252549E+03  0.95920737008E+03  0.79364198080E+03 0.  0.
        2    1    3    3  502    0 -0.10839103850E+03  0.10700911662E+03  0.71222298842E+03  0.72832764160E+03  0.25500000920E-02 0. -1.
       -2    1    3    3    0  502  0.10839103850E+03 -0.10700911662E+03 -0.17351046293E+03  0.23087972848E+03  0.25500000920E-02 0.  1.
</event>
<event>
 5   0  0.2077795E-02  0.8296248E+03  0.7818609E-02  0.9518099E-01
        1   -1    0    0  501    0  0.00000000000E+00  0.00000000000E+00  0.29492515448E+03  0.29492515452E+03  0.50400001928E-02 0.  1.
       -1   -1    0    0    0  501  0.00000000000E+00  0.00000000000E+00 -0.58343386629E+03  0.58343386631E+03  0.50400001928E-02 0. -1.
    10030    2    1    2    0    0  0.00000000000E+00  0.00000000000E+00 -0.28850871181E+03  0.87835902084E+03  0.82962479031E+03 0.  0.
        5    1    3    3  502    0  0.61747698039E+02 -0.20475890585E+03  0.23202136475E+03  0.31558674154E+03  0.46999998093E+01 0.  1.
       -5    1    3    3    0  502 -0.61747698039E+02  0.20475890585E+03 -0.52053007656E+03  0.56277227930E+03  0.46999998093E+01 0. -1.
</event>
<event>
 5   0  0.1989298E-02  0.8068462E+03  0.7818609E-02  0.9550160E-01
        1   -1    0    0  501    0  0.00000000000E+00  0.00000000000E+00  0.29317622364E+03  0.29317622368E+03  0.50400001928E-02 0.  1.
       -1   -1    0    0    0  501  0.00000000000E+00  0.00000000000E+00 -0.55512753079E+03  0.55512753081E+03  0.50400001928E-02 0. -1.
    10030    2    1    2    0    0  0.00000000000E+00  0.00000000000E+00 -0.26195130715E+03  0.84830375449E+03  0.80684618892E+03 0.  0.
        1    1    3    3  502    0  0.14736907004E+03  0.36598021020E+02  0.26198418741E+03  0.30280814458E+03  0.50400001928E-02 0.  1.
       -1    1    3    3    0  502 -0.14736907004E+03 -0.36598021020E+02 -0.52393549456E+03  0.54549560991E+03  0.50400001928E-02 0. -1.
</event>
<event>
 5   0  0.3550586E-02  0.7971811E+03  0.7818609E-02  0.9564106E-01
       -2   -1    0    0    0  501  0.00000000000E+00  0.00000000000E+00  0.41602296020E+03  0.41602296021E+03  0.25500000920E-02 0. -1.
        2   -1    0    0  501    0  0.00000000000E+00  0.00000000000E+00 -0.38188859908E+03  0.38188859909E+03  0.25500000920E-02 0.  1.
    10030    2    1    2    0    0  0.00000000000E+00  0.00000000000E+00  0.34134361126E+02  0.79791155930E+03  0.79718109727E+03 0.  0.
        3    1    3    3  502    0 -0.13585252667E+03 -0.47811560401E+02 -0.35493526619E+03  0.38304165269E+03  0.10100000352E+00 0.  1.
       -3    1    3    3    0  502  0.13585252667E+03  0.47811560401E+02  0.38906962731E+03  0.41486990661E+03  0.10100000352E+00 0. -1.
</event>
<event>
 5   0  0.3343036E-02  0.8153312E+03  0.7818609E-02  0.9538087E-01
       -2   -1    0    0    0  501  0.00000000000E+00  0.00000000000E+00  0.57925748184E+03  0.57925748184E+03  0.25500000920E-02 0. -1.
        2   -1    0    0  501    0  0.00000000000E+00  0.00000000000E+00 -0.28690389358E+03  0.28690389359E+03  0.25500000920E-02 0.  1.
    10030    2    1    2    0    0  0.00000000000E+00  0.00000000000E+00  0.29235358825E+03  0.86616137544E+03  0.81533116446E+03 0.  0.
        4    1    3    3  502    0  0.16775415760E+03  0.22987191664E+03  0.45627735903E+03  0.53774826519E+03  0.12699999809E+01 0. -1.
       -4    1    3    3    0  502 -0.16775415760E+03 -0.22987191664E+03 -0.16392377078E+03  0.32841311024E+03  0.12699999809E+01 0.  1.
</event>
<event>
 5   0  0.3343036E-02  0.7970834E+03  0.7818609E-02  0.9564248E-01
        2   -1    0    0  501    0  0.00000000000E+00  0.00000000000E+00  0.10101596562E+04  0.10101596562E+04  0.25500000920E-02 0. -1.
       -2   -1    0    0    0  501  0.00000000000E+00  0.00000000000E+00 -0.15723801750E+03  0.15723801752E+03  0.25500000920E-02 0.  1.
    10030    2    1    2    0    0  0.00000000000E+00  0.00000000000E+00  0.85292163871E+03  0.11673976737E+04  0.79708343783E+03 0.  0.
        4    1    3    3  502    0 -0.26695822850E+03  0.18393749339E+03  0.76596130354E+03  0.83174396821E+03  0.12699999809E+01 0. -1.
       -4    1    3    3    0  502  0.26695822850E+03 -0.18393749339E+03  0.86960335169E+02  0.33565370552E+03  0.12699999809E+01 0.  1.
</event>
<event>
 5   0  0.2129257E-02  0.7991684E+03  0.7818609E-02  0.9561222E-01
       -1   -1    0    0    0  501  0.00000000000E+00  0.00000000000E+00  0.31209852538E+03  0.31209852542E+03  0.50400001928E-02 0.  1.
        1   -1    0    0  501    0  0.00000000000E+00  0.00000000000E+00 -0.51159334729E+03  0.51159334732E+03  0.50400001928E-02 0. -1.
    10030    2    1    2    0    0  0.00000000000E+00  0.00000000000E+00 -0.19949482191E+03  0.82369187274E+03  0.79916839105E+03 0.  0.
        3    1    3    3  502    0 -0.16677250584E+03  0.27284772525E+03 -0.34670071685E+03  0.47165702278E+03  0.10100000352E+00 0. -1.
       -3    1    3    3    0  502  0.16677250584E+03 -0.27284772525E+03  0.14720589493E+03  0.35203484996E+03  0.10100000352E+00 0.  1.
</event>
<event>
 5   0  0.2129257E-02  0.8169172E+03  0.7818609E-02  0.9535848E-01
        1   -1    0    0  501    0  0.00000000000E+00  0.00000000000E+00  0.25022916638E+03  0.25022916643E+03  0.50400001928E-02 0.  1.
       -1   -1    0    0    0  501  0.00000000000E+00  0.00000000000E+00 -0.66674245297E+03  0.66674245299E+03  0.50400001928E-02 0. -1.
    10030    2    1    2    0    0  0.00000000000E+00  0.00000000000E+00 -0.41651328659E+03  0.91697161942E+03  0.81691715180E+03 0.  0.
        3    1    3    3  502    0 -0.27018199014E+03  0.11667701225E+02  0.13534627254E+03  0.30241208101E+03  0.10100000352E+00 0.  1.
       -3    1    3    3    0  502  0.27018199014E+03 -0.11667701225E+02 -0.55185955913E+03  0.61455953841E+03  0.10100000352E+00 0. -1.
</event>
<event>
 5   0  0.1989298E-02  0.8133725E+03  0.7818609E-02  0.9540860E-01
        1   -1    0    0  501    0  0.00000000000E+00  0.00000000000E+00  0.18221849256E+03  0.18221849263E+03  0.50400001928E-02 0. -1.
       -1   -1    0    0    0  501  0.00000000000E+00  0.00000000000E+00 -0.90766689680E+03  0.90766689681E+03  0.50400001928E-02 0.  1.
    10030    2    1    2    0    0  0.00000000000E+00  0.00000000000E+00 -0.72544840424E+03  0.10898853894E+04  0.81337246998E+03 0.  0.
        1    1    3    3  502    0 -0.82765974194E+01 -0.10978065335E+03  0.16187153495E+03  0.19576181386E+03  0.50400001928E-02 0. -1.
       -1    1    3    3    0  502  0.82765974194E+01  0.10978065335E+03 -0.88731993918E+03  0.89412357558E+03  0.50400001928E-02 0.  1.
</event>
<event>
 5   0  0.1358000E-02  0.7978747E+03  0.7818609E-02  0.9563099E-01
       -4   -1    0    0    0  501  0.00000000000E+00  0.00000000000E+00  0.16444598161E+04  0.16444603065E+04  0.12699999809E+01 0.  1.
        4   -1    0    0  501    0  0.00000000000E+00  0.00000000000E+00 -0.96775437539E+02  0.96783770390E+02  0.12699999809E+01 0. -1.
    10030    2    1    2    0    0  0.00000000000E+00  0.00000000000E+00  0.15476843786E+04  0.17412440769E+04  0.79787467668E+03 0.  0.
        3    1    3    3  502    0 -0.20038931226E+03 -0.18039545797E+03  0.13216887255E+03  0.30027823563E+03  0.10100000352E+00 0. -1.
       -3    1    3    3    0  502  0.20038931226E+03  0.18039545797E+03  0.14155155060E+04  0.14409658413E+04  0.10100000352E+00 0.  1.
</event>
<event>
 5   0  0.3550586E-02  0.7653097E+03  0.7818609E-02  0.9611633E-01
       -2   -1    0    0    0  501  0.00000000000E+00  0.00000000000E+00  0.48416547632E+03  0.48416547633E+03  0.25500000920E-02 0. -1.
        2   -1    0    0  501    0  0.00000000000E+00  0.00000000000E+00 -0.30242707691E+03  0.30242707692E+03  0.25500000920E-02 0.  1.
    10030    2    1    2    0    0  0.00000000000E+00  0.00000000000E+00  0.18173839942E+03  0.78659255325E+03  0.76530974056E+03 0.  0.
        3    1    3    3  502    0  0.24016347311E+03 -0.28753796474E+03  0.17093393366E+03  0.41179484560E+03  0.10100000352E+00 0.  1.
       -3    1    3    3    0  502 -0.24016347311E+03  0.28753796474E+03  0.10804465753E+02  0.37479770765E+03  0.10100000352E+00 0. -1.
</event>
<event>
 5   0  0.3550586E-02  0.8251025E+03  0.7818609E-02  0.9524376E-01
        2   -1    0    0  501    0  0.00000000000E+00  0.00000000000E+00  0.20083008117E+04  0.20083008117E+04  0.25500000920E-02 0. -1.
       -2   -1    0    0    0  501  0.00000000000E+00  0.00000000000E+00 -0.84747539095E+02  0.84747539133E+02  0.25500000920E-02 0.  1.
    10030    2    1    2    0    0  0.00000000000E+00  0.00000000000E+00  0.19235532726E+04  0.20930483509E+04  0.82510254296E+03 0.  0.
        3    1    3    3  502    0  0.12658586924E+03  0.27516893386E+03  0.16723126973E+04  0.16995210185E+04  0.10100000352E+00 0. -1.
       -3    1    3    3    0  502 -0.12658586924E+03 -0.27516893386E+03  0.25124057535E+03  0.39352733241E+03  0.10100000352E+00 0.  1.
</event>
<event>
 5   0  0.1358000E-02  0.8067261E+03  0.7818609E-02  0.9550332E-01
        3   -1    0    0  501    0  0.00000000000E+00  0.00000000000E+00  0.16687240723E+03  0.16687243779E+03  0.10100000352E+00 0.  1.
       -3   -1    0    0    0  501  0.00000000000E+00  0.00000000000E+00 -0.97500670403E+03  0.97500670926E+03  0.10100000352E+00 0. -1.
    10030    2    1    2    0    0  0.00000000000E+00  0.00000000000E+00 -0.80813429680E+03  0.11418791471E+04  0.80672606553E+03 0.  0.
        5    1    3    3  502    0  0.17434986915E+03 -0.28309259544E+03 -0.72727435142E+03  0.79968079050E+03  0.46999998093E+01 0. -1.
       -5    1    3    3    0  502 -0.17434986915E+03  0.28309259544E+03 -0.80859945383E+02  0.34219835656E+03  0.46999998093E+01 0.  1.
</event>
<event>
 5   0  0.2129257E-02  0.8101242E+03  0.7818609E-02  0.9545477E-01
       -1   -1    0    0    0  501  0.00000000000E+00  0.00000000000E+00  0.13484061321E+03  0.13484061331E+03  0.50400001928E-02 0.  1.
        1   -1    0    0  501    0  0.00000000000E+00  0.00000000000E+00 -0.12168092910E+04  0.12168092910E+04  0.50400001928E-02 0. -1.
    10030    2    1    2    0    0  0.00000000000E+00  0.00000000000E+00 -0.10819686777E+04  0.13516499043E+04  0.81012421523E+03 0.  0.
        3    1    3    3  502    0 -0.30052044014E+03 -0.97585837028E+02 -0.96386185405E+03  0.10143299337E+04  0.10100000352E+00 0. -1.
       -3    1    3    3    0  502  0.30052044014E+03  0.97585837028E+02 -0.11810682369E+03  0.33731997056E+03  0.10100000352E+00 0.  1.
</event>
<event>
 5   0  0.3467240E-02  0.8029185E+03  0.7818609E-02  0.9555802E-01
       -2   -1    0    0    0  501  0.00000000000E+00  0.00000000000E+00  0.20624035489E+03  0.20624035490E+03  0.25500000920E-02 0.  1.
        2   -1    0    0  501    0  0.00000000000E+00  0.00000000000E+00 -0.78146454148E+03  0.78146454148E+03  0.25500000920E-02 0. -1.
    10030    2    1    2    0    0  0.00000000000E+00  0.00000000000E+00 -0.57522418659E+03  0.98770489639E+03  0.80291848746E+03 0.  0.
        2    1    3    3  502    0 -0.11826091621E+03 -0.38085878626E+03 -0.34439177460E+03  0.52692006395E+03  0.25500000920E-02 0. -1.
       -2    1    3    3    0  502  0.11826091621E+03  0.38085878626E+03 -0.23083241200E+03  0.46078483244E+03  0.25500000920E-02 0.  1.
</event>
<event>
 5   0  0.3416160E-02  0.7995078E+03  0.7818609E-02  0.9560730E-01
        2   -1    0    0  501    0  0.00000000000E+00  0.00000000000E+00  0.10106341945E+04  0.10106341945E+04  0.25500000920E-02 0.  1.
       -2   -1    0    0    0  501  0.00000000000E+00  0.00000000000E+00 -0.15812167970E+03  0.15812167973E+03  0.25500000920E-02 0. -1.
    10030    2    1    2    0    0  0.00000000000E+00  0.00000000000E+00  0.85251251475E+03  0.11687558742E+04  0.79950778960E+03 0.  0.
        1    1    3    3  502    0 -0.87499185856E+02  0.15497309818E+03  0.94952791367E+03  0.96606212406E+03  0.50400001928E-02 0.  1.
       -1    1    3    3    0  502  0.87499185856E+02 -0.15497309818E+03 -0.97015398918E+02  0.20269375012E+03  0.50400001928E-02 0. -1.
</event>
<event>
 5   0  0.3343036E-02  0.7722438E+03  0.7818609E-02  0.9601085E-01
       -2   -1    0    0    0  501  0.00000000000E+00  0.00000000000E+00  0.14053217443E+03  0.14053217445E+03  0.25500000920E-02 0.  1.
        2   -1    0    0  501    0  0.00000000000E+00  0.00000000000E+00 -0.10608967038E+04  0.10608967038E+04  0.25500000920E-02 0. -1.
    10030    2    1    2    0    0  0.00000000000E+00  0.00000000000E+00 -0.92036452939E+03  0.12014288783E+04  0.77224379738E+03 0.  0.
        4    1    3    3  502    0 -0.10182829521E+02 -0.35594743847E+03 -0.69243563642E+03  0.77863405555E+03  0.12699999809E+01 0.  1.
       -4    1    3    3    0  502  0.10182829521E+02  0.35594743847E+03 -0.22792889297E+03  0.42279482273E+03  0.12699999809E+01 0. -1.
</event>
<event>
 5   0  0.2077795E-02  0.7599948E+03  0.7818609E-02  0.9619799E-01
        1   -1    0    0  501    0  0.00000000000E+00  0.00000000000E+00  0.18950976151E+04  0.18950976152E+04  0.50400001928E-02 0. -1.
       -1   -1    0    0    0  501  0.00000000000E+00  0.00000000000E+00 -0.76195549964E+02  0.76195550131E+02  0.50400001928E-02 0.  1.
    10030    2    1    2    0    0  0.00000000000E+00  0.00000000000E+00  0.18189020652E+04  0.19712931653E+04  0.75999475049E+03 0.  0.
        5    1    3    3  502    0  0.92426221617E+01  0.17191738904E+03  0.30856704455E+02  0.17497211471E+03  0.46999998093E+01 0.  1.
       -5    1    3    3    0  502 -0.92426221617E+01 -0.17191738904E+03  0.17880453607E+04  0.17963210506E+04  0.46999998093E+01 0. -1.
</event>
<event>
 5   0  0.3416160E-02  0.7948677E+03  0.7818609E-02  0.9567476E-01
        2   -1    0    0  501    0  0.00000000000E+00  0.00000000000E+00  0.27820548153E+03  0.27820548154E+03  0.25500000920E-02 0. -1.
       -2   -1    0    0    0  501  0.00000000000E+00  0.00000000000E+00 -0.56775901896E+03  0.56775901897E+03  0.25500000920E-02 0.  1.
    10030    2    1    2    0    0  0.00000000000E+00  0.00000000000E+00 -0.28955353743E+03  0.84596450051E+03  0.79486771546E+03 0.  0.
        1    1    3    3  502    0  0.25642416592E+03 -0.30358058489E+03 -0.15143571792E+03  0.42526145026E+03  0.50400001928E-02 0. -1.
       -1    1    3    3    0  502 -0.25642416592E+03  0.30358058489E+03 -0.13811781952E+03  0.42070305025E+03  0.50400001928E-02 0.  1.
</event>
<event>
 5   0  0.3550586E-02  0.7716416E+03  0.7818609E-02  0.9601997E-01
        2   -1    0    0  501    0  0.00000000000E+00  0.00000000000E+00  0.53475099738E+03  0.53475099739E+03  0.25500000920E-02 0.  1.
       -2   -1    0    0    0  501  0.00000000000E+00  0.00000000000E+00 -0.27836821470E+03  0.27836821471E+03  0.25500000920E-02 0. -1.
    10030    2    1    2    0    0  0.00000000000E+00  0.00000000000E+00  0.25638278269E+03  0.81311921210E+03  0.77164157601E+03 0.  0.
        3    1    3    3  502    0 -0.18602982715E+03  0.74556619429E+02  0.47559726896E+03  0.51609936885E+03  0.10100000352E+00 0.  1.
       -3    1    3    3    0  502  0.18602982715E+03 -0.74556619429E+02 -0.21921448627E+03  0.29701984325E+03  0.10100000352E+00 0. -1.
</event>
<event>
 5   0  0.2132540E-02  0.7952551E+03  0.7818609E-02  0.9566911E-01
        1   -1    0    0  501    0  0.00000000000E+00  0.00000000000E+00  0.21372218506E+03  0.21372218512E+03  0.50400001928E-02 0. -1.
       -1   -1    0    0    0  501  0.00000000000E+00  0.00000000000E+00 -0.73978125500E+03  0.73978125502E+03  0.50400001928E-02 0.  1.
    10030    2    1    2    0    0  0.00000000000E+00  0.00000000000E+00 -0.52605906994E+03  0.95350344014E+03  0.79525509448E+03 0.  0.
        4    1    3    3  502    0 -0.12830154902E+03  0.12276429529E+03 -0.68959680685E+03  0.71209390434E+03  0.12699999809E+01 0.  1.
       -4    1    3    3    0  502  0.12830154902E+03 -0.12276429529E+03  0.16353773692E+03  0.24140953580E+03  0.12699999809E+01 0. -1.
</event>
<event>
 5   0  0.3404132E-02  0.8061442E+03  0.7818609E-02  0.9551166E-01
        2   -1    0    0  501    0  0.00000000000E+00  0.00000000000E+00  0.14935306696E+04  0.14935306696E+04  0.25500000920E-02 0.  1.
       -2   -1    0    0    0  501  0.00000000000E+00  0.00000000000E+00 -0.10878057880E+03  0.10878057883E+03  0.25500000920E-02 0. -1.
    10030    2    1    2    0    0  0.00000000000E+00  0.00000000000E+00  0.13847500908E+04  0.16023112484E+04  0.80614423206E+03 0.  0.
        5    1    3    3  502    0 -0.28553445693E+02 -0.35260347206E+03  0.10762516538E+04  0.11329096257E+04  0.46999998093E+01 0.  1.
       -5    1    3    3    0  502  0.28553445693E+02  0.35260347206E+03  0.30849843699E+03  0.46940162270E+03  0.46999998093E+01 0. -1.
</event>
<event>
 5   0  0.3467240E-02  0.7557949E+03  0.7818609E-02  0.9626303E-01
        2   -1    0    0  501    0  0.00000000000E+00  0.00000000000E+00  0.25437105491E+03  0.25437105493E+03  0.25500000920E-02 0. -1.
       -2   -1    0    0    0  501  0.00000000000E+00  0.00000000000E+00 -0.56141008786E+03  0.56141008786E+03  0.25500000920E-02 0.  1.
    10030    2    1    2    0    0  0.00000000000E+00  0.00000000000E+00 -0.30703903294E+03  0.81578114279E+03  0.75579488301E+03 0.  0.
        2    1    3    3  502    0 -0.18271123438E+03  0.60204709572E+02  0.19756317318E+03  0.27575208000E+03  0.25500000920E-02 0. -1.
       -2    1    3    3    0  502  0.18271123438E+03 -0.60204709572E+02 -0.50460220612E+03  0.54002906278E+03  0.25500000920E-02 0.  1.
</event>
<event>
 5   0  0.3467240E-02  0.7873927E+03  0.7818609E-02  0.9578447E-01
        2   -1    0    0  501    0  0.00000000000E+00  0.00000000000E+00  0.56568375840E+03  0.56568375840E+03  0.25500000920E-02 0.  1.
       -2   -1    0    0    0  501  0.00000000000E+00  0.00000000000E+00 -0.27399906983E+03  0.27399906984E+03  0.25500000920E-02 0. -1.
    10030    2    1    2    0    0  0.00000000000E+00  0.00000000000E+00  0.29168468857E+03  0.83968282824E+03  0.78739271936E+03 0.  0.
        2    1    3    3  502    0  0.76708724213E+02  0.47394673547E+02  0.55452387689E+03  0.56180709634E+03  0.25500000920E-02 0.  1.
       -2    1    3    3    0  502 -0.76708724213E+02 -0.47394673547E+02 -0.26283918833E+03  0.27787573190E+03  0.25500000920E-02 0. -1.
</event>
<event>
 5   0  0.2129257E-02  0.7920742E+03  0.7818609E-02  0.9571561E-01
        1   -1    0    0  501    0  0.00000000000E+00  0.00000000000E+00  0.33963374978E+03  0.33963374982E+03  0.50400001928E-02 0.  1.
       -1   -1    0    0    0  501  0.00000000000E+00  0.00000000000E+00 -0.46180736683E+03  0.46180736685E+03  0.50400001928E-02 0. -1.
    10030    2    1    2    0    0  0.00000000000E+00  0.00000000000E+00 -0.12217361704E+03  0.80144111667E+03  0.79207415738E+03 0.  0.
        3    1    3    3  502    0  0.43972772913E+02  0.15791993869E+03 -0.42586798819E+03  0.45632868128E+03  0.10100000352E+00 0. -1.
       -3    1    3    3    0  502 -0.43972772913E+02 -0.15791993869E+03  0.30369437115E+03  0.34511243539E+03  0.10100000352E+00 0.  1.
</event>
<event>
 5   0  0.2063692E-02  0.8053726E+03  0.7818609E-02  0.9552273E-01
        1   -1    0    0  501    0  0.00000000000E+00  0.00000000000E+00  0.15743808358E+03  0.15743808366E+03  0.50400001928E-02 0. -1.
       -1   -1    0    0    0  501  0.00000000000E+00  0.00000000000E+00 -0.10299683544E+04  0.10299683544E+04  0.50400001928E-02 0.  1.
    10030    2    1    2    0    0  0.00000000000E+00  0.00000000000E+00 -0.87253027084E+03  0.11874064381E+04  0.80537256950E+03 0.  0.
        2    1    3    3  502    0 -0.28201844545E+03 -0.20779351438E+03 -0.72907881735E+03  0.80886863588E+03  0.25500000920E-02 0.  1.
       -2    1    3    3    0  502  0.28201844545E+03  0.20779351438E+03 -0.14345145349E+03  0.37853780222E+03  0.25500000920E-02 0. -1.
</event>
<event>
 5   0  0.3416160E-02  0.8051989E+03  0.7818609E-02  0.9552522E-01
       -2   -1    0    0    0  501  0.00000000000E+00  0.00000000000E+00  0.22693670131E+03  0.22693670132E+03  0.25500000920E-02 0. -1.
        2   -1    0    0  501    0  0.00000000000E+00  0.00000000000E+00 -0.71423588651E+03  0.71423588652E+03  0.25500000920E-02 0.  1.
    10030    2    1    2    0    0  0.00000000000E+00  0.00000000000E+00 -0.48729918520E+03  0.94117258784E+03  0.80519894697E+03 0.  0.
        1    1    3    3  502    0  0.18482401008E+03 -0.23085367214E+03 -0.56297357054E+03  0.63591868489E+03  0.50400001928E-02 0.  1.
       -1    1    3    3    0  502 -0.18482401008E+03  0.23085367214E+03  0.75674385333E+02  0.30525390295E+03  0.50400001928E-02 0. -1.
</event>
<event>
 5   0  0.1358000E-02  0.8229305E+03  0.7818609E-02  0.9527407E-01
       -4   -1    0    0    0  501  0.00000000000E+00  0.00000000000E+00  0.21158312670E+03  0.21158693817E+03  0.12699999809E+01 0.  1.
        4   -1    0    0  501    0  0.00000000000E+00  0.00000000000E+00 -0.80016413054E+03  0.80016513840E+03  0.12699999809E+01 0. -1.
    10030    2    1    2    0    0  0.00000000000E+00  0.00000000000E+00 -0.58858100384E+03  0.10117520766E+04  0.82293053556E+03 0.  0.
        1    1    3    3  502    0 -0.28002058957E+03 -0.24282049469E+03 -0.74599271553E+02  0.37807191719E+03  0.50400001928E-02 0.  1.
       -1    1    3    3    0  502  0.28002058957E+03  0.24282049469E+03 -0.51398173229E+03  0.63368015937E+03  0.50400001928E-02 0. -1.
</event>
<event>
 5   0  0.2077795E-02  0.8403452E+03  0.7818609E-02  0.9503388E-01
       -1   -1    0    0    0  501  0.00000000000E+00  0.00000000000E+00  0.18083806446E+03  0.18083806453E+03  0.50400001928E-02 0.  1.
        1   -1    0    0  501    0  0.00000000000E+00  0.00000000000E+00 -0.97626024553E+03  0.97626024555E+03  0.50400001928E-02 0. -1.
    10030    2    1    2    0    0  0.00000000000E+00  0.00000000000E+00 -0.79542218108E+03  0.11570983101E+04  0.84034519873E+03 0.  0.
        5    1    3    3  502    0 -0.98519154693E+01 -0.20841937069E+03  0.10442045331E+03  0.23336969680E+03  0.46999998093E+01 0.  1.
       -5    1    3    3    0  502  0.98519154693E+01  0.20841937069E+03 -0.89984263439E+03  0.92372861327E+03  0.46999998093E+01 0. -1.
</event>
<event>
 5   0  0.3404132E-02  0.8584894E+03  0.7818609E-02  0.9479013E-01
        2   -1    0    0  501    0  0.00000000000E+00  0.00000000000E+00  0.88527883431E+03  0.88527883431E+03  0.25500000920E-02 0.  1.
       -2   -1    0    0    0  501  0.00000000000E+00  0.00000000000E+00 -0.20812763901E+03  0.20812763903E+03  0.25500000920E-02 0. -1.
    10030    2    1    2    0    0  0.00000000000E+00  0.00000000000E+00  0.67715119529E+03  0.10934064733E+04  0.85848935617E+03 0.  0.
        5    1    3    3  502    0  0.65926864488E+02 -0.15413730369E+03 -0.16467221935E+03  0.23503976190E+03  0.46999998093E+01 0. -1.
       -5    1    3    3    0  502 -0.65926864488E+02  0.15413730369E+03  0.84182341465E+03  0.85836671143E+03  0.46999998093E+01 0.  1.
</event>
<event>
 5   0  0.1358000E-02  0.7962764E+03  0.7818609E-02  0.9565423E-01
        4   -1    0    0  501    0  0.00000000000E+00  0.00000000000E+00  0.86967628277E+03  0.86967721007E+03  0.12699999809E+01 0. -1.
       -4   -1    0    0    0  501  0.00000000000E+00  0.00000000000E+00 -0.18226459191E+03  0.18226901647E+03  0.12699999809E+01 0.  1.
    10030    2    1    2    0    0  0.00000000000E+00  0.00000000000E+00  0.68741169087E+03  0.10519462265E+04  0.79627635328E+03 0.  0.
        3    1    3    3  502    0  0.33374942078E+03 -0.21030993940E+03  0.41478754969E+03  0.57242263063E+03  0.10100000352E+00 0. -1.
       -3    1    3    3    0  502 -0.33374942078E+03  0.21030993940E+03  0.27262414118E+03  0.47952359591E+03  0.10100000352E+00 0.  1.
</event>
<event>
 5   0  0.2129257E-02  0.8054292E+03  0.7818609E-02  0.9552192E-01
       -1   -1    0    0    0  501  0.00000000000E+00  0.00000000000E+00  0.98262244373E+02  0.98262244502E+02  0.50400001928E-02 0.  1.
        1   -1    0    0  501    0  0.00000000000E+00  0.00000000000E+00 -0.16504715552E+04  0.16504715552E+04  0.50400001928E-02 0. -1.
    10030    2    1    2    0    0  0.00000000000E+00  0.00000000000E+00 -0.15522093108E+04  0.17487337997E+04  0.80542917605E+03 0.  0.
        3    1    3    3  502    0  0.34690275827E+03  0.16583950613E+03 -0.10360557294E+04  0.11051044069E+04  0.10100000352E+00 0. -1.
       -3    1    3    3    0  502 -0.34690275827E+03 -0.16583950613E+03 -0.51615358144E+03  0.64362939284E+03  0.10100000352E+00 0.  1.
</event>
<event>
 5   0  0.2129257E-02  0.7988201E+03  0.7818609E-02  0.9561726E-01
       -1   -1    0    0    0  501  0.00000000000E+00  0.00000000000E+00  0.79545154779E+03  0.79545154781E+03  0.50400001928E-02 0. -1.
        1   -1    0    0  501    0  0.00000000000E+00  0.00000000000E+00 -0.20055074277E+03  0.20055074283E+03  0.50400001928E-02 0.  1.
    10030    2    1    2    0    0  0.00000000000E+00  0.00000000000E+00  0.59490080502E+03  0.99600229064E+03  0.79882012690E+03 0.  0.
        3    1    3    3  502    0  0.23322670709E+03 -0.21115289419E+03 -0.93541267479E+01  0.31475030026E+03  0.10100000352E+00 0.  1.
       -3    1    3    3    0  502 -0.23322670709E+03  0.21115289419E+03  0.60425493177E+03  0.68125199038E+03  0.10100000352E+00 0. -1.
</event>
<event>
 5   0  0.3467240E-02  0.7525555E+03  0.7818609E-02  0.9631350E-01
        2   -1    0    0  501    0  0.00000000000E+00  0.00000000000E+00  0.47446290492E+03  0.47446290492E+03  0.25500000920E-02 0. -1.
       -2   -1    0    0    0  501  0.00000000000E+00  0.00000000000E+00 -0.29841097733E+03  0.29841097734E+03  0.25500000920E-02 0.  1.
    10030    2    1    2    0    0  0.00000000000E+00  0.00000000000E+00  0.17605192758E+03  0.77287388227E+03  0.75255548412E+03 0.  0.
        2    1    3    3  502    0 -0.25073876559E+03  0.13539318896E+01  0.37615951280E+03  0.45207050421E+03  0.25500000920E-02 0. -1.
       -2    1    3    3    0  502  0.25073876559E+03 -0.13539318896E+01 -0.20010758522E+03  0.32080337805E+03  0.25500000920E-02 0.  1.
</event>
<event>
 5   0  0.3416160E-02  0.8119383E+03  0.7818609E-02  0.9542896E-01
        2   -1    0    0  501    0  0.00000000000E+00  0.00000000000E+00  0.12430167444E+04  0.12430167444E+04  0.25500000920E-02 0.  1.
       -2   -1    0    0    0  501  0.00000000000E+00  0.00000000000E+00 -0.13258949587E+03  0.13258949589E+03  0.25500000920E-02 0. -1.
    10030    2    1    2    0    0  0.00000000000E+00  0.00000000000E+00  0.11104272486E+04  0.13756062403E+04  0.81193833144E+03 0.  0.
        1    1    3    3  502    0 -0.15229565789E+03 -0.31190058699E+03  0.91194765947E+03  0.97576865968E+03  0.50400001928E-02 0.  1.
       -1    1    3    3    0  502  0.15229565789E+03  0.31190058699E+03  0.19847958909E+03  0.39983758064E+03  0.50400001928E-02 0. -1.
</event>
<event>
 5   0  0.1989298E-02  0.7384972E+03  0.7818609E-02  0.9653571E-01
       -1   -1    0    0    0  501  0.00000000000E+00  0.00000000000E+00  0.12928234606E+03  0.12928234616E+03  0.50400001928E-02 0. -1.
        1   -1    0    0  501    0  0.00000000000E+00  0.00000000000E+00 -0.10546261696E+04  0.10546261696E+04  0.50400001928E-02 0.  1.
    10030    2    1    2    0    0  0.00000000000E+00  0.00000000000E+00 -0.92534382356E+03  0.11839085158E+04  0.73849724574E+03 0.  0.
        1    1    3    3  502    0 -0.13558633572E+03  0.24516127793E+03 -0.84828042645E+03  0.89334617509E+03  0.50400001928E-02 0.  1.
       -1    1    3    3    0  502  0.13558633572E+03 -0.24516127793E+03 -0.77063397108E+02  0.29056234069E+03  0.50400001928E-02 0. -1.
</event>
<event>
 5   0  0.3416160E-02  0.8014969E+03  0.7818609E-02  0.9557853E-01
       -2   -1    0    0    0  501  0.00000000000E+00  0.00000000000E+00  0.22990488321E+03  0.22990488322E+03  0.25500000920E-02 0. -1.
        2   -1    0    0  501    0  0.00000000000E+00  0.00000000000E+00 -0.69854676261E+03  0.69854676262E+03  0.25500000920E-02 0.  1.
    10030    2    1    2    0    0  0.00000000000E+00  0.00000000000E+00 -0.46864187940E+03  0.92845164584E+03  0.80149687930E+03 0.  0.
        1    1    3    3  502    0 -0.24421741497E+03 -0.31190260722E+03 -0.16410707550E+03  0.42878492793E+03  0.50400001928E-02 0.  1.
       -1    1    3    3    0  502  0.24421741497E+03  0.31190260722E+03 -0.30453480391E+03  0.49966671791E+03  0.50400001928E-02 0. -1.
</event>
<event>
 5   0  0.3416160E-02  0.7993578E+03  0.7818609E-02  0.9560947E-01
        2   -1    0    0  501    0  0.00000000000E+00  0.00000000000E+00  0.29716424587E+03  0.29716424588E+03  0.25500000920E-02 0. -1.
       -2   -1    0    0    0  501  0.00000000000E+00  0.00000000000E+00 -0.53755862916E+03  0.53755862916E+03  0.25500000920E-02 0.  1.
    10030    2    1    2    0    0  0.00000000000E+00  0.00000000000E+00 -0.24039438329E+03  0.83472287504E+03  0.79935775383E+03 0.  0.
        1    1    3    3  502    0  0.11003206499E+03 -0.60004665417E+02 -0.51650810363E+03  0.53149622420E+03  0.50400001928E-02 0.  1.
       -1    1    3    3    0  502 -0.11003206499E+03  0.60004665417E+02  0.27611372034E+03  0.30322665085E+03  0.50400001928E-02 0. -1.
</event>
<event>
 5   0  0.3404132E-02  0.7859507E+03  0.7818609E-02  0.9580579E-01
        2   -1    0    0  501    0  0.00000000000E+00  0.00000000000E+00  0.11113083635E+04  0.11113083635E+04  0.25500000920E-02 0. -1.
       -2   -1    0    0    0  501  0.00000000000E+00  0.00000000000E+00 -0.13896199084E+03  0.13896199086E+03  0.25500000920E-02 0.  1.
    10030    2    1    2    0    0  0.00000000000E+00  0.00000000000E+00  0.97234637267E+03  0.12502703544E+04  0.78595069220E+03 0.  0.
        5    1    3    3  502    0  0.30784153151E+03 -0.22107180382E+03  0.32109721819E+03  0.49675412882E+03  0.46999998093E+01 0.  1.
       -5    1    3    3    0  502 -0.30784153151E+03  0.22107180382E+03  0.65124915447E+03  0.75351622555E+03  0.46999998093E+01 0. -1.
</event>
<event>
 5   0  0.3550586E-02  0.8428310E+03  0.7818609E-02  0.9500010E-01
       -2   -1    0    0    0  501  0.00000000000E+00  0.00000000000E+00  0.61841266125E+03  0.61841266126E+03  0.25500000920E-02 0.  1.
        2   -1    0    0  501    0  0.00000000000E+00  0.00000000000E+00 -0.28717235819E+03  0.28717235820E+03  0.25500000920E-02 0. -1.
    10030    2    1    2    0    0  0.00000000000E+00  0.00000000000E+00  0.33124030306E+03  0.90558501946E+03  0.84283099676E+03 0.  0.
        3    1    3    3  502    0  0.47476642548E+02 -0.16855957867E+03 -0.24622699487E+03  0.30214914587E+03  0.10100000352E+00 0. -1.
       -3    1    3    3    0  502 -0.47476642548E+02  0.16855957867E+03  0.57746729793E+03  0.60343587359E+03  0.10100000352E+00 0.  1.
</event>
<event>
 5   0  0.2132540E-02  0.8026651E+03  0.7818609E-02  0.9556167E-01
       -1   -1    0    0    0  501  0.00000000000E+00  0.00000000000E+00  0.35025137153E+03  0.35025137156E+03  0.50400001928E-02 0. -1.
        1   -1    0    0  501    0  0.00000000000E+00  0.00000000000E+00 -0.45986349181E+03  0.45986349184E+03  0.50400001928E-02 0.  1.
    10030    2    1    2    0    0  0.00000000000E+00  0.00000000000E+00 -0.10961212029E+03  0.81011486340E+03  0.80266510762E+03 0.  0.
        4    1    3    3  502    0 -0.31503288678E+01 -0.39831144676E+03 -0.10429453552E+03  0.41175344107E+03  0.12699999809E+01 0.  1.
       -4    1    3    3    0  502  0.31503288678E+01  0.39831144676E+03 -0.53175847614E+01  0.39836142233E+03  0.12699999809E+01 0. -1.
</event>
<event>
 5   0  0.1989298E-02  0.8856327E+03  0.7818609E-02  0.9443722E-01
       -1   -1    0    0    0  501  0.00000000000E+00  0.00000000000E+00  0.20800996325E+03  0.20800996331E+03  0.50400001928E-02 0. -1.
        1   -1    0    0  501    0  0.00000000000E+00  0.00000000000E+00 -0.94267748590E+03  0.94267748592E+03  0.50400001928E-02 0.  1.
    10030    2    1    2    0    0  0.00000000000E+00  0.00000000000E+00 -0.73466752265E+03  0.11506874492E+04  0.88563267610E+03 0.  0.
        1    1    3    3  502    0 -0.32735649353E+03 -0.29146202053E+03 -0.28542815504E+03  0.52305029871E+03  0.50400001928E-02 0. -1.
       -1    1    3    3    0  502  0.32735649353E+03  0.29146202053E+03 -0.44923936761E+03  0.62763715052E+03  0.50400001928E-02 0.  1.
</event>
<event>
 5   0  0.1989298E-02  0.7827755E+03  0.7818609E-02  0.9585289E-01
        1   -1    0    0  501    0  0.00000000000E+00  0.00000000000E+00  0.51590494993E+03  0.51590494996E+03  0.50400001928E-02 0. -1.
       -1   -1    0    0    0  501  0.00000000000E+00  0.00000000000E+00 -0.29692366267E+03  0.29692366271E+03  0.50400001928E-02 0.  1.
    10030    2    1    2    0    0  0.00000000000E+00  0.00000000000E+00  0.21898128726E+03  0.81282861267E+03  0.78277554216E+03 0.  0.
        1    1    3    3  502    0  0.20997917844E+03  0.30517588828E+03 -0.21695869157E+02  0.37107181101E+03  0.50400001928E-02 0.  1.
       -1    1    3    3    0  502 -0.20997917844E+03 -0.30517588828E+03  0.24067715642E+03  0.44175680166E+03  0.50400001928E-02 0. -1.
</event>
<event>
 5   0  0.3404132E-02  0.7886607E+03  0.7818609E-02  0.9576577E-01
       -2   -1    0    0    0  501  0.00000000000E+00  0.00000000000E+00  0.27157535074E+03  0.27157535076E+03  0.25500000920E-02 0.  1.
        2   -1    0    0  501    0  0.00000000000E+00  0.00000000000E+00 -0.57257191641E+03  0.57257191641E+03  0.25500000920E-02 0. -1.
    10030    2    1    2    0    0  0.00000000000E+00  0.00000000000E+00 -0.30099656566E+03  0.84414726717E+03  0.78866068504E+03 0.  0.
        5    1    3    3  502    0  0.46704906066E+02  0.84048019836E+02  0.25880445555E+03  0.27612905334E+03  0.46999998093E+01 0.  1.
       -5    1    3    3    0  502 -0.46704906066E+02 -0.84048019836E+02 -0.55980102121E+03  0.56801821383E+03  0.46999998093E+01 0. -1.
</event>
<event>
 5   0  0.3416160E-02  0.7918723E+03  0.7818609E-02  0.9571857E-01
       -2   -1    0    0    0  501  0.00000000000E+00  0.00000000000E+00  0.57723137359E+03  0.57723137360E+03  0.25500000920E-02 0.  1.
        2   -1    0    0  501    0  0.00000000000E+00  0.00000000000E+00 -0.27158163009E+03  0.27158163010E+03  0.25500000920E-02 0. -1.
    10030    2    1    2    0    0  0.00000000000E+00  0.00000000000E+00  0.30564974351E+03  0.84881300370E+03  0.79187230633E+03 0.  0.
        1    1    3    3  502    0  0.68359525287E+01 -0.89336237965E+02 -0.26057226461E+03  0.27554600119E+03  0.50400001928E-02 0. -1.
       -1    1    3    3    0  502 -0.68359525287E+01  0.89336237965E+02  0.56622200812E+03  0.57326700251E+03  0.50400001928E-02 0.  1.
</event>
<event>
 5   0  0.2129257E-02  0.8107631E+03  0.7818609E-02  0.9544567E-01
        1   -1    0    0  501    0  0.00000000000E+00  0.00000000000E+00  0.87762295970E+03  0.87762295972E+03  0.50400001928E-02 0. -1.
       -1   -1    0    0    0  501  0.00000000000E+00  0.00000000000E+00 -0.18724919343E+03  0.18724919349E+03  0.50400001928E-02 0.  1.
    10030    2    1    2    0    0  0.00000000000E+00  0.00000000000E+00  0.69037376628E+03  0.10648721532E+04  0.81076307607E+03 0.  0.
        3    1    3    3  502    0 -0.11320686513E+03 -0.34170738827E+03  0.59004172927E+03  0.69117941664E+03  0.10100000352E+00 0. -1.
       -3    1    3    3    0  502  0.11320686513E+03  0.34170738827E+03  0.10033203701E+03  0.37369273657E+03  0.10100000352E+00 0.  1.
</event>
<event>
 5   0  0.2129257E-02  0.6990723E+03  0.7818609E-02  0.9718820E-01
       -1   -1    0    0    0  501  0.00000000000E+00  0.00000000000E+00  0.38579878301E+03  0.38579878305E+03  0.50400001928E-02 0.  1.
        1   -1    0    0  501    0  0.00000000000E+00  0.00000000000E+00 -0.31668193476E+03  0.31668193480E+03  0.50400001928E-02 0. -1.
    10030    2    1    2    0    0  0.00000000000E+00  0.00000000000E+00  0.69116848252E+02  0.70248071785E+03  0.69907225681E+03 0.  0.
        3    1    3    3  502    0 -0.63475324439E+02  0.21184196286E+02 -0.31018513333E+03  0.31732115297E+03  0.10100000352E+00 0. -1.
       -3    1    3    3    0  502  0.63475324439E+02 -0.21184196286E+02  0.37930198158E+03  0.38515956488E+03  0.10100000352E+00 0.  1.
</event>
<event>
 5   0  0.3416160E-02  0.8040782E+03  0.7818609E-02  0.9554133E-01
       -2   -1    0    0    0  501  0.00000000000E+00  0.00000000000E+00  0.11117869738E+03  0.11117869741E+03  0.25500000920E-02 0.  1.
        2   -1    0    0  501    0  0.00000000000E+00  0.00000000000E+00 -0.14538346322E+04  0.14538346322E+04  0.25500000920E-02 0. -1.
    10030    2    1    2    0    0  0.00000000000E+00  0.00000000000E+00 -0.13426559348E+04  0.15650133296E+04  0.80407820673E+03 0.  0.
        1    1    3    3  502    0  0.27429258859E+03 -0.14625805908E+03 -0.11675794354E+04  0.12082506288E+04  0.50400001928E-02 0. -1.
       -1    1    3    3    0  502 -0.27429258859E+03  0.14625805908E+03 -0.17507649938E+03  0.35676270077E+03  0.50400001928E-02 0.  1.
</event>
<event>
 5   0  0.1989298E-02  0.8157439E+03  0.7818609E-02  0.9537504E-01
       -1   -1    0    0    0  501  0.00000000000E+00  0.00000000000E+00  0.11275551956E+03  0.11275551967E+03  0.50400001928E-02 0.  1.
        1   -1    0    0  501    0  0.00000000000E+00  0.00000000000E+00 -0.14754001998E+04  0.14754001998E+04  0.50400001928E-02 0. -1.
    10030    2    1    2    0    0  0.00000000000E+00  0.00000000000E+00 -0.13626446802E+04  0.15881557195E+04  0.81574387200E+03 0.  0.
        1    1    3    3  502    0  0.71212460171E+02  0.13781011834E+03  0.53084369473E+02  0.16395363219E+03  0.50400001928E-02 0.  1.
       -1    1    3    3    0  502 -0.71212460171E+02 -0.13781011834E+03 -0.14157290497E+04  0.14242020873E+04  0.50400001928E-02 0. -1.
</event>
<event>
 5   0  0.2063692E-02  0.8051477E+03  0.7818609E-02  0.9552596E-01
       -1   -1    0    0    0  501  0.00000000000E+00  0.00000000000E+00  0.29144493365E+03  0.29144493369E+03  0.50400001928E-02 0. -1.
        1   -1    0    0  501    0  0.00000000000E+00  0.00000000000E+00 -0.55607661427E+03  0.55607661429E+03  0.50400001928E-02 0.  1.
    10030    2    1    2    0    0  0.00000000000E+00  0.00000000000E+00 -0.26463168062E+03  0.84752154798E+03  0.80514771806E+03 0.  0.
        2    1    3    3  502    0  0.82763796333E+02 -0.62038757998E+02  0.27721901298E+03  0.29588686122E+03  0.25500000920E-02 0. -1.
       -2    1    3    3    0  502 -0.82763796333E+02  0.62038757998E+02 -0.54185069360E+03  0.55163468676E+03  0.25500000920E-02 0.  1.
</event>
<event>
 5   0  0.2132540E-02  0.7734737E+03  0.7818609E-02  0.9599227E-01
        1   -1    0    0  501    0  0.00000000000E+00  0.00000000000E+00  0.85095240973E+03  0.85095240974E+03  0.50400001928E-02 0.  1.
       -1   -1    0    0    0  501  0.00000000000E+00  0.00000000000E+00 -0.17576233186E+03  0.17576233194E+03  0.50400001928E-02 0. -1.
    10030    2    1    2    0    0  0.00000000000E+00  0.00000000000E+00  0.67519007786E+03  0.10267147417E+04  0.77347367087E+03 0.  0.
        4    1    3    3  502    0  0.65064809715E+01  0.37793554746E+02 -0.17322937511E+03  0.17742805972E+03  0.12699999809E+01 0. -1.
       -4    1    3    3    0  502 -0.65064809715E+01 -0.37793554746E+02  0.84841945297E+03  0.84928668196E+03  0.12699999809E+01 0.  1.
</event>
<event>
 5   0  0.2063692E-02  0.7043870E+03  0.7818609E-02  0.9709759E-01
       -1   -1    0    0    0  501  0.00000000000E+00  0.00000000000E+00  0.27161896522E+03  0.27161896527E+03  0.50400001928E-02 0. -1.
        1   -1    0    0  501    0  0.00000000000E+00  0.00000000000E+00 -0.45667008235E+03  0.45667008238E+03  0.50400001928E-02 0.  1.
    10030    2    1    2    0    0  0.00000000000E+00  0.00000000000E+00 -0.18505111712E+03  0.72828904765E+03  0.70438698240E+03 0.  0.
        2    1    3    3  502    0  0.25475484289E+03 -0.76686925137E+02 -0.33113649816E+03  0.42477322760E+03  0.25500000920E-02 0.  1.
       -2    1    3    3    0  502 -0.25475484289E+03  0.76686925137E+02  0.14608538103E+03  0.30351582005E+03  0.25500000920E-02 0. -1.
</event>
<event>
 5   0  0.1989298E-02  0.8070254E+03  0.7818609E-02  0.9549903E-01
       -1   -1    0    0    0  501  0.00000000000E+00  0.00000000000E+00  0.12422352241E+03  0.12422352251E+03  0.50400001928E-02 0. -1.
        1   -1    0    0  501    0  0.00000000000E+00  0.00000000000E+00 -0.13107219583E+04  0.13107219583E+04  0.50400001928E-02 0.  1.
    10030    2    1    2    0    0  0.00000000000E+00  0.00000000000E+00 -0.11864984359E+04  0.14349454808E+04  0.80702539896E+03 0.  0.
        1    1    3    3  502    0  0.24579598733E+03  0.30429967485E+03 -0.76934557098E+03  0.86307969917E+03  0.50400001928E-02 0.  1.
       -1    1    3    3    0  502 -0.24579598733E+03 -0.30429967485E+03 -0.41715286490E+03  0.57186578164E+03  0.50400001928E-02 0. -1.
</event>
<event>
 5   0  0.2129257E-02  0.7831648E+03  0.7818609E-02  0.9584710E-01
       -1   -1    0    0    0  501  0.00000000000E+00  0.00000000000E+00  0.58714373270E+03  0.58714373272E+03  0.50400001928E-02 0. -1.
        1   -1    0    0  501    0  0.00000000000E+00  0.00000000000E+00 -0.26115713220E+03  0.26115713224E+03  0.50400001928E-02 0.  1.
    10030    2    1    2    0    0  0.00000000000E+00  0.00000000000E+00  0.32598660051E+03  0.84830086497E+03  0.78316479351E+03 0.  0.
        3    1    3    3  502    0 -0.53203522560E+02 -0.37178976173E+03  0.42968831726E+02  0.37802721124E+03  0.10100000352E+00 0.  1.
       -3    1    3    3    0  502  0.53203522560E+02  0.37178976173E+03  0.28301776878E+03  0.47027365372E+03  0.10100000352E+00 0. -1.
</event>
<event>
 5   0  0.2132540E-02  0.7990972E+03  0.7818609E-02  0.9561325E-01
       -1   -1    0    0    0  501  0.00000000000E+00  0.00000000000E+00  0.11670403515E+04  0.11670403515E+04  0.50400001928E-02 0.  1.
        1   -1    0    0  501    0  0.00000000000E+00  0.00000000000E+00 -0.13678968670E+03  0.13678968679E+03  0.50400001928E-02 0. -1.
    10030    2    1    2    0    0  0.00000000000E+00  0.00000000000E+00  0.10302506648E+04  0.13038300383E+04  0.79909720087E+03 0.  0.
        4    1    3    3  502    0  0.30022331979E+02  0.22350576462E+03 -0.23018668397E+02  0.22668841883E+03  0.12699999809E+01 0. -1.
       -4    1    3    3    0  502 -0.30022331979E+02 -0.22350576462E+03  0.10532693332E+04  0.10771416195E+04  0.12699999809E+01 0.  1.
</event>
<event>
 5   0  0.3550586E-02  0.8040621E+03  0.7818609E-02  0.9554156E-01
       -2   -1    0    0    0  501  0.00000000000E+00  0.00000000000E+00  0.28987234106E+03  0.28987234107E+03  0.25500000920E-02 0. -1.
        2   -1    0    0  501    0  0.00000000000E+00  0.00000000000E+00 -0.55758675002E+03  0.55758675002E+03  0.25500000920E-02 0.  1.
    10030    2    1    2    0    0  0.00000000000E+00  0.00000000000E+00 -0.26771440896E+03  0.84745909109E+03  0.80406212839E+03 0.  0.
        3    1    3    3  502    0  0.24231406006E+03 -0.32020992910E+03 -0.11335307142E+03  0.41725223954E+03  0.10100000352E+00 0. -1.
       -3    1    3    3    0  502 -0.24231406006E+03  0.32020992910E+03 -0.15436133754E+03  0.43020685156E+03  0.10100000352E+00 0.  1.
</event>
<event>
 5   0  0.2063692E-02  0.8067435E+03  0.7818609E-02  0.9550307E-01
       -1   -1    0    0    0  501  0.00000000000E+00  0.00000000000E+00  0.11341937677E+03  0.11341937688E+03  0.50400001928E-02 0.  1.
        1   -1    0    0  501    0  0.00000000000E+00  0.00000000000E+00 -0.14345762897E+04  0.14345762897E+04  0.50400001928E-02 0. -1.
    10030    2    1    2    0    0  0.00000000000E+00  0.00000000000E+00 -0.13211569129E+04  0.15479956666E+04  0.80674345068E+03 0.  0.
        2    1    3    3  502    0  0.20816455409E+03  0.59728936820E+02 -0.75908697160E+01  0.21669713607E+03  0.25500000920E-02 0.  1.
       -2    1    3    3    0  502 -0.20816455409E+03 -0.59728936820E+02 -0.13135660432E+04  0.13312985305E+04  0.25500000920E-02 0. -1.
</event>
<event>
 5   0  0.2129257E-02  0.8059321E+03  0.7818609E-02  0.9551470E-01
        1   -1    0    0  501    0  0.00000000000E+00  0.00000000000E+00  0.62393264107E+03  0.62393264109E+03  0.50400001928E-02 0. -1.
       -1   -1    0    0    0  501  0.00000000000E+00  0.00000000000E+00 -0.26025506204E+03  0.26025506209E+03  0.50400001928E-02 0.  1.
    10030    2    1    2    0    0  0.00000000000E+00  0.00000000000E+00  0.36367757903E+03  0.88418770318E+03  0.80593207714E+03 0.  0.
        3    1    3    3  502    0 -0.10748182117E+03 -0.33154667451E+03  0.40372992587E+03  0.53336048082E+03  0.10100000352E+00 0. -1.
       -3    1    3    3    0  502  0.10748182117E+03  0.33154667451E+03 -0.40052346838E+02  0.35082722236E+03  0.10100000352E+00 0.  1.
</event>
<event>
 5   0  0.1358000E-02  0.7890678E+03  0.7818609E-02  0.9575977E-01
        4   -1    0    0  501    0  0.00000000000E+00  0.00000000000E+00  0.65864251958E+03  0.65864374399E+03  0.12699999809E+01 0. -1.
       -4   -1    0    0    0  501  0.00000000000E+00  0.00000000000E+00 -0.23632683885E+03  0.23633025126E+03  0.12699999809E+01 0.  1.
    10030    2    1    2    0    0  0.00000000000E+00  0.00000000000E+00  0.42231568073E+03  0.89497399525E+03  0.78906775246E+03 0.  0.
        3    1    3    3  502    0  0.90917643438E+02 -0.36514311073E+03  0.76661232642E+02  0.38402143689E+03  0.10100000352E+00 0.  1.
       -3    1    3    3    0  502 -0.90917643438E+02  0.36514311073E+03  0.34565444809E+03  0.51095255836E+03  0.10100000352E+00 0. -1.
</event>
<event>
 5   0  0.3416160E-02  0.7926119E+03  0.7818609E-02  0.9570773E-01
        2   -1    0    0  501    0  0.00000000000E+00  0.00000000000E+00  0.63922588595E+03  0.63922588596E+03  0.25500000920E-02 0. -1.
       -2   -1    0    0    0  501  0.00000000000E+00  0.00000000000E+00 -0.24570096001E+03  0.24570096003E+03  0.25500000920E-02 0.  1.
    10030    2    1    2    0    0  0.00000000000E+00  0.00000000000E+00  0.39352492594E+03  0.88492684599E+03  0.79261191980E+03 0.  0.
        1    1    3    3  502    0 -0.14052185308E+03  0.81768203256E+02  0.60027920460E+03  0.62190638665E+03  0.50400001928E-02 0. -1.
       -1    1    3    3    0  502  0.14052185308E+03 -0.81768203256E+02 -0.20675427866E+03  0.26302045933E+03  0.50400001928E-02 0.  1.
</event>
<event>
 5   0  0.1358000E-02  0.7026284E+03  0.7818609E-02  0.9712748E-01
        3   -1    0    0  501    0  0.00000000000E+00  0.00000000000E+00  0.79508418989E+03  0.79508419631E+03  0.10100000352E+00 0.  1.
       -3   -1    0    0    0  501  0.00000000000E+00  0.00000000000E+00 -0.15523089914E+03  0.15523093200E+03  0.10100000352E+00 0. -1.
    10030    2    1    2    0    0  0.00000000000E+00  0.00000000000E+00  0.63985329075E+03  0.95031512831E+03  0.70262835795E+03 0.  0.
        3    1    3    3  502    0  0.22389870348E+03 -0.12834679394E+03 -0.24661834744E+01  0.25808839803E+03  0.10100000352E+00 0. -1.
       -3    1    3    3    0  502 -0.22389870348E+03  0.12834679394E+03  0.64231947423E+03  0.69222673027E+03  0.10100000352E+00 0.  1.
</event>
<event>
 5   0  0.1989298E-02  0.6772691E+03  0.7818609E-02  0.9756915E-01
       -1   -1    0    0    0  501  0.00000000000E+00  0.00000000000E+00  0.49249195713E+03  0.49249195715E+03  0.50400001928E-02 0.  1.
        1   -1    0    0  501    0  0.00000000000E+00  0.00000000000E+00 -0.23284311719E+03  0.23284311724E+03  0.50400001928E-02 0. -1.
    10030    2    1    2    0    0  0.00000000000E+00  0.00000000000E+00  0.25964883994E+03  0.72533507439E+03  0.67726911199E+03 0.  0.
        1    1    3    3  502    0  0.50141696445E+02 -0.29212248222E+03  0.30522707764E+03  0.42545658214E+03  0.50400001928E-02 0.  1.
       -1    1    3    3    0  502 -0.50141696445E+02  0.29212248222E+03 -0.45578237700E+02  0.29987849225E+03  0.50400001928E-02 0. -1.
</event>
<event>
 5   0  0.3467240E-02  0.7967105E+03  0.7818609E-02  0.9564791E-01
       -2   -1    0    0    0  501  0.00000000000E+00  0.00000000000E+00  0.40261559786E+03  0.40261559787E+03  0.25500000920E-02 0. -1.
        2   -1    0    0  501    0  0.00000000000E+00  0.00000000000E+00 -0.39413994645E+03  0.39413994646E+03  0.25500000920E-02 0.  1.
    10030    2    1    2    0    0  0.00000000000E+00  0.00000000000E+00  0.84756514125E+01  0.79675554433E+03  0.79671046231E+03 0.  0.
        2    1    3    3  502    0  0.13300301551E+03  0.29789176598E+03  0.23284993821E+03  0.40080968065E+03  0.25500000920E-02 0. -1.
       -2    1    3    3    0  502 -0.13300301551E+03 -0.29789176598E+03 -0.22437428680E+03  0.39594586367E+03  0.25500000920E-02 0.  1.
</event>
<event>
 5   0  0.2077795E-02  0.7980234E+03  0.7818609E-02  0.9562883E-01
       -1   -1    0    0    0  501  0.00000000000E+00  0.00000000000E+00  0.59728090354E+03  0.59728090356E+03  0.50400001928E-02 0.  1.
        1   -1    0    0  501    0  0.00000000000E+00  0.00000000000E+00 -0.26655853077E+03  0.26655853082E+03  0.50400001928E-02 0. -1.
    10030    2    1    2    0    0  0.00000000000E+00  0.00000000000E+00  0.33072237277E+03  0.86383943438E+03  0.79802335839E+03 0.  0.
        5    1    3    3  502    0  0.10071063927E+03 -0.28865447730E+03 -0.11214971211E+03  0.32567420539E+03  0.46999998093E+01 0.  1.
       -5    1    3    3    0  502 -0.10071063927E+03  0.28865447730E+03  0.44287208488E+03  0.53816522899E+03  0.46999998093E+01 0. -1.
</event>
<event>
 5   0  0.2132540E-02  0.8101407E+03  0.7818609E-02  0.9545454E-01
        1   -1    0    0  501    0  0.00000000000E+00  0.00000000000E+00  0.22339240003E+03  0.22339240008E+03  0.50400001928E-02 0. -1.
       -1   -1    0    0    0  501  0.00000000000E+00  0.00000000000E+00 -0.73450117749E+03  0.73450117750E+03  0.50400001928E-02 0.  1.
    10030    2    1    2    0    0  0.00000000000E+00  0.00000000000E+00 -0.51110877746E+03  0.95789357759E+03  0.81014068136E+03 0.  0.
        4    1    3    3  502    0 -0.54684211267E+02 -0.18172483085E+03 -0.67868446588E+03  0.70471873413E+03  0.12699999809E+01 0.  1.
       -4    1    3    3    0  502  0.54684211267E+02  0.18172483085E+03  0.16757568842E+03  0.25317484345E+03  0.12699999809E+01 0. -1.
</event>
<event>
 5   0  0.2129257E-02  0.7967700E+03  0.7818609E-02  0.9564704E-01
       -1   -1    0    0    0  501  0.00000000000E+00  0.00000000000E+00  0.12630357513E+03  0.12630357523E+03  0.50400001928E-02 0.  1.
        1   -1    0    0  501    0  0.00000000000E+00  0.00000000000E+00 -0.12565803779E+04  0.12565803779E+04  0.50400001928E-02 0. -1.
    10030    2    1    2    0    0  0.00000000000E+00  0.00000000000E+00 -0.11302768028E+04  0.13828839532E+04  0.79676996492E+03 0.  0.
        3    1    3    3  502    0 -0.61046086991E+01  0.18908784655E+03  0.43364251133E+02  0.19409262850E+03  0.10100000352E+00 0.  1.
       -3    1    3    3    0  502  0.61046086991E+01 -0.18908784655E+03 -0.11736410539E+04  0.11887913247E+04  0.10100000352E+00 0. -1.
</event>
<event>
 5   0  0.1358000E-02  0.8027499E+03  0.7818609E-02  0.9556045E-01
       -3   -1    0    0    0  501  0.00000000000E+00  0.00000000000E+00  0.14729603179E+03  0.14729606642E+03  0.10100000352E+00 0.  1.
        3   -1    0    0  501    0  0.00000000000E+00  0.00000000000E+00 -0.10937282493E+04  0.10937282539E+04  0.10100000352E+00 0. -1.
    10030    2    1    2    0    0  0.00000000000E+00  0.00000000000E+00 -0.94643221746E+03  0.12410243203E+04  0.80274991213E+03 0.  0.
        1    1    3    3  502    0 -0.37157150087E+03  0.14229425714E+03 -0.39157474968E+03  0.55825067889E+03  0.50400001928E-02 0.  1.
       -1    1    3    3    0  502  0.37157150087E+03 -0.14229425714E+03 -0.55485746778E+03  0.68277364145E+03  0.50400001928E-02 0. -1.
</event>
<event>
 5   0  0.3550586E-02  0.8116879E+03  0.7818609E-02  0.9543252E-01
        2   -1    0    0  501    0  0.00000000000E+00  0.00000000000E+00  0.47141480001E+03  0.47141480002E+03  0.25500000920E-02 0.  1.
       -2   -1    0    0    0  501  0.00000000000E+00  0.00000000000E+00 -0.34939359829E+03  0.34939359830E+03  0.25500000920E-02 0. -1.
    10030    2    1    2    0    0  0.00000000000E+00  0.00000000000E+00  0.12202120172E+03  0.82080839832E+03  0.81168790375E+03 0.  0.
        3    1    3    3  502    0  0.30578841360E+02  0.13975368788E+03 -0.32305048710E+03  0.35330975960E+03  0.10100000352E+00 0. -1.
       -3    1    3    3    0  502 -0.30578841360E+02 -0.13975368788E+03  0.44507168882E+03  0.46749863872E+03  0.10100000352E+00 0.  1.
</event>
<event>
 5   0  0.3343036E-02  0.7996995E+03  0.7818609E-02  0.9560452E-01
       -2   -1    0    0    0  501  0.00000000000E+00  0.00000000000E+00  0.32882769747E+03  0.32882769748E+03  0.25500000920E-02 0. -1.
        2   -1    0    0  501    0  0.00000000000E+00  0.00000000000E+00 -0.48621160376E+03  0.48621160377E+03  0.25500000920E-02 0.  1.
    10030    2    1    2    0    0  0.00000000000E+00  0.00000000000E+00 -0.15738390630E+03  0.81503930124E+03  0.79969954896E+03 0.  0.
        4    1    3    3  502    0  0.30993729137E+03  0.24645770616E+03 -0.13521479000E+03  0.41843419774E+03  0.12699999809E+01 0.  1.
       -4    1    3    3    0  502 -0.30993729137E+03 -0.24645770616E+03 -0.22169116301E+02  0.39660510350E+03  0.12699999809E+01 0. -1.
</event>
<event>
 5   0  0.2132540E-02  0.8021595E+03  0.7818609E-02  0.9556897E-01
        1   -1    0    0  501    0  0.00000000000E+00  0.00000000000E+00  0.10781353633E+04  0.10781353633E+04  0.50400001928E-02 0.  1.
       -1   -1    0    0    0  501  0.00000000000E+00  0.00000000000E+00 -0.14920666758E+03  0.14920666767E+03  0.50400001928E-02 0. -1.
    10030    2    1    2    0    0  0.00000000000E+00  0.00000000000E+00  0.92892869573E+03  0.12273420310E+04  0.80215954727E+03 0.  0.
        4    1    3    3  502    0  0.26333467609E+03  0.29209470581E+03  0.58492973344E+03  0.70484670302E+03  0.12699999809E+01 0.  1.
       -4    1    3    3    0  502 -0.26333467609E+03 -0.29209470581E+03  0.34399896228E+03  0.52249532797E+03  0.12699999809E+01 0. -1.
</event>
<event>
 5   0  0.2077795E-02  0.8009300E+03  0.7818609E-02  0.9558672E-01
        1   -1    0    0  501    0  0.00000000000E+00  0.00000000000E+00  0.15476517716E+04  0.15476517716E+04  0.50400001928E-02 0. -1.
       -1   -1    0    0    0  501  0.00000000000E+00  0.00000000000E+00 -0.10362293567E+03  0.10362293579E+03  0.50400001928E-02 0.  1.
    10030    2    1    2    0    0  0.00000000000E+00  0.00000000000E+00  0.14440288359E+04  0.16512747074E+04  0.80093000960E+03 0.  0.
        5    1    3    3  502    0  0.34896759697E+03 -0.13890976094E+03  0.10082550262E+04  0.10759528768E+04  0.46999998093E+01 0. -1.
       -5    1    3    3    0  502 -0.34896759697E+03  0.13890976094E+03  0.43577380972E+03  0.57532183050E+03  0.46999998093E+01 0.  1.
</event>
<event>
 5   0  0.3550586E-02  0.8078718E+03  0.7818609E-02  0.9548692E-01
       -2   -1    0    0    0  501  0.00000000000E+00  0.00000000000E+00  0.24516655793E+03  0.24516655794E+03  0.25500000920E-02 0.  1.
        2   -1    0    0  501    0  0.00000000000E+00  0.00000000000E+00 -0.66552385770E+03  0.66552385770E+03  0.25500000920E-02 0. -1.
    10030    2    1    2    0    0  0.00000000000E+00  0.00000000000E+00 -0.42035729977E+03  0.91069041564E+03  0.80787175571E+03 0.  0.
        3    1    3    3  502    0 -0.19090577403E+03 -0.28716252530E+03 -0.44732617913E+03  0.56480797731E+03  0.10100000352E+00 0. -1.
       -3    1    3    3    0  502  0.19090577403E+03  0.28716252530E+03  0.26968879358E+02  0.34588243833E+03  0.10100000352E+00 0.  1.
</event>
<event>
 5   0  0.2132540E-02  0.7916273E+03  0.7818609E-02  0.9572216E-01
        1   -1    0    0  501    0  0.00000000000E+00  0.00000000000E+00  0.88352048543E+03  0.88352048544E+03  0.50400001928E-02 0. -1.
       -1   -1    0    0    0  501  0.00000000000E+00  0.00000000000E+00 -0.17732294285E+03  0.17732294292E+03  0.50400001928E-02 0.  1.
    10030    2    1    2    0    0  0.00000000000E+00  0.00000000000E+00  0.70619754258E+03  0.10608434284E+04  0.79162731785E+03 0.  0.
        4    1    3    3  502    0 -0.17687459501E+03 -0.35363106845E+03  0.37734216471E+03  0.54656040572E+03  0.12699999809E+01 0.  1.
       -4    1    3    3    0  502  0.17687459501E+03  0.35363106845E+03  0.32885537787E+03  0.51428302265E+03  0.12699999809E+01 0. -1.
</event>
<event>
 5   0  0.3550586E-02  0.7497316E+03  0.7818609E-02  0.9635772E-01
       -2   -1    0    0    0  501  0.00000000000E+00  0.00000000000E+00  0.71711076978E+02  0.71711077023E+02  0.25500000920E-02 0.  1.
        2   -1    0    0  501    0  0.00000000000E+00  0.00000000000E+00 -0.19595906893E+04  0.19595906893E+04  0.25500000920E-02 0. -1.
    10030    2    1    2    0    0  0.00000000000E+00  0.00000000000E+00 -0.18878796123E+04  0.20313017663E+04  0.74973157546E+03 0.  0.
        3    1    3    3  502    0 -0.80681006358E+01 -0.35463744815E+02 -0.19547991324E+04  0.19551374452E+04  0.10100000352E+00 0. -1.
       -3    1    3    3    0  502  0.80681006358E+01  0.35463744815E+02  0.66919520070E+02  0.76164321119E+02  0.10100000352E+00 0.  1.
</event>
<event>
 5   0  0.2077795E-02  0.8075821E+03  0.7818609E-02  0.9549107E-01
       -1   -1    0    0    0  501  0.00000000000E+00  0.00000000000E+00  0.14544642755E+03  0.14544642764E+03  0.50400001928E-02 0.  1.
        1   -1    0    0  501    0  0.00000000000E+00  0.00000000000E+00 -0.11210122332E+04  0.11210122332E+04  0.50400001928E-02 0. -1.
    10030    2    1    2    0    0  0.00000000000E+00  0.00000000000E+00 -0.97556580562E+03  0.12664586608E+04  0.80758213111E+03 0.  0.
        5    1    3    3  502    0  0.16693921350E+03 -0.29143453276E+03 -0.83922422030E+03  0.90394810129E+03  0.46999998093E+01 0. -1.
       -5    1    3    3    0  502 -0.16693921350E+03  0.29143453276E+03 -0.13634158532E+03  0.36251055954E+03  0.46999998093E+01 0.  1.
</event>
<event>
 5   0  0.2063692E-02  0.6401842E+03  0.7818609E-02  0.9825374E-01
        1   -1    0    0  501    0  0.00000000000E+00  0.00000000000E+00  0.20967883427E+04  0.20967883427E+04  0.50400001928E-02 0.  1.
       -1   -1    0    0    0  501  0.00000000000E+00  0.00000000000E+00 -0.48864712855E+02  0.48864713115E+02  0.50400001928E-02 0. -1.
    10030    2    1    2    0    0  0.00000000000E+00  0.00000000000E+00  0.20479236298E+04  0.21456530558E+04  0.64018422526E+03 0.  0.
        2    1    3    3  502    0  0.18189864302E+03 -0.12641369022E+03  0.24951735102E+03  0.33365617913E+03  0.25500000920E-02 0. -1.
       -2    1    3    3    0  502 -0.18189864302E+03  0.12641369022E+03  0.17984062788E+04  0.18119968767E+04  0.25500000920E-02 0.  1.
</event>
<event>
 5   0  0.3404132E-02  0.7783241E+03  0.7818609E-02  0.9591933E-01
       -2   -1    0    0    0  501  0.00000000000E+00  0.00000000000E+00  0.14269676127E+03  0.14269676129E+03  0.25500000920E-02 0.  1.
        2   -1    0    0  501    0  0.00000000000E+00  0.00000000000E+00 -0.10613212197E+04  0.10613212197E+04  0.25500000920E-02 0. -1.
    10030    2    1    2    0    0  0.00000000000E+00  0.00000000000E+00 -0.91862445848E+03  0.12040179810E+04  0.77832409891E+03 0.  0.
        5    1    3    3  502    0  0.99200005114E+02 -0.84626970280E+02  0.10785184630E+03  0.16928223729E+03  0.46999998093E+01 0.  1.
       -5    1    3    3    0  502 -0.99200005114E+02  0.84626970280E+02 -0.10264763048E+04  0.10347357437E+04  0.46999998093E+01 0. -1.
</event>
<event>
 5   0  0.1989298E-02  0.8043866E+03  0.7818609E-02  0.9553689E-01
        1   -1    0    0  501    0  0.00000000000E+00  0.00000000000E+00  0.11830201023E+04  0.11830201023E+04  0.50400001928E-02 0.  1.
       -1   -1    0    0    0  501  0.00000000000E+00  0.00000000000E+00 -0.13673431339E+03  0.13673431348E+03  0.50400001928E-02 0. -1.
    10030    2    1    2    0    0  0.00000000000E+00  0.00000000000E+00  0.10462857889E+04  0.13197544158E+04  0.80438657743E+03 0.  0.
        1    1    3    3  502    0  0.42959841091E+01  0.26134169354E+03  0.21611387108E+02  0.26226892370E+03  0.50400001928E-02 0. -1.
       -1    1    3    3    0  502 -0.42959841091E+01 -0.26134169354E+03  0.10246744018E+04  0.10574854921E+04  0.50400001928E-02 0.  1.
</event>
<event>
 5   0  0.1989298E-02  0.7781194E+03  0.7818609E-02  0.9592240E-01
       -1   -1    0    0    0  501  0.00000000000E+00  0.00000000000E+00  0.14865798820E+03  0.14865798829E+03  0.50400001928E-02 0.  1.
        1   -1    0    0  501    0  0.00000000000E+00  0.00000000000E+00 -0.10182261541E+04  0.10182261542E+04  0.50400001928E-02 0. -1.
    10030    2    1    2    0    0  0.00000000000E+00  0.00000000000E+00 -0.86956816594E+03  0.11668841424E+04  0.77811940386E+03 0.  0.
        1    1    3    3  502    0 -0.17111225372E+02 -0.21874397393E+03  0.47025548190E+02  0.22439501414E+03  0.50400001928E-02 0.  1.
       -1    1    3    3    0  502  0.17111225372E+02  0.21874397393E+03 -0.91659371413E+03  0.94248912830E+03  0.50400001928E-02 0. -1.
</event>
<event>
 5   0  0.3550586E-02  0.7555116E+03  0.7818609E-02  0.9626743E-01
        2   -1    0    0  501    0  0.00000000000E+00  0.00000000000E+00  0.10649498118E+04  0.10649498118E+04  0.25500000920E-02 0.  1.
       -2   -1    0    0    0  501  0.00000000000E+00  0.00000000000E+00 -0.13399640723E+03  0.13399640725E+03  0.25500000920E-02 0. -1.
    10030    2    1    2    0    0  0.00000000000E+00  0.00000000000E+00  0.93095340457E+03  0.11989462191E+04  0.75551161123E+03 0.  0.
        3    1    3    3  502    0  0.21072131533E+03  0.28861592981E+03  0.65981483048E+03  0.75037207330E+03  0.10100000352E+00 0.  1.
       -3    1    3    3    0  502 -0.21072131533E+03 -0.28861592981E+03  0.27113857410E+03  0.44857414575E+03  0.10100000352E+00 0. -1.
</event>
<event>
 5   0  0.2132540E-02  0.7987647E+03  0.7818609E-02  0.9561807E-01
        1   -1    0    0  501    0  0.00000000000E+00  0.00000000000E+00  0.39736113493E+03  0.39736113496E+03  0.50400001928E-02 0.  1.
       -1   -1    0    0    0  501  0.00000000000E+00  0.00000000000E+00 -0.40141385109E+03  0.40141385113E+03  0.50400001928E-02 0. -1.
    10030    2    1    2    0    0  0.00000000000E+00  0.00000000000E+00 -0.40527161665E+01  0.79877498609E+03  0.79876470496E+03 0.  0.
        4    1    3    3  502    0 -0.27366047284E+03  0.29007599455E+03 -0.23717961864E+02  0.39949754896E+03  0.12699999809E+01 0. -1.
       -4    1    3    3    0  502  0.27366047284E+03 -0.29007599455E+03  0.19665245698E+02  0.39927743713E+03  0.12699999809E+01 0.  1.
</event>
<event>
 5   0  0.1989298E-02  0.8053725E+03  0.7818609E-02  0.9552273E-01
        1   -1    0    0  501    0  0.00000000000E+00  0.00000000000E+00  0.31583486924E+03  0.31583486928E+03  0.50400001928E-02 0.  1.
       -1   -1    0    0    0  501  0.00000000000E+00  0.00000000000E+00 -0.51342086595E+03  0.51342086597E+03  0.50400001928E-02 0. -1.
    10030    2    1    2    0    0  0.00000000000E+00  0.00000000000E+00 -0.19758599671E+03  0.82925573525E+03  0.80537249043E+03 0.  0.
        1    1    3    3  502    0 -0.26924750510E+02 -0.22769546352E+03 -0.43964772516E+03  0.49584300798E+03  0.50400001928E-02 0. -1.
       -1    1    3    3    0  502  0.26924750510E+02  0.22769546352E+03  0.24206172845E+03  0.33341272727E+03  0.50400001928E-02 0.  1.
</event>
<event>
 5   0  0.3404132E-02  0.7972233E+03  0.7818609E-02  0.9564045E-01
        2   -1    0    0  501    0  0.00000000000E+00  0.00000000000E+00  0.17496866128E+03  0.17496866130E+03  0.25500000920E-02 0. -1.
       -2   -1    0    0    0  501  0.00000000000E+00  0.00000000000E+00 -0.90811260714E+03  0.90811260714E+03  0.25500000920E-02 0.  1.
    10030    2    1    2    0    0  0.00000000000E+00  0.00000000000E+00 -0.73314394586E+03  0.10830812684E+04  0.79722329915E+03 0.  0.
        5    1    3    3  502    0 -0.33937829782E+03 -0.14331962787E+03 -0.57328414776E+03  0.68146529540E+03  0.46999998093E+01 0.  1.
       -5    1    3    3    0  502  0.33937829782E+03  0.14331962787E+03 -0.15985979810E+03  0.40161597305E+03  0.46999998093E+01 0. -1.
</event>
<event>
 5   0  0.2077795E-02  0.8011191E+03  0.7818609E-02  0.9558399E-01
       -1   -1    0    0    0  501  0.00000000000E+00  0.00000000000E+00  0.17788234918E+03  0.17788234925E+03  0.50400001928E-02 0. -1.
        1   -1    0    0  501    0  0.00000000000E+00  0.00000000000E+00 -0.90198927953E+03  0.90198927955E+03  0.50400001928E-02 0.  1.
    10030    2    1    2    0    0  0.00000000000E+00  0.00000000000E+00 -0.72410693035E+03  0.10798716288E+04  0.80111914726E+03 0.  0.
        5    1    3    3  502    0 -0.62069942190E+02  0.39528092225E+03 -0.33770817946E+03  0.52361110539E+03  0.46999998093E+01 0. -1.
       -5    1    3    3    0  502  0.62069942190E+02 -0.39528092225E+03 -0.38639875089E+03  0.55626052341E+03  0.46999998093E+01 0.  1.
</event>
<event>
 5   0  0.3550586E-02  0.8063071E+03  0.7818609E-02  0.9550932E-01
        2   -1    0    0  501    0  0.00000000000E+00  0.00000000000E+00  0.13446208992E+04  0.13446208992E+04  0.25500000920E-02 0. -1.
       -2   -1    0    0    0  501  0.00000000000E+00  0.00000000000E+00 -0.12087629420E+03  0.12087629423E+03  0.25500000920E-02 0.  1.
    10030    2    1    2    0    0  0.00000000000E+00  0.00000000000E+00  0.12237446050E+04  0.14654971935E+04  0.80630711625E+03 0.  0.
        3    1    3    3  502    0 -0.67756844862E+02  0.37490576924E+03  0.85153614208E+03  0.93287680714E+03  0.10100000352E+00 0. -1.
       -3    1    3    3    0  502  0.67756844862E+02 -0.37490576924E+03  0.37220846295E+03  0.53262038633E+03  0.10100000352E+00 0.  1.
</event>
<event>
 5   0  0.2063692E-02  0.8222185E+03  0.7818609E-02  0.9528402E-01
       -1   -1    0    0    0  501  0.00000000000E+00  0.00000000000E+00  0.25469272644E+03  0.25469272649E+03  0.50400001928E-02 0.  1.
        1   -1    0    0  501    0  0.00000000000E+00  0.00000000000E+00 -0.66358706100E+03  0.66358706102E+03  0.50400001928E-02 0. -1.
    10030    2    1    2    0    0  0.00000000000E+00  0.00000000000E+00 -0.40889433456E+03  0.91827978751E+03  0.82221845717E+03 0.  0.
        2    1    3    3  502    0  0.21206323476E+03 -0.14635829931E+03 -0.56221573336E+03  0.61844813700E+03  0.25500000920E-02 0. -1.
       -2    1    3    3    0  502 -0.21206323476E+03  0.14635829931E+03  0.15332139879E+03  0.29983165051E+03  0.25500000920E-02 0.  1.
</event>
<event>
 5   0  0.2132540E-02  0.9115935E+03  0.7818609E-02  0.9411204E-01
        1   -1    0    0  501    0  0.00000000000E+00  0.00000000000E+00  0.10907871853E+04  0.10907871853E+04  0.50400001928E-02 0. -1.
       -1   -1    0    0    0  501  0.00000000000E+00  0.00000000000E+00 -0.19045941312E+03  0.19045941319E+03  0.50400001928E-02 0.  1.
    10030    2    1    2    0    0  0.00000000000E+00  0.00000000000E+00  0.90032777216E+03  0.12812465985E+04  0.91159352169E+03 0.  0.
        4    1    3    3  502    0 -0.32403877829E+03 -0.79317041426E+02  0.13650254246E+02  0.33388660536E+03  0.12699999809E+01 0.  1.
       -4    1    3    3    0  502  0.32403877829E+03  0.79317041426E+02  0.88667751791E+03  0.94735999312E+03  0.12699999809E+01 0. -1.
</event>
<event>
 5   0  0.1989298E-02  0.7988569E+03  0.7818609E-02  0.9561673E-01
        1   -1    0    0  501    0  0.00000000000E+00  0.00000000000E+00  0.84980467854E+03  0.84980467856E+03  0.50400001928E-02 0. -1.
       -1   -1    0    0    0  501  0.00000000000E+00  0.00000000000E+00 -0.18774087671E+03  0.18774087678E+03  0.50400001928E-02 0.  1.
    10030    2    1    2    0    0  0.00000000000E+00  0.00000000000E+00  0.66206380184E+03  0.10375455553E+04  0.79885687185E+03 0.  0.
        1    1    3    3  502    0 -0.18763071391E+03 -0.60736663014E+02  0.78215990731E+03  0.80664015996E+03  0.50400001928E-02 0. -1.
       -1    1    3    3    0  502  0.18763071391E+03  0.60736663014E+02 -0.12009610548E+03  0.23090539537E+03  0.50400001928E-02 0.  1.
</event>
<event>
 5   0  0.2132540E-02  0.8202611E+03  0.7818609E-02  0.9531144E-01
        1   -1    0    0  501    0  0.00000000000E+00  0.00000000000E+00  0.41827639557E+03  0.41827639560E+03  0.50400001928E-02 0. -1.
       -1   -1    0    0    0  501  0.00000000000E+00  0.00000000000E+00 -0.40214334274E+03  0.40214334277E+03  0.50400001928E-02 0.  1.
    10030    2    1    2    0    0  0.00000000000E+00  0.00000000000E+00  0.16133052833E+02  0.82041973838E+03  0.82026109973E+03 0.  0.
        4    1    3    3  502    0  0.53494085633E+02 -0.19799077434E+03 -0.34716901260E+03  0.40322437938E+03  0.12699999809E+01 0.  1.
       -4    1    3    3    0  502 -0.53494085633E+02  0.19799077434E+03  0.36330206543E+03  0.41719535899E+03  0.12699999809E+01 0. -1.
</event>
<event>
 5   0  0.3467240E-02  0.7856203E+03  0.7818609E-02  0.9581068E-01
        2   -1    0    0  501    0  0.00000000000E+00  0.00000000000E+00  0.49881548681E+03  0.49881548682E+03  0.25500000920E-02 0.  1.
       -2   -1    0    0    0  501  0.00000000000E+00  0.00000000000E+00 -0.30933241087E+03  0.30933241088E+03  0.25500000920E-02 0. -1.
    10030    2    1    2    0    0  0.00000000000E+00  0.00000000000E+00  0.18948307593E+03  0.80814789770E+03  0.78562025718E+03 0.  0.
        2    1    3    3  502    0 -0.35516898891E+03  0.93566186001E+02 -0.48536879900E+02  0.37048005421E+03  0.25500000920E-02 0. -1.
       -2    1    3    3    0  502  0.35516898891E+03 -0.93566186001E+02  0.23801995583E+03  0.43766784349E+03  0.25500000920E-02 0.  1.
</event>
<event>
 5   0  0.3416160E-02  0.8102808E+03  0.7818609E-02  0.9545254E-01
       -2   -1    0    0    0  501  0.00000000000E+00  0.00000000000E+00  0.19826070831E+03  0.19826070833E+03  0.25500000920E-02 0. -1.
        2   -1    0    0  501    0  0.00000000000E+00  0.00000000000E+00 -0.82789336745E+03  0.82789336745E+03  0.25500000920E-02 0.  1.
    10030    2    1    2    0    0  0.00000000000E+00  0.00000000000E+00 -0.62963265913E+03  0.10261540758E+04  0.81028075492E+03 0.  0.
        1    1    3    3  502    0  0.24980292386E+03  0.12387139846E+03 -0.68705079528E+03  0.74147449009E+03  0.50400001928E-02 0.  1.
       -1    1    3    3    0  502 -0.24980292386E+03 -0.12387139846E+03  0.57418136151E+02  0.28467958569E+03  0.50400001928E-02 0. -1.
</event>
<event>
 5   0  0.3550586E-02  0.9895315E+03  0.7818609E-02  0.9320102E-01
        2   -1    0    0  501    0  0.00000000000E+00  0.00000000000E+00  0.41383783551E+03  0.41383783551E+03  0.25500000920E-02 0.  1.
       -2   -1    0    0    0  501  0.00000000000E+00  0.00000000000E+00 -0.59151948330E+03  0.59151948331E+03  0.25500000920E-02 0. -1.
    10030    2    1    2    0    0  0.00000000000E+00  0.00000000000E+00 -0.17768164780E+03  0.10053573188E+04  0.98953149043E+03 0.  0.
        3    1    3    3  502    0 -0.36856491355E+03  0.32952513756E+03 -0.69397870430E+02  0.49924241247E+03  0.10100000352E+00 0. -1.
       -3    1    3    3    0  502  0.36856491355E+03 -0.32952513756E+03 -0.10828377737E+03  0.50611490635E+03  0.10100000352E+00 0.  1.
</event>
<event>
 5   0  0.3416160E-02  0.7937165E+03  0.7818609E-02  0.9569157E-01
        2   -1    0    0  501    0  0.00000000000E+00  0.00000000000E+00  0.95778789085E+03  0.95778789085E+03  0.25500000920E-02 0.  1.
       -2   -1    0    0    0  501  0.00000000000E+00  0.00000000000E+00 -0.16443774051E+03  0.16443774053E+03  0.25500000920E-02 0. -1.
    10030    2    1    2    0    0  0.00000000000E+00  0.00000000000E+00  0.79335015034E+03  0.11222256314E+04  0.79371651531E+03 0.  0.
        1    1    3    3  502    0 -0.19887459495E+01  0.51038801235E+02 -0.15977094296E+03  0.16773690286E+03  0.50400001928E-02 0. -1.
       -1    1    3    3    0  502  0.19887459495E+01 -0.51038801235E+02  0.95312109330E+03  0.95448872852E+03  0.50400001928E-02 0.  1.
</event>
<event>
 5   0  0.3343036E-02  0.7026848E+03  0.7818609E-02  0.9712652E-01
       -2   -1    0    0    0  501  0.00000000000E+00  0.00000000000E+00  0.26757307404E+03  0.26757307406E+03  0.25500000920E-02 0. -1.
        2   -1    0    0  501    0  0.00000000000E+00  0.00000000000E+00 -0.46133749757E+03  0.46133749758E+03  0.25500000920E-02 0.  1.
    10030    2    1    2    0    0  0.00000000000E+00  0.00000000000E+00 -0.19376442352E+03  0.72891057163E+03  0.70268482950E+03 0.  0.
        4    1    3    3  502    0 -0.10114493073E+02 -0.85649591773E+02 -0.45018404689E+03  0.45837260445E+03  0.12699999809E+01 0.  1.
       -4    1    3    3    0  502  0.10114493073E+02  0.85649591773E+02  0.25641962336E+03  0.27053796718E+03  0.12699999809E+01 0. -1.
</event>
<event>
 5   0  0.2129257E-02  0.7961216E+03  0.7818609E-02  0.9565648E-01
        1   -1    0    0  501    0  0.00000000000E+00  0.00000000000E+00  0.11390310072E+04  0.11390310072E+04  0.50400001928E-02 0. -1.
       -1   -1    0    0    0  501  0.00000000000E+00  0.00000000000E+00 -0.13911159068E+03  0.13911159077E+03  0.50400001928E-02 0.  1.
    10030    2    1    2    0    0  0.00000000000E+00  0.00000000000E+00  0.99991941652E+03  0.12781425980E+04  0.79612163722E+03 0.  0.
        3    1    3    3  502    0 -0.24894661940E+03 -0.25014263316E+03  0.79558549664E+03  0.87034593634E+03  0.10100000352E+00 0. -1.
       -3    1    3    3    0  502  0.24894661940E+03  0.25014263316E+03  0.20433391988E+03  0.40779666165E+03  0.10100000352E+00 0.  1.
</event>
<event>
 5   0  0.1989298E-02  0.8340903E+03  0.7818609E-02  0.9511943E-01
       -1   -1    0    0    0  501  0.00000000000E+00  0.00000000000E+00  0.93887038800E+02  0.93887038936E+02  0.50400001928E-02 0. -1.
        1   -1    0    0  501    0  0.00000000000E+00  0.00000000000E+00 -0.18525097026E+04  0.18525097026E+04  0.50400001928E-02 0.  1.
    10030    2    1    2    0    0  0.00000000000E+00  0.00000000000E+00 -0.17586226638E+04  0.19463967415E+04  0.83409028399E+03 0.  0.
        1    1    3    3  502    0  0.74436492576E+02 -0.14265472236E+03 -0.17771560419E+04  0.17844256102E+04  0.50400001928E-02 0.  1.
       -1    1    3    3    0  502 -0.74436492576E+02  0.14265472236E+03  0.18533378109E+02  0.16197113128E+03  0.50400001928E-02 0. -1.
</event>
<event>
 5   0  0.2077795E-02  0.7973594E+03  0.7818609E-02  0.9563847E-01
        1   -1    0    0  501    0  0.00000000000E+00  0.00000000000E+00  0.43534738776E+03  0.43534738778E+03  0.50400001928E-02 0.  1.
       -1   -1    0    0    0  501  0.00000000000E+00  0.00000000000E+00 -0.36510035708E+03  0.36510035712E+03  0.50400001928E-02 0. -1.
    10030    2    1    2    0    0  0.00000000000E+00  0.00000000000E+00  0.70247030675E+02  0.80044774490E+03  0.79735935876E+03 0.  0.
        5    1    3    3  502    0  0.29835308443E+03  0.54400207996E+02  0.29487162755E+03  0.42301928130E+03  0.46999998093E+01 0.  1.
       -5    1    3    3    0  502 -0.29835308443E+03 -0.54400207996E+02 -0.22462459687E+03  0.37742846360E+03  0.46999998093E+01 0. -1.
</event>
<event>
 5   0  0.1989298E-02  0.7810949E+03  0.7818609E-02  0.9587792E-01
       -1   -1    0    0    0  501  0.00000000000E+00  0.00000000000E+00  0.17532580529E+03  0.17532580537E+03  0.50400001928E-02 0. -1.
        1   -1    0    0  501    0  0.00000000000E+00  0.00000000000E+00 -0.86996500713E+03  0.86996500715E+03  0.50400001928E-02 0.  1.
    10030    2    1    2    0    0  0.00000000000E+00  0.00000000000E+00 -0.69463920184E+03  0.10452908125E+04  0.78109491228E+03 0.  0.
        1    1    3    3  502    0 -0.79015294309E+02  0.12347070022E+03 -0.83175226474E+03  0.84457105117E+03  0.50400001928E-02 0.  1.
       -1    1    3    3    0  502  0.79015294309E+02 -0.12347070022E+03  0.13711306291E+03  0.20071976134E+03  0.50400001928E-02 0. -1.
</event>
<event>
 5   0  0.2132540E-02  0.7813884E+03  0.7818609E-02  0.9587354E-01
       -1   -1    0    0    0  501  0.00000000000E+00  0.00000000000E+00  0.78830411844E+02  0.78830412005E+02  0.50400001928E-02 0.  1.
        1   -1    0    0  501    0  0.00000000000E+00  0.00000000000E+00 -0.19363335246E+04  0.19363335246E+04  0.50400001928E-02 0. -1.
    10030    2    1    2    0    0  0.00000000000E+00  0.00000000000E+00 -0.18575031127E+04  0.20151639366E+04  0.78138842934E+03 0.  0.
        4    1    3    3  502    0 -0.10053800703E+03  0.27314506238E+03 -0.16008854592E+04  0.16271299832E+04  0.12699999809E+01 0. -1.
       -4    1    3    3    0  502  0.10053800703E+03 -0.27314506238E+03 -0.25661765356E+03  0.38803395338E+03  0.12699999809E+01 0.  1.
</event>
<event>
 5   0  0.2129257E-02  0.7952286E+03  0.7818609E-02  0.9566949E-01
        1   -1    0    0  501    0  0.00000000000E+00  0.00000000000E+00  0.95431297464E+03  0.95431297465E+03  0.50400001928E-02 0.  1.
       -1   -1    0    0    0  501  0.00000000000E+00  0.00000000000E+00 -0.16566591169E+03  0.16566591177E+03  0.50400001928E-02 0. -1.
    10030    2    1    2    0    0  0.00000000000E+00  0.00000000000E+00  0.78864706295E+03  0.11199788864E+04  0.79522859364E+03 0.  0.
        3    1    3    3  502    0 -0.29516437403E+03  0.23992553944E+03  0.23122654127E+03  0.44514266899E+03  0.10100000352E+00 0. -1.
       -3    1    3    3    0  502  0.29516437403E+03 -0.23992553944E+03  0.55742052167E+03  0.67483621743E+03  0.10100000352E+00 0.  1.
</event>
<event>
 5   0  0.3343036E-02  0.8462159E+03  0.7818609E-02  0.9495430E-01
       -2   -1    0    0    0  501  0.00000000000E+00  0.00000000000E+00  0.13752549529E+03  0.13752549531E+03  0.25500000920E-02 0.  1.
        2   -1    0    0  501    0  0.00000000000E+00  0.00000000000E+00 -0.13017247598E+04  0.13017247598E+04  0.25500000920E-02 0. -1.
    10030    2    1    2    0    0  0.00000000000E+00  0.00000000000E+00 -0.11641992645E+04  0.14392502551E+04  0.84621591178E+03 0.  0.
        4    1    3    3  502    0  0.42195727882E+03 -0.28690525232E+02 -0.56143373445E+03  0.70290863024E+03  0.12699999809E+01 0. -1.
       -4    1    3    3    0  502 -0.42195727882E+03  0.28690525232E+02 -0.60276553003E+03  0.73634162484E+03  0.12699999809E+01 0.  1.
</event>
<event>
 5   0  0.2063692E-02  0.8186998E+03  0.7818609E-02  0.9533337E-01
       -1   -1    0    0    0  501  0.00000000000E+00  0.00000000000E+00  0.20780575168E+03  0.20780575175E+03  0.50400001928E-02 0. -1.
        1   -1    0    0  501    0  0.00000000000E+00  0.00000000000E+00 -0.80636532837E+03  0.80636532839E+03  0.50400001928E-02 0.  1.
    10030    2    1    2    0    0  0.00000000000E+00  0.00000000000E+00 -0.59855957669E+03  0.10141710801E+04  0.81869983079E+03 0.  0.
        2    1    3    3  502    0  0.39379888261E+02  0.20206919859E+03  0.13901065711E+03  0.24840833201E+03  0.25500000920E-02 0. -1.
       -2    1    3    3    0  502 -0.39379888261E+02 -0.20206919859E+03 -0.73757023380E+03  0.76576274812E+03  0.25500000920E-02 0.  1.
</event>
<event>
 5   0  0.2129257E-02  0.7732145E+03  0.7818609E-02  0.9599618E-01
        1   -1    0    0  501    0  0.00000000000E+00  0.00000000000E+00  0.48853071873E+03  0.48853071875E+03  0.50400001928E-02 0. -1.
       -1   -1    0    0    0  501  0.00000000000E+00  0.00000000000E+00 -0.30594833038E+03  0.30594833042E+03  0.50400001928E-02 0.  1.
    10030    2    1    2    0    0  0.00000000000E+00  0.00000000000E+00  0.18258238835E+03  0.79447904917E+03  0.77321447933E+03 0.  0.
        3    1    3    3  502    0  0.38382299151E+03 -0.11401803089E+02  0.13741511385E+03  0.40783944591E+03  0.10100000352E+00 0. -1.
       -3    1    3    3    0  502 -0.38382299151E+03  0.11401803089E+02  0.45167274496E+02  0.38663960326E+03  0.10100000352E+00 0.  1.
</event>
<event>
 5   0  0.3404132E-02  0.7994439E+03  0.7818609E-02  0.9560822E-01
       -2   -1    0    0    0  501  0.00000000000E+00  0.00000000000E+00  0.11996523099E+03  0.11996523101E+03  0.25500000920E-02 0. -1.
        2   -1    0    0  501    0  0.00000000000E+00  0.00000000000E+00 -0.13318661677E+04  0.13318661677E+04  0.25500000920E-02 0.  1.
    10030    2    1    2    0    0  0.00000000000E+00  0.00000000000E+00 -0.12119009367E+04  0.14518313987E+04  0.79944388789E+03 0.  0.
        5    1    3    3  502    0  0.36218970654E+03 -0.16856180840E+03 -0.62899899707E+03  0.74515521543E+03  0.46999998093E+01 0.  1.
       -5    1    3    3    0  502 -0.36218970654E+03  0.16856180840E+03 -0.58290193964E+03  0.70667618327E+03  0.46999998093E+01 0. -1.
</event>
<event>
 5   0  0.2063692E-02  0.7939305E+03  0.7818609E-02  0.9568844E-01
       -1   -1    0    0    0  501  0.00000000000E+00  0.00000000000E+00  0.63779123572E+03  0.63779123574E+03  0.50400001928E-02 0.  1.
        1   -1    0    0  501    0  0.00000000000E+00  0.00000000000E+00 -0.24707364828E+03  0.24707364833E+03  0.50400001928E-02 0. -1.
    10030    2    1    2    0    0  0.00000000000E+00  0.00000000000E+00  0.39071758744E+03  0.88486488408E+03  0.79393049440E+03 0.  0.
        2    1    3    3  502    0 -0.75995249306E+02  0.27826740966E+03  0.49930955236E+03  0.57664378803E+03  0.25500000920E-02 0.  1.
       -2    1    3    3    0  502  0.75995249306E+02 -0.27826740966E+03 -0.10859196492E+03  0.30822109604E+03  0.25500000920E-02 0. -1.
</event>
<event>
 5   0  0.2129257E-02  0.7927056E+03  0.7818609E-02  0.9570636E-01
       -1   -1    0    0    0  501  0.00000000000E+00  0.00000000000E+00  0.10234339984E+04  0.10234339984E+04  0.50400001928E-02 0. -1.
        1   -1    0    0  501    0  0.00000000000E+00  0.00000000000E+00 -0.15349845948E+03  0.15349845956E+03  0.50400001928E-02 0.  1.
    10030    2    1    2    0    0  0.00000000000E+00  0.00000000000E+00  0.86993553896E+03  0.11769324580E+04  0.79270560032E+03 0.  0.
        3    1    3    3  502    0 -0.69305883751E+02 -0.31045311781E+03  0.78603361990E+03  0.84795831601E+03  0.10100000352E+00 0. -1.
       -3    1    3    3    0  502  0.69305883751E+02  0.31045311781E+03  0.83901919056E+02  0.32897414200E+03  0.10100000352E+00 0.  1.
</event>
<event>
 5   0  0.2077795E-02  0.7698476E+03  0.7818609E-02  0.9604717E-01
        1   -1    0    0  501    0  0.00000000000E+00  0.00000000000E+00  0.14977390071E+04  0.14977390071E+04  0.50400001928E-02 0.  1.
       -1   -1    0    0    0  501  0.00000000000E+00  0.00000000000E+00 -0.98926668983E+02  0.98926669111E+02  0.50400001928E-02 0. -1.
    10030    2    1    2    0    0  0.00000000000E+00  0.00000000000E+00  0.13988123381E+04  0.15966656762E+04  0.76984759813E+03 0.  0.
        5    1    3    3  502    0  0.24783233290E+03 -0.25027462061E+03  0.37752802965E+03  0.51634073451E+03  0.46999998093E+01 0. -1.
       -5    1    3    3    0  502 -0.24783233290E+03  0.25027462061E+03  0.10212843085E+04  0.10803249417E+04  0.46999998093E+01 0.  1.
</event>
<event>
 5   0  0.3467240E-02  0.7990132E+03  0.7818609E-02  0.9561447E-01
        2   -1    0    0  501    0  0.00000000000E+00  0.00000000000E+00  0.73762487239E+03  0.73762487239E+03  0.25500000920E-02 0. -1.
       -2   -1    0    0    0  501  0.00000000000E+00  0.00000000000E+00 -0.21637765266E+03  0.21637765268E+03  0.25500000920E-02 0.  1.
    10030    2    1    2    0    0  0.00000000000E+00  0.00000000000E+00  0.52124721972E+03  0.95400252507E+03  0.79901323755E+03 0.  0.
        2    1    3    3  502    0  0.24286547687E+03 -0.20494402078E+03  0.54970350581E+03  0.63494853006E+03  0.25500000920E-02 0. -1.
       -2    1    3    3    0  502 -0.24286547687E+03  0.20494402078E+03 -0.28456286089E+02  0.31905399502E+03  0.25500000920E-02 0.  1.
</event>
<event>
 5   0  0.3467240E-02  0.8383610E+03  0.7818609E-02  0.9506093E-01
       -2   -1    0    0    0  501  0.00000000000E+00  0.00000000000E+00  0.25786627758E+03  0.25786627759E+03  0.25500000920E-02 0.  1.
        2   -1    0    0  501    0  0.00000000000E+00  0.00000000000E+00 -0.68140856919E+03  0.68140856919E+03  0.25500000920E-02 0. -1.
    10030    2    1    2    0    0  0.00000000000E+00  0.00000000000E+00 -0.42354229161E+03  0.93927484678E+03  0.83836099922E+03 0.  0.
        2    1    3    3  502    0  0.59972831783E+02 -0.68583800274E+02 -0.67018177133E+03  0.67634612798E+03  0.25500000920E-02 0. -1.
       -2    1    3    3    0  502 -0.59972831783E+02  0.68583800274E+02  0.24663947971E+03  0.26292871880E+03  0.25500000920E-02 0.  1.
</event>
<event>
 5   0  0.3404132E-02  0.8010977E+03  0.7818609E-02  0.9558430E-01
       -2   -1    0    0    0  501  0.00000000000E+00  0.00000000000E+00  0.42465550456E+03  0.42465550456E+03  0.25500000920E-02 0.  1.
        2   -1    0    0  501    0  0.00000000000E+00  0.00000000000E+00 -0.37781071246E+03  0.37781071247E+03  0.25500000920E-02 0. -1.
    10030    2    1    2    0    0  0.00000000000E+00  0.00000000000E+00  0.46844792096E+02  0.80246621703E+03  0.80109774368E+03 0.  0.
        5    1    3    3  502    0 -0.33933024130E+03 -0.26451916403E+02 -0.18806047397E+03  0.38888757812E+03  0.46999998093E+01 0. -1.
       -5    1    3    3    0  502  0.33933024130E+03  0.26451916403E+02  0.23490526607E+03  0.41357863892E+03  0.46999998093E+01 0.  1.
</event>
<event>
 5   0  0.3343036E-02  0.7686827E+03  0.7818609E-02  0.9606488E-01
       -2   -1    0    0    0  501  0.00000000000E+00  0.00000000000E+00  0.10651662428E+04  0.10651662428E+04  0.25500000920E-02 0.  1.
        2   -1    0    0  501    0  0.00000000000E+00  0.00000000000E+00 -0.13868095006E+03  0.13868095008E+03  0.25500000920E-02 0. -1.
    10030    2    1    2    0    0  0.00000000000E+00  0.00000000000E+00  0.92648529270E+03  0.12038471928E+04  0.76868268234E+03 0.  0.
        4    1    3    3  502    0  0.35574302643E+03  0.11714425883E+03  0.32814948484E+03  0.49795539512E+03  0.12699999809E+01 0. -1.
       -4    1    3    3    0  502 -0.35574302643E+03 -0.11714425883E+03  0.59833580786E+03  0.70589179772E+03  0.12699999809E+01 0.  1.
</event>
<event>
 5   0  0.1989298E-02  0.7976768E+03  0.7818609E-02  0.9563386E-01
        1   -1    0    0  501    0  0.00000000000E+00  0.00000000000E+00  0.21405125219E+04  0.21405125219E+04  0.50400001928E-02 0. -1.
       -1   -1    0    0    0  501  0.00000000000E+00  0.00000000000E+00 -0.74314952924E+02  0.74314953095E+02  0.50400001928E-02 0.  1.
    10030    2    1    2    0    0  0.00000000000E+00  0.00000000000E+00  0.20661975689E+04  0.22148274750E+04  0.79767684558E+03 0.  0.
        1    1    3    3  502    0 -0.13208600608E+03  0.14088340526E+03  0.64160801309E+02  0.20349804748E+03  0.50400001928E-02 0.  1.
       -1    1    3    3    0  502  0.13208600608E+03 -0.14088340526E+03  0.20020367676E+04  0.20113294275E+04  0.50400001928E-02 0. -1.
</event>
<event>
 5   0  0.3343036E-02  0.7980764E+03  0.7818609E-02  0.9562806E-01
        2   -1    0    0  501    0  0.00000000000E+00  0.00000000000E+00  0.63996226954E+03  0.63996226955E+03  0.25500000920E-02 0. -1.
       -2   -1    0    0    0  501  0.00000000000E+00  0.00000000000E+00 -0.24881389046E+03  0.24881389047E+03  0.25500000920E-02 0.  1.
    10030    2    1    2    0    0  0.00000000000E+00  0.00000000000E+00  0.39114837909E+03  0.88877616001E+03  0.79807644255E+03 0.  0.
        4    1    3    3  502    0 -0.21289503779E+03  0.33167570800E+03  0.12605528876E+03  0.41379296891E+03  0.12699999809E+01 0.  1.
       -4    1    3    3    0  502  0.21289503779E+03 -0.33167570800E+03  0.26509309033E+03  0.47498319111E+03  0.12699999809E+01 0. -1.
</event>
<event>
 5   0  0.2132540E-02  0.8082195E+03  0.7818609E-02  0.9548195E-01
        1   -1    0    0  501    0  0.00000000000E+00  0.00000000000E+00  0.16042889134E+04  0.16042889134E+04  0.50400001928E-02 0. -1.
       -1   -1    0    0    0  501  0.00000000000E+00  0.00000000000E+00 -0.10179257890E+03  0.10179257903E+03  0.50400001928E-02 0.  1.
    10030    2    1    2    0    0  0.00000000000E+00  0.00000000000E+00  0.15024963345E+04  0.17060814924E+04  0.80821953926E+03 0.  0.
        4    1    3    3  502    0 -0.30729888761E+02 -0.18415841105E+03 -0.52852079813E+01  0.18678381286E+03  0.12699999809E+01 0.  1.
       -4    1    3    3    0  502  0.30729888761E+02  0.18415841105E+03  0.15077815425E+04  0.15192976796E+04  0.12699999809E+01 0. -1.
</event>
<event>
 5   0  0.3416160E-02  0.8143952E+03  0.7818609E-02  0.9539411E-01
        2   -1    0    0  501    0  0.00000000000E+00  0.00000000000E+00  0.13184711207E+03  0.13184711209E+03  0.25500000920E-02 0. -1.
       -2   -1    0    0    0  501  0.00000000000E+00  0.00000000000E+00 -0.12575919713E+04  0.12575919713E+04  0.25500000920E-02 0.  1.
    10030    2    1    2    0    0  0.00000000000E+00  0.00000000000E+00 -0.11257448592E+04  0.13894390834E+04  0.81439516108E+03 0.  0.
        1    1    3    3  502    0  0.92942242153E+02 -0.35536935782E+03 -0.26304407157E+03  0.45179400667E+03  0.50400001928E-02 0. -1.
       -1    1    3    3    0  502 -0.92942242153E+02  0.35536935782E+03 -0.86270078766E+03  0.93764507673E+03  0.50400001928E-02 0.  1.
</event>
<event>
 5   0  0.2129257E-02  0.8060029E+03  0.7818609E-02  0.9551369E-01
        1   -1    0    0  501    0  0.00000000000E+00  0.00000000000E+00  0.46947393972E+03  0.46947393975E+03  0.50400001928E-02 0. -1.
       -1   -1    0    0    0  501  0.00000000000E+00  0.00000000000E+00 -0.34594075433E+03  0.34594075437E+03  0.50400001928E-02 0.  1.
    10030    2    1    2    0    0  0.00000000000E+00  0.00000000000E+00  0.12353318538E+03  0.81541469412E+03  0.80600290042E+03 0.  0.
        3    1    3    3  502    0 -0.22387420720E+03  0.11435640252E+03 -0.25689260854E+03  0.35943131467E+03  0.10100000352E+00 0.  1.
       -3    1    3    3    0  502  0.22387420720E+03 -0.11435640252E+03  0.38042579392E+03  0.45598337944E+03  0.10100000352E+00 0. -1.
</event>
<event>
 5   0  0.3550586E-02  0.8117473E+03  0.7818609E-02  0.9543167E-01
        2   -1    0    0  501    0  0.00000000000E+00  0.00000000000E+00  0.71281966516E+03  0.71281966517E+03  0.25500000920E-02 0.  1.
       -2   -1    0    0    0  501  0.00000000000E+00  0.00000000000E+00 -0.23110114255E+03  0.23110114256E+03  0.25500000920E-02 0. -1.
    10030    2    1    2    0    0  0.00000000000E+00  0.00000000000E+00  0.48171852261E+03  0.94392080773E+03  0.81174734754E+03 0.  0.
        3    1    3    3  502    0 -0.97433144640E+02 -0.88526274720E+02 -0.20558608399E+03  0.24412244288E+03  0.10100000352E+00 0. -1.
       -3    1    3    3    0  502  0.97433144640E+02  0.88526274720E+02  0.68730460660E+03  0.69979836485E+03  0.10100000352E+00 0.  1.
</event>
<event>
 5   0  0.2077795E-02  0.8137428E+03  0.7818609E-02  0.9540335E-01
        1   -1    0    0  501    0  0.00000000000E+00  0.00000000000E+00  0.69254971816E+03  0.69254971818E+03  0.50400001928E-02 0.  1.
       -1   -1    0    0    0  501  0.00000000000E+00  0.00000000000E+00 -0.23903601242E+03  0.23903601247E+03  0.50400001928E-02 0. -1.
    10030    2    1    2    0    0  0.00000000000E+00  0.00000000000E+00  0.45351370574E+03  0.93158573065E+03  0.81374276787E+03 0.  0.
        5    1    3    3  502    0 -0.24755182922E+03  0.89356182262E+02  0.58193736936E+03  0.63870151661E+03  0.46999998093E+01 0.  1.
       -5    1    3    3    0  502  0.24755182922E+03 -0.89356182262E+02 -0.12842366362E+03  0.29288421404E+03  0.46999998093E+01 0. -1.
</event>
<event>
 5   0  0.3416160E-02  0.7551766E+03  0.7818609E-02  0.9627264E-01
        2   -1    0    0  501    0  0.00000000000E+00  0.00000000000E+00  0.23365384273E+03  0.23365384274E+03  0.25500000920E-02 0.  1.
       -2   -1    0    0    0  501  0.00000000000E+00  0.00000000000E+00 -0.61018866699E+03  0.61018866699E+03  0.25500000920E-02 0. -1.
    10030    2    1    2    0    0  0.00000000000E+00  0.00000000000E+00 -0.37653482426E+03  0.84384250973E+03  0.75517660673E+03 0.  0.
        1    1    3    3  502    0 -0.16017883990E+03  0.30368690302E+03 -0.36384650850E+03  0.50026720619E+03  0.50400001928E-02 0. -1.
       -1    1    3    3    0  502  0.16017883990E+03 -0.30368690302E+03 -0.12688315757E+02  0.34357530354E+03  0.50400001928E-02 0.  1.
</event>
<event>
 5   0  0.3550586E-02  0.7966175E+03  0.7818609E-02  0.9564926E-01
        2   -1    0    0  501    0  0.00000000000E+00  0.00000000000E+00  0.65981979091E+03  0.65981979091E+03  0.25500000920E-02 0. -1.
       -2   -1    0    0    0  501  0.00000000000E+00  0.00000000000E+00 -0.24044422629E+03  0.24044422630E+03  0.25500000920E-02 0.  1.
    10030    2    1    2    0    0  0.00000000000E+00  0.00000000000E+00  0.41937556462E+03  0.90026401721E+03  0.79661749698E+03 0.  0.
        3    1    3    3  502    0  0.11518390067E+03 -0.55601571432E+02  0.63598131223E+03  0.64871496470E+03  0.10100000352E+00 0. -1.
       -3    1    3    3    0  502 -0.11518390067E+03  0.55601571432E+02 -0.21660574761E+03  0.25154905251E+03  0.10100000352E+00 0.  1.
</event>
<event>
 5   0  0.2077795E-02  0.7880437E+03  0.7818609E-02  0.9577486E-01
       -1   -1    0    0    0  501  0.00000000000E+00  0.00000000000E+00  0.37495406541E+03  0.37495406544E+03  0.50400001928E-02 0. -1.
        1   -1    0    0  501    0  0.00000000000E+00  0.00000000000E+00 -0.41405930957E+03  0.41405930960E+03  0.50400001928E-02 0.  1.
    10030    2    1    2    0    0  0.00000000000E+00  0.00000000000E+00 -0.39105244162E+02  0.78901337504E+03  0.78804370809E+03 0.  0.
        5    1    3    3  502    0 -0.30222850473E+03  0.14359862236E+03  0.18871414207E+03  0.38418452706E+03  0.46999998093E+01 0. -1.
       -5    1    3    3    0  502  0.30222850473E+03 -0.14359862236E+03 -0.22781938623E+03  0.40482884798E+03  0.46999998093E+01 0.  1.
</event>
<event>
 5   0  0.2132540E-02  0.7750197E+03  0.7818609E-02  0.9596896E-01
        1   -1    0    0  501    0  0.00000000000E+00  0.00000000000E+00  0.40241976435E+03  0.40241976438E+03  0.50400001928E-02 0. -1.
       -1   -1    0    0    0  501  0.00000000000E+00  0.00000000000E+00 -0.37315232998E+03  0.37315233001E+03  0.50400001928E-02 0.  1.
    10030    2    1    2    0    0  0.00000000000E+00  0.00000000000E+00  0.29267434373E+02  0.77557209440E+03  0.77501967129E+03 0.  0.
        4    1    3    3  502    0  0.20147323197E+03  0.17295165661E+03 -0.26780587018E+03  0.37712774458E+03  0.12699999809E+01 0.  1.
       -4    1    3    3    0  502 -0.20147323197E+03 -0.17295165661E+03  0.29707330456E+03  0.39844434982E+03  0.12699999809E+01 0. -1.
</event>
<event>
 5   0  0.2063692E-02  0.8054244E+03  0.7818609E-02  0.9552199E-01
       -1   -1    0    0    0  501  0.00000000000E+00  0.00000000000E+00  0.19960004909E+03  0.19960004915E+03  0.50400001928E-02 0. -1.
        1   -1    0    0  501    0  0.00000000000E+00  0.00000000000E+00 -0.81251043753E+03  0.81251043755E+03  0.50400001928E-02 0.  1.
    10030    2    1    2    0    0  0.00000000000E+00  0.00000000000E+00 -0.61291038844E+03  0.10121104867E+04  0.80542441795E+03 0.  0.
        2    1    3    3  502    0 -0.33618225446E+03 -0.19040524544E+03 -0.16370621563E+03  0.41960980773E+03  0.25500000920E-02 0. -1.
       -2    1    3    3    0  502  0.33618225446E+03  0.19040524544E+03 -0.44920417281E+03  0.59250067897E+03  0.25500000920E-02 0.  1.
</event>
<event>
 5   0  0.3343036E-02  0.5525448E+03  0.7818609E-02  0.1000907E+00
        2   -1    0    0  501    0  0.00000000000E+00  0.00000000000E+00  0.16003553855E+04  0.16003553855E+04  0.25500000920E-02 0.  1.
       -2   -1    0    0    0  501  0.00000000000E+00  0.00000000000E+00 -0.47693430207E+02  0.47693430275E+02  0.25500000920E-02 0. -1.
    10030    2    1    2    0    0  0.00000000000E+00  0.00000000000E+00  0.15526619553E+04  0.16480488158E+04  0.55254479617E+03 0.  0.
        4    1    3    3  502    0  0.24729039961E+03 -0.15802919625E+02  0.11406854585E+04  0.11672905389E+04  0.12699999809E+01 0.  1.
       -4    1    3    3    0  502 -0.24729039961E+03  0.15802919625E+02  0.41197649684E+03  0.48075827695E+03  0.12699999809E+01 0. -1.
</event>
<event>
 5   0  0.3416160E-02  0.7933848E+03  0.7818609E-02  0.9569642E-01
       -2   -1    0    0    0  501  0.00000000000E+00  0.00000000000E+00  0.36491998641E+03  0.36491998642E+03  0.25500000920E-02 0. -1.
        2   -1    0    0  501    0  0.00000000000E+00  0.00000000000E+00 -0.43123108410E+03  0.43123108411E+03  0.25500000920E-02 0.  1.
    10030    2    1    2    0    0  0.00000000000E+00  0.00000000000E+00 -0.66311097688E+02  0.79615107053E+03  0.79338475246E+03 0.  0.
        1    1    3    3  502    0  0.30933193399E+03  0.14498947397E+03 -0.23549353375E+03  0.41492818344E+03  0.50400001928E-02 0.  1.
       -1    1    3    3    0  502 -0.30933193399E+03 -0.14498947397E+03  0.16918243607E+03  0.38122288709E+03  0.50400001928E-02 0. -1.
</event>
<event>
 5   0  0.1989298E-02  0.8450008E+03  0.7818609E-02  0.9497071E-01
       -1   -1    0    0    0  501  0.00000000000E+00  0.00000000000E+00  0.14115268056E+03  0.14115268065E+03  0.50400001928E-02 0. -1.
        1   -1    0    0  501    0  0.00000000000E+00  0.00000000000E+00 -0.12646346340E+04  0.12646346341E+04  0.50400001928E-02 0.  1.
    10030    2    1    2    0    0  0.00000000000E+00  0.00000000000E+00 -0.11234819535E+04  0.14057873147E+04  0.84500075408E+03 0.  0.
        1    1    3    3  502    0  0.96694667134E+02 -0.26248942383E+03 -0.10885069780E+04  0.11238763266E+04  0.50400001928E-02 0.  1.
       -1    1    3    3    0  502 -0.96694667134E+02  0.26248942383E+03 -0.34974975447E+02  0.28191098809E+03  0.50400001928E-02 0. -1.
</event>
<event>
 5   0  0.3404132E-02  0.8084363E+03  0.7818609E-02  0.9547886E-01
       -2   -1    0    0    0  501  0.00000000000E+00  0.00000000000E+00  0.59953530232E+03  0.59953530232E+03  0.25500000920E-02 0.  1.
        2   -1    0    0  501    0  0.00000000000E+00  0.00000000000E+00 -0.27253160249E+03  0.27253160251E+03  0.25500000920E-02 0. -1.
    10030    2    1    2    0    0  0.00000000000E+00  0.00000000000E+00  0.32700369982E+03  0.87206690483E+03  0.80843630968E+03 0.  0.
        5    1    3    3  502    0 -0.17601009103E+03 -0.17196236058E+03 -0.18239132590E+03  0.30633199533E+03  0.46999998093E+01 0. -1.
       -5    1    3    3    0  502  0.17601009103E+03  0.17196236058E+03  0.50939502572E+03  0.56573490950E+03  0.46999998093E+01 0.  1.
</event>
<event>
 5   0  0.2132540E-02  0.7884431E+03  0.7818609E-02  0.9576897E-01
        1   -1    0    0  501    0  0.00000000000E+00  0.00000000000E+00  0.56548722642E+03  0.56548722644E+03  0.50400001928E-02 0.  1.
       -1   -1    0    0    0  501  0.00000000000E+00  0.00000000000E+00 -0.27482608632E+03  0.27482608637E+03  0.50400001928E-02 0. -1.
    10030    2    1    2    0    0  0.00000000000E+00  0.00000000000E+00  0.29066114010E+03  0.84031331281E+03  0.78844312751E+03 0.  0.
        4    1    3    3  502    0 -0.37284585830E+03 -0.12803079926E+03  0.14720975007E+03  0.42080665754E+03  0.12699999809E+01 0.  1.
       -4    1    3    3    0  502  0.37284585830E+03  0.12803079926E+03  0.14345139003E+03  0.41950665527E+03  0.12699999809E+01 0. -1.
</event>
<event>
 5   0  0.2129257E-02  0.8526565E+03  0.7818609E-02  0.9486778E-01
        1   -1    0    0  501    0  0.00000000000E+00  0.00000000000E+00  0.69399688332E+03  0.69399688333E+03  0.50400001928E-02 0.  1.
       -1   -1    0    0    0  501  0.00000000000E+00  0.00000000000E+00 -0.26189713412E+03  0.26189713417E+03  0.50400001928E-02 0. -1.
    10030    2    1    2    0    0  0.00000000000E+00  0.00000000000E+00  0.43209974920E+03  0.95589401750E+03  0.85265654248E+03 0.  0.
        3    1    3    3  502    0  0.21418761634E+01 -0.24129801534E+03  0.61006747436E+03  0.65605766006E+03  0.10100000352E+00 0.  1.
       -3    1    3    3    0  502 -0.21418761634E+01  0.24129801534E+03 -0.17796772517E+03  0.29983635744E+03  0.10100000352E+00 0. -1.
</event>
<event>
 5   0  0.1358000E-02  0.7834894E+03  0.7818609E-02  0.9584228E-01
        3   -1    0    0  501    0  0.00000000000E+00  0.00000000000E+00  0.85242728997E+03  0.85242729596E+03  0.10100000352E+00 0. -1.
       -3   -1    0    0    0  501  0.00000000000E+00  0.00000000000E+00 -0.18003163481E+03  0.18003166314E+03  0.10100000352E+00 0.  1.
    10030    2    1    2    0    0  0.00000000000E+00  0.00000000000E+00  0.67239565516E+03  0.10324589591E+04  0.78348936505E+03 0.  0.
        1    1    3    3  502    0 -0.33131189874E+03 -0.15558422718E+03  0.52016662333E+03  0.63604036196E+03  0.50400001928E-02 0. -1.
       -1    1    3    3    0  502  0.33131189874E+03  0.15558422718E+03  0.15222903183E+03  0.39641859714E+03  0.50400001928E-02 0.  1.
</event>
<event>
 5   0  0.2063692E-02  0.7968300E+03  0.7818609E-02  0.9564617E-01
       -1   -1    0    0    0  501  0.00000000000E+00  0.00000000000E+00  0.19080552126E+03  0.19080552132E+03  0.50400001928E-02 0. -1.
        1   -1    0    0  501    0  0.00000000000E+00  0.00000000000E+00 -0.83191783718E+03  0.83191783720E+03  0.50400001928E-02 0.  1.
    10030    2    1    2    0    0  0.00000000000E+00  0.00000000000E+00 -0.64111231593E+03  0.10227233585E+04  0.79683001100E+03 0.  0.
        2    1    3    3  502    0 -0.21983832840E+03 -0.16695595949E+03  0.48168281341E+02  0.28022021050E+03  0.25500000920E-02 0. -1.
       -2    1    3    3    0  502  0.21983832840E+03  0.16695595949E+03 -0.68928059727E+03  0.74250314802E+03  0.25500000920E-02 0.  1.
</event>
<event>
 5   0  0.1358000E-02  0.8358648E+03  0.7818609E-02  0.9509508E-01
        3   -1    0    0  501    0  0.00000000000E+00  0.00000000000E+00  0.44464875941E+03  0.44464877088E+03  0.10100000352E+00 0.  1.
       -3   -1    0    0    0  501  0.00000000000E+00  0.00000000000E+00 -0.39282125342E+03  0.39282126640E+03  0.10100000352E+00 0. -1.
    10030    2    1    2    0    0  0.00000000000E+00  0.00000000000E+00  0.51827505991E+02  0.83747003728E+03  0.83586480543E+03 0.  0.
        3    1    3    3  502    0  0.28893320797E+03 -0.98986797184E+02  0.31174516444E+03  0.43642392514E+03  0.10100000352E+00 0.  1.
       -3    1    3    3    0  502 -0.28893320797E+03  0.98986797184E+02 -0.25991765845E+03  0.40104611214E+03  0.10100000352E+00 0. -1.
</event>
<event>
 5   0  0.3343036E-02  0.8046883E+03  0.7818609E-02  0.9553256E-01
       -2   -1    0    0    0  501  0.00000000000E+00  0.00000000000E+00  0.14726998900E+03  0.14726998903E+03  0.25500000920E-02 0. -1.
        2   -1    0    0  501    0  0.00000000000E+00  0.00000000000E+00 -0.10992111959E+04  0.10992111959E+04  0.25500000920E-02 0.  1.
    10030    2    1    2    0    0  0.00000000000E+00  0.00000000000E+00 -0.95194120691E+03  0.12464811849E+04  0.80468831419E+03 0.  0.
        4    1    3    3  502    0  0.25622396759E+03 -0.12948170431E+03 -0.39313588154E+02  0.28976439470E+03  0.12699999809E+01 0. -1.
       -4    1    3    3    0  502 -0.25622396759E+03  0.12948170431E+03 -0.91262761875E+03  0.95671679024E+03  0.12699999809E+01 0.  1.
</event>
<event>
 5   0  0.1989298E-02  0.7990117E+03  0.7818609E-02  0.9561449E-01
       -1   -1    0    0    0  501  0.00000000000E+00  0.00000000000E+00  0.19210811855E+03  0.19210811861E+03  0.50400001928E-02 0. -1.
        1   -1    0    0  501    0  0.00000000000E+00  0.00000000000E+00 -0.83080785559E+03  0.83080785561E+03  0.50400001928E-02 0.  1.
    10030    2    1    2    0    0  0.00000000000E+00  0.00000000000E+00 -0.63869973705E+03  0.10229159742E+04  0.79901172470E+03 0.  0.
        1    1    3    3  502    0  0.13324823378E+03 -0.10799168090E+02 -0.80132278631E+03  0.81239763769E+03  0.50400001928E-02 0.  1.
       -1    1    3    3    0  502 -0.13324823378E+03  0.10799168090E+02  0.16262304926E+03  0.21051833653E+03  0.50400001928E-02 0. -1.
</event>
<event>
 5   0  0.2129257E-02  0.7924897E+03  0.7818609E-02  0.9570952E-01
       -1   -1    0    0    0  501  0.00000000000E+00  0.00000000000E+00  0.29247134820E+03  0.29247134825E+03  0.50400001928E-02 0.  1.
        1   -1    0    0  501    0  0.00000000000E+00  0.00000000000E+00 -0.53683881183E+03  0.53683881185E+03  0.50400001928E-02 0. -1.
    10030    2    1    2    0    0  0.00000000000E+00  0.00000000000E+00 -0.24436746362E+03  0.82931016010E+03  0.79248967461E+03 0.  0.
        3    1    3    3  502    0  0.17211372547E+03 -0.35571122311E+03 -0.15280686125E+03  0.42367859963E+03  0.10100000352E+00 0.  1.
       -3    1    3    3    0  502 -0.17211372547E+03  0.35571122311E+03 -0.91560602374E+02  0.40563156047E+03  0.10100000352E+00 0. -1.
</event>
<event>
 5   0  0.3467240E-02  0.8149861E+03  0.7818609E-02  0.9538575E-01
        2   -1    0    0  501    0  0.00000000000E+00  0.00000000000E+00  0.15439455551E+04  0.15439455551E+04  0.25500000920E-02 0. -1.
       -2   -1    0    0    0  501  0.00000000000E+00  0.00000000000E+00 -0.10754951149E+03  0.10754951152E+03  0.25500000920E-02 0.  1.
    10030    2    1    2    0    0  0.00000000000E+00  0.00000000000E+00  0.14363960436E+04  0.16514950666E+04  0.81498611090E+03 0.  0.
        2    1    3    3  502    0  0.33528339885E+03 -0.66731893680E+02  0.11675972439E+04  0.12166147407E+04  0.25500000920E-02 0. -1.
       -2    1    3    3    0  502 -0.33528339885E+03  0.66731893680E+02  0.26879879966E+03  0.43488032593E+03  0.25500000920E-02 0.  1.
</event>
<event>
 5   0  0.3343036E-02  0.8000099E+03  0.7818609E-02  0.9560003E-01
        2   -1    0    0  501    0  0.00000000000E+00  0.00000000000E+00  0.88379531757E+03  0.88379531757E+03  0.25500000920E-02 0.  1.
       -2   -1    0    0    0  501  0.00000000000E+00  0.00000000000E+00 -0.18104185494E+03  0.18104185496E+03  0.25500000920E-02 0. -1.
    10030    2    1    2    0    0  0.00000000000E+00  0.00000000000E+00  0.70275346263E+03  0.10648371725E+04  0.80000985916E+03 0.  0.
        4    1    3    3  502    0  0.26877603836E+02  0.29396149813E+03 -0.79189576852E+01  0.29529661488E+03  0.12699999809E+01 0. -1.
       -4    1    3    3    0  502 -0.26877603836E+02 -0.29396149813E+03  0.71067242032E+03  0.76954055765E+03  0.12699999809E+01 0.  1.
</event>
<event>
 5   0  0.2077795E-02  0.8035518E+03  0.7818609E-02  0.9554890E-01
       -1   -1    0    0    0  501  0.00000000000E+00  0.00000000000E+00  0.99497545642E+03  0.99497545643E+03  0.50400001928E-02 0.  1.
        1   -1    0    0  501    0  0.00000000000E+00  0.00000000000E+00 -0.16223906060E+03  0.16223906068E+03  0.50400001928E-02 0. -1.
    10030    2    1    2    0    0  0.00000000000E+00  0.00000000000E+00  0.83273639581E+03  0.11572145171E+04  0.80355182390E+03 0.  0.
        5    1    3    3  502    0  0.29597894748E+03 -0.12990041798E+03  0.72772109196E+02  0.33135407922E+03  0.46999998093E+01 0. -1.
       -5    1    3    3    0  502 -0.29597894748E+03  0.12990041798E+03  0.75996428662E+03  0.82586043789E+03  0.46999998093E+01 0.  1.
</event>
<event>
 5   0  0.3343036E-02  0.8103766E+03  0.7818609E-02  0.9545118E-01
        2   -1    0    0  501    0  0.00000000000E+00  0.00000000000E+00  0.11036267386E+04  0.11036267386E+04  0.25500000920E-02 0.  1.
       -2   -1    0    0    0  501  0.00000000000E+00  0.00000000000E+00 -0.14876184505E+03  0.14876184507E+03  0.25500000920E-02 0. -1.
    10030    2    1    2    0    0  0.00000000000E+00  0.00000000000E+00  0.95486489357E+03  0.12523885837E+04  0.81037657888E+03 0.  0.
        4    1    3    3  502    0  0.25591047637E+03  0.31129821251E+03  0.54261976821E+03  0.67589538746E+03  0.12699999809E+01 0. -1.
       -4    1    3    3    0  502 -0.25591047637E+03 -0.31129821251E+03  0.41224512536E+03  0.57649319624E+03  0.12699999809E+01 0.  1.
</event>
<event>
 5   0  0.2063692E-02  0.6830850E+03  0.7818609E-02  0.9746604E-01
       -1   -1    0    0    0  501  0.00000000000E+00  0.00000000000E+00  0.92381982583E+02  0.92381982721E+02  0.50400001928E-02 0. -1.
        1   -1    0    0  501    0  0.00000000000E+00  0.00000000000E+00 -0.12627059423E+04  0.12627059423E+04  0.50400001928E-02 0.  1.
    10030    2    1    2    0    0  0.00000000000E+00  0.00000000000E+00 -0.11703239597E+04  0.13550879250E+04  0.68308499755E+03 0.  0.
        2    1    3    3  502    0  0.34564879227E+01 -0.29885840856E+03 -0.25725037817E+03  0.39434255762E+03  0.25500000920E-02 0. -1.
       -2    1    3    3    0  502 -0.34564879227E+01  0.29885840856E+03 -0.91307358156E+03  0.96074536742E+03  0.25500000920E-02 0.  1.
</event>
<event>
 5   0  0.3404132E-02  0.8078755E+03  0.7818609E-02  0.9548687E-01
        2   -1    0    0  501    0  0.00000000000E+00  0.00000000000E+00  0.14545182133E+04  0.14545182133E+04  0.25500000920E-02 0. -1.
       -2   -1    0    0    0  501  0.00000000000E+00  0.00000000000E+00 -0.11217851053E+03  0.11217851055E+03  0.25500000920E-02 0.  1.
    10030    2    1    2    0    0  0.00000000000E+00  0.00000000000E+00  0.13423397028E+04  0.15666967239E+04  0.80787545260E+03 0.  0.
        5    1    3    3  502    0  0.39249313273E+03 -0.11087639223E+02  0.85483719518E+03  0.94071383281E+03  0.46999998093E+01 0. -1.
       -5    1    3    3    0  502 -0.39249313273E+03  0.11087639223E+02  0.48750250762E+03  0.62598289107E+03  0.46999998093E+01 0.  1.
</event>
<event>
 5   0  0.2063692E-02  0.8133304E+03  0.7818609E-02  0.9540920E-01
        1   -1    0    0  501    0  0.00000000000E+00  0.00000000000E+00  0.38471976533E+03  0.38471976536E+03  0.50400001928E-02 0. -1.
       -1   -1    0    0    0  501  0.00000000000E+00  0.00000000000E+00 -0.42986247656E+03  0.42986247659E+03  0.50400001928E-02 0.  1.
    10030    2    1    2    0    0  0.00000000000E+00  0.00000000000E+00 -0.45142711232E+02  0.81458224195E+03  0.81333041534E+03 0.  0.
        2    1    3    3  502    0  0.19882434952E+03 -0.37272209336E+02  0.33075520260E+03  0.38771038625E+03  0.25500000920E-02 0. -1.
       -2    1    3    3    0  502 -0.19882434952E+03  0.37272209336E+02 -0.37589791384E+03  0.42687185569E+03  0.25500000920E-02 0.  1.
</event>
<event>
 5   0  0.3550586E-02  0.7912535E+03  0.7818609E-02  0.9572764E-01
       -2   -1    0    0    0  501  0.00000000000E+00  0.00000000000E+00  0.10970614407E+03  0.10970614409E+03  0.25500000920E-02 0. -1.
        2   -1    0    0  501    0  0.00000000000E+00  0.00000000000E+00 -0.14267252491E+04  0.14267252491E+04  0.25500000920E-02 0.  1.
    10030    2    1    2    0    0  0.00000000000E+00  0.00000000000E+00 -0.13170191051E+04  0.15364313932E+04  0.79125350109E+03 0.  0.
        3    1    3    3  502    0  0.21172609716E+03  0.17390708983E+03 -0.12126758856E+04  0.12432435119E+04  0.10100000352E+00 0.  1.
       -3    1    3    3    0  502 -0.21172609716E+03 -0.17390708983E+03 -0.10434321944E+03  0.29318788132E+03  0.10100000352E+00 0. -1.
</event>
<event>
 5   0  0.1358000E-02  0.7925669E+03  0.7818609E-02  0.9570839E-01
       -4   -1    0    0    0  501  0.00000000000E+00  0.00000000000E+00  0.62162372502E+03  0.62162502235E+03  0.12699999809E+01 0. -1.
        4   -1    0    0  501    0  0.00000000000E+00  0.00000000000E+00 -0.25262649368E+03  0.25262968592E+03  0.12699999809E+01 0.  1.
    10030    2    1    2    0    0  0.00000000000E+00  0.00000000000E+00  0.36899723134E+03  0.87425470827E+03  0.79256692979E+03 0.  0.
        4    1    3    3  502    0 -0.24936891406E+03 -0.11814591001E+03 -0.12923759351E+03  0.30470851617E+03  0.12699999809E+01 0.  1.
       -4    1    3    3    0  502  0.24936891406E+03  0.11814591001E+03  0.49823482485E+03  0.56954619210E+03  0.12699999809E+01 0. -1.
</event>
<event>
 5   0  0.3467240E-02  0.8162853E+03  0.7818609E-02  0.9536739E-01
        2   -1    0    0  501    0  0.00000000000E+00  0.00000000000E+00  0.14726390959E+04  0.14726390959E+04  0.25500000920E-02 0.  1.
       -2   -1    0    0    0  501  0.00000000000E+00  0.00000000000E+00 -0.11311693929E+03  0.11311693931E+03  0.25500000920E-02 0. -1.
    10030    2    1    2    0    0  0.00000000000E+00  0.00000000000E+00  0.13595221566E+04  0.15857560352E+04  0.81628531096E+03 0.  0.
        2    1    3    3  502    0 -0.51862612335E+02 -0.35962894077E+03  0.31862827225E+03  0.48326667740E+03  0.25500000920E-02 0. -1.
       -2    1    3    3    0  502  0.51862612335E+02  0.35962894077E+03  0.10408938843E+04  0.11024893578E+04  0.25500000920E-02 0.  1.
</event>
<event>
 5   0  0.2077795E-02  0.8507804E+03  0.7818609E-02  0.9489290E-01
        1   -1    0    0  501    0  0.00000000000E+00  0.00000000000E+00  0.48625054979E+03  0.48625054982E+03  0.50400001928E-02 0.  1.
       -1   -1    0    0    0  501  0.00000000000E+00  0.00000000000E+00 -0.37214727041E+03  0.37214727045E+03  0.50400001928E-02 0. -1.
    10030    2    1    2    0    0  0.00000000000E+00  0.00000000000E+00  0.11410327938E+03  0.85839782026E+03  0.85078038263E+03 0.  0.
        5    1    3    3  502    0 -0.17340460180E+03  0.28046528688E+03  0.32816701571E+03  0.46523715809E+03  0.46999998093E+01 0.  1.
       -5    1    3    3    0  502  0.17340460180E+03 -0.28046528688E+03 -0.21406373633E+03  0.39316066217E+03  0.46999998093E+01 0. -1.
</event>
<event>
 5   0  0.3343036E-02  0.8044845E+03  0.7818609E-02  0.9553549E-01
       -2   -1    0    0    0  501  0.00000000000E+00  0.00000000000E+00  0.29888606083E+03  0.29888606084E+03  0.25500000920E-02 0. -1.
        2   -1    0    0  501    0  0.00000000000E+00  0.00000000000E+00 -0.54133947207E+03  0.54133947208E+03  0.25500000920E-02 0.  1.
    10030    2    1    2    0    0  0.00000000000E+00  0.00000000000E+00 -0.24245341124E+03  0.84022553292E+03  0.80448448683E+03 0.  0.
        4    1    3    3  502    0  0.25337303060E+03  0.73569565959E+02  0.19588527876E+03  0.32860771294E+03  0.12699999809E+01 0. -1.
       -4    1    3    3    0  502 -0.25337303060E+03 -0.73569565959E+02 -0.43833869000E+03  0.51161781998E+03  0.12699999809E+01 0.  1.
</event>
<event>
 5   0  0.3404132E-02  0.7735762E+03  0.7818609E-02  0.9599072E-01
       -2   -1    0    0    0  501  0.00000000000E+00  0.00000000000E+00  0.33967920521E+03  0.33967920522E+03  0.25500000920E-02 0.  1.
        2   -1    0    0  501    0  0.00000000000E+00  0.00000000000E+00 -0.44043034610E+03  0.44043034611E+03  0.25500000920E-02 0. -1.
    10030    2    1    2    0    0  0.00000000000E+00  0.00000000000E+00 -0.10075114089E+03  0.78010955133E+03  0.77357618867E+03 0.  0.
        5    1    3    3  502    0 -0.24696191501E+03 -0.28081333940E+03  0.49132116607E+02  0.37720335886E+03  0.46999998093E+01 0. -1.
       -5    1    3    3    0  502  0.24696191501E+03  0.28081333940E+03 -0.14988325750E+03  0.40290619247E+03  0.46999998093E+01 0.  1.
</event>
<event>
 5   0  0.2132540E-02  0.7800589E+03  0.7818609E-02  0.9589338E-01
       -1   -1    0    0    0  501  0.00000000000E+00  0.00000000000E+00  0.34355433955E+03  0.34355433959E+03  0.50400001928E-02 0.  1.
        1   -1    0    0  501    0  0.00000000000E+00  0.00000000000E+00 -0.44279162760E+03  0.44279162763E+03  0.50400001928E-02 0. -1.
    10030    2    1    2    0    0  0.00000000000E+00  0.00000000000E+00 -0.99237288056E+02  0.78634596722E+03  0.78005893420E+03 0.  0.
        4    1    3    3  502    0  0.32814013489E+03 -0.10925194164E+03 -0.23137557279E+03  0.41611080672E+03  0.12699999809E+01 0. -1.
       -4    1    3    3    0  502 -0.32814013489E+03  0.10925194164E+03  0.13213828474E+03  0.37023516050E+03  0.12699999809E+01 0.  1.
</event>
<event>
 5   0  0.1358000E-02  0.8191260E+03  0.7818609E-02  0.9532738E-01
       -4   -1    0    0    0  501  0.00000000000E+00  0.00000000000E+00  0.31975521086E+03  0.31975773294E+03  0.12699999809E+01 0.  1.
        4   -1    0    0  501    0  0.00000000000E+00  0.00000000000E+00 -0.52458917792E+03  0.52459071522E+03  0.12699999809E+01 0. -1.
    10030    2    1    2    0    0  0.00000000000E+00  0.00000000000E+00 -0.20483396706E+03  0.84434844816E+03  0.81912596580E+03 0.  0.
        4    1    3    3  502    0  0.36019684629E+03  0.80428882818E+02 -0.28545048876E+03  0.46657707584E+03  0.12699999809E+01 0. -1.
       -4    1    3    3    0  502 -0.36019684629E+03 -0.80428882818E+02  0.80616521699E+02  0.37777137231E+03  0.12699999809E+01 0.  1.
</event>
<event>
 5   0  0.3404132E-02  0.7875031E+03  0.7818609E-02  0.9578284E-01
        2   -1    0    0  501    0  0.00000000000E+00  0.00000000000E+00  0.16862301571E+04  0.16862301571E+04  0.25500000920E-02 0.  1.
       -2   -1    0    0    0  501  0.00000000000E+00  0.00000000000E+00 -0.91944905375E+02  0.91944905411E+02  0.25500000920E-02 0. -1.
    10030    2    1    2    0    0  0.00000000000E+00  0.00000000000E+00  0.15942852518E+04  0.17781750625E+04  0.78750307243E+03 0.  0.
        5    1    3    3  502    0  0.10300394145E+02  0.36820904180E+03  0.48317475990E+03  0.60758862332E+03  0.46999998093E+01 0.  1.
       -5    1    3    3    0  502 -0.10300394145E+02 -0.36820904180E+03  0.11111104919E+04  0.11705864392E+04  0.46999998093E+01 0. -1.
</event>
<event>
 5   0  0.2129257E-02  0.8451253E+03  0.7818609E-02  0.9496903E-01
        1   -1    0    0  501    0  0.00000000000E+00  0.00000000000E+00  0.37388383405E+03  0.37388383408E+03  0.50400001928E-02 0. -1.
       -1   -1    0    0    0  501  0.00000000000E+00  0.00000000000E+00 -0.47757937785E+03  0.47757937788E+03  0.50400001928E-02 0.  1.
    10030    2    1    2    0    0  0.00000000000E+00  0.00000000000E+00 -0.10369554381E+03  0.85146321196E+03  0.84512533717E+03 0.  0.
        3    1    3    3  502    0  0.84993234669E+02 -0.37828269694E+03 -0.22114828427E+03  0.44634988808E+03  0.10100000352E+00 0.  1.
       -3    1    3    3    0  502 -0.84993234669E+02  0.37828269694E+03  0.11745274047E+03  0.40511332389E+03  0.10100000352E+00 0. -1.
</event>
<event>
 5   0  0.3416160E-02  0.8029209E+03  0.7818609E-02  0.9555799E-01
        2   -1    0    0  501    0  0.00000000000E+00  0.00000000000E+00  0.16923547134E+04  0.16923547134E+04  0.25500000920E-02 0.  1.
       -2   -1    0    0    0  501  0.00000000000E+00  0.00000000000E+00 -0.95234471963E+02  0.95234471997E+02  0.25500000920E-02 0. -1.
    10030    2    1    2    0    0  0.00000000000E+00  0.00000000000E+00  0.15971202414E+04  0.17875891854E+04  0.80292093642E+03 0.  0.
        1    1    3    3  502    0 -0.25753142478E+03 -0.20174825263E+03  0.13166164499E+04  0.13566516385E+04  0.50400001928E-02 0.  1.
       -1    1    3    3    0  502  0.25753142478E+03  0.20174825263E+03  0.28050379152E+03  0.43093754683E+03  0.50400001928E-02 0. -1.
</event>
<event>
 5   0  0.1989298E-02  0.8031357E+03  0.7818609E-02  0.9555489E-01
        1   -1    0    0  501    0  0.00000000000E+00  0.00000000000E+00  0.88750689948E+03  0.88750689949E+03  0.50400001928E-02 0.  1.
       -1   -1    0    0    0  501  0.00000000000E+00  0.00000000000E+00 -0.18169630369E+03  0.18169630375E+03  0.50400001928E-02 0. -1.
    10030    2    1    2    0    0  0.00000000000E+00  0.00000000000E+00  0.70581059580E+03  0.10692032032E+04  0.80313566270E+03 0.  0.
        1    1    3    3  502    0 -0.37534953673E+03  0.11917780929E+02  0.54224493132E+03  0.65958992851E+03  0.50400001928E-02 0.  1.
       -1    1    3    3    0  502  0.37534953673E+03 -0.11917780929E+02  0.16356566448E+03  0.40961327474E+03  0.50400001928E-02 0. -1.
</event>
<event>
 5   0  0.3416160E-02  0.7890683E+03  0.7818609E-02  0.9575977E-01
        2   -1    0    0  501    0  0.00000000000E+00  0.00000000000E+00  0.18170103292E+03  0.18170103294E+03  0.25500000920E-02 0. -1.
       -2   -1    0    0    0  501  0.00000000000E+00  0.00000000000E+00 -0.85666648244E+03  0.85666648244E+03  0.25500000920E-02 0.  1.
    10030    2    1    2    0    0  0.00000000000E+00  0.00000000000E+00 -0.67496544952E+03  0.10383675154E+04  0.78906827269E+03 0.  0.
        1    1    3    3  502    0 -0.29078401894E+03  0.26572596158E+03 -0.36665843350E+03  0.53814871477E+03  0.50400001928E-02 0. -1.
       -1    1    3    3    0  502  0.29078401894E+03 -0.26572596158E+03 -0.30830701602E+03  0.50021880061E+03  0.50400001928E-02 0.  1.
</event>
<event>
 5   0  0.3416160E-02  0.8201028E+03  0.7818609E-02  0.9531367E-01
        2   -1    0    0  501    0  0.00000000000E+00  0.00000000000E+00  0.14170447063E+04  0.14170447063E+04  0.25500000920E-02 0.  1.
       -2   -1    0    0    0  501  0.00000000000E+00  0.00000000000E+00 -0.11865689868E+03  0.11865689870E+03  0.25500000920E-02 0. -1.
    10030    2    1    2    0    0  0.00000000000E+00  0.00000000000E+00  0.12983878076E+04  0.15357016050E+04  0.82010275005E+03 0.  0.
        1    1    3    3  502    0 -0.33879507244E+03 -0.23089868362E+03  0.66187039191E+03  0.77856837781E+03  0.50400001928E-02 0.  1.
       -1    1    3    3    0  502  0.33879507244E+03  0.23089868362E+03  0.63651741572E+03  0.75713322721E+03  0.50400001928E-02 0. -1.
</event>
<event>
 5   0  0.3404132E-02  0.7719337E+03  0.7818609E-02  0.9601555E-01
       -2   -1    0    0    0  501  0.00000000000E+00  0.00000000000E+00  0.18581171156E+04  0.18581171156E+04  0.25500000920E-02 0.  1.
        2   -1    0    0  501    0  0.00000000000E+00  0.00000000000E+00 -0.80172775796E+02  0.80172775837E+02  0.25500000920E-02 0. -1.
    10030    2    1    2    0    0  0.00000000000E+00  0.00000000000E+00  0.17779443398E+04  0.19382898914E+04  0.77193369392E+03 0.  0.
        5    1    3    3  502    0 -0.32209144806E+02 -0.37220950059E+03  0.11320420445E+04  0.11921067996E+04  0.46999998093E+01 0. -1.
       -5    1    3    3    0  502  0.32209144806E+02  0.37220950059E+03  0.64590229532E+03  0.74618309177E+03  0.46999998093E+01 0.  1.
</event>
<event>
 5   0  0.3550586E-02  0.7879080E+03  0.7818609E-02  0.9577687E-01
        2   -1    0    0  501    0  0.00000000000E+00  0.00000000000E+00  0.16726434303E+04  0.16726434303E+04  0.25500000920E-02 0.  1.
       -2   -1    0    0    0  501  0.00000000000E+00  0.00000000000E+00 -0.92787103151E+02  0.92787103186E+02  0.25500000920E-02 0. -1.
    10030    2    1    2    0    0  0.00000000000E+00  0.00000000000E+00  0.15798563272E+04  0.17654305335E+04  0.78790796045E+03 0.  0.
        3    1    3    3  502    0  0.35215448704E+02  0.18941843430E+03  0.19975916916E+02  0.19369697607E+03  0.10100000352E+00 0. -1.
       -3    1    3    3    0  502 -0.35215448704E+02 -0.18941843430E+03  0.15598804102E+04  0.15717335574E+04  0.10100000352E+00 0.  1.
</event>
<event>
 5   0  0.2063692E-02  0.6745898E+03  0.7818609E-02  0.9761702E-01
       -1   -1    0    0    0  501  0.00000000000E+00  0.00000000000E+00  0.35171893905E+03  0.35171893908E+03  0.50400001928E-02 0. -1.
        1   -1    0    0  501    0  0.00000000000E+00  0.00000000000E+00 -0.32346235520E+03  0.32346235524E+03  0.50400001928E-02 0.  1.
    10030    2    1    2    0    0  0.00000000000E+00  0.00000000000E+00  0.28256583847E+02  0.67518129432E+03  0.67458976102E+03 0.  0.
        2    1    3    3  502    0 -0.17104781765E+03  0.15544143962E+03  0.26000289867E+03  0.34788058928E+03  0.25500000920E-02 0. -1.
       -2    1    3    3    0  502  0.17104781765E+03 -0.15544143962E+03 -0.23174631483E+03  0.32730070504E+03  0.25500000920E-02 0.  1.
</event>
<event>
 5   0  0.2129257E-02  0.8216313E+03  0.7818609E-02  0.9529224E-01
        1   -1    0    0  501    0  0.00000000000E+00  0.00000000000E+00  0.76453622902E+03  0.76453622903E+03  0.50400001928E-02 0. -1.
       -1   -1    0    0    0  501  0.00000000000E+00  0.00000000000E+00 -0.22074754254E+03  0.22074754260E+03  0.50400001928E-02 0.  1.
    10030    2    1    2    0    0  0.00000000000E+00  0.00000000000E+00  0.54378868648E+03  0.98528377163E+03  0.82163128902E+03 0.  0.
        3    1    3    3  502    0 -0.21148378090E+03  0.30465635665E+03  0.48380881019E+03  0.60959975415E+03  0.10100000352E+00 0. -1.
       -3    1    3    3    0  502  0.21148378090E+03 -0.30465635665E+03  0.59979876282E+02  0.37568401748E+03  0.10100000352E+00 0.  1.
</event>
<event>
 5   0  0.1358000E-02  0.7731597E+03  0.7818609E-02  0.9599701E-01
        3   -1    0    0  501    0  0.00000000000E+00  0.00000000000E+00  0.30828311155E+03  0.30828312810E+03  0.10100000352E+00 0.  1.
       -3   -1    0    0    0  501  0.00000000000E+00  0.00000000000E+00 -0.48476214685E+03  0.48476215737E+03  0.10100000352E+00 0. -1.
    10030    2    1    2    0    0  0.00000000000E+00  0.00000000000E+00 -0.17647903530E+03  0.79304528547E+03  0.77315973440E+03 0.  0.
        2    1    3    3  502    0 -0.38181467004E+03 -0.53570588469E+02 -0.59377876871E+02  0.39009996472E+03  0.25500000920E-02 0.  1.
       -2    1    3    3    0  502  0.38181467004E+03  0.53570588469E+02 -0.11710115843E+03  0.40294532075E+03  0.25500000920E-02 0. -1.
</event>
<event>
 5   0  0.1358000E-02  0.7844610E+03  0.7818609E-02  0.9582786E-01
        3   -1    0    0  501    0  0.00000000000E+00  0.00000000000E+00  0.10960503739E+04  0.10960503786E+04  0.10100000352E+00 0. -1.
       -3   -1    0    0    0  501  0.00000000000E+00  0.00000000000E+00 -0.14036282219E+03  0.14036285853E+03  0.10100000352E+00 0.  1.
    10030    2    1    2    0    0  0.00000000000E+00  0.00000000000E+00  0.95568755171E+03  0.12364132371E+04  0.78446095908E+03 0.  0.
        5    1    3    3  502    0  0.22686211415E+03  0.18157427828E+03  0.89301900572E+03  0.93911696393E+03  0.46999998093E+01 0. -1.
       -5    1    3    3    0  502 -0.22686211415E+03 -0.18157427828E+03  0.62668545993E+02  0.29729627315E+03  0.46999998093E+01 0.  1.
</event>
<event>
 5   0  0.2063692E-02  0.7933144E+03  0.7818609E-02  0.9569745E-01
       -1   -1    0    0    0  501  0.00000000000E+00  0.00000000000E+00  0.11349024883E+04  0.11349024883E+04  0.50400001928E-02 0. -1.
        1   -1    0    0  501    0  0.00000000000E+00  0.00000000000E+00 -0.13863476300E+03  0.13863476309E+03  0.50400001928E-02 0.  1.
    10030    2    1    2    0    0  0.00000000000E+00  0.00000000000E+00  0.99626772526E+03  0.12735372514E+04  0.79331440816E+03 0.  0.
        2    1    3    3  502    0 -0.92826883974E+02 -0.24659789143E+03  0.97410917859E+03  0.10091164662E+04  0.25500000920E-02 0. -1.
       -2    1    3    3    0  502  0.92826883974E+02  0.24659789143E+03  0.22158546664E+02  0.26442078519E+03  0.25500000920E-02 0.  1.
</event>
<event>
 5   0  0.1989298E-02  0.8021187E+03  0.7818609E-02  0.9556955E-01
        1   -1    0    0  501    0  0.00000000000E+00  0.00000000000E+00  0.19673648151E+04  0.19673648151E+04  0.50400001928E-02 0.  1.
       -1   -1    0    0    0  501  0.00000000000E+00  0.00000000000E+00 -0.81758394916E+02  0.81758395071E+02  0.50400001928E-02 0. -1.
    10030    2    1    2    0    0  0.00000000000E+00  0.00000000000E+00  0.18856064202E+04  0.20491232102E+04  0.80211866869E+03 0.  0.
        1    1    3    3  502    0 -0.30281868243E+02 -0.74231167314E+01  0.19642641359E+04  0.19645115652E+04  0.50400001928E-02 0.  1.
       -1    1    3    3    0  502  0.30281868243E+02  0.74231167314E+01 -0.78657715692E+02  0.84611645000E+02  0.50400001928E-02 0. -1.
</event>
<event>
 5   0  0.3416160E-02  0.7996507E+03  0.7818609E-02  0.9560523E-01
       -2   -1    0    0    0  501  0.00000000000E+00  0.00000000000E+00  0.40670963533E+03  0.40670963534E+03  0.25500000920E-02 0. -1.
        2   -1    0    0  501    0  0.00000000000E+00  0.00000000000E+00 -0.39305760282E+03  0.39305760282E+03  0.25500000920E-02 0.  1.
    10030    2    1    2    0    0  0.00000000000E+00  0.00000000000E+00  0.13652032519E+02  0.79976723817E+03  0.79965070953E+03 0.  0.
        1    1    3    3  502    0 -0.33484834695E+03  0.52895739010E+02 -0.20519294040E+03  0.39626445396E+03  0.50400001928E-02 0.  1.
       -1    1    3    3    0  502  0.33484834695E+03 -0.52895739010E+02  0.21884497292E+03  0.40350278420E+03  0.50400001928E-02 0. -1.
</event>
<event>
 5   0  0.2129257E-02  0.8110377E+03  0.7818609E-02  0.9544176E-01
        1   -1    0    0  501    0  0.00000000000E+00  0.00000000000E+00  0.90135443087E+03  0.90135443089E+03  0.50400001928E-02 0. -1.
       -1   -1    0    0    0  501  0.00000000000E+00  0.00000000000E+00 -0.18244270696E+03  0.18244270703E+03  0.50400001928E-02 0.  1.
    10030    2    1    2    0    0  0.00000000000E+00  0.00000000000E+00  0.71891172391E+03  0.10837971379E+04  0.81103771144E+03 0.  0.
        3    1    3    3  502    0 -0.26882447477E+03 -0.26061800372E+03  0.56758227369E+03  0.67995440267E+03  0.10100000352E+00 0. -1.
       -3    1    3    3    0  502  0.26882447477E+03  0.26061800372E+03  0.15132945022E+03  0.40384273524E+03  0.10100000352E+00 0.  1.
</event>
<event>
 5   0  0.3467240E-02  0.7937578E+03  0.7818609E-02  0.9569097E-01
        2   -1    0    0  501    0  0.00000000000E+00  0.00000000000E+00  0.62152061776E+03  0.62152061777E+03  0.25500000920E-02 0. -1.
       -2   -1    0    0    0  501  0.00000000000E+00  0.00000000000E+00 -0.25343141141E+03  0.25343141142E+03  0.25500000920E-02 0.  1.
    10030    2    1    2    0    0  0.00000000000E+00  0.00000000000E+00  0.36808920636E+03  0.87495202919E+03  0.79375776503E+03 0.  0.
        2    1    3    3  502    0  0.92662709098E+02  0.23733243985E+03 -0.15138488511E+03  0.29636202204E+03  0.25500000920E-02 0.  1.
       -2    1    3    3    0  502 -0.92662709098E+02 -0.23733243985E+03  0.51947409147E+03  0.57859000715E+03  0.25500000920E-02 0. -1.
</event>
<event>
 5   0  0.2077795E-02  0.8220429E+03  0.7818609E-02  0.9528648E-01
       -1   -1    0    0    0  501  0.00000000000E+00  0.00000000000E+00  0.97955678161E+03  0.97955678162E+03  0.50400001928E-02 0. -1.
        1   -1    0    0  501    0  0.00000000000E+00  0.00000000000E+00 -0.17246435830E+03  0.17246435837E+03  0.50400001928E-02 0.  1.
    10030    2    1    2    0    0  0.00000000000E+00  0.00000000000E+00  0.80709242331E+03  0.11520211400E+04  0.82204289865E+03 0.  0.
        5    1    3    3  502    0 -0.50366769995E+02  0.12978584359E+03 -0.13837721366E+03  0.19634540986E+03  0.46999998093E+01 0.  1.
       -5    1    3    3    0  502  0.50366769995E+02 -0.12978584359E+03  0.94546963698E+03  0.95567573013E+03  0.46999998093E+01 0. -1.
</event>
<event>
 5   0  0.3343036E-02  0.5985338E+03  0.7818609E-02  0.9908453E-01
       -2   -1    0    0    0  501  0.00000000000E+00  0.00000000000E+00  0.63088757527E+03  0.63088757527E+03  0.25500000920E-02 0.  1.
        2   -1    0    0  501    0  0.00000000000E+00  0.00000000000E+00 -0.14195982024E+03  0.14195982027E+03  0.25500000920E-02 0. -1.
    10030    2    1    2    0    0  0.00000000000E+00  0.00000000000E+00  0.48892775502E+03  0.77284739554E+03  0.59853383125E+03 0.  0.
        4    1    3    3  502    0 -0.19523758779E+03  0.27878945074E+02  0.53510382573E+03  0.57029173980E+03  0.12699999809E+01 0.  1.
       -4    1    3    3    0  502  0.19523758779E+03 -0.27878945074E+02 -0.46176070709E+02  0.20255565574E+03  0.12699999809E+01 0. -1.
</event>
<event>
 5   0  0.3416160E-02  0.7940693E+03  0.7818609E-02  0.9568641E-01
       -2   -1    0    0    0  501  0.00000000000E+00  0.00000000000E+00  0.16129412027E+03  0.16129412029E+03  0.25500000920E-02 0. -1.
        2   -1    0    0  501    0  0.00000000000E+00  0.00000000000E+00 -0.97732338489E+03  0.97732338490E+03  0.25500000920E-02 0.  1.
    10030    2    1    2    0    0  0.00000000000E+00  0.00000000000E+00 -0.81602926463E+03  0.11386175052E+04  0.79406930578E+03 0.  0.
        1    1    3    3  502    0  0.21725304068E+03  0.29949899734E+03 -0.20152288511E+03  0.42131936384E+03  0.50400001928E-02 0. -1.
       -1    1    3    3    0  502 -0.21725304068E+03 -0.29949899734E+03 -0.61450637952E+03  0.71729814135E+03  0.50400001928E-02 0.  1.
</event>
<event>
 5   0  0.3416160E-02  0.8803122E+03  0.7818609E-02  0.9450532E-01
       -2   -1    0    0    0  501  0.00000000000E+00  0.00000000000E+00  0.61256935369E+03  0.61256935369E+03  0.25500000920E-02 0. -1.
        2   -1    0    0  501    0  0.00000000000E+00  0.00000000000E+00 -0.31627012373E+03  0.31627012374E+03  0.25500000920E-02 0.  1.
    10030    2    1    2    0    0  0.00000000000E+00  0.00000000000E+00  0.29629922996E+03  0.92883947743E+03  0.88031218392E+03 0.  0.
        1    1    3    3  502    0  0.24902929330E+03 -0.21962055211E+03 -0.15672240378E+03  0.36716574963E+03  0.50400001928E-02 0.  1.
       -1    1    3    3    0  502 -0.24902929330E+03  0.21962055211E+03  0.45302163374E+03  0.56167372780E+03  0.50400001928E-02 0. -1.
</event>
<event>
 5   0  0.2132540E-02  0.7269296E+03  0.7818609E-02  0.9672256E-01
       -1   -1    0    0    0  501  0.00000000000E+00  0.00000000000E+00  0.39081649471E+03  0.39081649475E+03  0.50400001928E-02 0.  1.
        1   -1    0    0  501    0  0.00000000000E+00  0.00000000000E+00 -0.33802731289E+03  0.33802731293E+03  0.50400001928E-02 0. -1.
    10030    2    1    2    0    0  0.00000000000E+00  0.00000000000E+00  0.52789181822E+02  0.72884380768E+03  0.72692956899E+03 0.  0.
        4    1    3    3  502    0  0.25582919627E+03  0.22119486155E+03  0.15989660960E+03  0.37409127643E+03  0.12699999809E+01 0.  1.
       -4    1    3    3    0  502 -0.25582919627E+03 -0.22119486155E+03 -0.10710742778E+03  0.35475253125E+03  0.12699999809E+01 0. -1.
</event>
<event>
 5   0  0.3343036E-02  0.5747461E+03  0.7818609E-02  0.9959231E-01
       -2   -1    0    0    0  501  0.00000000000E+00  0.00000000000E+00  0.30651693321E+03  0.30651693322E+03  0.25500000920E-02 0.  1.
        2   -1    0    0  501    0  0.00000000000E+00  0.00000000000E+00 -0.26942482542E+03  0.26942482543E+03  0.25500000920E-02 0. -1.
    10030    2    1    2    0    0  0.00000000000E+00  0.00000000000E+00  0.37092107791E+02  0.57594175866E+03  0.57474610473E+03 0.  0.
        4    1    3    3  502    0 -0.24577460260E+03  0.12585316795E+03 -0.61227867481E+02  0.28283323677E+03  0.12699999809E+01 0.  1.
       -4    1    3    3    0  502  0.24577460260E+03 -0.12585316795E+03  0.98319975272E+02  0.29310852189E+03  0.12699999809E+01 0. -1.
</event>
<event>
 5   0  0.3343036E-02  0.7872948E+03  0.7818609E-02  0.9578592E-01
        2   -1    0    0  501    0  0.00000000000E+00  0.00000000000E+00  0.83554013036E+03  0.83554013037E+03  0.25500000920E-02 0. -1.
       -2   -1    0    0    0  501  0.00000000000E+00  0.00000000000E+00 -0.18545881898E+03  0.18545881900E+03  0.25500000920E-02 0.  1.
    10030    2    1    2    0    0  0.00000000000E+00  0.00000000000E+00  0.65008131138E+03  0.10209989494E+04  0.78729482610E+03 0.  0.
        4    1    3    3  502    0 -0.24307247388E+03  0.17903925605E+03 -0.25695463129E+01  0.30190643953E+03  0.12699999809E+01 0.  1.
       -4    1    3    3    0  502  0.24307247388E+03 -0.17903925605E+03  0.65265085769E+03  0.71909250984E+03  0.12699999809E+01 0. -1.
</event>
<event>
 5   0  0.1358000E-02  0.7982941E+03  0.7818609E-02  0.9562490E-01
        4   -1    0    0  501    0  0.00000000000E+00  0.00000000000E+00  0.94464576063E+03  0.94464661433E+03  0.12699999809E+01 0. -1.
       -4   -1    0    0    0  501  0.00000000000E+00  0.00000000000E+00 -0.16865077457E+03  0.16865555627E+03  0.12699999809E+01 0.  1.
    10030    2    1    2    0    0  0.00000000000E+00  0.00000000000E+00  0.77599498606E+03  0.11133021706E+04  0.79829412166E+03 0.  0.
        1    1    3    3  502    0 -0.12997050337E+03 -0.31724216476E+02  0.91244853810E+03  0.92220447427E+03  0.50400001928E-02 0. -1.
       -1    1    3    3    0  502  0.12997050337E+03  0.31724216476E+02 -0.13645355203E+03  0.19109769634E+03  0.50400001928E-02 0.  1.
</event>
<event>
 5   0  0.3416160E-02  0.7909307E+03  0.7818609E-02  0.9573238E-01
        2   -1    0    0  501    0  0.00000000000E+00  0.00000000000E+00  0.18133116360E+04  0.18133116360E+04  0.25500000920E-02 0.  1.
       -2   -1    0    0    0  501  0.00000000000E+00  0.00000000000E+00 -0.86247092704E+02  0.86247092742E+02  0.25500000920E-02 0. -1.
    10030    2    1    2    0    0  0.00000000000E+00  0.00000000000E+00  0.17270645433E+04  0.18995587288E+04  0.79093073480E+03 0.  0.
        1    1    3    3  502    0 -0.15871240219E+03 -0.29289778548E+03  0.35172115760E+03  0.48444453973E+03  0.50400001928E-02 0. -1.
       -1    1    3    3    0  502  0.15871240219E+03  0.29289778548E+03  0.13753433857E+04  0.14151141890E+04  0.50400001928E-02 0.  1.
</event>
<event>
 5   0  0.2129257E-02  0.7839875E+03  0.7818609E-02  0.9583488E-01
        1   -1    0    0  501    0  0.00000000000E+00  0.00000000000E+00  0.87689526140E+03  0.87689526141E+03  0.50400001928E-02 0.  1.
       -1   -1    0    0    0  501  0.00000000000E+00  0.00000000000E+00 -0.17523084274E+03  0.17523084282E+03  0.50400001928E-02 0. -1.
    10030    2    1    2    0    0  0.00000000000E+00  0.00000000000E+00  0.70166441866E+03  0.10521261042E+04  0.78398748893E+03 0.  0.
        3    1    3    3  502    0  0.14697215377E+03 -0.36238256133E+03  0.38726872353E+03  0.55036261607E+03  0.10100000352E+00 0.  1.
       -3    1    3    3    0  502 -0.14697215377E+03  0.36238256133E+03  0.31439569513E+03  0.50176348816E+03  0.10100000352E+00 0. -1.
</event>
<event>
 5   0  0.2077795E-02  0.8033622E+03  0.7818609E-02  0.9555163E-01
        1   -1    0    0  501    0  0.00000000000E+00  0.00000000000E+00  0.11921006987E+04  0.11921006987E+04  0.50400001928E-02 0. -1.
       -1   -1    0    0    0  501  0.00000000000E+00  0.00000000000E+00 -0.13534737937E+03  0.13534737947E+03  0.50400001928E-02 0.  1.
    10030    2    1    2    0    0  0.00000000000E+00  0.00000000000E+00  0.10567533193E+04  0.13274480782E+04  0.80336219872E+03 0.  0.
        5    1    3    3  502    0  0.39180382562E+02  0.36207446256E+03  0.80826904152E+03  0.88654044031E+03  0.46999998093E+01 0. -1.
       -5    1    3    3    0  502 -0.39180382562E+02 -0.36207446256E+03  0.24848427778E+03  0.44090763785E+03  0.46999998093E+01 0.  1.
</event>
<event>
 5   0  0.2077795E-02  0.8024363E+03  0.7818609E-02  0.9556497E-01
       -1   -1    0    0    0  501  0.00000000000E+00  0.00000000000E+00  0.22377251568E+03  0.22377251574E+03  0.50400001928E-02 0.  1.
        1   -1    0    0  501    0  0.00000000000E+00  0.00000000000E+00 -0.71937342590E+03  0.71937342592E+03  0.50400001928E-02 0. -1.
    10030    2    1    2    0    0  0.00000000000E+00  0.00000000000E+00 -0.49560091021E+03  0.94314594165E+03  0.80243629346E+03 0.  0.
        5    1    3    3  502    0  0.17758918599E+02  0.20057121166E+03 -0.65564918333E+03  0.68588784195E+03  0.46999998093E+01 0. -1.
       -5    1    3    3    0  502 -0.17758918599E+02 -0.20057121166E+03  0.16004827311E+03  0.25725809970E+03  0.46999998093E+01 0.  1.
</event>
<event>
 5   0  0.1358000E-02  0.8126414E+03  0.7818609E-02  0.9541897E-01
       -4   -1    0    0    0  501  0.00000000000E+00  0.00000000000E+00  0.20724011303E+03  0.20724400437E+03  0.12699999809E+01 0.  1.
        4   -1    0    0  501    0  0.00000000000E+00  0.00000000000E+00 -0.79663176769E+03  0.79663278001E+03  0.12699999809E+01 0. -1.
    10030    2    1    2    0    0  0.00000000000E+00  0.00000000000E+00 -0.58939165466E+03  0.10038767844E+04  0.81264141886E+03 0.  0.
        5    1    3    3  502    0 -0.23103470907E+02 -0.26476961787E+03  0.84928623108E+02  0.27905498013E+03  0.46999998093E+01 0.  1.
       -5    1    3    3    0  502  0.23103470907E+02  0.26476961787E+03 -0.67432027777E+03  0.72482180425E+03  0.46999998093E+01 0. -1.
</event>
<event>
 5   0  0.3550586E-02  0.6241175E+03  0.7818609E-02  0.9856596E-01
        2   -1    0    0  501    0  0.00000000000E+00  0.00000000000E+00  0.16550145370E+04  0.16550145370E+04  0.25500000920E-02 0.  1.
       -2   -1    0    0    0  501  0.00000000000E+00  0.00000000000E+00 -0.58839763895E+02  0.58839763951E+02  0.25500000920E-02 0. -1.
    10030    2    1    2    0    0  0.00000000000E+00  0.00000000000E+00  0.15961747732E+04  0.17138543010E+04  0.62411750385E+03 0.  0.
        3    1    3    3  502    0  0.85389646033E+02  0.11371586103E+03  0.15608649681E+04  0.15673296231E+04  0.10100000352E+00 0.  1.
       -3    1    3    3    0  502 -0.85389646033E+02 -0.11371586103E+03  0.35309805094E+02  0.14652467791E+03  0.10100000352E+00 0. -1.
</event>
<event>
 5   0  0.3404132E-02  0.8014589E+03  0.7818609E-02  0.9557908E-01
        2   -1    0    0  501    0  0.00000000000E+00  0.00000000000E+00  0.27016800315E+03  0.27016800317E+03  0.25500000920E-02 0.  1.
       -2   -1    0    0    0  501  0.00000000000E+00  0.00000000000E+00 -0.59438604602E+03  0.59438604603E+03  0.25500000920E-02 0. -1.
    10030    2    1    2    0    0  0.00000000000E+00  0.00000000000E+00 -0.32421804287E+03  0.86455404919E+03  0.80145889767E+03 0.  0.
        5    1    3    3  502    0  0.49861351482E+02 -0.16833275821E+03  0.22644170291E+03  0.28656588540E+03  0.46999998093E+01 0.  1.
       -5    1    3    3    0  502 -0.49861351482E+02  0.16833275821E+03 -0.55065974578E+03  0.57798816379E+03  0.46999998093E+01 0. -1.
</event>
<event>
 5   0  0.3467240E-02  0.8148912E+03  0.7818609E-02  0.9538709E-01
        2   -1    0    0  501    0  0.00000000000E+00  0.00000000000E+00  0.16314870336E+04  0.16314870336E+04  0.25500000920E-02 0.  1.
       -2   -1    0    0    0  501  0.00000000000E+00  0.00000000000E+00 -0.10175497167E+03  0.10175497171E+03  0.25500000920E-02 0. -1.
    10030    2    1    2    0    0  0.00000000000E+00  0.00000000000E+00  0.15297320620E+04  0.17332420054E+04  0.81489119991E+03 0.  0.
        2    1    3    3  502    0 -0.13044377013E+03  0.82625296128E+02 -0.37112317289E+02  0.15880755910E+03  0.25500000920E-02 0. -1.
       -2    1    3    3    0  502  0.13044377013E+03 -0.82625296128E+02  0.15668443793E+04  0.15744344463E+04  0.25500000920E-02 0.  1.
</event>
<event>
 5   0  0.2063692E-02  0.8006175E+03  0.7818609E-02  0.9559124E-01
       -1   -1    0    0    0  501  0.00000000000E+00  0.00000000000E+00  0.88957496082E+02  0.88957496225E+02  0.50400001928E-02 0.  1.
        1   -1    0    0  501    0  0.00000000000E+00  0.00000000000E+00 -0.18013894278E+04  0.18013894278E+04  0.50400001928E-02 0. -1.
    10030    2    1    2    0    0  0.00000000000E+00  0.00000000000E+00 -0.17124319317E+04  0.18903469240E+04  0.80061749445E+03 0.  0.
        2    1    3    3  502    0  0.10336472975E+03 -0.21500065541E+03 -0.97209445424E+02  0.25760284445E+03  0.25500000920E-02 0.  1.
       -2    1    3    3    0  502 -0.10336472975E+03  0.21500065541E+03 -0.16152224863E+04  0.16327440795E+04  0.25500000920E-02 0. -1.
</event>
<event>
 5   0  0.3416160E-02  0.7865925E+03  0.7818609E-02  0.9579629E-01
       -2   -1    0    0    0  501  0.00000000000E+00  0.00000000000E+00  0.12266531831E+03  0.12266531834E+03  0.25500000920E-02 0. -1.
        2   -1    0    0  501    0  0.00000000000E+00  0.00000000000E+00 -0.12610080056E+04  0.12610080056E+04  0.25500000920E-02 0.  1.
    10030    2    1    2    0    0  0.00000000000E+00  0.00000000000E+00 -0.11383426873E+04  0.13836733240E+04  0.78659252075E+03 0.  0.
        1    1    3    3  502    0 -0.24537873828E+00  0.19372914680E+03  0.32911956035E+02  0.19650506204E+03  0.50400001928E-02 0. -1.
       -1    1    3    3    0  502  0.24537873828E+00 -0.19372914680E+03 -0.11712546434E+04  0.11871682619E+04  0.50400001928E-02 0.  1.
</event>
<event>
 5   0  0.1358000E-02  0.8227704E+03  0.7818609E-02  0.9527630E-01
       -3   -1    0    0    0  501  0.00000000000E+00  0.00000000000E+00  0.68290525225E+03  0.68290525972E+03  0.10100000352E+00 0.  1.
        3   -1    0    0  501    0  0.00000000000E+00  0.00000000000E+00 -0.24782030385E+03  0.24782032443E+03  0.10100000352E+00 0. -1.
    10030    2    1    2    0    0  0.00000000000E+00  0.00000000000E+00  0.43508494840E+03  0.93072558414E+03  0.82277044226E+03 0.  0.
        4    1    3    3  502    0  0.12481039289E+03  0.32889693660E+03  0.45879883930E+03  0.57814255761E+03  0.12699999809E+01 0.  1.
       -4    1    3    3    0  502 -0.12481039289E+03 -0.32889693660E+03 -0.23713890903E+02  0.35258302653E+03  0.12699999809E+01 0. -1.
</event>
<event>
 5   0  0.1358000E-02  0.8057424E+03  0.7818609E-02  0.9551742E-01
       -4   -1    0    0    0  501  0.00000000000E+00  0.00000000000E+00  0.29607469802E+03  0.29607742181E+03  0.12699999809E+01 0. -1.
        4   -1    0    0  501    0  0.00000000000E+00  0.00000000000E+00 -0.54818409899E+03  0.54818557012E+03  0.12699999809E+01 0.  1.
    10030    2    1    2    0    0  0.00000000000E+00  0.00000000000E+00 -0.25210940097E+03  0.84426299193E+03  0.80574242130E+03 0.  0.
        4    1    3    3  502    0 -0.53950225364E+02  0.25553087693E+03  0.19536262408E+03  0.32615153482E+03  0.12699999809E+01 0. -1.
       -4    1    3    3    0  502  0.53950225364E+02 -0.25553087693E+03 -0.44747202505E+03  0.51811145710E+03  0.12699999809E+01 0.  1.
</event>
<event>
 5   0  0.1989298E-02  0.7977431E+03  0.7818609E-02  0.9563290E-01
        1   -1    0    0  501    0  0.00000000000E+00  0.00000000000E+00  0.17889601588E+03  0.17889601595E+03  0.50400001928E-02 0.  1.
       -1   -1    0    0    0  501  0.00000000000E+00  0.00000000000E+00 -0.88933523599E+03  0.88933523601E+03  0.50400001928E-02 0. -1.
    10030    2    1    2    0    0  0.00000000000E+00  0.00000000000E+00 -0.71043922011E+03  0.10682312520E+04  0.79774314299E+03 0.  0.
        1    1    3    3  502    0  0.18390022236E+03 -0.29775995964E+03 -0.98977227588E+02  0.36369874478E+03  0.50400001928E-02 0.  1.
       -1    1    3    3    0  502 -0.18390022236E+03  0.29775995964E+03 -0.61146199252E+03  0.70453250718E+03  0.50400001928E-02 0. -1.
</event>
<event>
 5   0  0.1358000E-02  0.8400252E+03  0.7818609E-02  0.9503823E-01
        3   -1    0    0  501    0  0.00000000000E+00  0.00000000000E+00  0.76998953741E+02  0.76999019982E+02  0.10100000352E+00 0. -1.
       -3   -1    0    0    0  501  0.00000000000E+00  0.00000000000E+00 -0.22910767675E+04  0.22910767697E+04  0.10100000352E+00 0.  1.
    10030    2    1    2    0    0  0.00000000000E+00  0.00000000000E+00 -0.22140778137E+04  0.23680757897E+04  0.84002522606E+03 0.  0.
        5    1    3    3  502    0 -0.98421881569E+02 -0.36537698519E+03 -0.59337293736E+03  0.70377605875E+03  0.46999998093E+01 0.  1.
       -5    1    3    3    0  502  0.98421881569E+02  0.36537698519E+03 -0.16207048764E+04  0.16642997309E+04  0.46999998093E+01 0. -1.
</event>
<event>
 5   0  0.2129257E-02  0.7935818E+03  0.7818609E-02  0.9569354E-01
        1   -1    0    0  501    0  0.00000000000E+00  0.00000000000E+00  0.19010842591E+03  0.19010842597E+03  0.50400001928E-02 0.  1.
       -1   -1    0    0    0  501  0.00000000000E+00  0.00000000000E+00 -0.82817477815E+03  0.82817477816E+03  0.50400001928E-02 0. -1.
    10030    2    1    2    0    0  0.00000000000E+00  0.00000000000E+00 -0.63806635224E+03  0.10182832041E+04  0.79358176262E+03 0.  0.
        3    1    3    3  502    0  0.10377529620E+03  0.34735827501E+03 -0.52599793997E+03  0.63882777520E+03  0.10100000352E+00 0. -1.
       -3    1    3    3    0  502 -0.10377529620E+03 -0.34735827501E+03 -0.11206841227E+03  0.37945542894E+03  0.10100000352E+00 0.  1.
</event>
<event>
 5   0  0.2063692E-02  0.8177921E+03  0.7818609E-02  0.9534615E-01
       -1   -1    0    0    0  501  0.00000000000E+00  0.00000000000E+00  0.15944362665E+03  0.15944362673E+03  0.50400001928E-02 0. -1.
        1   -1    0    0  501    0  0.00000000000E+00  0.00000000000E+00 -0.10486211894E+04  0.10486211894E+04  0.50400001928E-02 0.  1.
    10030    2    1    2    0    0  0.00000000000E+00  0.00000000000E+00 -0.88917756274E+03  0.12080648161E+04  0.81779206521E+03 0.  0.
        2    1    3    3  502    0  0.22191266646E+03 -0.29037074950E+02  0.60932974687E+02  0.23195087986E+03  0.25500000920E-02 0. -1.
       -2    1    3    3    0  502 -0.22191266646E+03  0.29037074950E+02 -0.95011053742E+03  0.97611393627E+03  0.25500000920E-02 0.  1.
</event>
<event>
 5   0  0.2129257E-02  0.7997053E+03  0.7818609E-02  0.9560444E-01
        1   -1    0    0  501    0  0.00000000000E+00  0.00000000000E+00  0.71429282715E+03  0.71429282717E+03  0.50400001928E-02 0.  1.
       -1   -1    0    0    0  501  0.00000000000E+00  0.00000000000E+00 -0.22383275299E+03  0.22383275305E+03  0.50400001928E-02 0. -1.
    10030    2    1    2    0    0  0.00000000000E+00  0.00000000000E+00  0.49046007416E+03  0.93812558022E+03  0.79970527066E+03 0.  0.
        3    1    3    3  502    0  0.25046281603E+03 -0.80014182288E+02  0.59861665296E+03  0.65381633429E+03  0.10100000352E+00 0.  1.
       -3    1    3    3    0  502 -0.25046281603E+03  0.80014182288E+02 -0.10815657880E+03  0.28430924593E+03  0.10100000352E+00 0. -1.
</event>
<event>
 5   0  0.2132540E-02  0.7912728E+03  0.7818609E-02  0.9572736E-01
       -1   -1    0    0    0  501  0.00000000000E+00  0.00000000000E+00  0.14160258670E+03  0.14160258679E+03  0.50400001928E-02 0. -1.
        1   -1    0    0  501    0  0.00000000000E+00  0.00000000000E+00 -0.11054047947E+04  0.11054047948E+04  0.50400001928E-02 0.  1.
    10030    2    1    2    0    0  0.00000000000E+00  0.00000000000E+00 -0.96380220804E+03  0.12470073815E+04  0.79127284385E+03 0.  0.
        4    1    3    3  502    0 -0.15034356878E+03 -0.18414917137E+03 -0.98029167434E+03  0.10087058470E+04  0.12699999809E+01 0.  1.
       -4    1    3    3    0  502  0.15034356878E+03  0.18414917137E+03  0.16489466304E+02  0.23830153459E+03  0.12699999809E+01 0. -1.
</event>
<event>
 5   0  0.1358000E-02  0.8141154E+03  0.7818609E-02  0.9539807E-01
        4   -1    0    0  501    0  0.00000000000E+00  0.00000000000E+00  0.23176898840E+03  0.23177246791E+03  0.12699999809E+01 0.  1.
       -4   -1    0    0    0  501  0.00000000000E+00  0.00000000000E+00 -0.71490930321E+03  0.71491043126E+03  0.12699999809E+01 0. -1.
    10030    2    1    2    0    0  0.00000000000E+00  0.00000000000E+00 -0.48314031482E+03  0.94668289917E+03  0.81411543885E+03 0.  0.
        5    1    3    3  502    0 -0.66363289417E+02  0.27762052869E+03 -0.57898637656E+03  0.64554206553E+03  0.46999998093E+01 0. -1.
       -5    1    3    3    0  502  0.66363289417E+02 -0.27762052869E+03  0.95846061740E+02  0.30114083364E+03  0.46999998093E+01 0.  1.
</event>
<event>
 5   0  0.3467240E-02  0.7696819E+03  0.7818609E-02  0.9604969E-01
        2   -1    0    0  501    0  0.00000000000E+00  0.00000000000E+00  0.49964377307E+03  0.49964377308E+03  0.25500000920E-02 0. -1.
       -2   -1    0    0    0  501  0.00000000000E+00  0.00000000000E+00 -0.29641629605E+03  0.29641629606E+03  0.25500000920E-02 0.  1.
    10030    2    1    2    0    0  0.00000000000E+00  0.00000000000E+00  0.20322747702E+03  0.79606006914E+03  0.76968189940E+03 0.  0.
        2    1    3    3  502    0 -0.22190860851E+03 -0.21877308509E+03 -0.13195184756E+03  0.33840269410E+03  0.25500000920E-02 0.  1.
       -2    1    3    3    0  502  0.22190860851E+03  0.21877308509E+03  0.33517932458E+03  0.45765737504E+03  0.25500000920E-02 0. -1.
</event>
<event>
 5   0  0.2063692E-02  0.7804952E+03  0.7818609E-02  0.9588687E-01
        1   -1    0    0  501    0  0.00000000000E+00  0.00000000000E+00  0.34807640014E+03  0.34807640017E+03  0.50400001928E-02 0.  1.
       -1   -1    0    0    0  501  0.00000000000E+00  0.00000000000E+00 -0.43752805139E+03  0.43752805142E+03  0.50400001928E-02 0. -1.
    10030    2    1    2    0    0  0.00000000000E+00  0.00000000000E+00 -0.89451651250E+02  0.78560445159E+03  0.78049519950E+03 0.  0.
        2    1    3    3  502    0 -0.19876785417E+03 -0.10843968967E+03 -0.36465136378E+03  0.42923005866E+03  0.25500000920E-02 0. -1.
       -2    1    3    3    0  502  0.19876785417E+03  0.10843968967E+03  0.27519971253E+03  0.35637439292E+03  0.25500000920E-02 0.  1.
</event>
<event>
 5   0  0.2077795E-02  0.9297579E+03  0.7818609E-02  0.9389128E-01
        1   -1    0    0  501    0  0.00000000000E+00  0.00000000000E+00  0.43697866880E+03  0.43697866883E+03  0.50400001928E-02 0. -1.
       -1   -1    0    0    0  501  0.00000000000E+00  0.00000000000E+00 -0.49456065887E+03  0.49456065889E+03  0.50400001928E-02 0.  1.
    10030    2    1    2    0    0  0.00000000000E+00  0.00000000000E+00 -0.57581990066E+02  0.93153932772E+03  0.92975794350E+03 0.  0.
        5    1    3    3  502    0  0.46195532233E+03 -0.15702076969E+02  0.20711089684E+02  0.46270975166E+03  0.46999998093E+01 0.  1.
       -5    1    3    3    0  502 -0.46195532233E+03  0.15702076969E+02 -0.78293079750E+02  0.46882957606E+03  0.46999998093E+01 0. -1.
</event>
<event>
 5   0  0.1358000E-02  0.7944221E+03  0.7818609E-02  0.9568126E-01
        3   -1    0    0  501    0  0.00000000000E+00  0.00000000000E+00  0.36056508150E+03  0.36056509565E+03  0.10100000352E+00 0. -1.
       -3   -1    0    0    0  501  0.00000000000E+00  0.00000000000E+00 -0.43758153180E+03  0.43758154345E+03  0.10100000352E+00 0.  1.
    10030    2    1    2    0    0  0.00000000000E+00  0.00000000000E+00 -0.77016450297E+02  0.79814663910E+03  0.79442213205E+03 0.  0.
        2    1    3    3  502    0 -0.33548089794E+03  0.13376523336E+03  0.12760312851E+03  0.38304455217E+03  0.25500000920E-02 0. -1.
       -2    1    3    3    0  502  0.33548089794E+03 -0.13376523336E+03 -0.20461957880E+03  0.41510208693E+03  0.25500000920E-02 0.  1.
</event>
<event>
 5   0  0.3550586E-02  0.7961786E+03  0.7818609E-02  0.9565565E-01
       -2   -1    0    0    0  501  0.00000000000E+00  0.00000000000E+00  0.30016304022E+03  0.30016304024E+03  0.25500000920E-02 0.  1.
        2   -1    0    0  501    0  0.00000000000E+00  0.00000000000E+00 -0.52796337422E+03  0.52796337423E+03  0.25500000920E-02 0. -1.
    10030    2    1    2    0    0  0.00000000000E+00  0.00000000000E+00 -0.22780033399E+03  0.82812641446E+03  0.79617860192E+03 0.  0.
        3    1    3    3  502    0  0.12286035652E+03 -0.37784003135E+03 -0.88057161924E+02  0.40695433462E+03  0.10100000352E+00 0.  1.
       -3    1    3    3    0  502 -0.12286035652E+03  0.37784003135E+03 -0.13974317207E+03  0.42117207984E+03  0.10100000352E+00 0. -1.
</event>
<event>
 5   0  0.3550586E-02  0.8495723E+03  0.7818609E-02  0.9490911E-01
        2   -1    0    0  501    0  0.00000000000E+00  0.00000000000E+00  0.14768257405E+03  0.14768257407E+03  0.25500000920E-02 0.  1.
       -2   -1    0    0    0  501  0.00000000000E+00  0.00000000000E+00 -0.12218317975E+04  0.12218317975E+04  0.25500000920E-02 0. -1.
    10030    2    1    2    0    0  0.00000000000E+00  0.00000000000E+00 -0.10741492235E+04  0.13695143716E+04  0.84957228044E+03 0.  0.
        3    1    3    3  502    0  0.29097026135E+03  0.46871683654E+02 -0.10302073435E+04  0.10715352671E+04  0.10100000352E+00 0. -1.
       -3    1    3    3    0  502 -0.29097026135E+03 -0.46871683654E+02 -0.43941879954E+02  0.29797910452E+03  0.10100000352E+00 0.  1.
</event>
<event>
 5   0  0.3343036E-02  0.7969054E+03  0.7818609E-02  0.9564507E-01
       -2   -1    0    0    0  501  0.00000000000E+00  0.00000000000E+00  0.13724479176E+03  0.13724479178E+03  0.25500000920E-02 0. -1.
        2   -1    0    0  501    0  0.00000000000E+00  0.00000000000E+00 -0.11567983917E+04  0.11567983917E+04  0.25500000920E-02 0.  1.
    10030    2    1    2    0    0  0.00000000000E+00  0.00000000000E+00 -0.10195535999E+04  0.12940431835E+04  0.79690540064E+03 0.  0.
        4    1    3    3  502    0 -0.14050783971E+03  0.21824491863E+02  0.94639464837E+02  0.17081277081E+03  0.12699999809E+01 0. -1.
       -4    1    3    3    0  502  0.14050783971E+03 -0.21824491863E+02 -0.11141930648E+04  0.11232304127E+04  0.12699999809E+01 0.  1.
</event>
<event>
 5   0  0.3550586E-02  0.5662511E+03  0.7818609E-02  0.9978009E-01
       -2   -1    0    0    0  501  0.00000000000E+00  0.00000000000E+00  0.61788462008E+02  0.61788462060E+02  0.25500000920E-02 0.  1.
        2   -1    0    0  501    0  0.00000000000E+00  0.00000000000E+00 -0.12973306533E+04  0.12973306533E+04  0.25500000920E-02 0. -1.
    10030    2    1    2    0    0  0.00000000000E+00  0.00000000000E+00 -0.12355421913E+04  0.13591191154E+04  0.56625106029E+03 0.  0.
        3    1    3    3  502    0  0.32562018691E+02  0.10865448650E+03  0.48682737747E+01  0.11353322328E+03  0.10100000352E+00 0.  1.
       -3    1    3    3    0  502 -0.32562018691E+02 -0.10865448650E+03 -0.12404104651E+04  0.12455858921E+04  0.10100000352E+00 0. -1.
</event>
<event>
 5   0  0.3416160E-02  0.7818392E+03  0.7818609E-02  0.9586683E-01
        2   -1    0    0  501    0  0.00000000000E+00  0.00000000000E+00  0.53864769406E+03  0.53864769407E+03  0.25500000920E-02 0. -1.
       -2   -1    0    0    0  501  0.00000000000E+00  0.00000000000E+00 -0.28370704292E+03  0.28370704293E+03  0.25500000920E-02 0.  1.
    10030    2    1    2    0    0  0.00000000000E+00  0.00000000000E+00  0.25494065114E+03  0.82235473700E+03  0.78183922763E+03 0.  0.
        1    1    3    3  502    0  0.13064115312E+01 -0.39168519408E+02 -0.28163558168E+03  0.28434922282E+03  0.50400001928E-02 0.  1.
       -1    1    3    3    0  502 -0.13064115312E+01  0.39168519408E+02  0.53657623283E+03  0.53800551418E+03  0.50400001928E-02 0. -1.
</event>
<event>
 5   0  0.3550586E-02  0.8018818E+03  0.7818609E-02  0.9557297E-01
        2   -1    0    0  501    0  0.00000000000E+00  0.00000000000E+00  0.15917450255E+04  0.15917450256E+04  0.25500000920E-02 0. -1.
       -2   -1    0    0    0  501  0.00000000000E+00  0.00000000000E+00 -0.10099206007E+03  0.10099206010E+03  0.25500000920E-02 0.  1.
    10030    2    1    2    0    0  0.00000000000E+00  0.00000000000E+00  0.14907529655E+04  0.16927370856E+04  0.80188180989E+03 0.  0.
        3    1    3    3  502    0 -0.18826999724E+03 -0.27319046337E+03  0.27017703061E+03  0.42787177893E+03  0.10100000352E+00 0.  1.
       -3    1    3    3    0  502  0.18826999724E+03  0.27319046337E+03  0.12205759349E+04  0.12648653067E+04  0.10100000352E+00 0. -1.
</event>
<event>
 5   0  0.3404132E-02  0.8101989E+03  0.7818609E-02  0.9545371E-01
       -2   -1    0    0    0  501  0.00000000000E+00  0.00000000000E+00  0.24499171926E+03  0.24499171928E+03  0.25500000920E-02 0. -1.
        2   -1    0    0  501    0  0.00000000000E+00  0.00000000000E+00 -0.66984128757E+03  0.66984128757E+03  0.25500000920E-02 0.  1.
    10030    2    1    2    0    0  0.00000000000E+00  0.00000000000E+00 -0.42484956830E+03  0.91483300685E+03  0.81019891060E+03 0.  0.
        5    1    3    3  502    0 -0.11554624495E+02  0.20143893897E+03 -0.60903056672E+03  0.64160071436E+03  0.46999998093E+01 0.  1.
       -5    1    3    3    0  502  0.11554624495E+02 -0.20143893897E+03  0.18418099842E+03  0.27323229248E+03  0.46999998093E+01 0. -1.
</event>
<event>
 5   0  0.2129257E-02  0.7921587E+03  0.7818609E-02  0.9571437E-01
       -1   -1    0    0    0  501  0.00000000000E+00  0.00000000000E+00  0.98291208554E+03  0.98291208556E+03  0.50400001928E-02 0. -1.
        1   -1    0    0  501    0  0.00000000000E+00  0.00000000000E+00 -0.15960618018E+03  0.15960618026E+03  0.50400001928E-02 0.  1.
    10030    2    1    2    0    0  0.00000000000E+00  0.00000000000E+00  0.82330590537E+03  0.11425182658E+04  0.79215867975E+03 0.  0.
        3    1    3    3  502    0  0.18666227012E+03 -0.32018065748E+03  0.21014366645E+03  0.42605026378E+03  0.10100000352E+00 0.  1.
       -3    1    3    3    0  502 -0.18666227012E+03  0.32018065748E+03  0.61316223891E+03  0.71646800204E+03  0.10100000352E+00 0. -1.
</event>
<event>
 5   0  0.1358000E-02  0.7999126E+03  0.7818609E-02  0.9560144E-01
        3   -1    0    0  501    0  0.00000000000E+00  0.00000000000E+00  0.14309125281E+04  0.14309125317E+04  0.10100000352E+00 0.  1.
       -3   -1    0    0    0  501  0.00000000000E+00  0.00000000000E+00 -0.11179229432E+03  0.11179233995E+03  0.10100000352E+00 0. -1.
    10030    2    1    2    0    0  0.00000000000E+00  0.00000000000E+00  0.13191202338E+04  0.15427048716E+04  0.79991257632E+03 0.  0.
        5    1    3    3  502    0 -0.19195484388E+02  0.81450791262E+02  0.14137856246E+04  0.14162678350E+04  0.46999998093E+01 0.  1.
       -5    1    3    3    0  502  0.19195484388E+02 -0.81450791262E+02 -0.94665390829E+02  0.12643703665E+03  0.46999998093E+01 0. -1.
</event>
<event>
 5   0  0.1989298E-02  0.8291833E+03  0.7818609E-02  0.9518710E-01
        1   -1    0    0  501    0  0.00000000000E+00  0.00000000000E+00  0.25795957198E+04  0.25795957198E+04  0.50400001928E-02 0. -1.
       -1   -1    0    0    0  501  0.00000000000E+00  0.00000000000E+00 -0.66633020886E+02  0.66633021077E+02  0.50400001928E-02 0.  1.
    10030    2    1    2    0    0  0.00000000000E+00  0.00000000000E+00  0.25129626989E+04  0.26462287408E+04  0.82918334699E+03 0.  0.
        1    1    3    3  502    0 -0.26755777929E+03  0.51361816343E+01  0.22670555044E+04  0.22827952615E+04  0.50400001928E-02 0. -1.
       -1    1    3    3    0  502  0.26755777929E+03 -0.51361816343E+01  0.24590719445E+03  0.36343347937E+03  0.50400001928E-02 0.  1.
</event>
<event>
 5   0  0.2129257E-02  0.7809568E+03  0.7818609E-02  0.9587998E-01
        1   -1    0    0  501    0  0.00000000000E+00  0.00000000000E+00  0.29566160469E+03  0.29566160473E+03  0.50400001928E-02 0. -1.
       -1   -1    0    0    0  501  0.00000000000E+00  0.00000000000E+00 -0.51570237717E+03  0.51570237719E+03  0.50400001928E-02 0.  1.
    10030    2    1    2    0    0  0.00000000000E+00  0.00000000000E+00 -0.22004077248E+03  0.81136398192E+03  0.78095682954E+03 0.  0.
        3    1    3    3  502    0 -0.36158574064E+03  0.72270516743E-01 -0.26316786727E+03  0.44721537275E+03  0.10100000352E+00 0.  1.
       -3    1    3    3    0  502  0.36158574064E+03 -0.72270516743E-01  0.43127094793E+02  0.36414860917E+03  0.10100000352E+00 0. -1.
</event>
<event>
 5   0  0.2132540E-02  0.8676213E+03  0.7818609E-02  0.9466987E-01
       -1   -1    0    0    0  501  0.00000000000E+00  0.00000000000E+00  0.64157387524E+03  0.64157387526E+03  0.50400001928E-02 0. -1.
        1   -1    0    0  501    0  0.00000000000E+00  0.00000000000E+00 -0.29332812291E+03  0.29332812295E+03  0.50400001928E-02 0.  1.
    10030    2    1    2    0    0  0.00000000000E+00  0.00000000000E+00  0.34824575233E+03  0.93490199821E+03  0.86762125507E+03 0.  0.
        4    1    3    3  502    0 -0.18669164667E+03 -0.34513280802E+03  0.37345326148E+03  0.54170044999E+03  0.12699999809E+01 0. -1.
       -4    1    3    3    0  502  0.18669164667E+03  0.34513280802E+03 -0.25207509148E+02  0.39320154822E+03  0.12699999809E+01 0.  1.
</event>
<event>
 5   0  0.2132540E-02  0.8013507E+03  0.7818609E-02  0.9558064E-01
        1   -1    0    0  501    0  0.00000000000E+00  0.00000000000E+00  0.49778223012E+03  0.49778223015E+03  0.50400001928E-02 0.  1.
       -1   -1    0    0    0  501  0.00000000000E+00  0.00000000000E+00 -0.32251200312E+03  0.32251200316E+03  0.50400001928E-02 0. -1.
    10030    2    1    2    0    0  0.00000000000E+00  0.00000000000E+00  0.17527022700E+03  0.82029423331E+03  0.80135072018E+03 0.  0.
        4    1    3    3  502    0 -0.23376636686E+03 -0.25479597830E+03  0.29483407252E+03  0.45441880248E+03  0.12699999809E+01 0.  1.
       -4    1    3    3    0  502  0.23376636686E+03  0.25479597830E+03 -0.11956384552E+03  0.36587543083E+03  0.12699999809E+01 0. -1.
</event>
<event>
 5   0  0.3343036E-02  0.8020137E+03  0.7818609E-02  0.9557107E-01
       -2   -1    0    0    0  501  0.00000000000E+00  0.00000000000E+00  0.19406145678E+03  0.19406145680E+03  0.25500000920E-02 0.  1.
        2   -1    0    0  501    0  0.00000000000E+00  0.00000000000E+00 -0.82863697084E+03  0.82863697085E+03  0.25500000920E-02 0. -1.
    10030    2    1    2    0    0  0.00000000000E+00  0.00000000000E+00 -0.63457551406E+03  0.10226984276E+04  0.80201370990E+03 0.  0.
        4    1    3    3  502    0 -0.21470490745E+03  0.24993819244E+03 -0.25842258630E+02  0.33050980705E+03  0.12699999809E+01 0.  1.
       -4    1    3    3    0  502  0.21470490745E+03 -0.24993819244E+03 -0.60873325543E+03  0.69218862060E+03  0.12699999809E+01 0. -1.
</event>
<event>
 5   0  0.3404132E-02  0.8066158E+03  0.7818609E-02  0.9550490E-01
        2   -1    0    0  501    0  0.00000000000E+00  0.00000000000E+00  0.74158192442E+03  0.74158192442E+03  0.25500000920E-02 0.  1.
       -2   -1    0    0    0  501  0.00000000000E+00  0.00000000000E+00 -0.21933822420E+03  0.21933822421E+03  0.25500000920E-02 0. -1.
    10030    2    1    2    0    0  0.00000000000E+00  0.00000000000E+00  0.52224370022E+03  0.96092014863E+03  0.80661580051E+03 0.  0.
        5    1    3    3  502    0  0.16509818364E+03  0.36706967780E+03  0.29120334616E+03  0.49680885400E+03  0.46999998093E+01 0. -1.
       -5    1    3    3    0  502 -0.16509818364E+03 -0.36706967780E+03  0.23104035406E+03  0.46411129463E+03  0.46999998093E+01 0.  1.
</event>
<event>
 5   0  0.2132540E-02  0.7957667E+03  0.7818609E-02  0.9566165E-01
        1   -1    0    0  501    0  0.00000000000E+00  0.00000000000E+00  0.53680512208E+03  0.53680512211E+03  0.50400001928E-02 0. -1.
       -1   -1    0    0    0  501  0.00000000000E+00  0.00000000000E+00 -0.29491362692E+03  0.29491362696E+03  0.50400001928E-02 0.  1.
    10030    2    1    2    0    0  0.00000000000E+00  0.00000000000E+00  0.24189149516E+03  0.83171874907E+03  0.79576666312E+03 0.  0.
        4    1    3    3  502    0 -0.29744987025E+03 -0.12326727026E+03  0.36525464822E+03  0.48691253442E+03  0.12699999809E+01 0. -1.
       -4    1    3    3    0  502  0.29744987025E+03  0.12326727026E+03 -0.12336315306E+03  0.34480621465E+03  0.12699999809E+01 0.  1.
</event>
<event>
 5   0  0.3550586E-02  0.7917607E+03  0.7818609E-02  0.9572020E-01
        2   -1    0    0  501    0  0.00000000000E+00  0.00000000000E+00  0.35420696838E+03  0.35420696839E+03  0.25500000920E-02 0.  1.
       -2   -1    0    0    0  501  0.00000000000E+00  0.00000000000E+00 -0.44245673660E+03  0.44245673661E+03  0.25500000920E-02 0. -1.
    10030    2    1    2    0    0  0.00000000000E+00  0.00000000000E+00 -0.88249768219E+02  0.79666370500E+03  0.79176071971E+03 0.  0.
        3    1    3    3  502    0 -0.74328721980E+02  0.47687845385E+02  0.34416943265E+03  0.35531886818E+03  0.10100000352E+00 0.  1.
       -3    1    3    3    0  502  0.74328721980E+02 -0.47687845385E+02 -0.43241920087E+03  0.44134483682E+03  0.10100000352E+00 0. -1.
</event>
<event>
 5   0  0.3416160E-02  0.7948099E+03  0.7818609E-02  0.9567560E-01
        2   -1    0    0  501    0  0.00000000000E+00  0.00000000000E+00  0.13170522590E+04  0.13170522590E+04  0.25500000920E-02 0. -1.
       -2   -1    0    0    0  501  0.00000000000E+00  0.00000000000E+00 -0.11991224361E+03  0.11991224364E+03  0.25500000920E-02 0.  1.
    10030    2    1    2    0    0  0.00000000000E+00  0.00000000000E+00  0.11971400154E+04  0.14369645026E+04  0.79480989261E+03 0.  0.
        1    1    3    3  502    0 -0.55473365965E+02  0.37608456964E+03  0.38917873162E+03  0.54403766691E+03  0.50400001928E-02 0.  1.
       -1    1    3    3    0  502  0.55473365965E+02 -0.37608456964E+03  0.80796128378E+03  0.89292683573E+03  0.50400001928E-02 0. -1.
</event>
<event>
 5   0  0.3467240E-02  0.7892836E+03  0.7818609E-02  0.9575659E-01
       -2   -1    0    0    0  501  0.00000000000E+00  0.00000000000E+00  0.17472960030E+03  0.17472960032E+03  0.25500000920E-02 0.  1.
        2   -1    0    0  501    0  0.00000000000E+00  0.00000000000E+00 -0.89133239216E+03  0.89133239216E+03  0.25500000920E-02 0. -1.
    10030    2    1    2    0    0  0.00000000000E+00  0.00000000000E+00 -0.71660279186E+03  0.10660619925E+04  0.78928360588E+03 0.  0.
        2    1    3    3  502    0  0.11257453276E+03  0.30484844672E+03 -0.66073260679E+03  0.73632409887E+03  0.25500000920E-02 0. -1.
       -2    1    3    3    0  502 -0.11257453276E+03 -0.30484844672E+03 -0.55870185070E+02  0.32973789361E+03  0.25500000920E-02 0.  1.
</event>
<event>
 5   0  0.1358000E-02  0.7889618E+03  0.7818609E-02  0.9576133E-01
       -4   -1    0    0    0  501  0.00000000000E+00  0.00000000000E+00  0.44787681396E+03  0.44787861456E+03  0.12699999809E+01 0. -1.
        4   -1    0    0  501    0  0.00000000000E+00  0.00000000000E+00 -0.34744717279E+03  0.34744949386E+03  0.12699999809E+01 0.  1.
    10030    2    1    2    0    0  0.00000000000E+00  0.00000000000E+00  0.10042964117E+03  0.79532810842E+03  0.78896177805E+03 0.  0.
        1    1    3    3  502    0 -0.11443080003E+03 -0.17480816286E+03  0.38752339316E+03  0.44025751790E+03  0.50400001928E-02 0. -1.
       -1    1    3    3    0  502  0.11443080003E+03  0.17480816286E+03 -0.28709375199E+03  0.35507059052E+03  0.50400001928E-02 0.  1.
</event>
<event>
 5   0  0.2132540E-02  0.7827948E+03  0.7818609E-02  0.9585260E-01
        1   -1    0    0  501    0  0.00000000000E+00  0.00000000000E+00  0.44877335569E+03  0.44877335572E+03  0.50400001928E-02 0. -1.
       -1   -1    0    0    0  501  0.00000000000E+00  0.00000000000E+00 -0.34135699032E+03  0.34135699036E+03  0.50400001928E-02 0.  1.
    10030    2    1    2    0    0  0.00000000000E+00  0.00000000000E+00  0.10741636536E+03  0.79013034608E+03  0.78279479319E+03 0.  0.
        4    1    3    3  502    0 -0.35728023967E+03  0.15695730353E+03  0.84082440896E+02  0.39919448213E+03  0.12699999809E+01 0.  1.
       -4    1    3    3    0  502  0.35728023967E+03 -0.15695730353E+03  0.23333924468E+02  0.39093586395E+03  0.12699999809E+01 0. -1.
</event>
<event>
 5   0  0.3404132E-02  0.8071286E+03  0.7818609E-02  0.9549756E-01
        2   -1    0    0  501    0  0.00000000000E+00  0.00000000000E+00  0.36283949541E+03  0.36283949542E+03  0.25500000920E-02 0. -1.
       -2   -1    0    0    0  501  0.00000000000E+00  0.00000000000E+00 -0.44885996999E+03  0.44885996999E+03  0.25500000920E-02 0.  1.
    10030    2    1    2    0    0  0.00000000000E+00  0.00000000000E+00 -0.86020474571E+02  0.81169946542E+03  0.80712855241E+03 0.  0.
        5    1    3    3  502    0 -0.31115107746E+03  0.65427391812E+02  0.20688501945E+03  0.37936689085E+03  0.46999998093E+01 0. -1.
       -5    1    3    3    0  502  0.31115107746E+03 -0.65427391812E+02 -0.29290549402E+03  0.43233257456E+03  0.46999998093E+01 0.  1.
</event>
<event>
 5   0  0.1358000E-02  0.5333490E+03  0.7818609E-02  0.1005423E+00
        4   -1    0    0  501    0  0.00000000000E+00  0.00000000000E+00  0.15672725514E+03  0.15673240062E+03  0.12699999809E+01 0.  1.
       -4   -1    0    0    0  501  0.00000000000E+00  0.00000000000E+00 -0.45373844188E+03  0.45374021922E+03  0.12699999809E+01 0. -1.
    10030    2    1    2    0    0  0.00000000000E+00  0.00000000000E+00 -0.29701118674E+03  0.61047261984E+03  0.53334901755E+03 0.  0.
        4    1    3    3  502    0  0.18290346593E+03 -0.80108240061E+02  0.53809731542E+02  0.20680451659E+03  0.12699999809E+01 0.  1.
       -4    1    3    3    0  502 -0.18290346593E+03  0.80108240061E+02 -0.35082091829E+03  0.40366810325E+03  0.12699999809E+01 0. -1.
</event>
<event>
 5   0  0.2077795E-02  0.8000586E+03  0.7818609E-02  0.9559932E-01
       -1   -1    0    0    0  501  0.00000000000E+00  0.00000000000E+00  0.10006823205E+03  0.10006823217E+03  0.50400001928E-02 0. -1.
        1   -1    0    0  501    0  0.00000000000E+00  0.00000000000E+00 -0.15991434482E+04  0.15991434482E+04  0.50400001928E-02 0.  1.
    10030    2    1    2    0    0  0.00000000000E+00  0.00000000000E+00 -0.14990752162E+04  0.16992116804E+04  0.80005864228E+03 0.  0.
        5    1    3    3  502    0 -0.12660768420E+03 -0.24769049940E+03 -0.13905735632E+03  0.31102914258E+03  0.46999998093E+01 0. -1.
       -5    1    3    3    0  502  0.12660768420E+03  0.24769049940E+03 -0.13600178599E+04  0.13881825378E+04  0.46999998093E+01 0.  1.
</event>
<event>
 5   0  0.2132540E-02  0.7904687E+03  0.7818609E-02  0.9573917E-01
       -1   -1    0    0    0  501  0.00000000000E+00  0.00000000000E+00  0.26905960068E+03  0.26905960073E+03  0.50400001928E-02 0. -1.
        1   -1    0    0  501    0  0.00000000000E+00  0.00000000000E+00 -0.58057838756E+03  0.58057838758E+03  0.50400001928E-02 0.  1.
    10030    2    1    2    0    0  0.00000000000E+00  0.00000000000E+00 -0.31151878688E+03  0.84963798831E+03  0.79046869426E+03 0.  0.
        4    1    3    3  502    0  0.34193546844E+03 -0.11907268231E+03 -0.32608350482E+03  0.48726813283E+03  0.12699999809E+01 0.  1.
       -4    1    3    3    0  502 -0.34193546844E+03  0.11907268231E+03  0.14564717946E+02  0.36236985548E+03  0.12699999809E+01 0. -1.
</event>
<event>
 5   0  0.2129257E-02  0.8120709E+03  0.7818609E-02  0.9542707E-01
       -1   -1    0    0    0  501  0.00000000000E+00  0.00000000000E+00  0.78388921917E+03  0.78388921918E+03  0.50400001928E-02 0.  1.
        1   -1    0    0  501    0  0.00000000000E+00  0.00000000000E+00 -0.21031644461E+03  0.21031644467E+03  0.50400001928E-02 0. -1.
    10030    2    1    2    0    0  0.00000000000E+00  0.00000000000E+00  0.57357277456E+03  0.99420566385E+03  0.81207091705E+03 0.  0.
        3    1    3    3  502    0  0.11065106663E+03  0.96899135775E+02  0.75012855072E+03  0.76441216229E+03  0.10100000352E+00 0.  1.
       -3    1    3    3    0  502 -0.11065106663E+03 -0.96899135775E+02 -0.17655577616E+03  0.22979350156E+03  0.10100000352E+00 0. -1.
</event>
<event>
 5   0  0.1358000E-02  0.7868739E+03  0.7818609E-02  0.9579213E-01
        3   -1    0    0  501    0  0.00000000000E+00  0.00000000000E+00  0.22088935703E+03  0.22088938012E+03  0.10100000352E+00 0.  1.
       -3   -1    0    0    0  501  0.00000000000E+00  0.00000000000E+00 -0.70076985694E+03  0.70076986422E+03  0.10100000352E+00 0. -1.
    10030    2    1    2    0    0  0.00000000000E+00  0.00000000000E+00 -0.47988049991E+03  0.92165924434E+03  0.78687385804E+03 0.  0.
        1    1    3    3  502    0  0.12733049143E+03  0.97546538492E+02  0.18085247577E+03  0.24173539095E+03  0.50400001928E-02 0.  1.
       -1    1    3    3    0  502 -0.12733049143E+03 -0.97546538492E+02 -0.66073297568E+03  0.67992385338E+03  0.50400001928E-02 0. -1.
</event>
<event>
 5   0  0.2077795E-02  0.8033230E+03  0.7818609E-02  0.9555220E-01
       -1   -1    0    0    0  501  0.00000000000E+00  0.00000000000E+00  0.32960990259E+03  0.32960990262E+03  0.50400001928E-02 0.  1.
        1   -1    0    0  501    0  0.00000000000E+00  0.00000000000E+00 -0.48946330405E+03  0.48946330407E+03  0.50400001928E-02 0. -1.
    10030    2    1    2    0    0  0.00000000000E+00  0.00000000000E+00 -0.15985340146E+03  0.81907320670E+03  0.80332297861E+03 0.  0.
        5    1    3    3  502    0  0.88970313897E+02  0.27159141702E+03  0.20779791332E+03  0.35338318768E+03  0.46999998093E+01 0.  1.
       -5    1    3    3    0  502 -0.88970313897E+02 -0.27159141702E+03 -0.36765131478E+03  0.46569001902E+03  0.46999998093E+01 0. -1.
</event>
<event>
 5   0  0.2132540E-02  0.7827205E+03  0.7818609E-02  0.9585371E-01
        1   -1    0    0  501    0  0.00000000000E+00  0.00000000000E+00  0.12858960446E+04  0.12858960446E+04  0.50400001928E-02 0. -1.
       -1   -1    0    0    0  501  0.00000000000E+00  0.00000000000E+00 -0.11910980631E+03  0.11910980641E+03  0.50400001928E-02 0.  1.
    10030    2    1    2    0    0  0.00000000000E+00  0.00000000000E+00  0.11667862383E+04  0.14050058510E+04  0.78272045811E+03 0.  0.
        4    1    3    3  502    0 -0.21302041891E+02 -0.36818307795E+02  0.12817305427E+04  0.12824368061E+04  0.12699999809E+01 0. -1.
       -4    1    3    3    0  502  0.21302041891E+02  0.36818307795E+02 -0.11494430434E+03  0.12256904494E+03  0.12699999809E+01 0.  1.
</event>
<event>
 5   0  0.1358000E-02  0.6110146E+03  0.7818609E-02  0.9882814E-01
        3   -1    0    0  501    0  0.00000000000E+00  0.00000000000E+00  0.15439089823E+03  0.15439093126E+03  0.10100000352E+00 0. -1.
       -3   -1    0    0    0  501  0.00000000000E+00  0.00000000000E+00 -0.60453498768E+03  0.60453499611E+03  0.10100000352E+00 0.  1.
    10030    2    1    2    0    0  0.00000000000E+00  0.00000000000E+00 -0.45014408945E+03  0.75892592737E+03  0.61101461682E+03 0.  0.
        2    1    3    3  502    0 -0.20317185748E+03  0.16648661028E+03 -0.31299917013E+02  0.26453030051E+03  0.25500000920E-02 0. -1.
       -2    1    3    3    0  502  0.20317185748E+03 -0.16648661028E+03 -0.41884417244E+03  0.49439562687E+03  0.25500000920E-02 0.  1.
</event>
<event>
 5   0  0.3416160E-02  0.7731348E+03  0.7818609E-02  0.9599739E-01
       -2   -1    0    0    0  501  0.00000000000E+00  0.00000000000E+00  0.16973353188E+03  0.16973353190E+03  0.25500000920E-02 0.  1.
        2   -1    0    0  501    0  0.00000000000E+00  0.00000000000E+00 -0.88040569552E+03  0.88040569552E+03  0.25500000920E-02 0. -1.
    10030    2    1    2    0    0  0.00000000000E+00  0.00000000000E+00 -0.71067216364E+03  0.10501392274E+04  0.77313483480E+03 0.  0.
        1    1    3    3  502    0 -0.18300402509E+03 -0.32191200466E+03 -0.50607878085E+03  0.62708336320E+03  0.50400001928E-02 0. -1.
       -1    1    3    3    0  502  0.18300402509E+03  0.32191200466E+03 -0.20459338279E+03  0.42305586422E+03  0.50400001928E-02 0.  1.
</event>
<event>
 5   0  0.1989298E-02  0.8078945E+03  0.7818609E-02  0.9548660E-01
        1   -1    0    0  501    0  0.00000000000E+00  0.00000000000E+00  0.38294799799E+03  0.38294799802E+03  0.50400001928E-02 0. -1.
       -1   -1    0    0    0  501  0.00000000000E+00  0.00000000000E+00 -0.42609802689E+03  0.42609802692E+03  0.50400001928E-02 0.  1.
    10030    2    1    2    0    0  0.00000000000E+00  0.00000000000E+00 -0.43150028905E+02  0.80904602494E+03  0.80789451383E+03 0.  0.
        1    1    3    3  502    0 -0.36497374777E+02 -0.22040320580E+03  0.31545148296E+03  0.38654788787E+03  0.50400001928E-02 0. -1.
       -1    1    3    3    0  502  0.36497374777E+02  0.22040320580E+03 -0.35860151186E+03  0.42249813707E+03  0.50400001928E-02 0.  1.
</event>
<event>
 5   0  0.3343036E-02  0.7984744E+03  0.7818609E-02  0.9562228E-01
       -2   -1    0    0    0  501  0.00000000000E+00  0.00000000000E+00  0.35821834672E+03  0.35821834673E+03  0.25500000920E-02 0.  1.
        2   -1    0    0  501    0  0.00000000000E+00  0.00000000000E+00 -0.44495300924E+03  0.44495300925E+03  0.25500000920E-02 0. -1.
    10030    2    1    2    0    0  0.00000000000E+00  0.00000000000E+00 -0.86734662521E+02  0.80317135597E+03  0.79847437365E+03 0.  0.
        4    1    3    3  502    0  0.53356564924E+02  0.17527430817E+02 -0.44095766539E+03  0.44452155113E+03  0.12699999809E+01 0. -1.
       -4    1    3    3    0  502 -0.53356564924E+02 -0.17527430817E+02  0.35422300287E+03  0.35864980484E+03  0.12699999809E+01 0.  1.
</event>
<event>
 5   0  0.3404132E-02  0.8660042E+03  0.7818609E-02  0.9469105E-01
        2   -1    0    0  501    0  0.00000000000E+00  0.00000000000E+00  0.40941998329E+03  0.40941998330E+03  0.25500000920E-02 0. -1.
       -2   -1    0    0    0  501  0.00000000000E+00  0.00000000000E+00 -0.45794252280E+03  0.45794252280E+03  0.25500000920E-02 0.  1.
    10030    2    1    2    0    0  0.00000000000E+00  0.00000000000E+00 -0.48522539507E+02  0.86736250610E+03  0.86600420331E+03 0.  0.
        5    1    3    3  502    0  0.11735872307E+03 -0.29320038628E+03  0.27239444133E+03  0.41708555245E+03  0.46999998093E+01 0. -1.
       -5    1    3    3    0  502 -0.11735872307E+03  0.29320038628E+03 -0.32091698084E+03  0.45027695365E+03  0.46999998093E+01 0.  1.
</event>
<event>
 5   0  0.1358000E-02  0.7996539E+03  0.7818609E-02  0.9560518E-01
        4   -1    0    0  501    0  0.00000000000E+00  0.00000000000E+00  0.16488254429E+03  0.16488743528E+03  0.12699999809E+01 0. -1.
       -4   -1    0    0    0  501  0.00000000000E+00  0.00000000000E+00 -0.96952861040E+03  0.96952944220E+03  0.12699999809E+01 0.  1.
    10030    2    1    2    0    0  0.00000000000E+00  0.00000000000E+00 -0.80464606611E+03  0.11344168775E+04  0.79965390026E+03 0.  0.
        5    1    3    3  502    0  0.26108378625E+02  0.12352928461E+02  0.16336418003E+03  0.16596441664E+03  0.46999998093E+01 0. -1.
       -5    1    3    3    0  502 -0.26108378625E+02 -0.12352928461E+02 -0.96801024613E+03  0.96845246083E+03  0.46999998093E+01 0.  1.
</event>
<event>
 5   0  0.1989298E-02  0.7893830E+03  0.7818609E-02  0.9575513E-01
       -1   -1    0    0    0  501  0.00000000000E+00  0.00000000000E+00  0.95167449720E+03  0.95167449721E+03  0.50400001928E-02 0.  1.
        1   -1    0    0  501    0  0.00000000000E+00  0.00000000000E+00 -0.16369188059E+03  0.16369188067E+03  0.50400001928E-02 0. -1.
    10030    2    1    2    0    0  0.00000000000E+00  0.00000000000E+00  0.78798261660E+03  0.11153663779E+04  0.78938302036E+03 0.  0.
        1    1    3    3  502    0 -0.56569907986E+02 -0.38391020613E+03  0.29215830030E+03  0.48574033528E+03  0.50400001928E-02 0.  1.
       -1    1    3    3    0  502  0.56569907986E+02  0.38391020613E+03  0.49582431630E+03  0.62962604260E+03  0.50400001928E-02 0. -1.
</event>
<event>
 5   0  0.3467240E-02  0.8378234E+03  0.7818609E-02  0.9506827E-01
        2   -1    0    0  501    0  0.00000000000E+00  0.00000000000E+00  0.71274268993E+03  0.71274268993E+03  0.25500000920E-02 0.  1.
       -2   -1    0    0    0  501  0.00000000000E+00  0.00000000000E+00 -0.24621367442E+03  0.24621367443E+03  0.25500000920E-02 0. -1.
    10030    2    1    2    0    0  0.00000000000E+00  0.00000000000E+00  0.46652901551E+03  0.95895636436E+03  0.83782336232E+03 0.  0.
        2    1    3    3  502    0  0.20379745705E+02  0.28868434918E+03 -0.11339985592E+03  0.31082714621E+03  0.25500000920E-02 0. -1.
       -2    1    3    3    0  502 -0.20379745705E+02 -0.28868434918E+03  0.57992887143E+03  0.64812921815E+03  0.25500000920E-02 0.  1.
</event>
<event>
 5   0  0.2129257E-02  0.8191194E+03  0.7818609E-02  0.9532748E-01
       -1   -1    0    0    0  501  0.00000000000E+00  0.00000000000E+00  0.73128283447E+02  0.73128283620E+02  0.50400001928E-02 0. -1.
        1   -1    0    0  501    0  0.00000000000E+00  0.00000000000E+00 -0.22937659227E+04  0.22937659228E+04  0.50400001928E-02 0.  1.
    10030    2    1    2    0    0  0.00000000000E+00  0.00000000000E+00 -0.22206376393E+04  0.23668942064E+04  0.81911944128E+03 0.  0.
        3    1    3    3  502    0  0.33133305551E+03  0.23567771489E+03 -0.12522775367E+04  0.13166338208E+04  0.10100000352E+00 0. -1.
       -3    1    3    3    0  502 -0.33133305551E+03 -0.23567771489E+03 -0.96836010260E+03  0.10502603856E+04  0.10100000352E+00 0.  1.
</event>
<event>
 5   0  0.2129257E-02  0.8215870E+03  0.7818609E-02  0.9529286E-01
        1   -1    0    0  501    0  0.00000000000E+00  0.00000000000E+00  0.25878216415E+03  0.25878216420E+03  0.50400001928E-02 0. -1.
       -1   -1    0    0    0  501  0.00000000000E+00  0.00000000000E+00 -0.65209785564E+03  0.65209785566E+03  0.50400001928E-02 0.  1.
    10030    2    1    2    0    0  0.00000000000E+00  0.00000000000E+00 -0.39331569149E+03  0.91088001986E+03  0.82158698712E+03 0.  0.
        3    1    3    3  502    0 -0.16575413941E+03  0.37294362521E+03 -0.24854023257E+03  0.47784269349E+03  0.10100000352E+00 0.  1.
       -3    1    3    3    0  502  0.16575413941E+03 -0.37294362521E+03 -0.14477545892E+03  0.43303732637E+03  0.10100000352E+00 0. -1.
</event>
<event>
 5   0  0.3467240E-02  0.8066316E+03  0.7818609E-02  0.9550467E-01
        2   -1    0    0  501    0  0.00000000000E+00  0.00000000000E+00  0.92983614864E+03  0.92983614864E+03  0.25500000920E-02 0.  1.
       -2   -1    0    0    0  501  0.00000000000E+00  0.00000000000E+00 -0.17493797234E+03  0.17493797236E+03  0.25500000920E-02 0. -1.
    10030    2    1    2    0    0  0.00000000000E+00  0.00000000000E+00  0.75489817630E+03  0.11047741210E+04  0.80663163951E+03 0.  0.
        2    1    3    3  502    0  0.18592507092E+03 -0.29630425040E+03  0.10250331792E+03  0.36451511765E+03  0.25500000920E-02 0. -1.
       -2    1    3    3    0  502 -0.18592507092E+03  0.29630425040E+03  0.65239485838E+03  0.74025900335E+03  0.25500000920E-02 0.  1.
</event>
<event>
 5   0  0.2129257E-02  0.7958823E+03  0.7818609E-02  0.9565996E-01
        1   -1    0    0  501    0  0.00000000000E+00  0.00000000000E+00  0.63486938961E+03  0.63486938963E+03  0.50400001928E-02 0. -1.
       -1   -1    0    0    0  501  0.00000000000E+00  0.00000000000E+00 -0.24943266196E+03  0.24943266201E+03  0.50400001928E-02 0.  1.
    10030    2    1    2    0    0  0.00000000000E+00  0.00000000000E+00  0.38543672765E+03  0.88430205164E+03  0.79588230758E+03 0.  0.
        3    1    3    3  502    0 -0.76782770381E+02  0.24600048587E+02 -0.24026212426E+03  0.25342978272E+03  0.10100000352E+00 0.  1.
       -3    1    3    3    0  502  0.76782770381E+02 -0.24600048587E+02  0.62569885190E+03  0.63087226892E+03  0.10100000352E+00 0. -1.
</event>
<event>
 5   0  0.3550586E-02  0.7962023E+03  0.7818609E-02  0.9565531E-01
        2   -1    0    0  501    0  0.00000000000E+00  0.00000000000E+00  0.21964583797E+03  0.21964583798E+03  0.25500000920E-02 0.  1.
       -2   -1    0    0    0  501  0.00000000000E+00  0.00000000000E+00 -0.72154568518E+03  0.72154568518E+03  0.25500000920E-02 0. -1.
    10030    2    1    2    0    0  0.00000000000E+00  0.00000000000E+00 -0.50189984721E+03  0.94119152316E+03  0.79620225235E+03 0.  0.
        3    1    3    3  502    0  0.28506541047E+03 -0.10431849623E+02 -0.57921107481E+03  0.64564432245E+03  0.10100000352E+00 0. -1.
       -3    1    3    3    0  502 -0.28506541047E+03  0.10431849623E+02  0.77311227599E+02  0.29554720071E+03  0.10100000352E+00 0.  1.
</event>
<event>
 5   0  0.3550586E-02  0.8340293E+03  0.7818609E-02  0.9512027E-01
        2   -1    0    0  501    0  0.00000000000E+00  0.00000000000E+00  0.29216698693E+03  0.29216698694E+03  0.25500000920E-02 0. -1.
       -2   -1    0    0    0  501  0.00000000000E+00  0.00000000000E+00 -0.59521173096E+03  0.59521173096E+03  0.25500000920E-02 0.  1.
    10030    2    1    2    0    0  0.00000000000E+00  0.00000000000E+00 -0.30304474402E+03  0.88737871791E+03  0.83402929931E+03 0.  0.
        3    1    3    3  502    0  0.28572228695E+03 -0.25997325369E+03 -0.31866287800E+03  0.50076876691E+03  0.10100000352E+00 0.  1.
       -3    1    3    3    0  502 -0.28572228695E+03  0.25997325369E+03  0.15618133983E+02  0.38660995099E+03  0.10100000352E+00 0. -1.
</event>
<event>
 5   0  0.3467240E-02  0.8083469E+03  0.7818609E-02  0.9548013E-01
       -2   -1    0    0    0  501  0.00000000000E+00  0.00000000000E+00  0.96495828728E+03  0.96495828728E+03  0.25500000920E-02 0. -1.
        2   -1    0    0  501    0  0.00000000000E+00  0.00000000000E+00 -0.16928831082E+03  0.16928831084E+03  0.25500000920E-02 0.  1.
    10030    2    1    2    0    0  0.00000000000E+00  0.00000000000E+00  0.79566997646E+03  0.11342465981E+04  0.80834685248E+03 0.  0.
        2    1    3    3  502    0 -0.24372262999E+03  0.40761971700E+02  0.84661613251E+03  0.88194168432E+03  0.25500000920E-02 0. -1.
       -2    1    3    3    0  502  0.24372262999E+03 -0.40761971700E+02 -0.50946156054E+02  0.25230491380E+03  0.25500000920E-02 0.  1.
</event>
<event>
 5   0  0.2132540E-02  0.8040840E+03  0.7818609E-02  0.9554124E-01
       -1   -1    0    0    0  501  0.00000000000E+00  0.00000000000E+00  0.21721455313E+03  0.21721455319E+03  0.50400001928E-02 0. -1.
        1   -1    0    0  501    0  0.00000000000E+00  0.00000000000E+00 -0.74413869401E+03  0.74413869402E+03  0.50400001928E-02 0.  1.
    10030    2    1    2    0    0  0.00000000000E+00  0.00000000000E+00 -0.52692414088E+03  0.96135324721E+03  0.80408396059E+03 0.  0.
        4    1    3    3  502    0 -0.25832472602E+03 -0.65973568001E+02 -0.62323670326E+03  0.67787150473E+03  0.12699999809E+01 0.  1.
       -4    1    3    3    0  502  0.25832472602E+03  0.65973568001E+02  0.96312562375E+02  0.28348174248E+03  0.12699999809E+01 0. -1.
</event>
<event>
 5   0  0.3416160E-02  0.7946242E+03  0.7818609E-02  0.9567831E-01
        2   -1    0    0  501    0  0.00000000000E+00  0.00000000000E+00  0.96375185952E+03  0.96375185953E+03  0.25500000920E-02 0. -1.
       -2   -1    0    0    0  501  0.00000000000E+00  0.00000000000E+00 -0.16379415705E+03  0.16379415707E+03  0.25500000920E-02 0.  1.
    10030    2    1    2    0    0  0.00000000000E+00  0.00000000000E+00  0.79995770247E+03  0.11275460166E+04  0.79462424692E+03 0.  0.
        1    1    3    3  502    0  0.18025338601E+03 -0.34062317482E+03  0.53712405033E+03  0.66107312444E+03  0.50400001928E-02 0. -1.
       -1    1    3    3    0  502 -0.18025338601E+03  0.34062317482E+03  0.26283365215E+03  0.46647289216E+03  0.50400001928E-02 0.  1.
</event>
<event>
 5   0  0.3467240E-02  0.9005663E+03  0.7818609E-02  0.9424874E-01
        2   -1    0    0  501    0  0.00000000000E+00  0.00000000000E+00  0.18251349875E+03  0.18251349877E+03  0.25500000920E-02 0.  1.
       -2   -1    0    0    0  501  0.00000000000E+00  0.00000000000E+00 -0.11109037205E+04  0.11109037205E+04  0.25500000920E-02 0. -1.
    10030    2    1    2    0    0  0.00000000000E+00  0.00000000000E+00 -0.92839022172E+03  0.12934172192E+04  0.90056632140E+03 0.  0.
        2    1    3    3  502    0 -0.21736391605E+03  0.15106966934E+03 -0.98735588440E+03  0.10222234391E+04  0.25500000920E-02 0. -1.
       -2    1    3    3    0  502  0.21736391605E+03 -0.15106966934E+03  0.58965662688E+02  0.27119378012E+03  0.25500000920E-02 0.  1.
</event>
<event>
 5   0  0.3416160E-02  0.7950653E+03  0.7818609E-02  0.9567187E-01
       -2   -1    0    0    0  501  0.00000000000E+00  0.00000000000E+00  0.32827448714E+03  0.32827448715E+03  0.25500000920E-02 0.  1.
        2   -1    0    0  501    0  0.00000000000E+00  0.00000000000E+00 -0.48140263161E+03  0.48140263162E+03  0.25500000920E-02 0. -1.
    10030    2    1    2    0    0  0.00000000000E+00  0.00000000000E+00 -0.15312814447E+03  0.80967711876E+03  0.79506528538E+03 0.  0.
        1    1    3    3  502    0  0.17913483810E+03 -0.30609848823E+03  0.10630961594E+03  0.37025303400E+03  0.50400001928E-02 0.  1.
       -1    1    3    3    0  502 -0.17913483810E+03  0.30609848823E+03 -0.25943776041E+03  0.43942408476E+03  0.50400001928E-02 0. -1.
</event>
<event>
 5   0  0.3550586E-02  0.7952502E+03  0.7818609E-02  0.9566918E-01
        2   -1    0    0  501    0  0.00000000000E+00  0.00000000000E+00  0.91368255287E+03  0.91368255288E+03  0.25500000920E-02 0. -1.
       -2   -1    0    0    0  501  0.00000000000E+00  0.00000000000E+00 -0.17304230131E+03  0.17304230132E+03  0.25500000920E-02 0.  1.
    10030    2    1    2    0    0  0.00000000000E+00  0.00000000000E+00  0.74064025157E+03  0.10867248542E+04  0.79525022886E+03 0.  0.
        3    1    3    3  502    0 -0.36083351110E+03  0.13117008795E+03  0.51166941076E+03  0.63969681163E+03  0.10100000352E+00 0. -1.
       -3    1    3    3    0  502  0.36083351110E+03 -0.13117008795E+03  0.22897084081E+03  0.44702804257E+03  0.10100000352E+00 0.  1.
</event>
<event>
 5   0  0.1358000E-02  0.6290297E+03  0.7818609E-02  0.9846944E-01
        4   -1    0    0  501    0  0.00000000000E+00  0.00000000000E+00  0.38033685026E+03  0.38033897061E+03  0.12699999809E+01 0.  1.
       -4   -1    0    0    0  501  0.00000000000E+00  0.00000000000E+00 -0.26007977734E+03  0.26008287810E+03  0.12699999809E+01 0. -1.
    10030    2    1    2    0    0  0.00000000000E+00  0.00000000000E+00  0.12025707292E+03  0.64042184871E+03  0.62902971370E+03 0.  0.
        3    1    3    3  502    0  0.13057248187E+01  0.27262389458E+03  0.21979377612E+03  0.35019252852E+03  0.10100000352E+00 0.  1.
       -3    1    3    3    0  502 -0.13057248187E+01 -0.27262389458E+03 -0.99536703205E+02  0.29022932019E+03  0.10100000352E+00 0. -1.
</event>
<event>
 5   0  0.3416160E-02  0.6498698E+03  0.7818609E-02  0.9807024E-01
        2   -1    0    0  501    0  0.00000000000E+00  0.00000000000E+00  0.15358837683E+03  0.15358837685E+03  0.25500000920E-02 0. -1.
       -2   -1    0    0    0  501  0.00000000000E+00  0.00000000000E+00 -0.68743925259E+03  0.68743925260E+03  0.25500000920E-02 0.  1.
    10030    2    1    2    0    0  0.00000000000E+00  0.00000000000E+00 -0.53385087576E+03  0.84102762945E+03  0.64986976845E+03 0.  0.
        1    1    3    3  502    0 -0.18763258153E+02 -0.31792332284E+03 -0.18350176692E+03  0.36755978772E+03  0.50400001928E-02 0. -1.
       -1    1    3    3    0  502  0.18763258153E+02  0.31792332284E+03 -0.35034910884E+03  0.47346784173E+03  0.50400001928E-02 0.  1.
</event>
<event>
 5   0  0.3343036E-02  0.8031757E+03  0.7818609E-02  0.9555432E-01
       -2   -1    0    0    0  501  0.00000000000E+00  0.00000000000E+00  0.17623204465E+03  0.17623204466E+03  0.25500000920E-02 0. -1.
        2   -1    0    0  501    0  0.00000000000E+00  0.00000000000E+00 -0.91511627084E+03  0.91511627085E+03  0.25500000920E-02 0.  1.
    10030    2    1    2    0    0  0.00000000000E+00  0.00000000000E+00 -0.73888422620E+03  0.10913483155E+04  0.80317572551E+03 0.  0.
        4    1    3    3  502    0 -0.39603422874E+03 -0.12529073167E+02 -0.28064001700E+03  0.48555176866E+03  0.12699999809E+01 0.  1.
       -4    1    3    3    0  502  0.39603422874E+03  0.12529073167E+02 -0.45824420920E+03  0.60579654685E+03  0.12699999809E+01 0. -1.
</event>
<event>
 5   0  0.1989298E-02  0.7968073E+03  0.7818609E-02  0.9564650E-01
        1   -1    0    0  501    0  0.00000000000E+00  0.00000000000E+00  0.44059163326E+03  0.44059163329E+03  0.50400001928E-02 0.  1.
       -1   -1    0    0    0  501  0.00000000000E+00  0.00000000000E+00 -0.36025533041E+03  0.36025533044E+03  0.50400001928E-02 0. -1.
    10030    2    1    2    0    0  0.00000000000E+00  0.00000000000E+00  0.80336302858E+02  0.80084696374E+03  0.79680734043E+03 0.  0.
        1    1    3    3  502    0  0.37649327714E+03 -0.88645787163E+02  0.13615216163E+03  0.41005203871E+03  0.50400001928E-02 0.  1.
       -1    1    3    3    0  502 -0.37649327714E+03  0.88645787163E+02 -0.55815858768E+02  0.39079492503E+03  0.50400001928E-02 0. -1.
</event>
<event>
 5   0  0.2063692E-02  0.7983194E+03  0.7818609E-02  0.9562453E-01
       -1   -1    0    0    0  501  0.00000000000E+00  0.00000000000E+00  0.19048595713E+03  0.19048595720E+03  0.50400001928E-02 0.  1.
        1   -1    0    0  501    0  0.00000000000E+00  0.00000000000E+00 -0.83643156197E+03  0.83643156199E+03  0.50400001928E-02 0. -1.
    10030    2    1    2    0    0  0.00000000000E+00  0.00000000000E+00 -0.64594560484E+03  0.10269175192E+04  0.79831940150E+03 0.  0.
        2    1    3    3  502    0  0.28610410154E+03  0.24400404004E+03 -0.15070313254E+03  0.40509870728E+03  0.25500000920E-02 0.  1.
       -2    1    3    3    0  502 -0.28610410154E+03 -0.24400404004E+03 -0.49524247230E+03  0.62181881191E+03  0.25500000920E-02 0. -1.
</event>
<event>
 5   0  0.2077795E-02  0.8144713E+03  0.7818609E-02  0.9539303E-01
        1   -1    0    0  501    0  0.00000000000E+00  0.00000000000E+00  0.61711103389E+03  0.61711103391E+03  0.50400001928E-02 0. -1.
       -1   -1    0    0    0  501  0.00000000000E+00  0.00000000000E+00 -0.26873752561E+03  0.26873752566E+03  0.50400001928E-02 0.  1.
    10030    2    1    2    0    0  0.00000000000E+00  0.00000000000E+00  0.34837350828E+03  0.88584855957E+03  0.81447134340E+03 0.  0.
        5    1    3    3  502    0 -0.18871265056E+03  0.16360441664E+03 -0.17561967677E+03  0.30535754533E+03  0.46999998093E+01 0.  1.
       -5    1    3    3    0  502  0.18871265056E+03 -0.16360441664E+03  0.52399318506E+03  0.58049101424E+03  0.46999998093E+01 0. -1.
</event>
<event>
 5   0  0.1358000E-02  0.8054031E+03  0.7818609E-02  0.9552229E-01
        3   -1    0    0  501    0  0.00000000000E+00  0.00000000000E+00  0.45979847332E+03  0.45979848441E+03  0.10100000352E+00 0.  1.
       -3   -1    0    0    0  501  0.00000000000E+00  0.00000000000E+00 -0.35269478638E+03  0.35269480084E+03  0.10100000352E+00 0. -1.
    10030    2    1    2    0    0  0.00000000000E+00  0.00000000000E+00  0.10710368693E+03  0.81249328525E+03  0.80540309090E+03 0.  0.
        2    1    3    3  502    0  0.16603312801E+03 -0.14162600812E+03  0.39497417179E+03  0.45125327939E+03  0.25500000920E-02 0.  1.
       -2    1    3    3    0  502 -0.16603312801E+03  0.14162600812E+03 -0.28787048486E+03  0.36124000586E+03  0.25500000920E-02 0. -1.
</event>
<event>
 5   0  0.1989298E-02  0.8082216E+03  0.7818609E-02  0.9548192E-01
        1   -1    0    0  501    0  0.00000000000E+00  0.00000000000E+00  0.11587633225E+04  0.11587633225E+04  0.50400001928E-02 0. -1.
       -1   -1    0    0    0  501  0.00000000000E+00  0.00000000000E+00 -0.14093089855E+03  0.14093089864E+03  0.50400001928E-02 0.  1.
    10030    2    1    2    0    0  0.00000000000E+00  0.00000000000E+00  0.10178324239E+04  0.12996942211E+04  0.80822164362E+03 0.  0.
        1    1    3    3  502    0 -0.76630186553E+02  0.20242269938E+03 -0.39861116732E+02  0.22008190150E+03  0.50400001928E-02 0.  1.
       -1    1    3    3    0  502  0.76630186553E+02 -0.20242269938E+03  0.10576935407E+04  0.10796123196E+04  0.50400001928E-02 0. -1.
</event>
<event>
 5   0  0.3343036E-02  0.5178943E+03  0.7818609E-02  0.1009211E+00
        2   -1    0    0  501    0  0.00000000000E+00  0.00000000000E+00  0.16203885000E+03  0.16203885002E+03  0.25500000920E-02 0. -1.
       -2   -1    0    0    0  501  0.00000000000E+00  0.00000000000E+00 -0.41381200963E+03  0.41381200963E+03  0.25500000920E-02 0.  1.
    10030    2    1    2    0    0  0.00000000000E+00  0.00000000000E+00 -0.25177315962E+03  0.57585085965E+03  0.51789428328E+03 0.  0.
        4    1    3    3  502    0 -0.11686687719E+03 -0.99355264708E+02 -0.35785383615E+03  0.38934601135E+03  0.12699999809E+01 0.  1.
       -4    1    3    3    0  502  0.11686687719E+03  0.99355264708E+02  0.10608067652E+03  0.18650484830E+03  0.12699999809E+01 0. -1.
</event>
<event>
 5   0  0.1989298E-02  0.7794536E+03  0.7818609E-02  0.9590243E-01
        1   -1    0    0  501    0  0.00000000000E+00  0.00000000000E+00  0.97057098204E+03  0.97057098206E+03  0.50400001928E-02 0. -1.
       -1   -1    0    0    0  501  0.00000000000E+00  0.00000000000E+00 -0.15649239701E+03  0.15649239710E+03  0.50400001928E-02 0.  1.
    10030    2    1    2    0    0  0.00000000000E+00  0.00000000000E+00  0.81407858503E+03  0.11270633792E+04  0.77945360222E+03 0.  0.
        1    1    3    3  502    0 -0.22062598221E+03  0.98152181445E+01  0.87136059380E+03  0.89891125646E+03  0.50400001928E-02 0.  1.
       -1    1    3    3    0  502  0.22062598221E+03 -0.98152181445E+01 -0.57282008770E+02  0.22815212269E+03  0.50400001928E-02 0. -1.
</event>
<event>
 5   0  0.3404132E-02  0.7999126E+03  0.7818609E-02  0.9560144E-01
        2   -1    0    0  501    0  0.00000000000E+00  0.00000000000E+00  0.81148290872E+03  0.81148290872E+03  0.25500000920E-02 0. -1.
       -2   -1    0    0    0  501  0.00000000000E+00  0.00000000000E+00 -0.19712680532E+03  0.19712680534E+03  0.25500000920E-02 0.  1.
    10030    2    1    2    0    0  0.00000000000E+00  0.00000000000E+00  0.61435610340E+03  0.10086097141E+04  0.79991257867E+03 0.  0.
        5    1    3    3  502    0  0.29678688918E+03 -0.18579045476E+02  0.64437226862E+03  0.70969384180E+03  0.46999998093E+01 0. -1.
       -5    1    3    3    0  502 -0.29678688918E+03  0.18579045476E+02 -0.30016165223E+02  0.29891587227E+03  0.46999998093E+01 0.  1.
</event>
<event>
 5   0  0.3404132E-02  0.8691006E+03  0.7818609E-02  0.9465053E-01
       -2   -1    0    0    0  501  0.00000000000E+00  0.00000000000E+00  0.99298170503E+02  0.99298170536E+02  0.25500000920E-02 0. -1.
        2   -1    0    0  501    0  0.00000000000E+00  0.00000000000E+00 -0.19016860603E+04  0.19016860603E+04  0.25500000920E-02 0.  1.
    10030    2    1    2    0    0  0.00000000000E+00  0.00000000000E+00 -0.18023878898E+04  0.20009842309E+04  0.86910056195E+03 0.  0.
        5    1    3    3  502    0 -0.33415758229E+03  0.77367119746E+02 -0.15153893229E+04  0.15537290146E+04  0.46999998093E+01 0.  1.
       -5    1    3    3    0  502  0.33415758229E+03 -0.77367119746E+02 -0.28699856696E+03  0.44725521624E+03  0.46999998093E+01 0. -1.
</event>
<event>
 5   0  0.3404132E-02  0.5493835E+03  0.7818609E-02  0.1001637E+00
        2   -1    0    0  501    0  0.00000000000E+00  0.00000000000E+00  0.73312502411E+03  0.73312502411E+03  0.25500000920E-02 0.  1.
       -2   -1    0    0    0  501  0.00000000000E+00  0.00000000000E+00 -0.10292318124E+03  0.10292318127E+03  0.25500000920E-02 0. -1.
    10030    2    1    2    0    0  0.00000000000E+00  0.00000000000E+00  0.63020184287E+03  0.83604820538E+03  0.54938350809E+03 0.  0.
        5    1    3    3  502    0  0.15295796572E+03  0.10860932557E+03  0.62037641632E+03  0.64813664671E+03  0.46999998093E+01 0.  1.
       -5    1    3    3    0  502 -0.15295796572E+03 -0.10860932557E+03  0.98254265510E+01  0.18791155867E+03  0.46999998093E+01 0. -1.
</event>
<event>
 5   0  0.3467240E-02  0.8008702E+03  0.7818609E-02  0.9558758E-01
        2   -1    0    0  501    0  0.00000000000E+00  0.00000000000E+00  0.26385777559E+03  0.26385777560E+03  0.25500000920E-02 0.  1.
       -2   -1    0    0    0  501  0.00000000000E+00  0.00000000000E+00 -0.60770715014E+03  0.60770715015E+03  0.25500000920E-02 0. -1.
    10030    2    1    2    0    0  0.00000000000E+00  0.00000000000E+00 -0.34384937456E+03  0.87156492575E+03  0.80087016889E+03 0.  0.
        2    1    3    3  502    0  0.19626492356E+02 -0.39453494858E+03 -0.10051848974E+03  0.40761132423E+03  0.25500000920E-02 0. -1.
       -2    1    3    3    0  502 -0.19626492356E+02  0.39453494858E+03 -0.24333088482E+03  0.46395360152E+03  0.25500000920E-02 0.  1.
</event>
<event>
 5   0  0.2132540E-02  0.7777077E+03  0.7818609E-02  0.9592857E-01
       -1   -1    0    0    0  501  0.00000000000E+00  0.00000000000E+00  0.18635741663E+03  0.18635741670E+03  0.50400001928E-02 0.  1.
        1   -1    0    0  501    0  0.00000000000E+00  0.00000000000E+00 -0.81138342982E+03  0.81138342983E+03  0.50400001928E-02 0. -1.
    10030    2    1    2    0    0  0.00000000000E+00  0.00000000000E+00 -0.62502601318E+03  0.99774084653E+03  0.77770770839E+03 0.  0.
        4    1    3    3  502    0 -0.12531962100E+03  0.33767317528E+03 -0.12449758256E+03  0.38108980788E+03  0.12699999809E+01 0.  1.
       -4    1    3    3    0  502  0.12531962100E+03 -0.33767317528E+03 -0.50052843062E+03  0.61665103865E+03  0.12699999809E+01 0. -1.
</event>
<event>
 5   0  0.3416160E-02  0.7929416E+03  0.7818609E-02  0.9570290E-01
        2   -1    0    0  501    0  0.00000000000E+00  0.00000000000E+00  0.41470009114E+03  0.41470009114E+03  0.25500000920E-02 0.  1.
       -2   -1    0    0    0  501  0.00000000000E+00  0.00000000000E+00 -0.37904278640E+03  0.37904278641E+03  0.25500000920E-02 0. -1.
    10030    2    1    2    0    0  0.00000000000E+00  0.00000000000E+00  0.35657304732E+02  0.79374287756E+03  0.79294155667E+03 0.  0.
        1    1    3    3  502    0  0.21590427078E+03  0.33231556989E+03  0.29705967240E+02  0.39740500330E+03  0.50400001928E-02 0. -1.
       -1    1    3    3    0  502 -0.21590427078E+03 -0.33231556989E+03  0.59513374917E+01  0.39633787426E+03  0.50400001928E-02 0.  1.
</event>
<event>
 5   0  0.3404132E-02  0.7981190E+03  0.7818609E-02  0.9562744E-01
        2   -1    0    0  501    0  0.00000000000E+00  0.00000000000E+00  0.45618705169E+03  0.45618705170E+03  0.25500000920E-02 0. -1.
       -2   -1    0    0    0  501  0.00000000000E+00  0.00000000000E+00 -0.34908593459E+03  0.34908593460E+03  0.25500000920E-02 0.  1.
    10030    2    1    2    0    0  0.00000000000E+00  0.00000000000E+00  0.10710111710E+03  0.80527298630E+03  0.79811899688E+03 0.  0.
        5    1    3    3  502    0 -0.17499331469E+03 -0.35623208641E+03  0.95180959025E+02  0.40817332658E+03  0.46999998093E+01 0. -1.
       -5    1    3    3    0  502  0.17499331469E+03  0.35623208641E+03  0.11920158075E+02  0.39709965971E+03  0.46999998093E+01 0.  1.
</event>
<event>
 5   0  0.3343036E-02  0.8894181E+03  0.7818609E-02  0.9438907E-01
        2   -1    0    0  501    0  0.00000000000E+00  0.00000000000E+00  0.77191954790E+03  0.77191954790E+03  0.25500000920E-02 0. -1.
       -2   -1    0    0    0  501  0.00000000000E+00  0.00000000000E+00 -0.25620044573E+03  0.25620044575E+03  0.25500000920E-02 0.  1.
    10030    2    1    2    0    0  0.00000000000E+00  0.00000000000E+00  0.51571910217E+03  0.10281199936E+04  0.88941808448E+03 0.  0.
        4    1    3    3  502    0 -0.31274198559E+03 -0.20799686635E+03 -0.17377848483E+02  0.37599713893E+03  0.12699999809E+01 0.  1.
       -4    1    3    3    0  502  0.31274198559E+03  0.20799686635E+03  0.53309695065E+03  0.65212285472E+03  0.12699999809E+01 0. -1.
</event>
<event>
 5   0  0.3550586E-02  0.6668598E+03  0.7818609E-02  0.9775647E-01
        2   -1    0    0  501    0  0.00000000000E+00  0.00000000000E+00  0.10313978869E+04  0.10313978869E+04  0.25500000920E-02 0.  1.
       -2   -1    0    0    0  501  0.00000000000E+00  0.00000000000E+00 -0.10779108598E+03  0.10779108601E+03  0.25500000920E-02 0. -1.
    10030    2    1    2    0    0  0.00000000000E+00  0.00000000000E+00  0.92360680091E+03  0.11391889729E+04  0.66685980034E+03 0.  0.
        3    1    3    3  502    0 -0.86819464095E+02 -0.30527332067E+03  0.28720604217E+03  0.42803824657E+03  0.10100000352E+00 0. -1.
       -3    1    3    3    0  502  0.86819464095E+02  0.30527332067E+03  0.63640075874E+03  0.71115072634E+03  0.10100000352E+00 0.  1.
</event>
<event>
 5   0  0.3404132E-02  0.7282992E+03  0.7818609E-02  0.9670024E-01
       -2   -1    0    0    0  501  0.00000000000E+00  0.00000000000E+00  0.96699116543E+02  0.96699116577E+02  0.25500000920E-02 0. -1.
        2   -1    0    0  501    0  0.00000000000E+00  0.00000000000E+00 -0.13713147457E+04  0.13713147457E+04  0.25500000920E-02 0.  1.
    10030    2    1    2    0    0  0.00000000000E+00  0.00000000000E+00 -0.12746156291E+04  0.14680138622E+04  0.72829918148E+03 0.  0.
        5    1    3    3  502    0 -0.10279375871E+03 -0.25325715186E+03 -0.15238380417E+03  0.31296749923E+03  0.46999998093E+01 0. -1.
       -5    1    3    3    0  502  0.10279375871E+03  0.25325715186E+03 -0.11222318249E+04  0.11550463630E+04  0.46999998093E+01 0.  1.
</event>
<event>
 5   0  0.2132540E-02  0.8138070E+03  0.7818609E-02  0.9540244E-01
       -1   -1    0    0    0  501  0.00000000000E+00  0.00000000000E+00  0.12350499327E+03  0.12350499337E+03  0.50400001928E-02 0.  1.
        1   -1    0    0  501    0  0.00000000000E+00  0.00000000000E+00 -0.13405972674E+04  0.13405972674E+04  0.50400001928E-02 0. -1.
    10030    2    1    2    0    0  0.00000000000E+00  0.00000000000E+00 -0.12170922742E+04  0.14641022608E+04  0.81380699573E+03 0.  0.
        4    1    3    3  502    0 -0.15723996695E+03 -0.33960336744E+03 -0.89591464752E+03  0.97093744543E+03  0.12699999809E+01 0. -1.
       -4    1    3    3    0  502  0.15723996695E+03  0.33960336744E+03 -0.32117762663E+03  0.49316481539E+03  0.12699999809E+01 0.  1.
</event>
<event>
 5   0  0.2129257E-02  0.7940451E+03  0.7818609E-02  0.9568677E-01
       -1   -1    0    0    0  501  0.00000000000E+00  0.00000000000E+00  0.26764681938E+03  0.26764681942E+03  0.50400001928E-02 0. -1.
        1   -1    0    0  501    0  0.00000000000E+00  0.00000000000E+00 -0.58893624238E+03  0.58893624240E+03  0.50400001928E-02 0.  1.
    10030    2    1    2    0    0  0.00000000000E+00  0.00000000000E+00 -0.32128942300E+03  0.85658306182E+03  0.79404511740E+03 0.  0.
        3    1    3    3  502    0 -0.14395851377E+03 -0.20553538968E+03 -0.49254152567E+03  0.55278025906E+03  0.10100000352E+00 0.  1.
       -3    1    3    3    0  502  0.14395851377E+03  0.20553538968E+03  0.17125210267E+03  0.30380280276E+03  0.10100000352E+00 0. -1.
</event>
<event>
 5   0  0.2077795E-02  0.7985171E+03  0.7818609E-02  0.9562166E-01
       -1   -1    0    0    0  501  0.00000000000E+00  0.00000000000E+00  0.18368190690E+03  0.18368190697E+03  0.50400001928E-02 0. -1.
        1   -1    0    0  501    0  0.00000000000E+00  0.00000000000E+00 -0.86784488544E+03  0.86784488546E+03  0.50400001928E-02 0.  1.
    10030    2    1    2    0    0  0.00000000000E+00  0.00000000000E+00 -0.68416297854E+03  0.10515267924E+04  0.79851713443E+03 0.  0.
        5    1    3    3  502    0  0.19466837737E+03 -0.39079293881E+02  0.11401694020E+03  0.22900856099E+03  0.46999998093E+01 0. -1.
       -5    1    3    3    0  502 -0.19466837737E+03  0.39079293881E+02 -0.79817991874E+03  0.82251823143E+03  0.46999998093E+01 0.  1.
</event>
<event>
 5   0  0.3416160E-02  0.7845276E+03  0.7818609E-02  0.9582687E-01
        2   -1    0    0  501    0  0.00000000000E+00  0.00000000000E+00  0.97836069820E+03  0.97836069820E+03  0.25500000920E-02 0.  1.
       -2   -1    0    0    0  501  0.00000000000E+00  0.00000000000E+00 -0.15727420880E+03  0.15727420882E+03  0.25500000920E-02 0. -1.
    10030    2    1    2    0    0  0.00000000000E+00  0.00000000000E+00  0.82108648940E+03  0.11356349070E+04  0.78452764067E+03 0.  0.
        1    1    3    3  502    0  0.15120354578E+03  0.14174017399E+03 -0.71550753975E+02  0.21925396142E+03  0.50400001928E-02 0. -1.
       -1    1    3    3    0  502 -0.15120354578E+03 -0.14174017399E+03  0.89263724338E+03  0.91638094560E+03  0.50400001928E-02 0.  1.
</event>
<event>
 5   0  0.3404132E-02  0.7663482E+03  0.7818609E-02  0.9610046E-01
       -2   -1    0    0    0  501  0.00000000000E+00  0.00000000000E+00  0.15161094590E+03  0.15161094592E+03  0.25500000920E-02 0.  1.
        2   -1    0    0  501    0  0.00000000000E+00  0.00000000000E+00 -0.96841559609E+03  0.96841559610E+03  0.25500000920E-02 0. -1.
    10030    2    1    2    0    0  0.00000000000E+00  0.00000000000E+00 -0.81680465019E+03  0.11200265420E+04  0.76634823563E+03 0.  0.
        5    1    3    3  502    0  0.22847643956E+03 -0.22082557488E+03 -0.72129851924E+03  0.78819988697E+03  0.46999998093E+01 0. -1.
       -5    1    3    3    0  502 -0.22847643956E+03  0.22082557488E+03 -0.95506130950E+02  0.33182665505E+03  0.46999998093E+01 0.  1.
</event>
<event>
 5   0  0.2077795E-02  0.8975685E+03  0.7818609E-02  0.9428626E-01
       -1   -1    0    0    0  501  0.00000000000E+00  0.00000000000E+00  0.36419401352E+03  0.36419401356E+03  0.50400001928E-02 0. -1.
        1   -1    0    0  501    0  0.00000000000E+00  0.00000000000E+00 -0.55302205346E+03  0.55302205348E+03  0.50400001928E-02 0.  1.
    10030    2    1    2    0    0  0.00000000000E+00  0.00000000000E+00 -0.18882803994E+03  0.91721606704E+03  0.89756854054E+03 0.  0.
        5    1    3    3  502    0 -0.89155035443E+02 -0.17033710553E+03 -0.50877975764E+03  0.54391385499E+03  0.46999998093E+01 0.  1.
       -5    1    3    3    0  502  0.89155035443E+02  0.17033710553E+03  0.31995171770E+03  0.37330221205E+03  0.46999998093E+01 0. -1.
</event>
<event>
 5   0  0.1989298E-02  0.8148832E+03  0.7818609E-02  0.9538721E-01
        1   -1    0    0  501    0  0.00000000000E+00  0.00000000000E+00  0.13355839901E+03  0.13355839910E+03  0.50400001928E-02 0.  1.
       -1   -1    0    0    0  501  0.00000000000E+00  0.00000000000E+00 -0.12429668558E+04  0.12429668558E+04  0.50400001928E-02 0. -1.
    10030    2    1    2    0    0  0.00000000000E+00  0.00000000000E+00 -0.11094084568E+04  0.13765252549E+04  0.81488321459E+03 0.  0.
        1    1    3    3  502    0 -0.39404854113E+03 -0.27599546785E+02 -0.38601216237E+03  0.55230551081E+03  0.50400001928E-02 0.  1.
       -1    1    3    3    0  502  0.39404854113E+03  0.27599546785E+02 -0.72339629445E+03  0.82421974412E+03  0.50400001928E-02 0. -1.
</event>
<event>
 5   0  0.3343036E-02  0.8132103E+03  0.7818609E-02  0.9541090E-01
       -2   -1    0    0    0  501  0.00000000000E+00  0.00000000000E+00  0.17663148351E+04  0.17663148351E+04  0.25500000920E-02 0.  1.
        2   -1    0    0  501    0  0.00000000000E+00  0.00000000000E+00 -0.93600389005E+02  0.93600389040E+02  0.25500000920E-02 0. -1.
    10030    2    1    2    0    0  0.00000000000E+00  0.00000000000E+00  0.16727144461E+04  0.18599152241E+04  0.81321031893E+03 0.  0.
        4    1    3    3  502    0 -0.25491711523E+03  0.11398521158E+03  0.15123213658E+04  0.15378858510E+04  0.12699999809E+01 0. -1.
       -4    1    3    3    0  502  0.25491711523E+03 -0.11398521158E+03  0.16039308025E+03  0.32202937318E+03  0.12699999809E+01 0.  1.
</event>
<event>
 5   0  0.2132540E-02  0.7814599E+03  0.7818609E-02  0.9587248E-01
        1   -1    0    0  501    0  0.00000000000E+00  0.00000000000E+00  0.83624865126E+03  0.83624865127E+03  0.50400001928E-02 0.  1.
       -1   -1    0    0    0  501  0.00000000000E+00  0.00000000000E+00 -0.18256517137E+03  0.18256517144E+03  0.50400001928E-02 0. -1.
    10030    2    1    2    0    0  0.00000000000E+00  0.00000000000E+00  0.65368347989E+03  0.10188138227E+04  0.78145986043E+03 0.  0.
        4    1    3    3  502    0 -0.21680966548E+03 -0.23986978256E+02 -0.95789438616E+02  0.23824154890E+03  0.12699999809E+01 0. -1.
       -4    1    3    3    0  502  0.21680966548E+03  0.23986978256E+02  0.74947291850E+03  0.78057227381E+03  0.12699999809E+01 0.  1.
</event>
<event>
 5   0  0.3343036E-02  0.7917500E+03  0.7818609E-02  0.9572036E-01
        2   -1    0    0  501    0  0.00000000000E+00  0.00000000000E+00  0.33575827150E+03  0.33575827151E+03  0.25500000920E-02 0.  1.
       -2   -1    0    0    0  501  0.00000000000E+00  0.00000000000E+00 -0.46675543440E+03  0.46675543440E+03  0.25500000920E-02 0. -1.
    10030    2    1    2    0    0  0.00000000000E+00  0.00000000000E+00 -0.13099716290E+03  0.80251370591E+03  0.79174995516E+03 0.  0.
        4    1    3    3  502    0 -0.19133809969E+03  0.10204013996E+03 -0.40120042197E+03  0.45605465686E+03  0.12699999809E+01 0. -1.
       -4    1    3    3    0  502  0.19133809969E+03 -0.10204013996E+03  0.27020325907E+03  0.34645904905E+03  0.12699999809E+01 0.  1.
</event>
<event>
 5   0  0.3416160E-02  0.8217784E+03  0.7818609E-02  0.9529018E-01
        2   -1    0    0  501    0  0.00000000000E+00  0.00000000000E+00  0.12703675047E+04  0.12703675047E+04  0.25500000920E-02 0. -1.
       -2   -1    0    0    0  501  0.00000000000E+00  0.00000000000E+00 -0.13289848908E+03  0.13289848910E+03  0.25500000920E-02 0.  1.
    10030    2    1    2    0    0  0.00000000000E+00  0.00000000000E+00  0.11374690156E+04  0.14032659938E+04  0.82177836906E+03 0.  0.
        1    1    3    3  502    0 -0.20005976463E+03 -0.35889356909E+03  0.57076832708E+03  0.70328158413E+03  0.50400001928E-02 0.  1.
       -1    1    3    3    0  502  0.20005976463E+03  0.35889356909E+03  0.56670068852E+03  0.69998440965E+03  0.50400001928E-02 0. -1.
</event>
<event>
 5   0  0.1358000E-02  0.8024674E+03  0.7818609E-02  0.9556453E-01
        4   -1    0    0  501    0  0.00000000000E+00  0.00000000000E+00  0.13109198289E+03  0.13109813453E+03  0.12699999809E+01 0.  1.
       -4   -1    0    0    0  501  0.00000000000E+00  0.00000000000E+00 -0.12280220901E+04  0.12280227468E+04  0.12699999809E+01 0. -1.
    10030    2    1    2    0    0  0.00000000000E+00  0.00000000000E+00 -0.10969301072E+04  0.13591208814E+04  0.80246738875E+03 0.  0.
        2    1    3    3  502    0  0.11759679595E+03 -0.29145850352E+03 -0.12602438503E+03  0.33861366086E+03  0.25500000920E-02 0.  1.
       -2    1    3    3    0  502 -0.11759679595E+03  0.29145850352E+03 -0.97090572221E+03  0.10205072205E+04  0.25500000920E-02 0. -1.
</event>
<event>
 5   0  0.1989298E-02  0.8019693E+03  0.7818609E-02  0.9557171E-01
       -1   -1    0    0    0  501  0.00000000000E+00  0.00000000000E+00  0.17947395562E+03  0.17947395569E+03  0.50400001928E-02 0. -1.
        1   -1    0    0  501    0  0.00000000000E+00  0.00000000000E+00 -0.89588859520E+03  0.89588859521E+03  0.50400001928E-02 0.  1.
    10030    2    1    2    0    0  0.00000000000E+00  0.00000000000E+00 -0.71641463958E+03  0.10753625509E+04  0.80196925133E+03 0.  0.
        1    1    3    3  502    0 -0.19303684447E+03  0.28200139729E+03 -0.63947950008E+03  0.72506692274E+03  0.50400001928E-02 0.  1.
       -1    1    3    3    0  502  0.19303684447E+03 -0.28200139729E+03 -0.76935139497E+02  0.35029562817E+03  0.50400001928E-02 0. -1.
</event>
<event>
 5   0  0.2077795E-02  0.8028350E+03  0.7818609E-02  0.9555923E-01
        1   -1    0    0  501    0  0.00000000000E+00  0.00000000000E+00  0.17958532492E+04  0.17958532492E+04  0.50400001928E-02 0.  1.
       -1   -1    0    0    0  501  0.00000000000E+00  0.00000000000E+00 -0.89726702354E+02  0.89726702495E+02  0.50400001928E-02 0. -1.
    10030    2    1    2    0    0  0.00000000000E+00  0.00000000000E+00  0.17061265468E+04  0.18855799517E+04  0.80283495215E+03 0.  0.
        5    1    3    3  502    0  0.38804494495E+03 -0.10102682830E+03  0.89563810768E+03  0.98131290079E+03  0.46999998093E+01 0. -1.
       -5    1    3    3    0  502 -0.38804494495E+03  0.10102682830E+03  0.81048843914E+03  0.90426705088E+03  0.46999998093E+01 0.  1.
</event>
<event>
 5   0  0.3343036E-02  0.8489889E+03  0.7818609E-02  0.9491695E-01
        2   -1    0    0  501    0  0.00000000000E+00  0.00000000000E+00  0.77578069353E+03  0.77578069353E+03  0.25500000920E-02 0. -1.
       -2   -1    0    0    0  501  0.00000000000E+00  0.00000000000E+00 -0.23227639337E+03  0.23227639338E+03  0.25500000920E-02 0.  1.
    10030    2    1    2    0    0  0.00000000000E+00  0.00000000000E+00  0.54350430016E+03  0.10080570869E+04  0.84898890816E+03 0.  0.
        4    1    3    3  502    0  0.22519258974E+03  0.39698925881E+02 -0.15289571554E+03  0.27507529863E+03  0.12699999809E+01 0.  1.
       -4    1    3    3    0  502 -0.22519258974E+03 -0.39698925881E+02  0.69640001570E+03  0.73298178828E+03  0.12699999809E+01 0. -1.
</event>
<event>
 5   0  0.1358000E-02  0.8089922E+03  0.7818609E-02  0.9547092E-01
       -3   -1    0    0    0  501  0.00000000000E+00  0.00000000000E+00  0.14641994113E+03  0.14641997597E+03  0.10100000352E+00 0. -1.
        3   -1    0    0  501    0  0.00000000000E+00  0.00000000000E+00 -0.11174507251E+04  0.11174507297E+04  0.10100000352E+00 0.  1.
    10030    2    1    2    0    0  0.00000000000E+00  0.00000000000E+00 -0.97103078399E+03  0.12638707056E+04  0.80899219845E+03 0.  0.
        5    1    3    3  502    0 -0.32571809559E+03  0.84131766966E+02 -0.13469936503E+03  0.36240369885E+03  0.46999998093E+01 0. -1.
       -5    1    3    3    0  502  0.32571809559E+03 -0.84131766966E+02 -0.83633141896E+03  0.90146700680E+03  0.46999998093E+01 0.  1.
</event>
<event>
 5   0  0.2132540E-02  0.7621080E+03  0.7818609E-02  0.9616544E-01
       -1   -1    0    0    0  501  0.00000000000E+00  0.00000000000E+00  0.12844311446E+03  0.12844311456E+03  0.50400001928E-02 0.  1.
        1   -1    0    0  501    0  0.00000000000E+00  0.00000000000E+00 -0.11304782597E+04  0.11304782598E+04  0.50400001928E-02 0. -1.
    10030    2    1    2    0    0  0.00000000000E+00  0.00000000000E+00 -0.10020351453E+04  0.12589213743E+04  0.76210799387E+03 0.  0.
        4    1    3    3  502    0  0.23229674613E+03  0.75336222413E+02 -0.98421612817E+03  0.10140613022E+04  0.12699999809E+01 0. -1.
       -4    1    3    3    0  502 -0.23229674613E+03 -0.75336222413E+02 -0.17819017116E+02  0.24486007217E+03  0.12699999809E+01 0.  1.
</event>
<event>
 5   0  0.3343036E-02  0.6983323E+03  0.7818609E-02  0.9720088E-01
       -2   -1    0    0    0  501  0.00000000000E+00  0.00000000000E+00  0.13530137357E+03  0.13530137360E+03  0.25500000920E-02 0.  1.
        2   -1    0    0  501    0  0.00000000000E+00  0.00000000000E+00 -0.90107731268E+03  0.90107731268E+03  0.25500000920E-02 0. -1.
    10030    2    1    2    0    0  0.00000000000E+00  0.00000000000E+00 -0.76577593910E+03  0.10363786863E+04  0.69833229373E+03 0.  0.
        4    1    3    3  502    0  0.89745025044E+02 -0.26904410604E+03 -0.68513171147E+03  0.74151599812E+03  0.12699999809E+01 0. -1.
       -4    1    3    3    0  502 -0.89745025044E+02  0.26904410604E+03 -0.80644227639E+02  0.29486268816E+03  0.12699999809E+01 0.  1.
</event>
<event>
 5   0  0.1358000E-02  0.7951395E+03  0.7818609E-02  0.9567079E-01
        4   -1    0    0  501    0  0.00000000000E+00  0.00000000000E+00  0.14985109348E+03  0.14985647506E+03  0.12699999809E+01 0. -1.
       -4   -1    0    0    0  501  0.00000000000E+00  0.00000000000E+00 -0.10547670913E+04  0.10547678558E+04  0.12699999809E+01 0.  1.
    10030    2    1    2    0    0  0.00000000000E+00  0.00000000000E+00 -0.90491599779E+03  0.12046243309E+04  0.79513949440E+03 0.  0.
        5    1    3    3  502    0  0.41801293057E+01 -0.14789439121E+03 -0.10114635937E+04  0.10222381894E+04  0.46999998093E+01 0.  1.
       -5    1    3    3    0  502 -0.41801293057E+01  0.14789439121E+03  0.10654759591E+03  0.18238614153E+03  0.46999998093E+01 0. -1.
</event>
<event>
 5   0  0.3416160E-02  0.8550621E+03  0.7818609E-02  0.9483568E-01
       -2   -1    0    0    0  501  0.00000000000E+00  0.00000000000E+00  0.12223996214E+03  0.12223996216E+03  0.25500000920E-02 0. -1.
        2   -1    0    0  501    0  0.00000000000E+00  0.00000000000E+00 -0.14952786351E+04  0.14952786351E+04  0.25500000920E-02 0.  1.
    10030    2    1    2    0    0  0.00000000000E+00  0.00000000000E+00 -0.13730386730E+04  0.16175185973E+04  0.85506211182E+03 0.  0.
        1    1    3    3  502    0 -0.12486604147E+03  0.34642459609E+03 -0.27561904023E+03  0.45996454695E+03  0.50400001928E-02 0. -1.
       -1    1    3    3    0  502  0.12486604147E+03 -0.34642459609E+03 -0.10974196328E+04  0.11575540504E+04  0.50400001928E-02 0.  1.
</event>
<event>
 5   0  0.1989298E-02  0.8213815E+03  0.7818609E-02  0.9529574E-01
       -1   -1    0    0    0  501  0.00000000000E+00  0.00000000000E+00  0.19936469206E+03  0.19936469212E+03  0.50400001928E-02 0. -1.
        1   -1    0    0  501    0  0.00000000000E+00  0.00000000000E+00 -0.84602186007E+03  0.84602186008E+03  0.50400001928E-02 0.  1.
    10030    2    1    2    0    0  0.00000000000E+00  0.00000000000E+00 -0.64665716801E+03  0.10453865522E+04  0.82138148908E+03 0.  0.
        1    1    3    3  502    0 -0.67473440094E+02 -0.18666726140E+03  0.13426521067E+03  0.23963405104E+03  0.50400001928E-02 0. -1.
       -1    1    3    3    0  502  0.67473440094E+02  0.18666726140E+03 -0.78092237867E+03  0.80575250116E+03  0.50400001928E-02 0.  1.
</event>
<event>
 5   0  0.1989298E-02  0.7741445E+03  0.7818609E-02  0.9598215E-01
       -1   -1    0    0    0  501  0.00000000000E+00  0.00000000000E+00  0.23399424751E+03  0.23399424756E+03  0.50400001928E-02 0. -1.
        1   -1    0    0  501    0  0.00000000000E+00  0.00000000000E+00 -0.64029316623E+03  0.64029316625E+03  0.50400001928E-02 0.  1.
    10030    2    1    2    0    0  0.00000000000E+00  0.00000000000E+00 -0.40629891873E+03  0.87428741381E+03  0.77414447656E+03 0.  0.
        1    1    3    3  502    0 -0.28585048493E+03 -0.19593209648E+03 -0.84371676754E+01  0.34665699473E+03  0.50400001928E-02 0. -1.
       -1    1    3    3    0  502  0.28585048493E+03  0.19593209648E+03 -0.39786175105E+03  0.52763041909E+03  0.50400001928E-02 0.  1.
</event>
<event>
 5   0  0.2129257E-02  0.8049815E+03  0.7818609E-02  0.9552835E-01
        1   -1    0    0  501    0  0.00000000000E+00  0.00000000000E+00  0.25292927585E+03  0.25292927590E+03  0.50400001928E-02 0.  1.
       -1   -1    0    0    0  501  0.00000000000E+00  0.00000000000E+00 -0.64049044569E+03  0.64049044571E+03  0.50400001928E-02 0. -1.
    10030    2    1    2    0    0  0.00000000000E+00  0.00000000000E+00 -0.38756116984E+03  0.89341972161E+03  0.80498145233E+03 0.  0.
        3    1    3    3  502    0 -0.24108336617E+03  0.14223640362E+03 -0.51477188639E+03  0.58595434052E+03  0.10100000352E+00 0. -1.
       -3    1    3    3    0  502  0.24108336617E+03 -0.14223640362E+03  0.12721071655E+03  0.30746538108E+03  0.10100000352E+00 0.  1.
</event>
<event>
 5   0  0.3550586E-02  0.8040608E+03  0.7818609E-02  0.9554158E-01
       -2   -1    0    0    0  501  0.00000000000E+00  0.00000000000E+00  0.16648332646E+03  0.16648332648E+03  0.25500000920E-02 0.  1.
        2   -1    0    0  501    0  0.00000000000E+00  0.00000000000E+00 -0.97083867392E+03  0.97083867392E+03  0.25500000920E-02 0. -1.
    10030    2    1    2    0    0  0.00000000000E+00  0.00000000000E+00 -0.80435534746E+03  0.11373220004E+04  0.80406082332E+03 0.  0.
        3    1    3    3  502    0 -0.27737340406E+03  0.98899064138E+02 -0.78931810379E+03  0.84246074647E+03  0.10100000352E+00 0. -1.
       -3    1    3    3    0  502  0.27737340406E+03 -0.98899064138E+02 -0.15037243665E+02  0.29486125393E+03  0.10100000352E+00 0.  1.
</event>
<event>
 5   0  0.3467240E-02  0.8010245E+03  0.7818609E-02  0.9558535E-01
        2   -1    0    0  501    0  0.00000000000E+00  0.00000000000E+00  0.19339512580E+04  0.19339512580E+04  0.25500000920E-02 0. -1.
       -2   -1    0    0    0  501  0.00000000000E+00  0.00000000000E+00 -0.82944204868E+02  0.82944204907E+02  0.25500000920E-02 0.  1.
    10030    2    1    2    0    0  0.00000000000E+00  0.00000000000E+00  0.18510070531E+04  0.20168954629E+04  0.80102446752E+03 0.  0.
        2    1    3    3  502    0 -0.33477423467E+03  0.10248169425E+03  0.14152568363E+04  0.14579191330E+04  0.25500000920E-02 0. -1.
       -2    1    3    3    0  502  0.33477423467E+03 -0.10248169425E+03  0.43575021685E+03  0.55897632986E+03  0.25500000920E-02 0.  1.
</event>
<event>
 5   0  0.2063692E-02  0.8189091E+03  0.7818609E-02  0.9533043E-01
        1   -1    0    0  501    0  0.00000000000E+00  0.00000000000E+00  0.43192971915E+03  0.43192971918E+03  0.50400001928E-02 0. -1.
       -1   -1    0    0    0  501  0.00000000000E+00  0.00000000000E+00 -0.38814886948E+03  0.38814886952E+03  0.50400001928E-02 0.  1.
    10030    2    1    2    0    0  0.00000000000E+00  0.00000000000E+00  0.43780849665E+02  0.82007858870E+03  0.81890910902E+03 0.  0.
        2    1    3    3  502    0 -0.85572960460E+01  0.34296385426E+03  0.24571710797E+03  0.42198854226E+03  0.25500000920E-02 0. -1.
       -2    1    3    3    0  502  0.85572960460E+01 -0.34296385426E+03 -0.20193625830E+03  0.39809004643E+03  0.25500000920E-02 0.  1.
</event>
<event>
 5   0  0.3416160E-02  0.7685006E+03  0.7818609E-02  0.9606765E-01
       -2   -1    0    0    0  501  0.00000000000E+00  0.00000000000E+00  0.45692951008E+03  0.45692951009E+03  0.25500000920E-02 0. -1.
        2   -1    0    0  501    0  0.00000000000E+00  0.00000000000E+00 -0.32313148694E+03  0.32313148695E+03  0.25500000920E-02 0.  1.
    10030    2    1    2    0    0  0.00000000000E+00  0.00000000000E+00  0.13379802314E+03  0.78006099703E+03  0.76850064938E+03 0.  0.
        1    1    3    3  502    0 -0.23397051723E+03 -0.49678143098E+02 -0.23835421185E+03  0.33767269828E+03  0.50400001928E-02 0.  1.
       -1    1    3    3    0  502  0.23397051723E+03  0.49678143098E+02  0.37215223500E+03  0.44238829875E+03  0.50400001928E-02 0. -1.
</event>
<event>
 5   0  0.3404132E-02  0.8056206E+03  0.7818609E-02  0.9551917E-01
        2   -1    0    0  501    0  0.00000000000E+00  0.00000000000E+00  0.23600304062E+03  0.23600304064E+03  0.25500000920E-02 0.  1.
       -2   -1    0    0    0  501  0.00000000000E+00  0.00000000000E+00 -0.68751715191E+03  0.68751715192E+03  0.25500000920E-02 0. -1.
    10030    2    1    2    0    0  0.00000000000E+00  0.00000000000E+00 -0.45151411129E+03  0.92352019255E+03  0.80562060137E+03 0.  0.
        5    1    3    3  502    0  0.16495153848E+03  0.20467323733E+03 -0.57559727506E+03  0.63279890738E+03  0.46999998093E+01 0. -1.
       -5    1    3    3    0  502 -0.16495153848E+03 -0.20467323733E+03  0.12408316377E+03  0.29072128518E+03  0.46999998093E+01 0.  1.
</event>
<event>
 5   0  0.2132540E-02  0.7996013E+03  0.7818609E-02  0.9560594E-01
        1   -1    0    0  501    0  0.00000000000E+00  0.00000000000E+00  0.50363367550E+03  0.50363367553E+03  0.50400001928E-02 0.  1.
       -1   -1    0    0    0  501  0.00000000000E+00  0.00000000000E+00 -0.31737466238E+03  0.31737466242E+03  0.50400001928E-02 0. -1.
    10030    2    1    2    0    0  0.00000000000E+00  0.00000000000E+00  0.18625901312E+03  0.82100833795E+03  0.79960132004E+03 0.  0.
        4    1    3    3  502    0 -0.10347190111E+03  0.16835845619E+03  0.44997964695E+03  0.49146139183E+03  0.12699999809E+01 0.  1.
       -4    1    3    3    0  502  0.10347190111E+03 -0.16835845619E+03 -0.26372063383E+03  0.32954694612E+03  0.12699999809E+01 0. -1.
</event>
<event>
 5   0  0.3416160E-02  0.7916405E+03  0.7818609E-02  0.9572197E-01
       -2   -1    0    0    0  501  0.00000000000E+00  0.00000000000E+00  0.21832179685E+03  0.21832179686E+03  0.25500000920E-02 0. -1.
        2   -1    0    0  501    0  0.00000000000E+00  0.00000000000E+00 -0.71762718749E+03  0.71762718749E+03  0.25500000920E-02 0.  1.
    10030    2    1    2    0    0  0.00000000000E+00  0.00000000000E+00 -0.49930539064E+03  0.93594898435E+03  0.79164046649E+03 0.  0.
        1    1    3    3  502    0 -0.15815293859E+03 -0.27496489554E+03  0.30267181034E+02  0.31864423428E+03  0.50400001928E-02 0.  1.
       -1    1    3    3    0  502  0.15815293859E+03  0.27496489554E+03 -0.52957257168E+03  0.61730475007E+03  0.50400001928E-02 0. -1.
</event>
<event>
 5   0  0.1989298E-02  0.8192911E+03  0.7818609E-02  0.9532506E-01
       -1   -1    0    0    0  501  0.00000000000E+00  0.00000000000E+00  0.19045367014E+03  0.19045367021E+03  0.50400001928E-02 0.  1.
        1   -1    0    0  501    0  0.00000000000E+00  0.00000000000E+00 -0.88110398835E+03  0.88110398837E+03  0.50400001928E-02 0. -1.
    10030    2    1    2    0    0  0.00000000000E+00  0.00000000000E+00 -0.69065031821E+03  0.10715576586E+04  0.81929112872E+03 0.  0.
        1    1    3    3  502    0  0.13129724618E+03 -0.37133283740E+03 -0.19803328344E+03  0.44084489830E+03  0.50400001928E-02 0. -1.
       -1    1    3    3    0  502 -0.13129724618E+03  0.37133283740E+03 -0.49261703478E+03  0.63071276027E+03  0.50400001928E-02 0.  1.
</event>
<event>
 5   0  0.3416160E-02  0.7982755E+03  0.7818609E-02  0.9562517E-01
       -2   -1    0    0    0  501  0.00000000000E+00  0.00000000000E+00  0.15850799549E+03  0.15850799551E+03  0.25500000920E-02 0. -1.
        2   -1    0    0  501    0  0.00000000000E+00  0.00000000000E+00 -0.10050656866E+04  0.10050656866E+04  0.25500000920E-02 0.  1.
    10030    2    1    2    0    0  0.00000000000E+00  0.00000000000E+00 -0.84655769115E+03  0.11635736822E+04  0.79827550969E+03 0.  0.
        1    1    3    3  502    0 -0.30350280940E+03  0.70935832606E+02 -0.59854178614E+02  0.31737733123E+03  0.50400001928E-02 0. -1.
       -1    1    3    3    0  502  0.30350280940E+03 -0.70935832606E+02 -0.78670351254E+03  0.84619635093E+03  0.50400001928E-02 0.  1.
</event>
<event>
 5   0  0.2132540E-02  0.8126700E+03  0.7818609E-02  0.9541857E-01
       -1   -1    0    0    0  501  0.00000000000E+00  0.00000000000E+00  0.10757491684E+03  0.10757491696E+03  0.50400001928E-02 0.  1.
        1   -1    0    0  501    0  0.00000000000E+00  0.00000000000E+00 -0.15348200933E+04  0.15348200933E+04  0.50400001928E-02 0. -1.
    10030    2    1    2    0    0  0.00000000000E+00  0.00000000000E+00 -0.14272451765E+04  0.16423950103E+04  0.81267002899E+03 0.  0.
        4    1    3    3  502    0 -0.33477203962E+03 -0.13860886411E+03 -0.10852961781E+04  0.11441827402E+04  0.12699999809E+01 0. -1.
       -4    1    3    3    0  502  0.33477203962E+03  0.13860886411E+03 -0.34194899832E+03  0.49821227009E+03  0.12699999809E+01 0.  1.
</event>
<event>
 5   0  0.3467240E-02  0.8296157E+03  0.7818609E-02  0.9518112E-01
        2   -1    0    0  501    0  0.00000000000E+00  0.00000000000E+00  0.25531766739E+04  0.25531766739E+04  0.25500000920E-02 0. -1.
       -2   -1    0    0    0  501  0.00000000000E+00  0.00000000000E+00 -0.67392737075E+02  0.67392737123E+02  0.25500000920E-02 0.  1.
    10030    2    1    2    0    0  0.00000000000E+00  0.00000000000E+00  0.24857839369E+04  0.26205694111E+04  0.82961572877E+03 0.  0.
        2    1    3    3  502    0 -0.39278336409E+02  0.93118359313E+01 -0.61173638639E+02  0.73291964569E+02  0.25500000920E-02 0.  1.
       -2    1    3    3    0  502  0.39278336409E+02 -0.93118359313E+01  0.25469575755E+04  0.25472774465E+04  0.25500000920E-02 0. -1.
</event>
<event>
 5   0  0.3467240E-02  0.8404769E+03  0.7818609E-02  0.9503208E-01
       -2   -1    0    0    0  501  0.00000000000E+00  0.00000000000E+00  0.11574142026E+03  0.11574142029E+03  0.25500000920E-02 0. -1.
        2   -1    0    0  501    0  0.00000000000E+00  0.00000000000E+00 -0.15258181922E+04  0.15258181922E+04  0.25500000920E-02 0.  1.
    10030    2    1    2    0    0  0.00000000000E+00  0.00000000000E+00 -0.14100767719E+04  0.16415596125E+04  0.84047692330E+03 0.  0.
        2    1    3    3  502    0  0.13157558852E+03 -0.39910731234E+03 -0.70258148993E+03  0.81866936687E+03  0.25500000920E-02 0. -1.
       -2    1    3    3    0  502 -0.13157558852E+03  0.39910731234E+03 -0.70749528200E+03  0.82289024561E+03  0.25500000920E-02 0.  1.
</event>
<event>
 5   0  0.2132540E-02  0.8019744E+03  0.7818609E-02  0.9557164E-01
        1   -1    0    0  501    0  0.00000000000E+00  0.00000000000E+00  0.50562244442E+03  0.50562244445E+03  0.50400001928E-02 0.  1.
       -1   -1    0    0    0  501  0.00000000000E+00  0.00000000000E+00 -0.31800556051E+03  0.31800556055E+03  0.50400001928E-02 0. -1.
    10030    2    1    2    0    0  0.00000000000E+00  0.00000000000E+00  0.18761688392E+03  0.82362800500E+03  0.80197443568E+03 0.  0.
        4    1    3    3  502    0 -0.27487003110E+03  0.25241241986E+03 -0.56861894111E+02  0.37749231992E+03  0.12699999809E+01 0. -1.
       -4    1    3    3    0  502  0.27487003110E+03 -0.25241241986E+03  0.24447877803E+03  0.44613568508E+03  0.12699999809E+01 0.  1.
</event>
<event>
 5   0  0.2077795E-02  0.7962492E+03  0.7818609E-02  0.9565462E-01
       -1   -1    0    0    0  501  0.00000000000E+00  0.00000000000E+00  0.44451333737E+03  0.44451333740E+03  0.50400001928E-02 0.  1.
        1   -1    0    0  501    0  0.00000000000E+00  0.00000000000E+00 -0.35657694273E+03  0.35657694276E+03  0.50400001928E-02 0. -1.
    10030    2    1    2    0    0  0.00000000000E+00  0.00000000000E+00  0.87936394641E+02  0.80109028016E+03  0.79624922447E+03 0.  0.
        5    1    3    3  502    0  0.18029918165E+03 -0.13780382429E+03  0.37304001853E+03  0.43666764743E+03  0.46999998093E+01 0.  1.
       -5    1    3    3    0  502 -0.18029918165E+03  0.13780382429E+03 -0.28510362389E+03  0.36442263273E+03  0.46999998093E+01 0. -1.
</event>
<event>
 5   0  0.1358000E-02  0.8696336E+03  0.7818609E-02  0.9464358E-01
       -4   -1    0    0    0  501  0.00000000000E+00  0.00000000000E+00  0.36916802579E+03  0.36917021029E+03  0.12699999809E+01 0. -1.
        4   -1    0    0  501    0  0.00000000000E+00  0.00000000000E+00 -0.51213530925E+03  0.51213688393E+03  0.12699999809E+01 0.  1.
    10030    2    1    2    0    0  0.00000000000E+00  0.00000000000E+00 -0.14296728346E+03  0.88130709421E+03  0.86963357236E+03 0.  0.
        3    1    3    3  502    0  0.28627966341E+03  0.25710282453E+03  0.13373829251E+03  0.40736206150E+03  0.10100000352E+00 0. -1.
       -3    1    3    3    0  502 -0.28627966341E+03 -0.25710282453E+03 -0.27670557597E+03  0.47394503272E+03  0.10100000352E+00 0.  1.
</event>
<event>
 5   0  0.3550586E-02  0.8154850E+03  0.7818609E-02  0.9537870E-01
       -2   -1    0    0    0  501  0.00000000000E+00  0.00000000000E+00  0.79750108937E+02  0.79750108977E+02  0.25500000920E-02 0.  1.
        2   -1    0    0  501    0  0.00000000000E+00  0.00000000000E+00 -0.20846862777E+04  0.20846862777E+04  0.25500000920E-02 0. -1.
    10030    2    1    2    0    0  0.00000000000E+00  0.00000000000E+00 -0.20049361687E+04  0.21644363866E+04  0.81548502816E+03 0.  0.
        3    1    3    3  502    0 -0.13042178666E+03 -0.30183872683E+03 -0.36250198900E+03  0.48941205715E+03  0.10100000352E+00 0.  1.
       -3    1    3    3    0  502  0.13042178666E+03  0.30183872683E+03 -0.16424341797E+04  0.16750243295E+04  0.10100000352E+00 0. -1.
</event>
<event>
 5   0  0.2063692E-02  0.7962904E+03  0.7818609E-02  0.9565402E-01
       -1   -1    0    0    0  501  0.00000000000E+00  0.00000000000E+00  0.15112547421E+03  0.15112547429E+03  0.50400001928E-02 0.  1.
        1   -1    0    0  501    0  0.00000000000E+00  0.00000000000E+00 -0.10489270467E+04  0.10489270467E+04  0.50400001928E-02 0. -1.
    10030    2    1    2    0    0  0.00000000000E+00  0.00000000000E+00 -0.89780157251E+03  0.12000525210E+04  0.79629039276E+03 0.  0.
        2    1    3    3  502    0 -0.18241112864E+03  0.12810884624E+03 -0.94607761036E+03  0.97198175969E+03  0.25500000920E-02 0. -1.
       -2    1    3    3    0  502  0.18241112864E+03 -0.12810884624E+03  0.48276037856E+02  0.22807076133E+03  0.25500000920E-02 0.  1.
</event>
<event>
 5   0  0.1989298E-02  0.7943038E+03  0.7818609E-02  0.9568299E-01
       -1   -1    0    0    0  501  0.00000000000E+00  0.00000000000E+00  0.17567014259E+03  0.17567014266E+03  0.50400001928E-02 0. -1.
        1   -1    0    0  501    0  0.00000000000E+00  0.00000000000E+00 -0.89787389522E+03  0.89787389523E+03  0.50400001928E-02 0.  1.
    10030    2    1    2    0    0  0.00000000000E+00  0.00000000000E+00 -0.72220375263E+03  0.10735440379E+04  0.79430380899E+03 0.  0.
        1    1    3    3  502    0 -0.10392906264E+03 -0.27001206829E+03  0.66147271131E+01  0.28939855169E+03  0.50400001928E-02 0. -1.
       -1    1    3    3    0  502  0.10392906264E+03  0.27001206829E+03 -0.72881847975E+03  0.78414548620E+03  0.50400001928E-02 0.  1.
</event>
<event>
 5   0  0.3416160E-02  0.8019178E+03  0.7818609E-02  0.9557245E-01
        2   -1    0    0  501    0  0.00000000000E+00  0.00000000000E+00  0.14202188916E+04  0.14202188916E+04  0.25500000920E-02 0.  1.
       -2   -1    0    0    0  501  0.00000000000E+00  0.00000000000E+00 -0.11319947394E+03  0.11319947397E+03  0.25500000920E-02 0. -1.
    10030    2    1    2    0    0  0.00000000000E+00  0.00000000000E+00  0.13070194176E+04  0.15334183655E+04  0.80191777991E+03 0.  0.
        1    1    3    3  502    0 -0.38352157825E+03  0.11419460025E+03  0.60517920460E+03  0.72551435369E+03  0.50400001928E-02 0.  1.
       -1    1    3    3    0  502  0.38352157825E+03 -0.11419460025E+03  0.70184021301E+03  0.80790401184E+03  0.50400001928E-02 0. -1.
</event>
<event>
 5   0  0.2077795E-02  0.8000776E+03  0.7818609E-02  0.9559905E-01
        1   -1    0    0  501    0  0.00000000000E+00  0.00000000000E+00  0.88767920699E+03  0.88767920701E+03  0.50400001928E-02 0.  1.
       -1   -1    0    0    0  501  0.00000000000E+00  0.00000000000E+00 -0.18028028597E+03  0.18028028604E+03  0.50400001928E-02 0. -1.
    10030    2    1    2    0    0  0.00000000000E+00  0.00000000000E+00  0.70739892102E+03  0.10679594930E+04  0.80007764956E+03 0.  0.
        5    1    3    3  502    0 -0.13636988669E+03 -0.26708367132E+03  0.70705764758E+03  0.76803843685E+03  0.46999998093E+01 0.  1.
       -5    1    3    3    0  502  0.13636988669E+03  0.26708367132E+03  0.34127344587E+00  0.29992105619E+03  0.46999998093E+01 0. -1.
</event>
<event>
 5   0  0.2077795E-02  0.7888295E+03  0.7818609E-02  0.9576328E-01
        1   -1    0    0  501    0  0.00000000000E+00  0.00000000000E+00  0.72194256942E+03  0.72194256943E+03  0.50400001928E-02 0.  1.
       -1   -1    0    0    0  501  0.00000000000E+00  0.00000000000E+00 -0.21547836726E+03  0.21547836732E+03  0.50400001928E-02 0. -1.
    10030    2    1    2    0    0  0.00000000000E+00  0.00000000000E+00  0.50646420215E+03  0.93742093676E+03  0.78882952823E+03 0.  0.
        5    1    3    3  502    0 -0.54432396814E+01 -0.26965622588E+03  0.59517869696E+03  0.65345533919E+03  0.46999998093E+01 0.  1.
       -5    1    3    3    0  502  0.54432396814E+01  0.26965622588E+03 -0.88714494803E+02  0.28396559756E+03  0.46999998093E+01 0. -1.
</event>
<event>
 5   0  0.3467240E-02  0.8019306E+03  0.7818609E-02  0.9557227E-01
        2   -1    0    0  501    0  0.00000000000E+00  0.00000000000E+00  0.82252487971E+03  0.82252487972E+03  0.25500000920E-02 0.  1.
       -2   -1    0    0    0  501  0.00000000000E+00  0.00000000000E+00 -0.19546300029E+03  0.19546300031E+03  0.25500000920E-02 0. -1.
    10030    2    1    2    0    0  0.00000000000E+00  0.00000000000E+00  0.62706187942E+03  0.10179878800E+04  0.80193062247E+03 0.  0.
        2    1    3    3  502    0 -0.15899729881E+03 -0.21560546209E+03  0.69225132550E+03  0.74227875759E+03  0.25500000920E-02 0.  1.
       -2    1    3    3    0  502  0.15899729881E+03  0.21560546209E+03 -0.65189446072E+02  0.27570912244E+03  0.25500000920E-02 0. -1.
</event>
<event>
 5   0  0.3467240E-02  0.7971435E+03  0.7818609E-02  0.9564161E-01
        2   -1    0    0  501    0  0.00000000000E+00  0.00000000000E+00  0.11127587293E+04  0.11127587293E+04  0.25500000920E-02 0.  1.
       -2   -1    0    0    0  501  0.00000000000E+00  0.00000000000E+00 -0.14276179678E+03  0.14276179681E+03  0.25500000920E-02 0. -1.
    10030    2    1    2    0    0  0.00000000000E+00  0.00000000000E+00  0.96999693247E+03  0.12555205261E+04  0.79714348919E+03 0.  0.
        2    1    3    3  502    0 -0.22184151004E+02  0.97876200673E+02 -0.12253556185E+03  0.15838829230E+03  0.25500000920E-02 0. -1.
       -2    1    3    3    0  502  0.22184151004E+02 -0.97876200673E+02  0.10925324943E+04  0.10971322338E+04  0.25500000920E-02 0.  1.
</event>
<event>
 5   0  0.1989298E-02  0.8627843E+03  0.7818609E-02  0.9473337E-01
        1   -1    0    0  501    0  0.00000000000E+00  0.00000000000E+00  0.40150584693E+03  0.40150584696E+03  0.50400001928E-02 0.  1.
       -1   -1    0    0    0  501  0.00000000000E+00  0.00000000000E+00 -0.46350310179E+03  0.46350310182E+03  0.50400001928E-02 0. -1.
    10030    2    1    2    0    0  0.00000000000E+00  0.00000000000E+00 -0.61997254863E+02  0.86500894878E+03  0.86278434262E+03 0.  0.
        1    1    3    3  502    0  0.21049818039E+03  0.12201465044E+03 -0.38815041605E+03  0.45810239508E+03  0.50400001928E-02 0. -1.
       -1    1    3    3    0  502 -0.21049818039E+03 -0.12201465044E+03  0.32615316119E+03  0.40690655371E+03  0.50400001928E-02 0.  1.
</event>
<event>
 5   0  0.3404132E-02  0.7857189E+03  0.7818609E-02  0.9580922E-01
       -2   -1    0    0    0  501  0.00000000000E+00  0.00000000000E+00  0.94995317368E+02  0.94995317402E+02  0.25500000920E-02 0.  1.
        2   -1    0    0  501    0  0.00000000000E+00  0.00000000000E+00 -0.16246965301E+04  0.16246965301E+04  0.25500000920E-02 0. -1.
    10030    2    1    2    0    0  0.00000000000E+00  0.00000000000E+00 -0.15297012127E+04  0.17196918475E+04  0.78571893837E+03 0.  0.
        5    1    3    3  502    0 -0.56523302481E+02 -0.37834350855E+03 -0.56936067503E+03  0.68595361538E+03  0.46999998093E+01 0. -1.
       -5    1    3    3    0  502  0.56523302481E+02  0.37834350855E+03 -0.96034053766E+03  0.10337382321E+04  0.46999998093E+01 0.  1.
</event>
<event>
 5   0  0.2132540E-02  0.7834167E+03  0.7818609E-02  0.9584336E-01
        1   -1    0    0  501    0  0.00000000000E+00  0.00000000000E+00  0.28744058420E+03  0.28744058424E+03  0.50400001928E-02 0. -1.
       -1   -1    0    0    0  501  0.00000000000E+00  0.00000000000E+00 -0.53379879008E+03  0.53379879011E+03  0.50400001928E-02 0.  1.
    10030    2    1    2    0    0  0.00000000000E+00  0.00000000000E+00 -0.24635820589E+03  0.82123937435E+03  0.78341671183E+03 0.  0.
        4    1    3    3  502    0  0.66794741626E+01 -0.21857356667E+03  0.21749516395E+03  0.30842305145E+03  0.12699999809E+01 0. -1.
       -4    1    3    3    0  502 -0.66794741626E+01  0.21857356667E+03 -0.46385336984E+03  0.51281632290E+03  0.12699999809E+01 0.  1.
</event>
<event>
 5   0  0.3467240E-02  0.7882833E+03  0.7818609E-02  0.9577133E-01
       -2   -1    0    0    0  501  0.00000000000E+00  0.00000000000E+00  0.29513235941E+03  0.29513235942E+03  0.25500000920E-02 0.  1.
        2   -1    0    0  501    0  0.00000000000E+00  0.00000000000E+00 -0.52636599509E+03  0.52636599510E+03  0.25500000920E-02 0. -1.
    10030    2    1    2    0    0  0.00000000000E+00  0.00000000000E+00 -0.23123363568E+03  0.82149835452E+03  0.78828329439E+03 0.  0.
        2    1    3    3  502    0 -0.17779232044E+03  0.10104373501E+03 -0.46675275534E+03  0.50958618527E+03  0.25500000920E-02 0. -1.
       -2    1    3    3    0  502  0.17779232044E+03 -0.10104373501E+03  0.23551911966E+03  0.31191216925E+03  0.25500000920E-02 0.  1.
</event>
<event>
 5   0  0.2129257E-02  0.7620867E+03  0.7818609E-02  0.9616577E-01
       -1   -1    0    0    0  501  0.00000000000E+00  0.00000000000E+00  0.29081617963E+03  0.29081617967E+03  0.50400001928E-02 0.  1.
        1   -1    0    0  501    0  0.00000000000E+00  0.00000000000E+00 -0.49926398028E+03  0.49926398031E+03  0.50400001928E-02 0. -1.
    10030    2    1    2    0    0  0.00000000000E+00  0.00000000000E+00 -0.20844780065E+03  0.79008015998E+03  0.76208672314E+03 0.  0.
        3    1    3    3  502    0 -0.31686234195E+03  0.81906913705E+01  0.11502777278E+03  0.33719464687E+03  0.10100000352E+00 0.  1.
       -3    1    3    3    0  502  0.31686234195E+03 -0.81906913705E+01 -0.32347557343E+03  0.45288551310E+03  0.10100000352E+00 0. -1.
</event>
<event>
 5   0  0.2077795E-02  0.8132367E+03  0.7818609E-02  0.9541053E-01
       -1   -1    0    0    0  501  0.00000000000E+00  0.00000000000E+00  0.25605776941E+03  0.25605776946E+03  0.50400001928E-02 0. -1.
        1   -1    0    0  501    0  0.00000000000E+00  0.00000000000E+00 -0.64570770452E+03  0.64570770454E+03  0.50400001928E-02 0.  1.
    10030    2    1    2    0    0  0.00000000000E+00  0.00000000000E+00 -0.38964993511E+03  0.90176547400E+03  0.81323668029E+03 0.  0.
        5    1    3    3  502    0 -0.23898725752E+03  0.22327462372E+03 -0.46267812392E+03  0.56662121669E+03  0.46999998093E+01 0.  1.
       -5    1    3    3    0  502  0.23898725752E+03 -0.22327462372E+03  0.73028188807E+02  0.33514425731E+03  0.46999998093E+01 0. -1.
</event>
<event>
 5   0  0.2063692E-02  0.7912337E+03  0.7818609E-02  0.9572793E-01
        1   -1    0    0  501    0  0.00000000000E+00  0.00000000000E+00  0.11144983734E+04  0.11144983734E+04  0.50400001928E-02 0.  1.
       -1   -1    0    0    0  501  0.00000000000E+00  0.00000000000E+00 -0.14043330848E+03  0.14043330857E+03  0.50400001928E-02 0. -1.
    10030    2    1    2    0    0  0.00000000000E+00  0.00000000000E+00  0.97406506492E+03  0.12549316820E+04  0.79123370489E+03 0.  0.
        2    1    3    3  502    0  0.13904657966E+01  0.17071685011E+03  0.10530670841E+04  0.10668160385E+04  0.25500000920E-02 0.  1.
       -2    1    3    3    0  502 -0.13904657966E+01 -0.17071685011E+03 -0.79002019164E+02  0.18811564354E+03  0.25500000920E-02 0. -1.
</event>
<event>
 5   0  0.2077795E-02  0.7949930E+03  0.7818609E-02  0.9567293E-01
       -1   -1    0    0    0  501  0.00000000000E+00  0.00000000000E+00  0.41513851362E+03  0.41513851365E+03  0.50400001928E-02 0.  1.
        1   -1    0    0  501    0  0.00000000000E+00  0.00000000000E+00 -0.38060425140E+03  0.38060425143E+03  0.50400001928E-02 0. -1.
    10030    2    1    2    0    0  0.00000000000E+00  0.00000000000E+00  0.34534262225E+02  0.79574276508E+03  0.79499303954E+03 0.  0.
        5    1    3    3  502    0  0.15920953159E+03 -0.21260019007E+03  0.31323987946E+03  0.41071623763E+03  0.46999998093E+01 0.  1.
       -5    1    3    3    0  502 -0.15920953159E+03  0.21260019007E+03 -0.27870561724E+03  0.38502652746E+03  0.46999998093E+01 0. -1.
</event>
<event>
 5   0  0.3467240E-02  0.8303548E+03  0.7818609E-02  0.9517090E-01
       -2   -1    0    0    0  501  0.00000000000E+00  0.00000000000E+00  0.15335339257E+03  0.15335339259E+03  0.25500000920E-02 0. -1.
        2   -1    0    0  501    0  0.00000000000E+00  0.00000000000E+00 -0.11240199165E+04  0.11240199165E+04  0.25500000920E-02 0.  1.
    10030    2    1    2    0    0  0.00000000000E+00  0.00000000000E+00 -0.97066652392E+03  0.12773733091E+04  0.83035478568E+03 0.  0.
        2    1    3    3  502    0 -0.38376664922E+02  0.34030706960E+03 -0.84640449204E+03  0.91306201004E+03  0.25500000920E-02 0.  1.
       -2    1    3    3    0  502  0.38376664922E+02 -0.34030706960E+03 -0.12426203188E+03  0.36431129904E+03  0.25500000920E-02 0. -1.
</event>
<event>
 5   0  0.3467240E-02  0.7712540E+03  0.7818609E-02  0.9602584E-01
        2   -1    0    0  501    0  0.00000000000E+00  0.00000000000E+00  0.56440673957E+03  0.56440673957E+03  0.25500000920E-02 0.  1.
       -2   -1    0    0    0  501  0.00000000000E+00  0.00000000000E+00 -0.26347697707E+03  0.26347697708E+03  0.25500000920E-02 0. -1.
    10030    2    1    2    0    0  0.00000000000E+00  0.00000000000E+00  0.30092976250E+03  0.82788371665E+03  0.77125399600E+03 0.  0.
        2    1    3    3  502    0 -0.79687739454E+01  0.46435509184E+02  0.56130568141E+03  0.56327952729E+03  0.25500000920E-02 0.  1.
       -2    1    3    3    0  502  0.79687739454E+01 -0.46435509184E+02 -0.26037591891E+03  0.26460418936E+03  0.25500000920E-02 0. -1.
</event>
<event>
 5   0  0.2063692E-02  0.8007888E+03  0.7818609E-02  0.9558876E-01
        1   -1    0    0  501    0  0.00000000000E+00  0.00000000000E+00  0.14054247002E+04  0.14054247002E+04  0.50400001928E-02 0. -1.
       -1   -1    0    0    0  501  0.00000000000E+00  0.00000000000E+00 -0.11406920589E+03  0.11406920600E+03  0.50400001928E-02 0.  1.
    10030    2    1    2    0    0  0.00000000000E+00  0.00000000000E+00  0.12913554943E+04  0.15194939062E+04  0.80078881004E+03 0.  0.
        2    1    3    3  502    0  0.11827168576E+01  0.88970420898E+02 -0.95071770160E+02  0.13021434676E+03  0.25500000920E-02 0.  1.
       -2    1    3    3    0  502 -0.11827168576E+01 -0.88970420898E+02  0.13864272644E+04  0.13892795594E+04  0.25500000920E-02 0. -1.
</event>
<event>
 5   0  0.3343036E-02  0.7985354E+03  0.7818609E-02  0.9562139E-01
       -2   -1    0    0    0  501  0.00000000000E+00  0.00000000000E+00  0.14761930292E+03  0.14761930294E+03  0.25500000920E-02 0. -1.
        2   -1    0    0  501    0  0.00000000000E+00  0.00000000000E+00 -0.10799041993E+04  0.10799041993E+04  0.25500000920E-02 0.  1.
    10030    2    1    2    0    0  0.00000000000E+00  0.00000000000E+00 -0.93228489639E+03  0.12275235023E+04  0.79853542223E+03 0.  0.
        4    1    3    3  502    0 -0.30081330401E+03  0.18863020775E+02 -0.63612329268E+02  0.30804642305E+03  0.12699999809E+01 0. -1.
       -4    1    3    3    0  502  0.30081330401E+03 -0.18863020775E+02 -0.86867256712E+03  0.91947707921E+03  0.12699999809E+01 0.  1.
</event>
<event>
 5   0  0.2077795E-02  0.6969630E+03  0.7818609E-02  0.9722440E-01
       -1   -1    0    0    0  501  0.00000000000E+00  0.00000000000E+00  0.13849300207E+04  0.13849300207E+04  0.50400001928E-02 0.  1.
        1   -1    0    0  501    0  0.00000000000E+00  0.00000000000E+00 -0.87686267404E+02  0.87686267549E+02  0.50400001928E-02 0. -1.
    10030    2    1    2    0    0  0.00000000000E+00  0.00000000000E+00  0.12972437533E+04  0.14726162883E+04  0.69696296672E+03 0.  0.
        5    1    3    3  502    0  0.19447988650E+03  0.10393572089E+03  0.78559601321E+02  0.23413406691E+03  0.46999998093E+01 0. -1.
       -5    1    3    3    0  502 -0.19447988650E+03 -0.10393572089E+03  0.12186841520E+04  0.12384822214E+04  0.46999998093E+01 0.  1.
</event>
<event>
 5   0  0.2077795E-02  0.7931707E+03  0.7818609E-02  0.9569955E-01
        1   -1    0    0  501    0  0.00000000000E+00  0.00000000000E+00  0.23769875542E+03  0.23769875548E+03  0.50400001928E-02 0.  1.
       -1   -1    0    0    0  501  0.00000000000E+00  0.00000000000E+00 -0.66167766712E+03  0.66167766714E+03  0.50400001928E-02 0. -1.
    10030    2    1    2    0    0  0.00000000000E+00  0.00000000000E+00 -0.42397891170E+03  0.89937642262E+03  0.79317074580E+03 0.  0.
        5    1    3    3  502    0  0.12041565207E+03 -0.19900857671E+03 -0.57617008959E+03  0.62136817186E+03  0.46999998093E+01 0. -1.
       -5    1    3    3    0  502 -0.12041565207E+03  0.19900857671E+03  0.15219117789E+03  0.27800825076E+03  0.46999998093E+01 0.  1.
</event>
<event>
 5   0  0.2129257E-02  0.8040944E+03  0.7818609E-02  0.9554109E-01
       -1   -1    0    0    0  501  0.00000000000E+00  0.00000000000E+00  0.66749825312E+03  0.66749825314E+03  0.50400001928E-02 0.  1.
        1   -1    0    0  501    0  0.00000000000E+00  0.00000000000E+00 -0.24216087156E+03  0.24216087161E+03  0.50400001928E-02 0. -1.
    10030    2    1    2    0    0  0.00000000000E+00  0.00000000000E+00  0.42533738156E+03  0.90965912475E+03  0.80409441926E+03 0.  0.
        3    1    3    3  502    0 -0.28178433051E+03 -0.28365330045E+03  0.26040223604E+03  0.47714875931E+03  0.10100000352E+00 0.  1.
       -3    1    3    3    0  502  0.28178433051E+03  0.28365330045E+03  0.16493514552E+03  0.43251036543E+03  0.10100000352E+00 0. -1.
</event>
<event>
 5   0  0.3467240E-02  0.6904095E+03  0.7818609E-02  0.9733775E-01
        2   -1    0    0  501    0  0.00000000000E+00  0.00000000000E+00  0.31203178587E+03  0.31203178588E+03  0.25500000920E-02 0. -1.
       -2   -1    0    0    0  501  0.00000000000E+00  0.00000000000E+00 -0.38190438057E+03  0.38190438058E+03  0.25500000920E-02 0.  1.
    10030    2    1    2    0    0  0.00000000000E+00  0.00000000000E+00 -0.69872594702E+02  0.69393616646E+03  0.69040946085E+03 0.  0.
        2    1    3    3  502    0  0.18555857886E+03 -0.15934392819E+03 -0.27978656484E+03  0.37162211386E+03  0.25500000920E-02 0.  1.
       -2    1    3    3    0  502 -0.18555857886E+03  0.15934392819E+03  0.20991397014E+03  0.32231405260E+03  0.25500000920E-02 0. -1.
</event>
<event>
 5   0  0.1989298E-02  0.7876095E+03  0.7818609E-02  0.9578127E-01
        1   -1    0    0  501    0  0.00000000000E+00  0.00000000000E+00  0.51495425005E+03  0.51495425007E+03  0.50400001928E-02 0. -1.
       -1   -1    0    0    0  501  0.00000000000E+00  0.00000000000E+00 -0.30115718558E+03  0.30115718562E+03  0.50400001928E-02 0.  1.
    10030    2    1    2    0    0  0.00000000000E+00  0.00000000000E+00  0.21379706447E+03  0.81611143569E+03  0.78760947854E+03 0.  0.
        1    1    3    3  502    0 -0.10726618700E+03 -0.36623766902E+03  0.61903000212E+01  0.38167313886E+03  0.50400001928E-02 0.  1.
       -1    1    3    3    0  502  0.10726618700E+03  0.36623766902E+03  0.20760676445E+03  0.43443829684E+03  0.50400001928E-02 0. -1.
</event>
<event>
 5   0  0.3467240E-02  0.7850077E+03  0.7818609E-02  0.9581975E-01
        2   -1    0    0  501    0  0.00000000000E+00  0.00000000000E+00  0.51868695897E+03  0.51868695897E+03  0.25500000920E-02 0. -1.
       -2   -1    0    0    0  501  0.00000000000E+00  0.00000000000E+00 -0.29701784378E+03  0.29701784379E+03  0.25500000920E-02 0.  1.
    10030    2    1    2    0    0  0.00000000000E+00  0.00000000000E+00  0.22166911518E+03  0.81570480277E+03  0.78500772520E+03 0.  0.
        2    1    3    3  502    0  0.11511343733E+02  0.26370013141E+03 -0.19102299006E+03  0.32582211877E+03  0.25500000920E-02 0.  1.
       -2    1    3    3    0  502 -0.11511343733E+02 -0.26370013141E+03  0.41269210524E+03  0.48988268400E+03  0.25500000920E-02 0. -1.
</event>
<event>
 5   0  0.3467240E-02  0.7881425E+03  0.7818609E-02  0.9577341E-01
        2   -1    0    0  501    0  0.00000000000E+00  0.00000000000E+00  0.36607708737E+03  0.36607708737E+03  0.25500000920E-02 0. -1.
       -2   -1    0    0    0  501  0.00000000000E+00  0.00000000000E+00 -0.42420618826E+03  0.42420618826E+03  0.25500000920E-02 0.  1.
    10030    2    1    2    0    0  0.00000000000E+00  0.00000000000E+00 -0.58129100891E+02  0.79028327564E+03  0.78814254002E+03 0.  0.
        2    1    3    3  502    0 -0.37398896967E+03 -0.11376403497E+03  0.20892061164E+02  0.39146709097E+03  0.25500000920E-02 0. -1.
       -2    1    3    3    0  502  0.37398896967E+03  0.11376403497E+03 -0.79021162055E+02  0.39881618466E+03  0.25500000920E-02 0.  1.
</event>
<event>
 5   0  0.2129257E-02  0.8090827E+03  0.7818609E-02  0.9546963E-01
        1   -1    0    0  501    0  0.00000000000E+00  0.00000000000E+00  0.21841829789E+03  0.21841829795E+03  0.50400001928E-02 0. -1.
       -1   -1    0    0    0  501  0.00000000000E+00  0.00000000000E+00 -0.74926737557E+03  0.74926737558E+03  0.50400001928E-02 0.  1.
    10030    2    1    2    0    0  0.00000000000E+00  0.00000000000E+00 -0.53084907768E+03  0.96768567353E+03  0.80908270250E+03 0.  0.
        3    1    3    3  502    0 -0.24466584218E+03  0.16878302554E+02 -0.65021755889E+03  0.69493102933E+03  0.10100000352E+00 0.  1.
       -3    1    3    3    0  502  0.24466584218E+03 -0.16878302554E+02  0.11936848122E+03  0.27275464420E+03  0.10100000352E+00 0. -1.
</event>
<event>
 5   0  0.1989298E-02  0.7982197E+03  0.7818609E-02  0.9562598E-01
       -1   -1    0    0    0  501  0.00000000000E+00  0.00000000000E+00  0.20538107397E+03  0.20538107403E+03  0.50400001928E-02 0.  1.
        1   -1    0    0  501    0  0.00000000000E+00  0.00000000000E+00 -0.77557626224E+03  0.77557626225E+03  0.50400001928E-02 0. -1.
    10030    2    1    2    0    0  0.00000000000E+00  0.00000000000E+00 -0.57019518827E+03  0.98095733628E+03  0.79821973346E+03 0.  0.
        1    1    3    3  502    0 -0.21921058975E+03 -0.54367501992E+02 -0.68948808632E+03  0.72553630449E+03  0.50400001928E-02 0. -1.
       -1    1    3    3    0  502  0.21921058975E+03  0.54367501992E+02  0.11929289805E+03  0.25542103179E+03  0.50400001928E-02 0.  1.
</event>
<event>
 5   0  0.2129257E-02  0.8108571E+03  0.7818609E-02  0.9544434E-01
        1   -1    0    0  501    0  0.00000000000E+00  0.00000000000E+00  0.86003918567E+03  0.86003918568E+03  0.50400001928E-02 0. -1.
       -1   -1    0    0    0  501  0.00000000000E+00  0.00000000000E+00 -0.19112186738E+03  0.19112186744E+03  0.50400001928E-02 0.  1.
    10030    2    1    2    0    0  0.00000000000E+00  0.00000000000E+00  0.66891731829E+03  0.10511610531E+04  0.81085706564E+03 0.  0.
        3    1    3    3  502    0 -0.35264940899E+03 -0.80674943926E+02  0.57173904061E+03  0.67657637632E+03  0.10100000352E+00 0. -1.
       -3    1    3    3    0  502  0.35264940899E+03  0.80674943926E+02  0.97178277682E+02  0.37458467680E+03  0.10100000352E+00 0.  1.
</event>
<event>
 5   0  0.2077795E-02  0.7839886E+03  0.7818609E-02  0.9583486E-01
       -1   -1    0    0    0  501  0.00000000000E+00  0.00000000000E+00  0.40646853521E+03  0.40646853524E+03  0.50400001928E-02 0. -1.
        1   -1    0    0  501    0  0.00000000000E+00  0.00000000000E+00 -0.37803552680E+03  0.37803552684E+03  0.50400001928E-02 0.  1.
    10030    2    1    2    0    0  0.00000000000E+00  0.00000000000E+00  0.28433008409E+02  0.78450406208E+03  0.78398863988E+03 0.  0.
        5    1    3    3  502    0 -0.34396310413E+03  0.63749544306E+02  0.19114574314E+03  0.39866452880E+03  0.46999998093E+01 0.  1.
       -5    1    3    3    0  502  0.34396310413E+03 -0.63749544306E+02 -0.16271273473E+03  0.38583953328E+03  0.46999998093E+01 0. -1.
</event>
<event>
 5   0  0.2132540E-02  0.5725299E+03  0.7818609E-02  0.9964096E-01
        1   -1    0    0  501    0  0.00000000000E+00  0.00000000000E+00  0.20839295723E+03  0.20839295730E+03  0.50400001928E-02 0. -1.
       -1   -1    0    0    0  501  0.00000000000E+00  0.00000000000E+00 -0.39323608976E+03  0.39323608979E+03  0.50400001928E-02 0.  1.
    10030    2    1    2    0    0  0.00000000000E+00  0.00000000000E+00 -0.18484313252E+03  0.60162904709E+03  0.57252993516E+03 0.  0.
        4    1    3    3  502    0  0.15824925629E+02  0.11454294687E+03  0.18275731495E+03  0.21626919340E+03  0.12699999809E+01 0. -1.
       -4    1    3    3    0  502 -0.15824925629E+02 -0.11454294687E+03 -0.36760044747E+03  0.38535985368E+03  0.12699999809E+01 0.  1.
</event>
<event>
 5   0  0.2132540E-02  0.7832091E+03  0.7818609E-02  0.9584644E-01
       -1   -1    0    0    0  501  0.00000000000E+00  0.00000000000E+00  0.48916106625E+03  0.48916106628E+03  0.50400001928E-02 0.  1.
        1   -1    0    0  501    0  0.00000000000E+00  0.00000000000E+00 -0.31350437254E+03  0.31350437258E+03  0.50400001928E-02 0. -1.
    10030    2    1    2    0    0  0.00000000000E+00  0.00000000000E+00  0.17565669372E+03  0.80266543886E+03  0.78320912449E+03 0.  0.
        4    1    3    3  502    0  0.78174584857E+02 -0.11879728518E+03  0.46176004221E+03  0.48316457876E+03  0.12699999809E+01 0.  1.
       -4    1    3    3    0  502 -0.78174584857E+02  0.11879728518E+03 -0.28610334850E+03  0.31950086010E+03  0.12699999809E+01 0. -1.
</event>
<event>
 5   0  0.3416160E-02  0.7863129E+03  0.7818609E-02  0.9580043E-01
        2   -1    0    0  501    0  0.00000000000E+00  0.00000000000E+00  0.17942917347E+04  0.17942917347E+04  0.25500000920E-02 0. -1.
       -2   -1    0    0    0  501  0.00000000000E+00  0.00000000000E+00 -0.86146532200E+02  0.86146532238E+02  0.25500000920E-02 0.  1.
    10030    2    1    2    0    0  0.00000000000E+00  0.00000000000E+00  0.17081452025E+04  0.18804382669E+04  0.78631294211E+03 0.  0.
        1    1    3    3  502    0  0.45241899151E+01 -0.68929686440E+02 -0.71520080699E+02  0.99432851390E+02  0.50400001928E-02 0.  1.
       -1    1    3    3    0  502 -0.45241899151E+01  0.68929686440E+02  0.17796652832E+04  0.17810054155E+04  0.50400001928E-02 0. -1.
</event>
<event>
 5   0  0.3550586E-02  0.8103905E+03  0.7818609E-02  0.9545098E-01
        2   -1    0    0  501    0  0.00000000000E+00  0.00000000000E+00  0.42717662897E+03  0.42717662897E+03  0.25500000920E-02 0. -1.
       -2   -1    0    0    0  501  0.00000000000E+00  0.00000000000E+00 -0.38434498673E+03  0.38434498673E+03  0.25500000920E-02 0.  1.
    10030    2    1    2    0    0  0.00000000000E+00  0.00000000000E+00  0.42831642240E+02  0.81152161571E+03  0.81039051277E+03 0.  0.
        3    1    3    3  502    0  0.38747272719E+03  0.10824562876E+03  0.69763174058E+02  0.40831255322E+03  0.10100000352E+00 0. -1.
       -3    1    3    3    0  502 -0.38747272719E+03 -0.10824562876E+03 -0.26931531818E+02  0.40320906249E+03  0.10100000352E+00 0.  1.
</event>
<event>
 5   0  0.2077795E-02  0.7953514E+03  0.7818609E-02  0.9566770E-01
        1   -1    0    0  501    0  0.00000000000E+00  0.00000000000E+00  0.34652226909E+03  0.34652226913E+03  0.50400001928E-02 0. -1.
       -1   -1    0    0    0  501  0.00000000000E+00  0.00000000000E+00 -0.45638041892E+03  0.45638041895E+03  0.50400001928E-02 0.  1.
    10030    2    1    2    0    0  0.00000000000E+00  0.00000000000E+00 -0.10985814983E+03  0.80290268807E+03  0.79535144020E+03 0.  0.
        5    1    3    3  502    0 -0.17749578890E+03  0.31890308054E+02  0.30283964099E+03  0.35249919855E+03  0.46999998093E+01 0. -1.
       -5    1    3    3    0  502  0.17749578890E+03 -0.31890308054E+02 -0.41269779082E+03  0.45040348952E+03  0.46999998093E+01 0.  1.
</event>
<event>
 5   0  0.3467240E-02  0.8405563E+03  0.7818609E-02  0.9503100E-01
       -2   -1    0    0    0  501  0.00000000000E+00  0.00000000000E+00  0.12579089906E+03  0.12579089909E+03  0.25500000920E-02 0. -1.
        2   -1    0    0  501    0  0.00000000000E+00  0.00000000000E+00 -0.14041852203E+04  0.14041852203E+04  0.25500000920E-02 0.  1.
    10030    2    1    2    0    0  0.00000000000E+00  0.00000000000E+00 -0.12783943213E+04  0.15299761194E+04  0.84055629518E+03 0.  0.
        2    1    3    3  502    0 -0.10399889634E+03  0.52128165352E+01 -0.13803333687E+04  0.13842554507E+04  0.25500000920E-02 0.  1.
       -2    1    3    3    0  502  0.10399889634E+03 -0.52128165352E+01  0.10193904746E+03  0.14572066875E+03  0.25500000920E-02 0. -1.
</event>
<event>
 5   0  0.3343036E-02  0.8174328E+03  0.7818609E-02  0.9535121E-01
       -2   -1    0    0    0  501  0.00000000000E+00  0.00000000000E+00  0.12273816378E+03  0.12273816381E+03  0.25500000920E-02 0.  1.
        2   -1    0    0  501    0  0.00000000000E+00  0.00000000000E+00 -0.13610200137E+04  0.13610200137E+04  0.25500000920E-02 0. -1.
    10030    2    1    2    0    0  0.00000000000E+00  0.00000000000E+00 -0.12382818499E+04  0.14837581775E+04  0.81743280427E+03 0.  0.
        4    1    3    3  502    0 -0.19004590921E+03 -0.20350537404E+03 -0.76065156107E+02  0.28865101029E+03  0.12699999809E+01 0.  1.
       -4    1    3    3    0  502  0.19004590921E+03  0.20350537404E+03 -0.11622166938E+04  0.11951071672E+04  0.12699999809E+01 0. -1.
</event>
<event>
 5   0  0.2132540E-02  0.9207823E+03  0.7818609E-02  0.9399969E-01
       -1   -1    0    0    0  501  0.00000000000E+00  0.00000000000E+00  0.28385575219E+03  0.28385575224E+03  0.50400001928E-02 0.  1.
        1   -1    0    0  501    0  0.00000000000E+00  0.00000000000E+00 -0.74671740471E+03  0.74671740472E+03  0.50400001928E-02 0. -1.
    10030    2    1    2    0    0  0.00000000000E+00  0.00000000000E+00 -0.46286165251E+03  0.10305731570E+04  0.92078234262E+03 0.  0.
        4    1    3    3  502    0  0.33606196920E+03 -0.22229809967E+03  0.17845834319E+02  0.40332887197E+03  0.12699999809E+01 0.  1.
       -4    1    3    3    0  502 -0.33606196920E+03  0.22229809967E+03 -0.48070748683E+03  0.62724428499E+03  0.12699999809E+01 0. -1.
</event>
<event>
 5   0  0.3404132E-02  0.7967886E+03  0.7818609E-02  0.9564677E-01
       -2   -1    0    0    0  501  0.00000000000E+00  0.00000000000E+00  0.10184838133E+03  0.10184838136E+03  0.25500000920E-02 0.  1.
        2   -1    0    0  501    0  0.00000000000E+00  0.00000000000E+00 -0.15583755359E+04  0.15583755359E+04  0.25500000920E-02 0. -1.
    10030    2    1    2    0    0  0.00000000000E+00  0.00000000000E+00 -0.14565271546E+04  0.16602239173E+04  0.79678861907E+03 0.  0.
        5    1    3    3  502    0  0.25127218297E+03  0.24155994397E+03 -0.11301802147E+04  0.11827165020E+04  0.46999998093E+01 0. -1.
       -5    1    3    3    0  502 -0.25127218297E+03 -0.24155994397E+03 -0.32634693994E+03  0.47750741531E+03  0.46999998093E+01 0.  1.
</event>
<event>
 5   0  0.3416160E-02  0.9077413E+03  0.7818609E-02  0.9415956E-01
       -2   -1    0    0    0  501  0.00000000000E+00  0.00000000000E+00  0.18945867732E+03  0.18945867734E+03  0.25500000920E-02 0.  1.
        2   -1    0    0  501    0  0.00000000000E+00  0.00000000000E+00 -0.10873008130E+04  0.10873008130E+04  0.25500000920E-02 0. -1.
    10030    2    1    2    0    0  0.00000000000E+00  0.00000000000E+00 -0.89784213567E+03  0.12767594903E+04  0.90774131534E+03 0.  0.
        1    1    3    3  502    0 -0.43647468280E+03  0.15123639663E+02 -0.62266914197E+03  0.76056277426E+03  0.50400001928E-02 0.  1.
       -1    1    3    3    0  502  0.43647468280E+03 -0.15123639663E+02 -0.27517299370E+03  0.51619671608E+03  0.50400001928E-02 0. -1.
</event>
<event>
 5   0  0.2132540E-02  0.7999691E+03  0.7818609E-02  0.9560062E-01
       -1   -1    0    0    0  501  0.00000000000E+00  0.00000000000E+00  0.25219186260E+03  0.25219186265E+03  0.50400001928E-02 0. -1.
        1   -1    0    0  501    0  0.00000000000E+00  0.00000000000E+00 -0.63438853319E+03  0.63438853321E+03  0.50400001928E-02 0.  1.
    10030    2    1    2    0    0  0.00000000000E+00  0.00000000000E+00 -0.38219667058E+03  0.88658039586E+03  0.79996906398E+03 0.  0.
        4    1    3    3  502    0 -0.12397832757E+03 -0.10773323098E+03 -0.59528813067E+03  0.61753270859E+03  0.12699999809E+01 0.  1.
       -4    1    3    3    0  502  0.12397832757E+03  0.10773323098E+03  0.21309146008E+03  0.26904768727E+03  0.12699999809E+01 0. -1.
</event>
<event>
 5   0  0.1358000E-02  0.8086178E+03  0.7818609E-02  0.9547626E-01
        3   -1    0    0  501    0  0.00000000000E+00  0.00000000000E+00  0.40215037701E+03  0.40215038969E+03  0.10100000352E+00 0.  1.
       -3   -1    0    0    0  501  0.00000000000E+00  0.00000000000E+00 -0.40647901665E+03  0.40647902920E+03  0.10100000352E+00 0. -1.
    10030    2    1    2    0    0  0.00000000000E+00  0.00000000000E+00 -0.43286396457E+01  0.80862941889E+03  0.80861783308E+03 0.  0.
        3    1    3    3  502    0 -0.75807509269E+02  0.19858022953E+03 -0.34609482639E+03  0.40615578917E+03  0.10100000352E+00 0. -1.
       -3    1    3    3    0  502  0.75807509269E+02 -0.19858022953E+03  0.34176618674E+03  0.40247362972E+03  0.10100000352E+00 0.  1.
</event>
<event>
 5   0  0.1989298E-02  0.7929033E+03  0.7818609E-02  0.9570346E-01
       -1   -1    0    0    0  501  0.00000000000E+00  0.00000000000E+00  0.97344172585E+02  0.97344172715E+02  0.50400001928E-02 0.  1.
        1   -1    0    0  501    0  0.00000000000E+00  0.00000000000E+00 -0.16146207639E+04  0.16146207639E+04  0.50400001928E-02 0. -1.
    10030    2    1    2    0    0  0.00000000000E+00  0.00000000000E+00 -0.15172765914E+04  0.17119649367E+04  0.79290332935E+03 0.  0.
        1    1    3    3  502    0 -0.79770577074E+02  0.21161120326E+03 -0.55579544898E+02  0.23287707519E+03  0.50400001928E-02 0.  1.
       -1    1    3    3    0  502  0.79770577074E+02 -0.21161120326E+03 -0.14616970465E+04  0.14790878615E+04  0.50400001928E-02 0. -1.
</event>
<event>
 5   0  0.3343036E-02  0.7893998E+03  0.7818609E-02  0.9575488E-01
       -2   -1    0    0    0  501  0.00000000000E+00  0.00000000000E+00  0.10246757649E+03  0.10246757652E+03  0.25500000920E-02 0. -1.
        2   -1    0    0  501    0  0.00000000000E+00  0.00000000000E+00 -0.15203638805E+04  0.15203638805E+04  0.25500000920E-02 0.  1.
    10030    2    1    2    0    0  0.00000000000E+00  0.00000000000E+00 -0.14178963040E+04  0.16228314570E+04  0.78939977768E+03 0.  0.
        4    1    3    3  502    0 -0.39344162159E+03 -0.31252867696E+02 -0.70144019271E+03  0.80485589281E+03  0.12699999809E+01 0. -1.
       -4    1    3    3    0  502  0.39344162159E+03  0.31252867696E+02 -0.71645611130E+03  0.81797556422E+03  0.12699999809E+01 0.  1.
</event>
<event>
 5   0  0.3550586E-02  0.7904743E+03  0.7818609E-02  0.9573908E-01
        2   -1    0    0  501    0  0.00000000000E+00  0.00000000000E+00  0.13121027562E+04  0.13121027562E+04  0.25500000920E-02 0.  1.
       -2   -1    0    0    0  501  0.00000000000E+00  0.00000000000E+00 -0.11905502154E+03  0.11905502157E+03  0.25500000920E-02 0. -1.
    10030    2    1    2    0    0  0.00000000000E+00  0.00000000000E+00  0.11930477347E+04  0.14311577778E+04  0.79047434347E+03 0.  0.
        3    1    3    3  502    0  0.18183427647E+03  0.34902570853E+03  0.66254557631E+03  0.77061618216E+03  0.10100000352E+00 0. -1.
       -3    1    3    3    0  502 -0.18183427647E+03 -0.34902570853E+03  0.53050215835E+03  0.66054159561E+03  0.10100000352E+00 0.  1.
</event>
<event>
 5   0  0.3467240E-02  0.8197226E+03  0.7818609E-02  0.9531900E-01
       -2   -1    0    0    0  501  0.00000000000E+00  0.00000000000E+00  0.53184599411E+03  0.53184599411E+03  0.25500000920E-02 0. -1.
        2   -1    0    0  501    0  0.00000000000E+00  0.00000000000E+00 -0.31585514102E+03  0.31585514103E+03  0.25500000920E-02 0.  1.
    10030    2    1    2    0    0  0.00000000000E+00  0.00000000000E+00  0.21599085308E+03  0.84770113515E+03  0.81972261523E+03 0.  0.
        2    1    3    3  502    0  0.34449906588E+03  0.22202980233E+03  0.11117476485E+03  0.42466065024E+03  0.25500000920E-02 0. -1.
       -2    1    3    3    0  502 -0.34449906588E+03 -0.22202980233E+03  0.10481608824E+03  0.42304048491E+03  0.25500000920E-02 0.  1.
</event>
<event>
 5   0  0.3467240E-02  0.7956858E+03  0.7818609E-02  0.9566283E-01
        2   -1    0    0  501    0  0.00000000000E+00  0.00000000000E+00  0.46484901043E+03  0.46484901044E+03  0.25500000920E-02 0.  1.
       -2   -1    0    0    0  501  0.00000000000E+00  0.00000000000E+00 -0.34049541490E+03  0.34049541491E+03  0.25500000920E-02 0. -1.
    10030    2    1    2    0    0  0.00000000000E+00  0.00000000000E+00  0.12435359553E+03  0.80534442536E+03  0.79568575878E+03 0.  0.
        2    1    3    3  502    0 -0.20945711125E+03  0.28917818805E+03  0.23975640021E+03  0.43009235909E+03  0.25500000920E-02 0.  1.
       -2    1    3    3    0  502  0.20945711125E+03 -0.28917818805E+03 -0.11540280468E+03  0.37525206626E+03  0.25500000920E-02 0. -1.
</event>
<event>
 5   0  0.3343036E-02  0.8158351E+03  0.7818609E-02  0.9537375E-01
        2   -1    0    0  501    0  0.00000000000E+00  0.00000000000E+00  0.46461781081E+03  0.46461781081E+03  0.25500000920E-02 0.  1.
       -2   -1    0    0    0  501  0.00000000000E+00  0.00000000000E+00 -0.35813680075E+03  0.35813680076E+03  0.25500000920E-02 0. -1.
    10030    2    1    2    0    0  0.00000000000E+00  0.00000000000E+00  0.10648101005E+03  0.82275461157E+03  0.81583512143E+03 0.  0.
        4    1    3    3  502    0  0.19824172821E+02 -0.33204011925E+02  0.46276299201E+03  0.46437775992E+03  0.12699999809E+01 0.  1.
       -4    1    3    3    0  502 -0.19824172821E+02  0.33204011925E+02 -0.35628198195E+03  0.35837685165E+03  0.12699999809E+01 0. -1.
</event>
<event>
 5   0  0.3404132E-02  0.7883189E+03  0.7818609E-02  0.9577081E-01
        2   -1    0    0  501    0  0.00000000000E+00  0.00000000000E+00  0.64221331487E+03  0.64221331487E+03  0.25500000920E-02 0. -1.
       -2   -1    0    0    0  501  0.00000000000E+00  0.00000000000E+00 -0.24191600932E+03  0.24191600933E+03  0.25500000920E-02 0.  1.
    10030    2    1    2    0    0  0.00000000000E+00  0.00000000000E+00  0.40029730555E+03  0.88412932420E+03  0.78831892600E+03 0.  0.
        5    1    3    3  502    0 -0.30963567433E+03 -0.20894375744E+03  0.59138555148E+02  0.37822110371E+03  0.46999998093E+01 0. -1.
       -5    1    3    3    0  502  0.30963567433E+03  0.20894375744E+03  0.34115875040E+03  0.50590822049E+03  0.46999998093E+01 0.  1.
</event>
<event>
 5   0  0.3404132E-02  0.8013223E+03  0.7818609E-02  0.9558105E-01
        2   -1    0    0  501    0  0.00000000000E+00  0.00000000000E+00  0.28475940291E+04  0.28475940291E+04  0.25500000920E-02 0. -1.
       -2   -1    0    0    0  501  0.00000000000E+00  0.00000000000E+00 -0.56373678349E+02  0.56373678406E+02  0.25500000920E-02 0.  1.
    10030    2    1    2    0    0  0.00000000000E+00  0.00000000000E+00  0.27912203507E+04  0.29039677075E+04  0.80132228210E+03 0.  0.
        5    1    3    3  502    0  0.88479290719E+01 -0.18926239295E+03  0.26748700623E+04  0.26815761185E+04  0.46999998093E+01 0.  1.
       -5    1    3    3    0  502 -0.88479290719E+01  0.18926239295E+03  0.11635028846E+03  0.22239158900E+03  0.46999998093E+01 0. -1.
</event>
<event>
 5   0  0.3550586E-02  0.7991955E+03  0.7818609E-02  0.9561182E-01
       -2   -1    0    0    0  501  0.00000000000E+00  0.00000000000E+00  0.47533023697E+03  0.47533023698E+03  0.25500000920E-02 0.  1.
        2   -1    0    0  501    0  0.00000000000E+00  0.00000000000E+00 -0.33593140974E+03  0.33593140975E+03  0.25500000920E-02 0. -1.
    10030    2    1    2    0    0  0.00000000000E+00  0.00000000000E+00  0.13939882723E+03  0.81126164673E+03  0.79919548699E+03 0.  0.
        3    1    3    3  502    0 -0.17000599269E+03  0.28355855428E+02 -0.29626027363E+03  0.34274808828E+03  0.10100000352E+00 0. -1.
       -3    1    3    3    0  502  0.17000599269E+03 -0.28355855428E+02  0.43565910086E+03  0.46851355845E+03  0.10100000352E+00 0.  1.
</event>
<event>
 5   0  0.2132540E-02  0.7963576E+03  0.7818609E-02  0.9565304E-01
        1   -1    0    0  501    0  0.00000000000E+00  0.00000000000E+00  0.28752513454E+03  0.28752513459E+03  0.50400001928E-02 0. -1.
       -1   -1    0    0    0  501  0.00000000000E+00  0.00000000000E+00 -0.55141739645E+03  0.55141739647E+03  0.50400001928E-02 0.  1.
    10030    2    1    2    0    0  0.00000000000E+00  0.00000000000E+00 -0.26389226190E+03  0.83894253106E+03  0.79635761095E+03 0.  0.
        4    1    3    3  502    0 -0.28939952010E+03  0.26821889628E+03 -0.18819900908E+03  0.43716580204E+03  0.12699999809E+01 0.  1.
       -4    1    3    3    0  502  0.28939952010E+03 -0.26821889628E+03 -0.75693252826E+02  0.40177672902E+03  0.12699999809E+01 0. -1.
</event>
<event>
 5   0  0.1989298E-02  0.7933213E+03  0.7818609E-02  0.9569735E-01
       -1   -1    0    0    0  501  0.00000000000E+00  0.00000000000E+00  0.18279390584E+03  0.18279390591E+03  0.50400001928E-02 0. -1.
        1   -1    0    0  501    0  0.00000000000E+00  0.00000000000E+00 -0.86074889970E+03  0.86074889972E+03  0.50400001928E-02 0.  1.
    10030    2    1    2    0    0  0.00000000000E+00  0.00000000000E+00 -0.67795499386E+03  0.10435428056E+04  0.79332125491E+03 0.  0.
        1    1    3    3  502    0  0.21270412645E+03  0.16784229268E+03 -0.72005063378E+03  0.76934192389E+03  0.50400001928E-02 0.  1.
       -1    1    3    3    0  502 -0.21270412645E+03 -0.16784229268E+03  0.42095639921E+02  0.27420088174E+03  0.50400001928E-02 0. -1.
</event>
<event>
 5   0  0.3467240E-02  0.8057219E+03  0.7818609E-02  0.9551772E-01
       -2   -1    0    0    0  501  0.00000000000E+00  0.00000000000E+00  0.23354709672E+03  0.23354709674E+03  0.25500000920E-02 0.  1.
        2   -1    0    0  501    0  0.00000000000E+00  0.00000000000E+00 -0.69492177647E+03  0.69492177647E+03  0.25500000920E-02 0. -1.
    10030    2    1    2    0    0  0.00000000000E+00  0.00000000000E+00 -0.46137467974E+03  0.92846887321E+03  0.80572194547E+03 0.  0.
        2    1    3    3  502    0  0.13929962372E+03  0.36146067237E+03 -0.10320475108E+03  0.40088579857E+03  0.25500000920E-02 0.  1.
       -2    1    3    3    0  502 -0.13929962372E+03 -0.36146067237E+03 -0.35816992867E+03  0.52758307464E+03  0.25500000920E-02 0. -1.
</event>
<event>
 5   0  0.3343036E-02  0.7815864E+03  0.7818609E-02  0.9587059E-01
       -2   -1    0    0    0  501  0.00000000000E+00  0.00000000000E+00  0.16363509469E+03  0.16363509471E+03  0.25500000920E-02 0.  1.
        2   -1    0    0  501    0  0.00000000000E+00  0.00000000000E+00 -0.93329198018E+03  0.93329198019E+03  0.25500000920E-02 0. -1.
    10030    2    1    2    0    0  0.00000000000E+00  0.00000000000E+00 -0.76965688550E+03  0.10969270749E+04  0.78158639078E+03 0.  0.
        4    1    3    3  502    0  0.33182847439E+03 -0.60802818346E+02 -0.66167216049E+03  0.74271042810E+03  0.12699999809E+01 0. -1.
       -4    1    3    3    0  502 -0.33182847439E+03  0.60802818346E+02 -0.10798472500E+03  0.35421664680E+03  0.12699999809E+01 0.  1.
</event>
<event>
 5   0  0.2077795E-02  0.6594152E+03  0.7818609E-02  0.9789271E-01
       -1   -1    0    0    0  501  0.00000000000E+00  0.00000000000E+00  0.28979228709E+03  0.28979228714E+03  0.50400001928E-02 0.  1.
        1   -1    0    0  501    0  0.00000000000E+00  0.00000000000E+00 -0.37512073739E+03  0.37512073742E+03  0.50400001928E-02 0. -1.
    10030    2    1    2    0    0  0.00000000000E+00  0.00000000000E+00 -0.85328450296E+02  0.66491302456E+03  0.65941518469E+03 0.  0.
        5    1    3    3  502    0  0.16951816005E+03 -0.28008482747E+03 -0.35973063856E+01  0.32744304509E+03  0.46999998093E+01 0.  1.
       -5    1    3    3    0  502 -0.16951816005E+03  0.28008482747E+03 -0.81731143910E+02  0.33746997947E+03  0.46999998093E+01 0. -1.
</event>
<event>
 5   0  0.1358000E-02  0.7951404E+03  0.7818609E-02  0.9567078E-01
        3   -1    0    0  501    0  0.00000000000E+00  0.00000000000E+00  0.10303824177E+04  0.10303824226E+04  0.10100000352E+00 0. -1.
       -3   -1    0    0    0  501  0.00000000000E+00  0.00000000000E+00 -0.15340133952E+03  0.15340137277E+03  0.10100000352E+00 0.  1.
    10030    2    1    2    0    0  0.00000000000E+00  0.00000000000E+00  0.87698107817E+03  0.11837837954E+04  0.79514040447E+03 0.  0.
        4    1    3    3  502    0 -0.27596875909E+03  0.15900031458E+03  0.79274537670E+03  0.85433406885E+03  0.12699999809E+01 0. -1.
       -4    1    3    3    0  502  0.27596875909E+03 -0.15900031458E+03  0.84235701475E+02  0.32944972656E+03  0.12699999809E+01 0.  1.
</event>
<event>
 5   0  0.3416160E-02  0.8032636E+03  0.7818609E-02  0.9555305E-01
       -2   -1    0    0    0  501  0.00000000000E+00  0.00000000000E+00  0.63669602932E+03  0.63669602932E+03  0.25500000920E-02 0.  1.
        2   -1    0    0  501    0  0.00000000000E+00  0.00000000000E+00 -0.25335183035E+03  0.25335183037E+03  0.25500000920E-02 0. -1.
    10030    2    1    2    0    0  0.00000000000E+00  0.00000000000E+00  0.38334419897E+03  0.89004785969E+03  0.80326360409E+03 0.  0.
        1    1    3    3  502    0 -0.35790188436E+03 -0.28879158726E+02  0.39105870114E+03  0.53089987041E+03  0.50400001928E-02 0.  1.
       -1    1    3    3    0  502  0.35790188436E+03  0.28879158726E+02 -0.77145021707E+01  0.35914798928E+03  0.50400001928E-02 0. -1.
</event>
<event>
 5   0  0.2077795E-02  0.7982505E+03  0.7818609E-02  0.9562553E-01
        1   -1    0    0  501    0  0.00000000000E+00  0.00000000000E+00  0.17827376682E+04  0.17827376683E+04  0.50400001928E-02 0. -1.
       -1   -1    0    0    0  501  0.00000000000E+00  0.00000000000E+00 -0.89357500568E+02  0.89357500710E+02  0.50400001928E-02 0.  1.
    10030    2    1    2    0    0  0.00000000000E+00  0.00000000000E+00  0.16933801677E+04  0.18720951690E+04  0.79825054298E+03 0.  0.
        5    1    3    3  502    0 -0.73510782810E+02 -0.16256186882E+03  0.16839424779E+04  0.16933737199E+04  0.46999998093E+01 0. -1.
       -5    1    3    3    0  502  0.73510782810E+02  0.16256186882E+03  0.94376898215E+01  0.17872144910E+03  0.46999998093E+01 0.  1.
</event>
<event>
 5   0  0.2132540E-02  0.7976684E+03  0.7818609E-02  0.9563398E-01
       -1   -1    0    0    0  501  0.00000000000E+00  0.00000000000E+00  0.12089371669E+03  0.12089371680E+03  0.50400001928E-02 0. -1.
        1   -1    0    0  501    0  0.00000000000E+00  0.00000000000E+00 -0.13157732966E+04  0.13157732966E+04  0.50400001928E-02 0.  1.
    10030    2    1    2    0    0  0.00000000000E+00  0.00000000000E+00 -0.11948795799E+04  0.14366670134E+04  0.79766841291E+03 0.  0.
        4    1    3    3  502    0 -0.25222937823E+03  0.25523271764E+03 -0.91097162203E+03  0.97909872252E+03  0.12699999809E+01 0.  1.
       -4    1    3    3    0  502  0.25222937823E+03 -0.25523271764E+03 -0.28390795790E+03  0.45756829092E+03  0.12699999809E+01 0. -1.
</event>
<event>
 5   0  0.2132540E-02  0.8110393E+03  0.7818609E-02  0.9544174E-01
       -1   -1    0    0    0  501  0.00000000000E+00  0.00000000000E+00  0.49503246364E+03  0.49503246367E+03  0.50400001928E-02 0. -1.
        1   -1    0    0  501    0  0.00000000000E+00  0.00000000000E+00 -0.33219271880E+03  0.33219271884E+03  0.50400001928E-02 0.  1.
    10030    2    1    2    0    0  0.00000000000E+00  0.00000000000E+00  0.16283974484E+03  0.82722518251E+03  0.81103928393E+03 0.  0.
        4    1    3    3  502    0  0.17871656754E+03  0.32998051677E+03 -0.75328018806E+02  0.38275668025E+03  0.12699999809E+01 0.  1.
       -4    1    3    3    0  502 -0.17871656754E+03 -0.32998051677E+03  0.23816776364E+03  0.44446850226E+03  0.12699999809E+01 0. -1.
</event>
<event>
 5   0  0.1989298E-02  0.8019506E+03  0.7818609E-02  0.9557198E-01
       -1   -1    0    0    0  501  0.00000000000E+00  0.00000000000E+00  0.23405116077E+03  0.23405116082E+03  0.50400001928E-02 0. -1.
        1   -1    0    0  501    0  0.00000000000E+00  0.00000000000E+00 -0.68694887112E+03  0.68694887114E+03  0.50400001928E-02 0.  1.
    10030    2    1    2    0    0  0.00000000000E+00  0.00000000000E+00 -0.45289771036E+03  0.92100003196E+03  0.80195057380E+03 0.  0.
        1    1    3    3  502    0  0.22745475799E+03  0.31147133581E+03 -0.10047944814E+03  0.39855511474E+03  0.50400001928E-02 0. -1.
       -1    1    3    3    0  502 -0.22745475799E+03 -0.31147133581E+03 -0.35241826221E+03  0.52244491722E+03  0.50400001928E-02 0.  1.
</event>
<event>
 5   0  0.1989298E-02  0.8248564E+03  0.7818609E-02  0.9524719E-01
        1   -1    0    0  501    0  0.00000000000E+00  0.00000000000E+00  0.12191622196E+04  0.12191622196E+04  0.50400001928E-02 0.  1.
       -1   -1    0    0    0  501  0.00000000000E+00  0.00000000000E+00 -0.13951959034E+03  0.13951959043E+03  0.50400001928E-02 0. -1.
    10030    2    1    2    0    0  0.00000000000E+00  0.00000000000E+00  0.10796426293E+04  0.13586818101E+04  0.82485638388E+03 0.  0.
        1    1    3    3  502    0  0.38190995274E+03  0.15002545051E+03  0.47122753801E+03  0.62483457043E+03  0.50400001928E-02 0. -1.
       -1    1    3    3    0  502 -0.38190995274E+03 -0.15002545051E+03  0.60841509127E+03  0.73384723963E+03  0.50400001928E-02 0.  1.
</event>
<event>
 5   0  0.1358000E-02  0.8031536E+03  0.7818609E-02  0.9555464E-01
        4   -1    0    0  501    0  0.00000000000E+00  0.00000000000E+00  0.54282599060E+03  0.54282747625E+03  0.12699999809E+01 0. -1.
       -4   -1    0    0    0  501  0.00000000000E+00  0.00000000000E+00 -0.29707891982E+03  0.29708163441E+03  0.12699999809E+01 0.  1.
    10030    2    1    2    0    0  0.00000000000E+00  0.00000000000E+00  0.24574707078E+03  0.83990911065E+03  0.80315359139E+03 0.  0.
        1    1    3    3  502    0 -0.11967991932E+02 -0.30082611645E+02  0.54146103826E+03  0.54242810799E+03  0.50400001928E-02 0. -1.
       -1    1    3    3    0  502  0.11967991932E+02  0.30082611645E+02 -0.29571396749E+03  0.29748100267E+03  0.50400001928E-02 0.  1.
</event>
<event>
 5   0  0.2077795E-02  0.8068213E+03  0.7818609E-02  0.9550196E-01
       -1   -1    0    0    0  501  0.00000000000E+00  0.00000000000E+00  0.13481260733E+03  0.13481260743E+03  0.50400001928E-02 0.  1.
        1   -1    0    0  501    0  0.00000000000E+00  0.00000000000E+00 -0.12071583293E+04  0.12071583293E+04  0.50400001928E-02 0. -1.
    10030    2    1    2    0    0  0.00000000000E+00  0.00000000000E+00 -0.10723457219E+04  0.13419709367E+04  0.80682132323E+03 0.  0.
        5    1    3    3  502    0  0.30229019484E+02  0.38644252855E+03 -0.72188365626E+03  0.81938374689E+03  0.46999998093E+01 0. -1.
       -5    1    3    3    0  502 -0.30229019484E+02 -0.38644252855E+03 -0.35046206568E+03  0.52258718983E+03  0.46999998093E+01 0.  1.
</event>
<event>
 5   0  0.3550586E-02  0.7993932E+03  0.7818609E-02  0.9560896E-01
       -2   -1    0    0    0  501  0.00000000000E+00  0.00000000000E+00  0.16300396912E+03  0.16300396914E+03  0.25500000920E-02 0.  1.
        2   -1    0    0  501    0  0.00000000000E+00  0.00000000000E+00 -0.98008261997E+03  0.98008261998E+03  0.25500000920E-02 0. -1.
    10030    2    1    2    0    0  0.00000000000E+00  0.00000000000E+00 -0.81707865085E+03  0.11430865891E+04  0.79939316268E+03 0.  0.
        3    1    3    3  502    0  0.18413826400E+03 -0.23662684996E+03 -0.30595429690E+02  0.30138887987E+03  0.10100000352E+00 0.  1.
       -3    1    3    3    0  502 -0.18413826400E+03  0.23662684996E+03 -0.78648322116E+03  0.84169770925E+03  0.10100000352E+00 0. -1.
</event>
<event>
 5   0  0.2129257E-02  0.8083369E+03  0.7818609E-02  0.9548028E-01
        1   -1    0    0  501    0  0.00000000000E+00  0.00000000000E+00  0.39932094841E+03  0.39932094844E+03  0.50400001928E-02 0. -1.
       -1   -1    0    0    0  501  0.00000000000E+00  0.00000000000E+00 -0.40907483071E+03  0.40907483074E+03  0.50400001928E-02 0.  1.
    10030    2    1    2    0    0  0.00000000000E+00  0.00000000000E+00 -0.97538823024E+01  0.80839577918E+03  0.80833693320E+03 0.  0.
        3    1    3    3  502    0 -0.49834219356E+02 -0.27826366479E+03  0.28400049212E+03  0.40071237351E+03  0.10100000352E+00 0. -1.
       -3    1    3    3    0  502  0.49834219356E+02  0.27826366479E+03 -0.29375437442E+03  0.40768340567E+03  0.10100000352E+00 0.  1.
</event>
<event>
 5   0  0.1358000E-02  0.7975746E+03  0.7818609E-02  0.9563534E-01
       -4   -1    0    0    0  501  0.00000000000E+00  0.00000000000E+00  0.37265769389E+03  0.37265985793E+03  0.12699999809E+01 0. -1.
        4   -1    0    0  501    0  0.00000000000E+00  0.00000000000E+00 -0.42674465796E+03  0.42674654773E+03  0.12699999809E+01 0.  1.
    10030    2    1    2    0    0  0.00000000000E+00  0.00000000000E+00 -0.54086964071E+02  0.79940640566E+03  0.79757457440E+03 0.  0.
        5    1    3    3  502    0 -0.15230859259E+03  0.30410192765E+03 -0.23568815858E+03  0.41381987371E+03  0.46999998093E+01 0.  1.
       -5    1    3    3    0  502  0.15230859259E+03 -0.30410192765E+03  0.18160119451E+03  0.38558653196E+03  0.46999998093E+01 0. -1.
</event>
<event>
 5   0  0.3404132E-02  0.7986379E+03  0.7818609E-02  0.9561991E-01
       -2   -1    0    0    0  501  0.00000000000E+00  0.00000000000E+00  0.10626755766E+03  0.10626755769E+03  0.25500000920E-02 0.  1.
        2   -1    0    0  501    0  0.00000000000E+00  0.00000000000E+00 -0.15005110243E+04  0.15005110243E+04  0.25500000920E-02 0. -1.
    10030    2    1    2    0    0  0.00000000000E+00  0.00000000000E+00 -0.13942434666E+04  0.16067785820E+04  0.79863794507E+03 0.  0.
        5    1    3    3  502    0 -0.86073558725E+02  0.37083186356E+03 -0.93945843665E+03  0.10136711364E+04  0.46999998093E+01 0. -1.
       -5    1    3    3    0  502  0.86073558725E+02 -0.37083186356E+03 -0.45478503000E+03  0.59310744562E+03  0.46999998093E+01 0.  1.
</event>
<event>
 5   0  0.3550586E-02  0.7831539E+03  0.7818609E-02  0.9584726E-01
        2   -1    0    0  501    0  0.00000000000E+00  0.00000000000E+00  0.14130679226E+04  0.14130679226E+04  0.25500000920E-02 0.  1.
       -2   -1    0    0    0  501  0.00000000000E+00  0.00000000000E+00 -0.10851035643E+03  0.10851035646E+03  0.25500000920E-02 0. -1.
    10030    2    1    2    0    0  0.00000000000E+00  0.00000000000E+00  0.13045575662E+04  0.15215782791E+04  0.78315389028E+03 0.  0.
        3    1    3    3  502    0  0.29151854442E+02 -0.38026101513E+02 -0.10279328310E+03  0.11341201112E+03  0.10100000352E+00 0. -1.
       -3    1    3    3    0  502 -0.29151854442E+02  0.38026101513E+02  0.14073508493E+04  0.14081662680E+04  0.10100000352E+00 0.  1.
</event>
<event>
 5   0  0.1989298E-02  0.7966322E+03  0.7818609E-02  0.9564905E-01
        1   -1    0    0  501    0  0.00000000000E+00  0.00000000000E+00  0.88075011408E+03  0.88075011409E+03  0.50400001928E-02 0. -1.
       -1   -1    0    0    0  501  0.00000000000E+00  0.00000000000E+00 -0.18013705144E+03  0.18013705151E+03  0.50400001928E-02 0.  1.
    10030    2    1    2    0    0  0.00000000000E+00  0.00000000000E+00  0.70061306264E+03  0.10608871656E+04  0.79663223297E+03 0.  0.
        1    1    3    3  502    0 -0.23214641346E+02 -0.12974699144E+03 -0.15025278439E+03  0.19987271100E+03  0.50400001928E-02 0.  1.
       -1    1    3    3    0  502  0.23214641346E+02  0.12974699144E+03  0.85086584703E+03  0.86101445460E+03  0.50400001928E-02 0. -1.
</event>
<event>
 5   0  0.3343036E-02  0.8215045E+03  0.7818609E-02  0.9529401E-01
        2   -1    0    0  501    0  0.00000000000E+00  0.00000000000E+00  0.18155724291E+04  0.18155724291E+04  0.25500000920E-02 0. -1.
       -2   -1    0    0    0  501  0.00000000000E+00  0.00000000000E+00 -0.92927934814E+02  0.92927934849E+02  0.25500000920E-02 0.  1.
    10030    2    1    2    0    0  0.00000000000E+00  0.00000000000E+00  0.17226444943E+04  0.19085003640E+04  0.82150446469E+03 0.  0.
        4    1    3    3  502    0 -0.10264245514E+03 -0.39145269643E+03  0.69795322962E+03  0.80679056190E+03  0.12699999809E+01 0. -1.
       -4    1    3    3    0  502  0.10264245514E+03  0.39145269643E+03  0.10246912647E+04  0.11017098021E+04  0.12699999809E+01 0.  1.
</event>
<event>
 5   0  0.3416160E-02  0.8001986E+03  0.7818609E-02  0.9559730E-01
       -2   -1    0    0    0  501  0.00000000000E+00  0.00000000000E+00  0.30976399556E+03  0.30976399557E+03  0.25500000920E-02 0. -1.
        2   -1    0    0  501    0  0.00000000000E+00  0.00000000000E+00 -0.51677876117E+03  0.51677876117E+03  0.25500000920E-02 0.  1.
    10030    2    1    2    0    0  0.00000000000E+00  0.00000000000E+00 -0.20701476561E+03  0.82654275674E+03  0.80019861006E+03 0.  0.
        1    1    3    3  502    0  0.30446624274E+03  0.22936622625E+03 -0.22904414964E+03  0.44471314487E+03  0.50400001928E-02 0.  1.
       -1    1    3    3    0  502 -0.30446624274E+03 -0.22936622625E+03  0.22029384035E+02  0.38182961187E+03  0.50400001928E-02 0. -1.
</event>
<event>
 5   0  0.3550586E-02  0.7864316E+03  0.7818609E-02  0.9579867E-01
       -2   -1    0    0    0  501  0.00000000000E+00  0.00000000000E+00  0.67074803720E+03  0.67074803721E+03  0.25500000920E-02 0. -1.
        2   -1    0    0  501    0  0.00000000000E+00  0.00000000000E+00 -0.23051677039E+03  0.23051677040E+03  0.25500000920E-02 0.  1.
    10030    2    1    2    0    0  0.00000000000E+00  0.00000000000E+00  0.44023126682E+03  0.90126480761E+03  0.78643161506E+03 0.  0.
        3    1    3    3  502    0  0.32906595554E+03 -0.18224746689E+03  0.35138407608E+03  0.51475170850E+03  0.10100000352E+00 0.  1.
       -3    1    3    3    0  502 -0.32906595554E+03  0.18224746689E+03  0.88847190738E+02  0.38651309911E+03  0.10100000352E+00 0. -1.
</event>
<event>
 5   0  0.2077795E-02  0.8395834E+03  0.7818609E-02  0.9504425E-01
        1   -1    0    0  501    0  0.00000000000E+00  0.00000000000E+00  0.33004482948E+03  0.33004482952E+03  0.50400001928E-02 0.  1.
       -1   -1    0    0    0  501  0.00000000000E+00  0.00000000000E+00 -0.53394277475E+03  0.53394277478E+03  0.50400001928E-02 0. -1.
    10030    2    1    2    0    0  0.00000000000E+00  0.00000000000E+00 -0.20389794527E+03  0.86398760430E+03  0.83958335399E+03 0.  0.
        5    1    3    3  502    0 -0.25757978019E+03  0.29403178468E+03 -0.25936909193E+03  0.46914438013E+03  0.46999998093E+01 0. -1.
       -5    1    3    3    0  502  0.25757978019E+03 -0.29403178468E+03  0.55471146665E+02  0.39484322417E+03  0.46999998093E+01 0.  1.
</event>
<event>
 5   0  0.2063692E-02  0.8031993E+03  0.7818609E-02  0.9555398E-01
       -1   -1    0    0    0  501  0.00000000000E+00  0.00000000000E+00  0.19660828075E+03  0.19660828082E+03  0.50400001928E-02 0.  1.
        1   -1    0    0  501    0  0.00000000000E+00  0.00000000000E+00 -0.82032291760E+03  0.82032291761E+03  0.50400001928E-02 0. -1.
    10030    2    1    2    0    0  0.00000000000E+00  0.00000000000E+00 -0.62371463684E+03  0.10169311984E+04  0.80319929913E+03 0.  0.
        2    1    3    3  502    0 -0.30561886237E+03  0.20907508523E+03 -0.11503261508E+03  0.38774706039E+03  0.25500000920E-02 0.  1.
       -2    1    3    3    0  502  0.30561886237E+03 -0.20907508523E+03 -0.50868202176E+03  0.62918413804E+03  0.25500000920E-02 0. -1.
</event>
<event>
 5   0  0.1989298E-02  0.7959307E+03  0.7818609E-02  0.9565926E-01
        1   -1    0    0  501    0  0.00000000000E+00  0.00000000000E+00  0.14986347223E+04  0.14986347223E+04  0.50400001928E-02 0. -1.
       -1   -1    0    0    0  501  0.00000000000E+00  0.00000000000E+00 -0.10568046128E+03  0.10568046140E+03  0.50400001928E-02 0.  1.
    10030    2    1    2    0    0  0.00000000000E+00  0.00000000000E+00  0.13929542610E+04  0.16043151837E+04  0.79593067249E+03 0.  0.
        1    1    3    3  502    0 -0.33350027267E+03 -0.26346026738E+02  0.26201350814E+03  0.42493249284E+03  0.50400001928E-02 0. -1.
       -1    1    3    3    0  502  0.33350027267E+03  0.26346026738E+02  0.11309407529E+04  0.11793826909E+04  0.50400001928E-02 0.  1.
</event>
<event>
 5   0  0.3467240E-02  0.8015982E+03  0.7818609E-02  0.9557707E-01
       -2   -1    0    0    0  501  0.00000000000E+00  0.00000000000E+00  0.18026652208E+03  0.18026652210E+03  0.25500000920E-02 0.  1.
        2   -1    0    0  501    0  0.00000000000E+00  0.00000000000E+00 -0.89112459517E+03  0.89112459517E+03  0.25500000920E-02 0. -1.
    10030    2    1    2    0    0  0.00000000000E+00  0.00000000000E+00 -0.71085807309E+03  0.10713911173E+04  0.80159823235E+03 0.  0.
        2    1    3    3  502    0 -0.32695095964E+03 -0.77144116194E+02 -0.63237303232E+02  0.34182905259E+03  0.25500000920E-02 0.  1.
       -2    1    3    3    0  502  0.32695095964E+03  0.77144116194E+02 -0.64762076986E+03  0.72956206468E+03  0.25500000920E-02 0. -1.
</event>
<event>
 5   0  0.3343036E-02  0.8103069E+03  0.7818609E-02  0.9545217E-01
       -2   -1    0    0    0  501  0.00000000000E+00  0.00000000000E+00  0.11815251468E+03  0.11815251471E+03  0.25500000920E-02 0.  1.
        2   -1    0    0  501    0  0.00000000000E+00  0.00000000000E+00 -0.13893003611E+04  0.13893003611E+04  0.25500000920E-02 0. -1.
    10030    2    1    2    0    0  0.00000000000E+00  0.00000000000E+00 -0.12711478464E+04  0.15074528758E+04  0.81030693282E+03 0.  0.
        4    1    3    3  502    0  0.19046479622E+03  0.19241746234E+03 -0.74851335704E+02  0.28090150190E+03  0.12699999809E+01 0.  1.
       -4    1    3    3    0  502 -0.19046479622E+03 -0.19241746234E+03 -0.11962965107E+04  0.12265513739E+04  0.12699999809E+01 0. -1.
</event>
<event>
 5   0  0.2063692E-02  0.8302475E+03  0.7818609E-02  0.9517238E-01
        1   -1    0    0  501    0  0.00000000000E+00  0.00000000000E+00  0.76472134361E+03  0.76472134362E+03  0.50400001928E-02 0. -1.
       -1   -1    0    0    0  501  0.00000000000E+00  0.00000000000E+00 -0.22534708317E+03  0.22534708322E+03  0.50400001928E-02 0.  1.
    10030    2    1    2    0    0  0.00000000000E+00  0.00000000000E+00  0.53937426044E+03  0.99006842685E+03  0.83024749142E+03 0.  0.
        2    1    3    3  502    0  0.15331030925E+03  0.16099081424E+03  0.68775185995E+03  0.72278953649E+03  0.25500000920E-02 0. -1.
       -2    1    3    3    0  502 -0.15331030925E+03 -0.16099081424E+03 -0.14837759951E+03  0.26727889036E+03  0.25500000920E-02 0.  1.
</event>
<event>
 5   0  0.1358000E-02  0.8070634E+03  0.7818609E-02  0.9549849E-01
        3   -1    0    0  501    0  0.00000000000E+00  0.00000000000E+00  0.72919094194E+03  0.72919094893E+03  0.10100000352E+00 0.  1.
       -3   -1    0    0    0  501  0.00000000000E+00  0.00000000000E+00 -0.22331297963E+03  0.22331300247E+03  0.10100000352E+00 0. -1.
    10030    2    1    2    0    0  0.00000000000E+00  0.00000000000E+00  0.50587796231E+03  0.95250395140E+03  0.80706335854E+03 0.  0.
        5    1    3    3  502    0  0.30892672189E+03 -0.11750718246E+02  0.55897971312E+03  0.63879120889E+03  0.46999998093E+01 0.  1.
       -5    1    3    3    0  502 -0.30892672189E+03  0.11750718246E+02 -0.53101750810E+02  0.31371274251E+03  0.46999998093E+01 0. -1.
</event>
<event>
 5   0  0.2077795E-02  0.8077863E+03  0.7818609E-02  0.9548815E-01
        1   -1    0    0  501    0  0.00000000000E+00  0.00000000000E+00  0.32679991312E+03  0.32679991316E+03  0.50400001928E-02 0.  1.
       -1   -1    0    0    0  501  0.00000000000E+00  0.00000000000E+00 -0.49917292815E+03  0.49917292818E+03  0.50400001928E-02 0. -1.
    10030    2    1    2    0    0  0.00000000000E+00  0.00000000000E+00 -0.17237301504E+03  0.82597284134E+03  0.80778628257E+03 0.  0.
        5    1    3    3  502    0  0.15924634109E+01  0.34566240530E+03  0.12737589324E+03  0.36841789120E+03  0.46999998093E+01 0.  1.
       -5    1    3    3    0  502 -0.15924634109E+01 -0.34566240530E+03 -0.29974890828E+03  0.45755495013E+03  0.46999998093E+01 0. -1.
</event>
<event>
 5   0  0.2063692E-02  0.7933054E+03  0.7818609E-02  0.9569758E-01
        1   -1    0    0  501    0  0.00000000000E+00  0.00000000000E+00  0.14067626388E+04  0.14067626388E+04  0.50400001928E-02 0. -1.
       -1   -1    0    0    0  501  0.00000000000E+00  0.00000000000E+00 -0.11184073382E+03  0.11184073393E+03  0.50400001928E-02 0.  1.
    10030    2    1    2    0    0  0.00000000000E+00  0.00000000000E+00  0.12949219050E+04  0.15186033727E+04  0.79330540380E+03 0.  0.
        2    1    3    3  502    0  0.28308428927E+03  0.20676061664E+03  0.10027466701E+04  0.10622558787E+04  0.25500000920E-02 0. -1.
       -2    1    3    3    0  502 -0.28308428927E+03 -0.20676061664E+03  0.29217523484E+03  0.45634749400E+03  0.25500000920E-02 0.  1.
</event>
<event>
 5   0  0.1358000E-02  0.7975292E+03  0.7818609E-02  0.9563600E-01
       -3   -1    0    0    0  501  0.00000000000E+00  0.00000000000E+00  0.21393098795E+03  0.21393101179E+03  0.10100000352E+00 0.  1.
        3   -1    0    0  501    0  0.00000000000E+00  0.00000000000E+00 -0.74329194773E+03  0.74329195459E+03  0.10100000352E+00 0. -1.
    10030    2    1    2    0    0  0.00000000000E+00  0.00000000000E+00 -0.52936095978E+03  0.95722296638E+03  0.79752917290E+03 0.  0.
        4    1    3    3  502    0  0.21070293631E+02 -0.37013151783E+03 -0.88403958803E+02  0.38112749914E+03  0.12699999809E+01 0.  1.
       -4    1    3    3    0  502 -0.21070293631E+02  0.37013151783E+03 -0.44095700098E+03  0.57609546724E+03  0.12699999809E+01 0. -1.
</event>
<event>
 5   0  0.3467240E-02  0.7871741E+03  0.7818609E-02  0.9578770E-01
        2   -1    0    0  501    0  0.00000000000E+00  0.00000000000E+00  0.45296727121E+03  0.45296727121E+03  0.25500000920E-02 0.  1.
       -2   -1    0    0    0  501  0.00000000000E+00  0.00000000000E+00 -0.34199107908E+03  0.34199107909E+03  0.25500000920E-02 0. -1.
    10030    2    1    2    0    0  0.00000000000E+00  0.00000000000E+00  0.11097619212E+03  0.79495835030E+03  0.78717409987E+03 0.  0.
        2    1    3    3  502    0 -0.24629752494E+03 -0.50751735906E+02 -0.25028076141E+03  0.35479384018E+03  0.25500000920E-02 0. -1.
       -2    1    3    3    0  502  0.24629752494E+03  0.50751735906E+02  0.36125695353E+03  0.44016451012E+03  0.25500000920E-02 0.  1.
</event>
<event>
 5   0  0.3550586E-02  0.8467705E+03  0.7818609E-02  0.9494682E-01
        2   -1    0    0  501    0  0.00000000000E+00  0.00000000000E+00  0.72585070703E+03  0.72585070703E+03  0.25500000920E-02 0. -1.
       -2   -1    0    0    0  501  0.00000000000E+00  0.00000000000E+00 -0.24695856778E+03  0.24695856779E+03  0.25500000920E-02 0.  1.
    10030    2    1    2    0    0  0.00000000000E+00  0.00000000000E+00  0.47889213925E+03  0.97280927482E+03  0.84677045540E+03 0.  0.
        3    1    3    3  502    0 -0.21911426448E+03 -0.23064365091E+02 -0.17590923435E+03  0.28193455759E+03  0.10100000352E+00 0.  1.
       -3    1    3    3    0  502  0.21911426448E+03  0.23064365091E+02  0.65480137360E+03  0.69087471723E+03  0.10100000352E+00 0. -1.
</event>
<event>
 5   0  0.3467240E-02  0.8146681E+03  0.7818609E-02  0.9539025E-01
       -2   -1    0    0    0  501  0.00000000000E+00  0.00000000000E+00  0.11131561029E+03  0.11131561031E+03  0.25500000920E-02 0.  1.
        2   -1    0    0  501    0  0.00000000000E+00  0.00000000000E+00 -0.14905459471E+04  0.14905459471E+04  0.25500000920E-02 0. -1.
    10030    2    1    2    0    0  0.00000000000E+00  0.00000000000E+00 -0.13792303368E+04  0.16018615574E+04  0.81466810858E+03 0.  0.
        2    1    3    3  502    0  0.17109096344E+03 -0.17293690365E+02 -0.14156736171E+04  0.14260795840E+04  0.25500000920E-02 0. -1.
       -2    1    3    3    0  502 -0.17109096344E+03  0.17293690365E+02  0.36443280345E+02  0.17578197344E+03  0.25500000920E-02 0.  1.
</event>
<event>
 5   0  0.2129257E-02  0.7994222E+03  0.7818609E-02  0.9560854E-01
       -1   -1    0    0    0  501  0.00000000000E+00  0.00000000000E+00  0.12156843824E+03  0.12156843834E+03  0.50400001928E-02 0. -1.
        1   -1    0    0  501    0  0.00000000000E+00  0.00000000000E+00 -0.13142305540E+04  0.13142305540E+04  0.50400001928E-02 0.  1.
    10030    2    1    2    0    0  0.00000000000E+00  0.00000000000E+00 -0.11926621157E+04  0.14357989923E+04  0.79942218136E+03 0.  0.
        3    1    3    3  502    0  0.25827553859E+02  0.70451604142E+02  0.10880504371E+03  0.13217049142E+03  0.10100000352E+00 0. -1.
       -3    1    3    3    0  502 -0.25827553859E+02 -0.70451604142E+02 -0.13014671594E+04  0.13036285009E+04  0.10100000352E+00 0.  1.
</event>
<event>
 5   0  0.2077795E-02  0.7855433E+03  0.7818609E-02  0.9581182E-01
        1   -1    0    0  501    0  0.00000000000E+00  0.00000000000E+00  0.45036531250E+03  0.45036531253E+03  0.50400001928E-02 0. -1.
       -1   -1    0    0    0  501  0.00000000000E+00  0.00000000000E+00 -0.34254319857E+03  0.34254319860E+03  0.50400001928E-02 0.  1.
    10030    2    1    2    0    0  0.00000000000E+00  0.00000000000E+00  0.10782211394E+03  0.79290851114E+03  0.78554331439E+03 0.  0.
        5    1    3    3  502    0  0.30921121127E+02  0.13223074069E+03 -0.31806335133E+03  0.34587204278E+03  0.46999998093E+01 0.  1.
       -5    1    3    3    0  502 -0.30921121127E+02 -0.13223074069E+03  0.42588546527E+03  0.44703646836E+03  0.46999998093E+01 0. -1.
</event>
<event>
 5   0  0.3404132E-02  0.7780977E+03  0.7818609E-02  0.9592272E-01
       -2   -1    0    0    0  501  0.00000000000E+00  0.00000000000E+00  0.11252289330E+03  0.11252289333E+03  0.25500000920E-02 0. -1.
        2   -1    0    0  501    0  0.00000000000E+00  0.00000000000E+00 -0.13451396258E+04  0.13451396259E+04  0.25500000920E-02 0.  1.
    10030    2    1    2    0    0  0.00000000000E+00  0.00000000000E+00 -0.12326167325E+04  0.14576625192E+04  0.77809768698E+03 0.  0.
        5    1    3    3  502    0 -0.32364913983E+03  0.14387612400E+02 -0.21285477226E+03  0.38766611043E+03  0.46999998093E+01 0. -1.
       -5    1    3    3    0  502  0.32364913983E+03 -0.14387612400E+02 -0.10197619603E+04  0.10699964087E+04  0.46999998093E+01 0.  1.
</event>
<event>
 5   0  0.2077795E-02  0.7969525E+03  0.7818609E-02  0.9564439E-01
        1   -1    0    0  501    0  0.00000000000E+00  0.00000000000E+00  0.30771641980E+03  0.30771641984E+03  0.50400001928E-02 0.  1.
       -1   -1    0    0    0  501  0.00000000000E+00  0.00000000000E+00 -0.51600535762E+03  0.51600535764E+03  0.50400001928E-02 0. -1.
    10030    2    1    2    0    0  0.00000000000E+00  0.00000000000E+00 -0.20828893782E+03  0.82372177748E+03  0.79695249863E+03 0.  0.
        5    1    3    3  502    0  0.17893735655E+03  0.32171285297E+03 -0.26172364195E+03  0.45170686522E+03  0.46999998093E+01 0. -1.
       -5    1    3    3    0  502 -0.17893735655E+03 -0.32171285297E+03  0.53434704129E+02  0.37201491226E+03  0.46999998093E+01 0.  1.
</event>
<event>
 5   0  0.2063692E-02  0.7959379E+03  0.7818609E-02  0.9565916E-01
        1   -1    0    0  501    0  0.00000000000E+00  0.00000000000E+00  0.66244114868E+03  0.66244114870E+03  0.50400001928E-02 0.  1.
       -1   -1    0    0    0  501  0.00000000000E+00  0.00000000000E+00 -0.23908430844E+03  0.23908430849E+03  0.50400001928E-02 0. -1.
    10030    2    1    2    0    0  0.00000000000E+00  0.00000000000E+00  0.42335684024E+03  0.90152545719E+03  0.79593789694E+03 0.  0.
        2    1    3    3  502    0  0.25892879499E+03  0.89770329791E+02  0.53853701975E+03  0.60425570302E+03  0.25500000920E-02 0.  1.
       -2    1    3    3    0  502 -0.25892879499E+03 -0.89770329791E+02 -0.11518017951E+03  0.29726975417E+03  0.25500000920E-02 0. -1.
</event>
<event>
 5   0  0.3404132E-02  0.8181451E+03  0.7818609E-02  0.9534118E-01
       -2   -1    0    0    0  501  0.00000000000E+00  0.00000000000E+00  0.30905217916E+03  0.30905217917E+03  0.25500000920E-02 0. -1.
        2   -1    0    0  501    0  0.00000000000E+00  0.00000000000E+00 -0.54146311219E+03  0.54146311219E+03  0.25500000920E-02 0.  1.
    10030    2    1    2    0    0  0.00000000000E+00  0.00000000000E+00 -0.23241093303E+03  0.85051529136E+03  0.81814510880E+03 0.  0.
        5    1    3    3  502    0 -0.25208038137E+03 -0.37428281832E+02  0.21641136856E+03  0.33436711171E+03  0.46999998093E+01 0. -1.
       -5    1    3    3    0  502  0.25208038137E+03  0.37428281832E+02 -0.44882230159E+03  0.51614817965E+03  0.46999998093E+01 0.  1.
</event>
<event>
 5   0  0.1989298E-02  0.8152290E+03  0.7818609E-02  0.9538232E-01
       -1   -1    0    0    0  501  0.00000000000E+00  0.00000000000E+00  0.12466648909E+03  0.12466648919E+03  0.50400001928E-02 0. -1.
        1   -1    0    0  501    0  0.00000000000E+00  0.00000000000E+00 -0.13327523947E+04  0.13327523947E+04  0.50400001928E-02 0.  1.
    10030    2    1    2    0    0  0.00000000000E+00  0.00000000000E+00 -0.12080859056E+04  0.14574188839E+04  0.81522895423E+03 0.  0.
        1    1    3    3  502    0 -0.58182986415E+02 -0.19947188839E+02  0.11632252661E+03  0.13158297942E+03  0.50400001928E-02 0. -1.
       -1    1    3    3    0  502  0.58182986415E+02  0.19947188839E+02 -0.13244084322E+04  0.13258359045E+04  0.50400001928E-02 0.  1.
</event>
<event>
 5   0  0.3550586E-02  0.8211992E+03  0.7818609E-02  0.9529829E-01
        2   -1    0    0  501    0  0.00000000000E+00  0.00000000000E+00  0.15020095560E+03  0.15020095562E+03  0.25500000920E-02 0.  1.
       -2   -1    0    0    0  501  0.00000000000E+00  0.00000000000E+00 -0.11224431357E+04  0.11224431357E+04  0.25500000920E-02 0. -1.
    10030    2    1    2    0    0  0.00000000000E+00  0.00000000000E+00 -0.97224218014E+03  0.12726440914E+04  0.82119920022E+03 0.  0.
        3    1    3    3  502    0  0.95070938606E+02  0.37899360674E+03 -0.68164248896E+03  0.78569149816E+03  0.10100000352E+00 0. -1.
       -3    1    3    3    0  502 -0.95070938606E+02 -0.37899360674E+03 -0.29059969118E+03  0.48695259320E+03  0.10100000352E+00 0.  1.
</event>
<event>
 5   0  0.3416160E-02  0.8074633E+03  0.7818609E-02  0.9549277E-01
       -2   -1    0    0    0  501  0.00000000000E+00  0.00000000000E+00  0.20775520233E+03  0.20775520234E+03  0.25500000920E-02 0.  1.
        2   -1    0    0  501    0  0.00000000000E+00  0.00000000000E+00 -0.78457355921E+03  0.78457355921E+03  0.25500000920E-02 0. -1.
    10030    2    1    2    0    0  0.00000000000E+00  0.00000000000E+00 -0.57681835688E+03  0.99232876155E+03  0.80746328348E+03 0.  0.
        1    1    3    3  502    0 -0.33682111542E+02 -0.15975097075E+03  0.16537716133E+03  0.23238860301E+03  0.50400001928E-02 0.  1.
       -1    1    3    3    0  502  0.33682111542E+02  0.15975097075E+03 -0.74219551821E+03  0.75994015855E+03  0.50400001928E-02 0. -1.
</event>
<event>
 5   0  0.3550586E-02  0.8641717E+03  0.7818609E-02  0.9471511E-01
       -2   -1    0    0    0  501  0.00000000000E+00  0.00000000000E+00  0.13874164680E+04  0.13874164680E+04  0.25500000920E-02 0. -1.
        2   -1    0    0  501    0  0.00000000000E+00  0.00000000000E+00 -0.13456536164E+03  0.13456536166E+03  0.25500000920E-02 0.  1.
    10030    2    1    2    0    0  0.00000000000E+00  0.00000000000E+00  0.12528511064E+04  0.15219818297E+04  0.86417173938E+03 0.  0.
        3    1    3    3  502    0 -0.29362789018E+03  0.49644482367E+02  0.11778150728E+04  0.12148787052E+04  0.10100000352E+00 0. -1.
       -3    1    3    3    0  502  0.29362789018E+03 -0.49644482367E+02  0.75036033604E+02  0.30710312447E+03  0.10100000352E+00 0.  1.
</event>
<event>
 5   0  0.1358000E-02  0.7923262E+03  0.7818609E-02  0.9571191E-01
       -4   -1    0    0    0  501  0.00000000000E+00  0.00000000000E+00  0.16712001163E+03  0.16712483713E+03  0.12699999809E+01 0. -1.
        4   -1    0    0  501    0  0.00000000000E+00  0.00000000000E+00 -0.93909795453E+03  0.93909881328E+03  0.12699999809E+01 0.  1.
    10030    2    1    2    0    0  0.00000000000E+00  0.00000000000E+00 -0.77197794290E+03  0.11062236504E+04  0.79232620832E+03 0.  0.
        1    1    3    3  502    0 -0.34157823319E+03  0.47495673812E+02 -0.65820196759E+03  0.74307560759E+03  0.50400001928E-02 0.  1.
       -1    1    3    3    0  502  0.34157823319E+03 -0.47495673812E+02 -0.11377597531E+03  0.36314804282E+03  0.50400001928E-02 0. -1.
</event>
<event>
 5   0  0.3343036E-02  0.7978761E+03  0.7818609E-02  0.9563097E-01
        2   -1    0    0  501    0  0.00000000000E+00  0.00000000000E+00  0.46276042878E+03  0.46276042879E+03  0.25500000920E-02 0.  1.
       -2   -1    0    0    0  501  0.00000000000E+00  0.00000000000E+00 -0.34391781109E+03  0.34391781110E+03  0.25500000920E-02 0. -1.
    10030    2    1    2    0    0  0.00000000000E+00  0.00000000000E+00  0.11884261769E+03  0.80667823989E+03  0.79787606490E+03 0.  0.
        4    1    3    3  502    0 -0.26376740716E+03  0.29179422802E+03 -0.78926543876E+01  0.39342219495E+03  0.12699999809E+01 0. -1.
       -4    1    3    3    0  502  0.26376740716E+03 -0.29179422802E+03  0.12673527208E+03  0.41325604494E+03  0.12699999809E+01 0.  1.
</event>
<event>
 5   0  0.2077795E-02  0.7968770E+03  0.7818609E-02  0.9564549E-01
        1   -1    0    0  501    0  0.00000000000E+00  0.00000000000E+00  0.23685509063E+04  0.23685509063E+04  0.50400001928E-02 0.  1.
       -1   -1    0    0    0  501  0.00000000000E+00  0.00000000000E+00 -0.67025466985E+02  0.67025467175E+02  0.50400001928E-02 0. -1.
    10030    2    1    2    0    0  0.00000000000E+00  0.00000000000E+00  0.23015254393E+04  0.24355763735E+04  0.79687698125E+03 0.  0.
        5    1    3    3  502    0 -0.33427501653E+02  0.34198274999E+03  0.17670772274E+04  0.18001815510E+04  0.46999998093E+01 0.  1.
       -5    1    3    3    0  502  0.33427501653E+02 -0.34198274999E+03  0.53444821197E+03  0.63539482248E+03  0.46999998093E+01 0. -1.
</event>
<event>
 5   0  0.1358000E-02  0.8029771E+03  0.7818609E-02  0.9555718E-01
       -4   -1    0    0    0  501  0.00000000000E+00  0.00000000000E+00  0.47054096243E+03  0.47054267630E+03  0.12699999809E+01 0. -1.
        4   -1    0    0  501    0  0.00000000000E+00  0.00000000000E+00 -0.34256615056E+03  0.34256850469E+03  0.12699999809E+01 0.  1.
    10030    2    1    2    0    0  0.00000000000E+00  0.00000000000E+00  0.12797481187E+03  0.81311118099E+03  0.80297711062E+03 0.  0.
        4    1    3    3  502    0  0.13055121330E+03 -0.24247248716E+03 -0.23185542480E+03  0.35999316276E+03  0.12699999809E+01 0.  1.
       -4    1    3    3    0  502 -0.13055121330E+03  0.24247248716E+03  0.35983023667E+03  0.45311801823E+03  0.12699999809E+01 0. -1.
</event>
<event>
 5   0  0.1358000E-02  0.8148791E+03  0.7818609E-02  0.9538726E-01
       -3   -1    0    0    0  501  0.00000000000E+00  0.00000000000E+00  0.19226399049E+03  0.19226401702E+03  0.10100000352E+00 0.  1.
        3   -1    0    0  501    0  0.00000000000E+00  0.00000000000E+00 -0.86343248580E+03  0.86343249171E+03  0.10100000352E+00 0. -1.
    10030    2    1    2    0    0  0.00000000000E+00  0.00000000000E+00 -0.67116849531E+03  0.10556965087E+04  0.81487911340E+03 0.  0.
        3    1    3    3  502    0  0.29625495208E+03  0.27957507699E+03 -0.32415995793E+03  0.52058516002E+03  0.10100000352E+00 0.  1.
       -3    1    3    3    0  502 -0.29625495208E+03 -0.27957507699E+03 -0.34700853738E+03  0.53511134871E+03  0.10100000352E+00 0. -1.
</event>
<event>
 5   0  0.1358000E-02  0.7915516E+03  0.7818609E-02  0.9572327E-01
       -3   -1    0    0    0  501  0.00000000000E+00  0.00000000000E+00  0.82892133057E+03  0.82892133672E+03  0.10100000352E+00 0.  1.
        3   -1    0    0  501    0  0.00000000000E+00  0.00000000000E+00 -0.18896662612E+03  0.18896665312E+03  0.10100000352E+00 0. -1.
    10030    2    1    2    0    0  0.00000000000E+00  0.00000000000E+00  0.63995470444E+03  0.10178879898E+04  0.79155160041E+03 0.  0.
        3    1    3    3  502    0 -0.60695935750E+02 -0.23550444425E+03 -0.81541135588E+02  0.25650595875E+03  0.10100000352E+00 0. -1.
       -3    1    3    3    0  502  0.60695935750E+02  0.23550444425E+03  0.72149584003E+03  0.76138203109E+03  0.10100000352E+00 0.  1.
</event>
<event>
 5   0  0.1358000E-02  0.8110853E+03  0.7818609E-02  0.9544109E-01
        3   -1    0    0  501    0  0.00000000000E+00  0.00000000000E+00  0.20067750457E+03  0.20067752998E+03  0.10100000352E+00 0. -1.
       -3   -1    0    0    0  501  0.00000000000E+00  0.00000000000E+00 -0.81954781231E+03  0.81954781854E+03  0.10100000352E+00 0.  1.
    10030    2    1    2    0    0  0.00000000000E+00  0.00000000000E+00 -0.61887030775E+03  0.10202253485E+04  0.81108526306E+03 0.  0.
        2    1    3    3  502    0 -0.12642334605E+03 -0.27843919262E+03 -0.64449065618E+03  0.71335787114E+03  0.25500000920E-02 0.  1.
       -2    1    3    3    0  502  0.12642334605E+03  0.27843919262E+03  0.25620348427E+02  0.30686747738E+03  0.25500000920E-02 0. -1.
</event>
<event>
 5   0  0.1358000E-02  0.8003669E+03  0.7818609E-02  0.9559486E-01
        4   -1    0    0  501    0  0.00000000000E+00  0.00000000000E+00  0.13100533112E+03  0.13101148683E+03  0.12699999809E+01 0. -1.
       -4   -1    0    0    0  501  0.00000000000E+00  0.00000000000E+00 -0.12224095173E+04  0.12224101771E+04  0.12699999809E+01 0.  1.
    10030    2    1    2    0    0  0.00000000000E+00  0.00000000000E+00 -0.10914041862E+04  0.13534216639E+04  0.80036685501E+03 0.  0.
        5    1    3    3  502    0  0.24260492101E+03 -0.21626511780E+03 -0.94045930635E+03  0.99504449437E+03  0.46999998093E+01 0. -1.
       -5    1    3    3    0  502 -0.24260492101E+03  0.21626511780E+03 -0.15094487987E+03  0.35837716952E+03  0.46999998093E+01 0.  1.
</event>
<event>
 5   0  0.2129257E-02  0.7629688E+03  0.7818609E-02  0.9615221E-01
       -1   -1    0    0    0  501  0.00000000000E+00  0.00000000000E+00  0.27739136021E+03  0.27739136025E+03  0.50400001928E-02 0. -1.
        1   -1    0    0  501    0  0.00000000000E+00  0.00000000000E+00 -0.52463901059E+03  0.52463901061E+03  0.50400001928E-02 0.  1.
    10030    2    1    2    0    0  0.00000000000E+00  0.00000000000E+00 -0.24724765038E+03  0.80203037086E+03  0.76296875111E+03 0.  0.
        3    1    3    3  502    0 -0.21363887688E+03 -0.19529077700E+03  0.13759439323E+03  0.32048757315E+03  0.10100000352E+00 0. -1.
       -3    1    3    3    0  502  0.21363887688E+03  0.19529077700E+03 -0.38484204361E+03  0.48154279771E+03  0.10100000352E+00 0.  1.
</event>
<event>
 5   0  0.2077795E-02  0.7950001E+03  0.7818609E-02  0.9567283E-01
       -1   -1    0    0    0  501  0.00000000000E+00  0.00000000000E+00  0.17582858526E+03  0.17582858533E+03  0.50400001928E-02 0.  1.
        1   -1    0    0  501    0  0.00000000000E+00  0.00000000000E+00 -0.89863817278E+03  0.89863817280E+03  0.50400001928E-02 0. -1.
    10030    2    1    2    0    0  0.00000000000E+00  0.00000000000E+00 -0.72280958752E+03  0.10744667581E+04  0.79500007202E+03 0.  0.
        5    1    3    3  502    0 -0.34512619312E+03  0.38208372832E+02 -0.99988559782E+02  0.36137483451E+03  0.46999998093E+01 0.  1.
       -5    1    3    3    0  502  0.34512619312E+03 -0.38208372832E+02 -0.62282102774E+03  0.71309192362E+03  0.46999998093E+01 0. -1.
</event>
<event>
 5   0  0.3404132E-02  0.9061188E+03  0.7818609E-02  0.9417965E-01
        2   -1    0    0  501    0  0.00000000000E+00  0.00000000000E+00  0.17467498460E+03  0.17467498462E+03  0.25500000920E-02 0. -1.
       -2   -1    0    0    0  501  0.00000000000E+00  0.00000000000E+00 -0.11751129379E+04  0.11751129379E+04  0.25500000920E-02 0.  1.
    10030    2    1    2    0    0  0.00000000000E+00  0.00000000000E+00 -0.10004379533E+04  0.13497879225E+04  0.90611883182E+03 0.  0.
        5    1    3    3  502    0 -0.28160051915E+03 -0.25160600543E+03 -0.87303405066E+03  0.95121762913E+03  0.46999998093E+01 0.  1.
       -5    1    3    3    0  502  0.28160051915E+03  0.25160600543E+03 -0.12740390262E+03  0.39857029337E+03  0.46999998093E+01 0. -1.
</event>
<event>
 5   0  0.1989298E-02  0.8060112E+03  0.7818609E-02  0.9551357E-01
       -1   -1    0    0    0  501  0.00000000000E+00  0.00000000000E+00  0.50058248786E+03  0.50058248788E+03  0.50400001928E-02 0. -1.
        1   -1    0    0  501    0  0.00000000000E+00  0.00000000000E+00 -0.32444902954E+03  0.32444902958E+03  0.50400001928E-02 0.  1.
    10030    2    1    2    0    0  0.00000000000E+00  0.00000000000E+00  0.17613345832E+03  0.82503151747E+03  0.80601117218E+03 0.  0.
        1    1    3    3  502    0 -0.24223839306E+03 -0.29234445612E+03  0.22641835852E+03  0.44205202544E+03  0.50400001928E-02 0.  1.
       -1    1    3    3    0  502  0.24223839306E+03  0.29234445612E+03 -0.50284900203E+02  0.38297949202E+03  0.50400001928E-02 0. -1.
</event>
<event>
 5   0  0.2077795E-02  0.7917582E+03  0.7818609E-02  0.9572024E-01
        1   -1    0    0  501    0  0.00000000000E+00  0.00000000000E+00  0.12681903239E+04  0.12681903239E+04  0.50400001928E-02 0.  1.
       -1   -1    0    0    0  501  0.00000000000E+00  0.00000000000E+00 -0.12357787890E+03  0.12357787900E+03  0.50400001928E-02 0. -1.
    10030    2    1    2    0    0  0.00000000000E+00  0.00000000000E+00  0.11446124450E+04  0.13917682029E+04  0.79175822154E+03 0.  0.
        5    1    3    3  502    0  0.31917561503E+03  0.13813616240E+03  0.23997364666E+03  0.42256847218E+03  0.46999998093E+01 0. -1.
       -5    1    3    3    0  502 -0.31917561503E+03 -0.13813616240E+03  0.90463879835E+03  0.96919973074E+03  0.46999998093E+01 0.  1.
</event>
<event>
 5   0  0.2132540E-02  0.8047237E+03  0.7818609E-02  0.9553205E-01
        1   -1    0    0  501    0  0.00000000000E+00  0.00000000000E+00  0.16506971328E+03  0.16506971336E+03  0.50400001928E-02 0. -1.
       -1   -1    0    0    0  501  0.00000000000E+00  0.00000000000E+00 -0.98076768774E+03  0.98076768776E+03  0.50400001928E-02 0.  1.
    10030    2    1    2    0    0  0.00000000000E+00  0.00000000000E+00 -0.81569797446E+03  0.11458374011E+04  0.80472365707E+03 0.  0.
        4    1    3    3  502    0  0.91034495057E+02 -0.30982071376E+03 -0.66064317350E+02  0.32960925486E+03  0.12699999809E+01 0. -1.
       -4    1    3    3    0  502 -0.91034495057E+02  0.30982071376E+03 -0.74963365711E+03  0.81622814626E+03  0.12699999809E+01 0.  1.
</event>
<event>
 5   0  0.2063692E-02  0.8125141E+03  0.7818609E-02  0.9542078E-01
       -1   -1    0    0    0  501  0.00000000000E+00  0.00000000000E+00  0.14849107704E+03  0.14849107712E+03  0.50400001928E-02 0.  1.
        1   -1    0    0  501    0  0.00000000000E+00  0.00000000000E+00 -0.11114794941E+04  0.11114794941E+04  0.50400001928E-02 0. -1.
    10030    2    1    2    0    0  0.00000000000E+00  0.00000000000E+00 -0.96298841706E+03  0.12599705712E+04  0.81251409156E+03 0.  0.
        2    1    3    3  502    0 -0.16334992530E+03  0.37111017224E+03 -0.44230000184E+03  0.60002937401E+03  0.25500000920E-02 0.  1.
       -2    1    3    3    0  502  0.16334992530E+03 -0.37111017224E+03 -0.52068841521E+03  0.65994119722E+03  0.25500000920E-02 0. -1.
</event>
<event>
 5   0  0.3467240E-02  0.8173735E+03  0.7818609E-02  0.9535205E-01
        2   -1    0    0  501    0  0.00000000000E+00  0.00000000000E+00  0.35313141801E+03  0.35313141801E+03  0.25500000920E-02 0. -1.
       -2   -1    0    0    0  501  0.00000000000E+00  0.00000000000E+00 -0.47298215481E+03  0.47298215482E+03  0.25500000920E-02 0.  1.
    10030    2    1    2    0    0  0.00000000000E+00  0.00000000000E+00 -0.11985073681E+03  0.82611357284E+03  0.81737349854E+03 0.  0.
        2    1    3    3  502    0  0.33830588123E+03  0.11936150357E+03 -0.25779110919E+03  0.44176271210E+03  0.25500000920E-02 0.  1.
       -2    1    3    3    0  502 -0.33830588123E+03 -0.11936150357E+03  0.13794037238E+03  0.38435086074E+03  0.25500000920E-02 0. -1.
</event>
<event>
 5   0  0.3550586E-02  0.8007850E+03  0.7818609E-02  0.9558882E-01
       -2   -1    0    0    0  501  0.00000000000E+00  0.00000000000E+00  0.27381836608E+03  0.27381836609E+03  0.25500000920E-02 0.  1.
        2   -1    0    0  501    0  0.00000000000E+00  0.00000000000E+00 -0.58547627897E+03  0.58547627897E+03  0.25500000920E-02 0. -1.
    10030    2    1    2    0    0  0.00000000000E+00  0.00000000000E+00 -0.31165791289E+03  0.85929464506E+03  0.80078501008E+03 0.  0.
        3    1    3    3  502    0  0.11663068883E+03 -0.26817153938E+03  0.13764108737E+03  0.32320855688E+03  0.10100000352E+00 0.  1.
       -3    1    3    3    0  502 -0.11663068883E+03  0.26817153938E+03 -0.44929900026E+03  0.53608608818E+03  0.10100000352E+00 0. -1.
</event>
<event>
 5   0  0.3343036E-02  0.7922931E+03  0.7818609E-02  0.9571240E-01
       -2   -1    0    0    0  501  0.00000000000E+00  0.00000000000E+00  0.22316440961E+03  0.22316440962E+03  0.25500000920E-02 0.  1.
        2   -1    0    0  501    0  0.00000000000E+00  0.00000000000E+00 -0.70321296178E+03  0.70321296178E+03  0.25500000920E-02 0. -1.
    10030    2    1    2    0    0  0.00000000000E+00  0.00000000000E+00 -0.48004855217E+03  0.92637737141E+03  0.79229314134E+03 0.  0.
        4    1    3    3  502    0  0.32346305867E+03  0.11967622055E+03 -0.46788950591E+03  0.58126839819E+03  0.12699999809E+01 0. -1.
       -4    1    3    3    0  502 -0.32346305867E+03 -0.11967622055E+03 -0.12159046259E+02  0.34510897322E+03  0.12699999809E+01 0.  1.
</event>
<event>
 5   0  0.2129257E-02  0.8164788E+03  0.7818609E-02  0.9536466E-01
       -1   -1    0    0    0  501  0.00000000000E+00  0.00000000000E+00  0.13470079908E+03  0.13470079917E+03  0.50400001928E-02 0.  1.
        1   -1    0    0  501    0  0.00000000000E+00  0.00000000000E+00 -0.12372563077E+04  0.12372563077E+04  0.50400001928E-02 0. -1.
    10030    2    1    2    0    0  0.00000000000E+00  0.00000000000E+00 -0.11025555086E+04  0.13719571069E+04  0.81647881390E+03 0.  0.
        3    1    3    3  502    0 -0.21898913032E+03  0.68774203203E+02  0.16001790207E+02  0.23009171588E+03  0.10100000352E+00 0.  1.
       -3    1    3    3    0  502  0.21898913032E+03 -0.68774203203E+02 -0.11185572988E+04  0.11418653910E+04  0.10100000352E+00 0. -1.
</event>
<event>
 5   0  0.3416160E-02  0.8439860E+03  0.7818609E-02  0.9498444E-01
        2   -1    0    0  501    0  0.00000000000E+00  0.00000000000E+00  0.17944919776E+04  0.17944919776E+04  0.25500000920E-02 0.  1.
       -2   -1    0    0    0  501  0.00000000000E+00  0.00000000000E+00 -0.99235936622E+02  0.99235936655E+02  0.25500000920E-02 0. -1.
    10030    2    1    2    0    0  0.00000000000E+00  0.00000000000E+00  0.16952560409E+04  0.18937279142E+04  0.84398600033E+03 0.  0.
        1    1    3    3  502    0 -0.40017802581E+03 -0.11228203020E+03  0.10114152955E+04  0.10934855310E+04  0.50400001928E-02 0. -1.
       -1    1    3    3    0  502  0.40017802581E+03  0.11228203020E+03  0.68384074546E+03  0.80024238318E+03  0.50400001928E-02 0.  1.
</event>
<event>
 5   0  0.3404132E-02  0.7406703E+03  0.7818609E-02  0.9650102E-01
        2   -1    0    0  501    0  0.00000000000E+00  0.00000000000E+00  0.32137029885E+03  0.32137029886E+03  0.25500000920E-02 0. -1.
       -2   -1    0    0    0  501  0.00000000000E+00  0.00000000000E+00 -0.42676038163E+03  0.42676038164E+03  0.25500000920E-02 0.  1.
    10030    2    1    2    0    0  0.00000000000E+00  0.00000000000E+00 -0.10539008278E+03  0.74813068050E+03  0.74067026777E+03 0.  0.
        5    1    3    3  502    0 -0.24775169153E+03 -0.15766912553E+03 -0.28054547819E+03  0.40616290959E+03  0.46999998093E+01 0.  1.
       -5    1    3    3    0  502  0.24775169153E+03  0.15766912553E+03  0.17515539541E+03  0.34196777091E+03  0.46999998093E+01 0. -1.
</event>
<event>
 5   0  0.2132540E-02  0.8082435E+03  0.7818609E-02  0.9548161E-01
        1   -1    0    0  501    0  0.00000000000E+00  0.00000000000E+00  0.56883113042E+03  0.56883113044E+03  0.50400001928E-02 0.  1.
       -1   -1    0    0    0  501  0.00000000000E+00  0.00000000000E+00 -0.28710522352E+03  0.28710522357E+03  0.50400001928E-02 0. -1.
    10030    2    1    2    0    0  0.00000000000E+00  0.00000000000E+00  0.28172590690E+03  0.85593635401E+03  0.80824350013E+03 0.  0.
        4    1    3    3  502    0 -0.26413441933E+02 -0.12956885011E+03 -0.26354366166E+03  0.29486035904E+03  0.12699999809E+01 0. -1.
       -4    1    3    3    0  502  0.26413441933E+02  0.12956885011E+03  0.54526956856E+03  0.56107599497E+03  0.12699999809E+01 0.  1.
</event>
<event>
 5   0  0.2063692E-02  0.7845617E+03  0.7818609E-02  0.9582636E-01
        1   -1    0    0  501    0  0.00000000000E+00  0.00000000000E+00  0.20210283023E+04  0.20210283023E+04  0.50400001928E-02 0.  1.
       -1   -1    0    0    0  501  0.00000000000E+00  0.00000000000E+00 -0.76141563879E+02  0.76141564046E+02  0.50400001928E-02 0. -1.
    10030    2    1    2    0    0  0.00000000000E+00  0.00000000000E+00  0.19448867384E+04  0.20971698663E+04  0.78456167574E+03 0.  0.
        2    1    3    3  502    0  0.14380259999E+03  0.22896519033E+02  0.19461106768E+04  0.19515507179E+04  0.25500000920E-02 0.  1.
       -2    1    3    3    0  502 -0.14380259999E+03 -0.22896519033E+02 -0.12239383868E+01  0.14561914840E+03  0.25500000920E-02 0. -1.
</event>
<event>
 5   0  0.2063692E-02  0.7973922E+03  0.7818609E-02  0.9563800E-01
        1   -1    0    0  501    0  0.00000000000E+00  0.00000000000E+00  0.11114995292E+04  0.11114995292E+04  0.50400001928E-02 0. -1.
       -1   -1    0    0    0  501  0.00000000000E+00  0.00000000000E+00 -0.14301271918E+03  0.14301271927E+03  0.50400001928E-02 0.  1.
    10030    2    1    2    0    0  0.00000000000E+00  0.00000000000E+00  0.96848681003E+03  0.12545122485E+04  0.79739217480E+03 0.  0.
        2    1    3    3  502    0  0.20666675867E+03  0.32139021853E+03  0.30516872278E+03  0.48900999077E+03  0.25500000920E-02 0.  1.
       -2    1    3    3    0  502 -0.20666675867E+03 -0.32139021853E+03  0.66331808725E+03  0.76550225772E+03  0.25500000920E-02 0. -1.
</event>
<event>
 5   0  0.2129257E-02  0.7185077E+03  0.7818609E-02  0.9686095E-01
        1   -1    0    0  501    0  0.00000000000E+00  0.00000000000E+00  0.75888594085E+03  0.75888594087E+03  0.50400001928E-02 0.  1.
       -1   -1    0    0    0  501  0.00000000000E+00  0.00000000000E+00 -0.17006948095E+03  0.17006948102E+03  0.50400001928E-02 0. -1.
    10030    2    1    2    0    0  0.00000000000E+00  0.00000000000E+00  0.58881645990E+03  0.92895542189E+03  0.71850772605E+03 0.  0.
        3    1    3    3  502    0 -0.30691359429E+03 -0.10259888348E+03  0.92696462017E+02  0.33662312684E+03  0.10100000352E+00 0. -1.
       -3    1    3    3    0  502  0.30691359429E+03  0.10259888348E+03  0.49611999789E+03  0.59233229505E+03  0.10100000352E+00 0.  1.
</event>
<event>
 5   0  0.2063692E-02  0.8085128E+03  0.7818609E-02  0.9547776E-01
       -1   -1    0    0    0  501  0.00000000000E+00  0.00000000000E+00  0.29619972109E+03  0.29619972113E+03  0.50400001928E-02 0. -1.
        1   -1    0    0  501    0  0.00000000000E+00  0.00000000000E+00 -0.55173330956E+03  0.55173330958E+03  0.50400001928E-02 0.  1.
    10030    2    1    2    0    0  0.00000000000E+00  0.00000000000E+00 -0.25553358847E+03  0.84793303071E+03  0.80851283832E+03 0.  0.
        2    1    3    3  502    0  0.25949166001E+03  0.66151186480E+02  0.18983736355E+03  0.32825314270E+03  0.25500000920E-02 0. -1.
       -2    1    3    3    0  502 -0.25949166001E+03 -0.66151186480E+02 -0.44537095202E+03  0.51967988801E+03  0.25500000920E-02 0.  1.
</event>
<event>
 5   0  0.3467240E-02  0.8045549E+03  0.7818609E-02  0.9553447E-01
        2   -1    0    0  501    0  0.00000000000E+00  0.00000000000E+00  0.14861298457E+04  0.14861298457E+04  0.25500000920E-02 0.  1.
       -2   -1    0    0    0  501  0.00000000000E+00  0.00000000000E+00 -0.10889165234E+03  0.10889165237E+03  0.25500000920E-02 0. -1.
    10030    2    1    2    0    0  0.00000000000E+00  0.00000000000E+00  0.13772381933E+04  0.15950214980E+04  0.80455486950E+03 0.  0.
        2    1    3    3  502    0  0.96295495395E+02  0.14209394149E+03  0.14098846604E+04  0.14202951335E+04  0.25500000920E-02 0.  1.
       -2    1    3    3    0  502 -0.96295495395E+02 -0.14209394149E+03 -0.32646467072E+02  0.17472636452E+03  0.25500000920E-02 0. -1.
</event>
<event>
 5   0  0.3467240E-02  0.8062917E+03  0.7818609E-02  0.9550954E-01
        2   -1    0    0  501    0  0.00000000000E+00  0.00000000000E+00  0.16348819187E+04  0.16348819187E+04  0.25500000920E-02 0. -1.
       -2   -1    0    0    0  501  0.00000000000E+00  0.00000000000E+00 -0.99411820965E+02  0.99411820998E+02  0.25500000920E-02 0.  1.
    10030    2    1    2    0    0  0.00000000000E+00  0.00000000000E+00  0.15354700978E+04  0.17342937397E+04  0.80629173041E+03 0.  0.
        2    1    3    3  502    0  0.24111259123E+03  0.31980509429E+03  0.86667898187E+03  0.95474763032E+03  0.25500000920E-02 0.  1.
       -2    1    3    3    0  502 -0.24111259123E+03 -0.31980509429E+03  0.66879111589E+03  0.77954610941E+03  0.25500000920E-02 0. -1.
</event>
<event>
 5   0  0.3550586E-02  0.8089534E+03  0.7818609E-02  0.9547147E-01
       -2   -1    0    0    0  501  0.00000000000E+00  0.00000000000E+00  0.83017264767E+02  0.83017264807E+02  0.25500000920E-02 0. -1.
        2   -1    0    0  501    0  0.00000000000E+00  0.00000000000E+00 -0.19706911766E+04  0.19706911766E+04  0.25500000920E-02 0.  1.
    10030    2    1    2    0    0  0.00000000000E+00  0.00000000000E+00 -0.18876739118E+04  0.20537084414E+04  0.80895337622E+03 0.  0.
        3    1    3    3  502    0 -0.25471007427E+02  0.24574461412E+02  0.79078428172E+02  0.86637661419E+02  0.10100000352E+00 0. -1.
       -3    1    3    3    0  502  0.25471007427E+02 -0.24574461412E+02 -0.19667523400E+04  0.19670707800E+04  0.10100000352E+00 0.  1.
</event>
<event>
 5   0  0.1358000E-02  0.8017833E+03  0.7818609E-02  0.9557439E-01
        3   -1    0    0  501    0  0.00000000000E+00  0.00000000000E+00  0.96766312135E+03  0.96766312662E+03  0.10100000352E+00 0. -1.
       -3   -1    0    0    0  501  0.00000000000E+00  0.00000000000E+00 -0.16608473967E+03  0.16608477038E+03  0.10100000352E+00 0.  1.
    10030    2    1    2    0    0  0.00000000000E+00  0.00000000000E+00  0.80157838167E+03  0.11337478970E+04  0.80178325749E+03 0.  0.
        3    1    3    3  502    0  0.42441472534E+01  0.33947240048E+03  0.70226207858E+03  0.78002023095E+03  0.10100000352E+00 0. -1.
       -3    1    3    3    0  502 -0.42441472534E+01 -0.33947240048E+03  0.99316303095E+02  0.35372766606E+03  0.10100000352E+00 0.  1.
</event>
<event>
 5   0  0.1989298E-02  0.8156900E+03  0.7818609E-02  0.9537580E-01
        1   -1    0    0  501    0  0.00000000000E+00  0.00000000000E+00  0.74165278813E+03  0.74165278814E+03  0.50400001928E-02 0.  1.
       -1   -1    0    0    0  501  0.00000000000E+00  0.00000000000E+00 -0.22427953292E+03  0.22427953297E+03  0.50400001928E-02 0. -1.
    10030    2    1    2    0    0  0.00000000000E+00  0.00000000000E+00  0.51737325521E+03  0.96593232111E+03  0.81568999244E+03 0.  0.
        1    1    3    3  502    0  0.17069858091E+02 -0.73130569480E+02 -0.21602176409E+03  0.22870256412E+03  0.50400001928E-02 0. -1.
       -1    1    3    3    0  502 -0.17069858091E+02  0.73130569480E+02  0.73339501930E+03  0.73722975700E+03  0.50400001928E-02 0.  1.
</event>
<event>
 5   0  0.2063692E-02  0.7980663E+03  0.7818609E-02  0.9562820E-01
        1   -1    0    0  501    0  0.00000000000E+00  0.00000000000E+00  0.60733991419E+03  0.60733991421E+03  0.50400001928E-02 0. -1.
       -1   -1    0    0    0  501  0.00000000000E+00  0.00000000000E+00 -0.26217190323E+03  0.26217190328E+03  0.50400001928E-02 0.  1.
    10030    2    1    2    0    0  0.00000000000E+00  0.00000000000E+00  0.34516801095E+03  0.86951181749E+03  0.79806631615E+03 0.  0.
        2    1    3    3  502    0 -0.65604019955E+02 -0.20562102786E+03 -0.19308630838E+03  0.28959664539E+03  0.25500000920E-02 0.  1.
       -2    1    3    3    0  502  0.65604019955E+02  0.20562102786E+03  0.53825431934E+03  0.57991517209E+03  0.25500000920E-02 0. -1.
</event>
<event>
 5   0  0.2063692E-02  0.8096999E+03  0.7818609E-02  0.9546082E-01
       -1   -1    0    0    0  501  0.00000000000E+00  0.00000000000E+00  0.10807642375E+03  0.10807642387E+03  0.50400001928E-02 0. -1.
        1   -1    0    0  501    0  0.00000000000E+00  0.00000000000E+00 -0.15165515394E+04  0.15165515394E+04  0.50400001928E-02 0.  1.
    10030    2    1    2    0    0  0.00000000000E+00  0.00000000000E+00 -0.14084751157E+04  0.16246279633E+04  0.80969986271E+03 0.  0.
        2    1    3    3  502    0 -0.18559163315E+03  0.16803525795E+03 -0.13426042856E+04  0.13657475498E+04  0.25500000920E-02 0.  1.
       -2    1    3    3    0  502  0.18559163315E+03 -0.16803525795E+03 -0.65870830074E+02  0.25888041345E+03  0.25500000920E-02 0. -1.
</event>
<event>
 5   0  0.3550586E-02  0.8109972E+03  0.7818609E-02  0.9544234E-01
        2   -1    0    0  501    0  0.00000000000E+00  0.00000000000E+00  0.10877370830E+04  0.10877370830E+04  0.25500000920E-02 0. -1.
       -2   -1    0    0    0  501  0.00000000000E+00  0.00000000000E+00 -0.15116623123E+03  0.15116623125E+03  0.25500000920E-02 0.  1.
    10030    2    1    2    0    0  0.00000000000E+00  0.00000000000E+00  0.93657085173E+03  0.12389033142E+04  0.81099720201E+03 0.  0.
        3    1    3    3  502    0  0.30648354719E+03  0.23868316682E+03  0.29061162162E+03  0.48513600531E+03  0.10100000352E+00 0.  1.
       -3    1    3    3    0  502 -0.30648354719E+03 -0.23868316682E+03  0.64595923011E+03  0.75376730891E+03  0.10100000352E+00 0. -1.
</event>
<event>
 5   0  0.3467240E-02  0.8030282E+03  0.7818609E-02  0.9555644E-01
        2   -1    0    0  501    0  0.00000000000E+00  0.00000000000E+00  0.29691363193E+03  0.29691363194E+03  0.25500000920E-02 0.  1.
       -2   -1    0    0    0  501  0.00000000000E+00  0.00000000000E+00 -0.54296456167E+03  0.54296456167E+03  0.25500000920E-02 0. -1.
    10030    2    1    2    0    0  0.00000000000E+00  0.00000000000E+00 -0.24605092974E+03  0.83987819362E+03  0.80302821874E+03 0.  0.
        2    1    3    3  502    0 -0.38494886991E+03 -0.65817375705E+02 -0.25493768217E+02  0.39136618609E+03  0.25500000920E-02 0.  1.
       -2    1    3    3    0  502  0.38494886991E+03  0.65817375705E+02 -0.22055716152E+03  0.44851200753E+03  0.25500000920E-02 0. -1.
</event>
<event>
 5   0  0.3467240E-02  0.7956338E+03  0.7818609E-02  0.9566359E-01
       -2   -1    0    0    0  501  0.00000000000E+00  0.00000000000E+00  0.38009955884E+03  0.38009955884E+03  0.25500000920E-02 0.  1.
        2   -1    0    0  501    0  0.00000000000E+00  0.00000000000E+00 -0.41636007250E+03  0.41636007251E+03  0.25500000920E-02 0. -1.
    10030    2    1    2    0    0  0.00000000000E+00  0.00000000000E+00 -0.36260513664E+02  0.79645963135E+03  0.79563378480E+03 0.  0.
        2    1    3    3  502    0  0.19548967171E+03 -0.19292698955E+03  0.26995526264E+03  0.38511411150E+03  0.25500000920E-02 0.  1.
       -2    1    3    3    0  502 -0.19548967171E+03  0.19292698955E+03 -0.30621577630E+03  0.41134551985E+03  0.25500000920E-02 0. -1.
</event>
<event>
 5   0  0.2132540E-02  0.6022348E+03  0.7818609E-02  0.9900780E-01
        1   -1    0    0  501    0  0.00000000000E+00  0.00000000000E+00  0.21330430101E+04  0.21330430101E+04  0.50400001928E-02 0.  1.
       -1   -1    0    0    0  501  0.00000000000E+00  0.00000000000E+00 -0.42508142214E+02  0.42508142512E+02  0.50400001928E-02 0. -1.
    10030    2    1    2    0    0  0.00000000000E+00  0.00000000000E+00  0.20905348679E+04  0.21755511526E+04  0.60223482448E+03 0.  0.
        4    1    3    3  502    0  0.23977724515E+03  0.76453584707E+02  0.16424919015E+04  0.16616616795E+04  0.12699999809E+01 0.  1.
       -4    1    3    3    0  502 -0.23977724515E+03 -0.76453584707E+02  0.44804296644E+03  0.51388947312E+03  0.12699999809E+01 0. -1.
</event>
<event>
 5   0  0.2077795E-02  0.9680598E+03  0.7818609E-02  0.9344287E-01
        1   -1    0    0  501    0  0.00000000000E+00  0.00000000000E+00  0.31173013553E+03  0.31173013557E+03  0.50400001928E-02 0.  1.
       -1   -1    0    0    0  501  0.00000000000E+00  0.00000000000E+00 -0.75156332575E+03  0.75156332576E+03  0.50400001928E-02 0. -1.
    10030    2    1    2    0    0  0.00000000000E+00  0.00000000000E+00 -0.43983319022E+03  0.10632934613E+04  0.96805978622E+03 0.  0.
        5    1    3    3  502    0 -0.48181598412E+03  0.40365282738E+02 -0.19568131609E+03  0.52162176533E+03  0.46999998093E+01 0.  1.
       -5    1    3    3    0  502  0.48181598412E+03 -0.40365282738E+02 -0.24415187413E+03  0.54167169600E+03  0.46999998093E+01 0. -1.
</event>
<event>
 5   0  0.3416160E-02  0.7912316E+03  0.7818609E-02  0.9572796E-01
       -2   -1    0    0    0  501  0.00000000000E+00  0.00000000000E+00  0.13015485119E+04  0.13015485119E+04  0.25500000920E-02 0.  1.
        2   -1    0    0  501    0  0.00000000000E+00  0.00000000000E+00 -0.12025050396E+03  0.12025050398E+03  0.25500000920E-02 0. -1.
    10030    2    1    2    0    0  0.00000000000E+00  0.00000000000E+00  0.11812980079E+04  0.14217990159E+04  0.79123160831E+03 0.  0.
        1    1    3    3  502    0 -0.25744522435E+03  0.30022156990E+03  0.57260515265E+03  0.69590782108E+03  0.50400001928E-02 0. -1.
       -1    1    3    3    0  502  0.25744522435E+03 -0.30022156990E+03  0.60869285527E+03  0.72589119478E+03  0.50400001928E-02 0.  1.
</event>
<event>
 5   0  0.3550586E-02  0.7891735E+03  0.7818609E-02  0.9575822E-01
       -2   -1    0    0    0  501  0.00000000000E+00  0.00000000000E+00  0.92196754881E+02  0.92196754916E+02  0.25500000920E-02 0.  1.
        2   -1    0    0  501    0  0.00000000000E+00  0.00000000000E+00 -0.16887654323E+04  0.16887654323E+04  0.25500000920E-02 0. -1.
    10030    2    1    2    0    0  0.00000000000E+00  0.00000000000E+00 -0.15965686774E+04  0.17809621872E+04  0.78917347306E+03 0.  0.
        3    1    3    3  502    0 -0.38411968515E+03  0.61788951009E+02 -0.94683354064E+03  0.10236501213E+04  0.10100000352E+00 0.  1.
       -3    1    3    3    0  502  0.38411968515E+03 -0.61788951009E+02 -0.64973513676E+03  0.75731206589E+03  0.10100000352E+00 0. -1.
</event>
<event>
 5   0  0.1358000E-02  0.7821548E+03  0.7818609E-02  0.9586213E-01
        4   -1    0    0  501    0  0.00000000000E+00  0.00000000000E+00  0.46509734140E+03  0.46509907533E+03  0.12699999809E+01 0.  1.
       -4   -1    0    0    0  501  0.00000000000E+00  0.00000000000E+00 -0.32883411236E+03  0.32883656480E+03  0.12699999809E+01 0. -1.
    10030    2    1    2    0    0  0.00000000000E+00  0.00000000000E+00  0.13626322904E+03  0.79393564013E+03  0.78215480123E+03 0.  0.
        1    1    3    3  502    0 -0.33719826186E+03 -0.15120029697E+03  0.19803312689E+03  0.41926282565E+03  0.50400001928E-02 0.  1.
       -1    1    3    3    0  502  0.33719826186E+03  0.15120029697E+03 -0.61769897841E+02  0.37467281448E+03  0.50400001928E-02 0. -1.
</event>
<event>
 5   0  0.3550586E-02  0.7959205E+03  0.7818609E-02  0.9565941E-01
        2   -1    0    0  501    0  0.00000000000E+00  0.00000000000E+00  0.64312554252E+03  0.64312554252E+03  0.25500000920E-02 0. -1.
       -2   -1    0    0    0  501  0.00000000000E+00  0.00000000000E+00 -0.24625418892E+03  0.24625418893E+03  0.25500000920E-02 0.  1.
    10030    2    1    2    0    0  0.00000000000E+00  0.00000000000E+00  0.39687135360E+03  0.88937973146E+03  0.79592049566E+03 0.  0.
        3    1    3    3  502    0  0.60845090100E+01 -0.16656869231E+03  0.60224173472E+03  0.62488180302E+03  0.10100000352E+00 0. -1.
       -3    1    3    3    0  502 -0.60845090100E+01  0.16656869231E+03 -0.20537038112E+03  0.26449792844E+03  0.10100000352E+00 0.  1.
</event>
<event>
 5   0  0.3467240E-02  0.7697664E+03  0.7818609E-02  0.9604840E-01
       -2   -1    0    0    0  501  0.00000000000E+00  0.00000000000E+00  0.93467260648E+03  0.93467260649E+03  0.25500000920E-02 0.  1.
        2   -1    0    0  501    0  0.00000000000E+00  0.00000000000E+00 -0.15848871746E+03  0.15848871748E+03  0.25500000920E-02 0. -1.
    10030    2    1    2    0    0  0.00000000000E+00  0.00000000000E+00  0.77618388903E+03  0.10931613240E+04  0.76976636107E+03 0.  0.
        2    1    3    3  502    0 -0.42327173279E+02 -0.37739927375E+03  0.29925476754E+03  0.48350306858E+03  0.25500000920E-02 0.  1.
       -2    1    3    3    0  502  0.42327173279E+02  0.37739927375E+03  0.47692912149E+03  0.60965825538E+03  0.25500000920E-02 0. -1.
</event>
<event>
 5   0  0.3404132E-02  0.8189884E+03  0.7818609E-02  0.9532932E-01
       -2   -1    0    0    0  501  0.00000000000E+00  0.00000000000E+00  0.44435507128E+03  0.44435507129E+03  0.25500000920E-02 0.  1.
        2   -1    0    0  501    0  0.00000000000E+00  0.00000000000E+00 -0.37736826956E+03  0.37736826957E+03  0.25500000920E-02 0. -1.
    10030    2    1    2    0    0  0.00000000000E+00  0.00000000000E+00  0.66986801714E+02  0.82172334086E+03  0.81898841097E+03 0.  0.
        5    1    3    3  502    0  0.94383036758E+02 -0.18564932423E+03 -0.32023117620E+03  0.38202607951E+03  0.46999998093E+01 0. -1.
       -5    1    3    3    0  502 -0.94383036758E+02  0.18564932423E+03  0.38721797792E+03  0.43969726135E+03  0.46999998093E+01 0.  1.
</event>
<event>
 5   0  0.2129257E-02  0.7812766E+03  0.7818609E-02  0.9587521E-01
       -1   -1    0    0    0  501  0.00000000000E+00  0.00000000000E+00  0.33360268066E+03  0.33360268070E+03  0.50400001928E-02 0.  1.
        1   -1    0    0  501    0  0.00000000000E+00  0.00000000000E+00 -0.45742521349E+03  0.45742521352E+03  0.50400001928E-02 0. -1.
    10030    2    1    2    0    0  0.00000000000E+00  0.00000000000E+00 -0.12382253284E+03  0.79102789422E+03  0.78127658981E+03 0.  0.
        3    1    3    3  502    0  0.34555235895E+03  0.48155232868E+02  0.11598865516E+03  0.36766661196E+03  0.10100000352E+00 0.  1.
       -3    1    3    3    0  502 -0.34555235895E+03 -0.48155232868E+02 -0.23981118799E+03  0.42336128226E+03  0.10100000352E+00 0. -1.
</event>
<event>
 5   0  0.2077795E-02  0.7899867E+03  0.7818609E-02  0.9574625E-01
       -1   -1    0    0    0  501  0.00000000000E+00  0.00000000000E+00  0.15808562210E+03  0.15808562218E+03  0.50400001928E-02 0. -1.
        1   -1    0    0  501    0  0.00000000000E+00  0.00000000000E+00 -0.98693186928E+03  0.98693186929E+03  0.50400001928E-02 0.  1.
    10030    2    1    2    0    0  0.00000000000E+00  0.00000000000E+00 -0.82884624719E+03  0.11450174915E+04  0.78998667982E+03 0.  0.
        5    1    3    3  502    0 -0.10758133205E+03 -0.20475333677E+03  0.49615613018E+02  0.23660403838E+03  0.46999998093E+01 0. -1.
       -5    1    3    3    0  502  0.10758133205E+03  0.20475333677E+03 -0.87846186020E+03  0.90841345309E+03  0.46999998093E+01 0.  1.
</event>
<event>
 5   0  0.3416160E-02  0.7492983E+03  0.7818609E-02  0.9636452E-01
        2   -1    0    0  501    0  0.00000000000E+00  0.00000000000E+00  0.62958278452E+03  0.62958278453E+03  0.25500000920E-02 0.  1.
       -2   -1    0    0    0  501  0.00000000000E+00  0.00000000000E+00 -0.22294444392E+03  0.22294444394E+03  0.25500000920E-02 0. -1.
    10030    2    1    2    0    0  0.00000000000E+00  0.00000000000E+00  0.40663834060E+03  0.85252722846E+03  0.74929829523E+03 0.  0.
        1    1    3    3  502    0 -0.54885038097E+02 -0.10278116831E+03  0.60844371981E+03  0.61949987584E+03  0.50400001928E-02 0.  1.
       -1    1    3    3    0  502  0.54885038097E+02  0.10278116831E+03 -0.20180537921E+03  0.23302735262E+03  0.50400001928E-02 0. -1.
</event>
<event>
 5   0  0.2063692E-02  0.8068300E+03  0.7818609E-02  0.9550183E-01
        1   -1    0    0  501    0  0.00000000000E+00  0.00000000000E+00  0.83810855081E+03  0.83810855082E+03  0.50400001928E-02 0.  1.
       -1   -1    0    0    0  501  0.00000000000E+00  0.00000000000E+00 -0.19417970543E+03  0.19417970550E+03  0.50400001928E-02 0. -1.
    10030    2    1    2    0    0  0.00000000000E+00  0.00000000000E+00  0.64392884537E+03  0.10322882563E+04  0.80683002313E+03 0.  0.
        2    1    3    3  502    0  0.32704368506E+02 -0.19288806757E+03  0.77335064233E+03  0.79771335599E+03  0.25500000920E-02 0.  1.
       -2    1    3    3    0  502 -0.32704368506E+02  0.19288806757E+03 -0.12942179695E+03  0.23457490033E+03  0.25500000920E-02 0. -1.
</event>
<event>
 5   0  0.3467240E-02  0.7958831E+03  0.7818609E-02  0.9565995E-01
       -2   -1    0    0    0  501  0.00000000000E+00  0.00000000000E+00  0.20259881323E+03  0.20259881325E+03  0.25500000920E-02 0. -1.
        2   -1    0    0  501    0  0.00000000000E+00  0.00000000000E+00 -0.78163073666E+03  0.78163073667E+03  0.25500000920E-02 0.  1.
    10030    2    1    2    0    0  0.00000000000E+00  0.00000000000E+00 -0.57903192343E+03  0.98422954992E+03  0.79588305584E+03 0.  0.
        2    1    3    3  502    0 -0.29577439944E+03  0.98961021182E+02  0.16118717066E+02  0.31230688773E+03  0.25500000920E-02 0. -1.
       -2    1    3    3    0  502  0.29577439944E+03 -0.98961021182E+02 -0.59515064050E+03  0.67192266219E+03  0.25500000920E-02 0.  1.
</event>
<event>
 5   0  0.1989298E-02  0.8132934E+03  0.7818609E-02  0.9540972E-01
       -1   -1    0    0    0  501  0.00000000000E+00  0.00000000000E+00  0.10835314012E+03  0.10835314023E+03  0.50400001928E-02 0.  1.
        1   -1    0    0  501    0  0.00000000000E+00  0.00000000000E+00 -0.15261352854E+04  0.15261352854E+04  0.50400001928E-02 0. -1.
    10030    2    1    2    0    0  0.00000000000E+00  0.00000000000E+00 -0.14177821453E+04  0.16344884256E+04  0.81329342925E+03 0.  0.
        1    1    3    3  502    0  0.57657317703E+02  0.38449940478E+03 -0.94835432222E+03  0.10249585743E+04  0.50400001928E-02 0. -1.
       -1    1    3    3    0  502 -0.57657317703E+02 -0.38449940478E+03 -0.46942782306E+03  0.60952985132E+03  0.50400001928E-02 0.  1.
</event>
<event>
 5   0  0.3343036E-02  0.8364711E+03  0.7818609E-02  0.9508677E-01
       -2   -1    0    0    0  501  0.00000000000E+00  0.00000000000E+00  0.22679629150E+03  0.22679629152E+03  0.25500000920E-02 0. -1.
        2   -1    0    0  501    0  0.00000000000E+00  0.00000000000E+00 -0.77126910826E+03  0.77126910826E+03  0.25500000920E-02 0.  1.
    10030    2    1    2    0    0  0.00000000000E+00  0.00000000000E+00 -0.54447281676E+03  0.99806539978E+03  0.83647109577E+03 0.  0.
        4    1    3    3  502    0 -0.88975482626E+02  0.34976324313E+03 -0.52441502001E+03  0.63660324289E+03  0.12699999809E+01 0.  1.
       -4    1    3    3    0  502  0.88975482626E+02 -0.34976324313E+03 -0.20057796752E+02  0.36146215689E+03  0.12699999809E+01 0. -1.
</event>
<event>
 5   0  0.2132540E-02  0.7882611E+03  0.7818609E-02  0.9577166E-01
       -1   -1    0    0    0  501  0.00000000000E+00  0.00000000000E+00  0.35492256495E+03  0.35492256499E+03  0.50400001928E-02 0.  1.
        1   -1    0    0  501    0  0.00000000000E+00  0.00000000000E+00 -0.43766983274E+03  0.43766983277E+03  0.50400001928E-02 0. -1.
    10030    2    1    2    0    0  0.00000000000E+00  0.00000000000E+00 -0.82747267788E+02  0.79259239776E+03  0.78826112340E+03 0.  0.
        4    1    3    3  502    0 -0.32133679745E+03  0.12071514286E+03  0.15335984002E+03  0.37596587151E+03  0.12699999809E+01 0.  1.
       -4    1    3    3    0  502  0.32133679745E+03 -0.12071514286E+03 -0.23610710781E+03  0.41662652624E+03  0.12699999809E+01 0. -1.
</event>
<event>
 5   0  0.3404132E-02  0.8121878E+03  0.7818609E-02  0.9542541E-01
       -2   -1    0    0    0  501  0.00000000000E+00  0.00000000000E+00  0.25337306886E+03  0.25337306888E+03  0.25500000920E-02 0.  1.
        2   -1    0    0  501    0  0.00000000000E+00  0.00000000000E+00 -0.65086736290E+03  0.65086736291E+03  0.25500000920E-02 0. -1.
    10030    2    1    2    0    0  0.00000000000E+00  0.00000000000E+00 -0.39749429404E+03  0.90424043178E+03  0.81218781367E+03 0.  0.
        5    1    3    3  502    0 -0.23387674542E+03  0.14274304984E+03  0.13491346228E+03  0.30544662812E+03  0.46999998093E+01 0.  1.
       -5    1    3    3    0  502  0.23387674542E+03 -0.14274304984E+03 -0.53240775631E+03  0.59879380367E+03  0.46999998093E+01 0. -1.
</event>
<event>
 5   0  0.2063692E-02  0.7948621E+03  0.7818609E-02  0.9567484E-01
        1   -1    0    0  501    0  0.00000000000E+00  0.00000000000E+00  0.70077340281E+03  0.70077340283E+03  0.50400001928E-02 0.  1.
       -1   -1    0    0    0  501  0.00000000000E+00  0.00000000000E+00 -0.22539588489E+03  0.22539588495E+03  0.50400001928E-02 0. -1.
    10030    2    1    2    0    0  0.00000000000E+00  0.00000000000E+00  0.47537751792E+03  0.92616928777E+03  0.79486210444E+03 0.  0.
        2    1    3    3  502    0  0.11223537268E+03  0.14127120022E+03 -0.17492370967E+03  0.25130188042E+03  0.25500000920E-02 0. -1.
       -2    1    3    3    0  502 -0.11223537268E+03 -0.14127120022E+03  0.65030122759E+03  0.67486740735E+03  0.25500000920E-02 0.  1.
</event>
<event>
 5   0  0.2129257E-02  0.8052757E+03  0.7818609E-02  0.9552412E-01
        1   -1    0    0  501    0  0.00000000000E+00  0.00000000000E+00  0.45909416197E+03  0.45909416200E+03  0.50400001928E-02 0.  1.
       -1   -1    0    0    0  501  0.00000000000E+00  0.00000000000E+00 -0.35312414967E+03  0.35312414971E+03  0.50400001928E-02 0. -1.
    10030    2    1    2    0    0  0.00000000000E+00  0.00000000000E+00  0.10597001230E+03  0.81221831171E+03  0.80527569339E+03 0.  0.
        3    1    3    3  502    0  0.37914626071E+03  0.53359173410E+02  0.17863080644E+03  0.42250214627E+03  0.10100000352E+00 0.  1.
       -3    1    3    3    0  502 -0.37914626071E+03 -0.53359173410E+02 -0.72660794139E+02  0.38971616543E+03  0.10100000352E+00 0. -1.
</event>
<event>
 5   0  0.3416160E-02  0.8300125E+03  0.7818609E-02  0.9517563E-01
       -2   -1    0    0    0  501  0.00000000000E+00  0.00000000000E+00  0.23672618120E+03  0.23672618121E+03  0.25500000920E-02 0.  1.
        2   -1    0    0  501    0  0.00000000000E+00  0.00000000000E+00 -0.72755029353E+03  0.72755029353E+03  0.25500000920E-02 0. -1.
    10030    2    1    2    0    0  0.00000000000E+00  0.00000000000E+00 -0.49082411233E+03  0.96427647474E+03  0.83001253635E+03 0.  0.
        1    1    3    3  502    0  0.41344928867E+03  0.16023602099E+02 -0.28275382837E+03  0.50114548548E+03  0.50400001928E-02 0.  1.
       -1    1    3    3    0  502 -0.41344928867E+03 -0.16023602099E+02 -0.20807028395E+03  0.46313098927E+03  0.50400001928E-02 0. -1.
</event>
<event>
 5   0  0.2129257E-02  0.8006483E+03  0.7818609E-02  0.9559079E-01
       -1   -1    0    0    0  501  0.00000000000E+00  0.00000000000E+00  0.12798796171E+04  0.12798796171E+04  0.50400001928E-02 0. -1.
        1   -1    0    0  501    0  0.00000000000E+00  0.00000000000E+00 -0.12521444217E+03  0.12521444228E+03  0.50400001928E-02 0.  1.
    10030    2    1    2    0    0  0.00000000000E+00  0.00000000000E+00  0.11546651750E+04  0.14050940594E+04  0.80064826831E+03 0.  0.
        3    1    3    3  502    0  0.10668194065E+03  0.30394944497E+03  0.16021227919E+03  0.35976976827E+03  0.10100000352E+00 0.  1.
       -3    1    3    3    0  502 -0.10668194065E+03 -0.30394944497E+03  0.99445289577E+03  0.10453242911E+04  0.10100000352E+00 0. -1.
</event>
<event>
 5   0  0.3416160E-02  0.7870453E+03  0.7818609E-02  0.9578960E-01
        2   -1    0    0  501    0  0.00000000000E+00  0.00000000000E+00  0.38829746025E+03  0.38829746026E+03  0.25500000920E-02 0.  1.
       -2   -1    0    0    0  501  0.00000000000E+00  0.00000000000E+00 -0.39881812142E+03  0.39881812143E+03  0.25500000920E-02 0. -1.
    10030    2    1    2    0    0  0.00000000000E+00  0.00000000000E+00 -0.10520661174E+02  0.78711558169E+03  0.78704526847E+03 0.  0.
        1    1    3    3  502    0  0.11419828423E+03  0.30190071676E+03  0.21987035929E+03  0.39054867279E+03  0.50400001928E-02 0.  1.
       -1    1    3    3    0  502 -0.11419828423E+03 -0.30190071676E+03 -0.23039102046E+03  0.39656690890E+03  0.50400001928E-02 0. -1.
</event>
<event>
 5   0  0.2129257E-02  0.8059370E+03  0.7818609E-02  0.9551463E-01
       -1   -1    0    0    0  501  0.00000000000E+00  0.00000000000E+00  0.21525866732E+03  0.21525866738E+03  0.50400001928E-02 0. -1.
        1   -1    0    0  501    0  0.00000000000E+00  0.00000000000E+00 -0.75436497720E+03  0.75436497721E+03  0.50400001928E-02 0.  1.
    10030    2    1    2    0    0  0.00000000000E+00  0.00000000000E+00 -0.53910630988E+03  0.96962364459E+03  0.80593696950E+03 0.  0.
        3    1    3    3  502    0  0.66556481380E+02  0.15002975887E+03  0.17322220119E+03  0.23863075021E+03  0.10100000352E+00 0. -1.
       -3    1    3    3    0  502 -0.66556481380E+02 -0.15002975887E+03 -0.71232851106E+03  0.73099289438E+03  0.10100000352E+00 0.  1.
</event>
<event>
 5   0  0.2077795E-02  0.7077014E+03  0.7818609E-02  0.9704152E-01
       -1   -1    0    0    0  501  0.00000000000E+00  0.00000000000E+00  0.36860807611E+03  0.36860807615E+03  0.50400001928E-02 0. -1.
        1   -1    0    0  501    0  0.00000000000E+00  0.00000000000E+00 -0.33968411133E+03  0.33968411136E+03  0.50400001928E-02 0.  1.
    10030    2    1    2    0    0  0.00000000000E+00  0.00000000000E+00  0.28923964789E+02  0.70829218751E+03  0.70770136862E+03 0.  0.
        5    1    3    3  502    0  0.32659333918E+03  0.91085598126E+02 -0.86758108331E+02  0.35001264941E+03  0.46999998093E+01 0.  1.
       -5    1    3    3    0  502 -0.32659333918E+03 -0.91085598126E+02  0.11568207312E+03  0.35827953811E+03  0.46999998093E+01 0. -1.
</event>
<event>
 5   0  0.3343036E-02  0.7925041E+03  0.7818609E-02  0.9570931E-01
       -2   -1    0    0    0  501  0.00000000000E+00  0.00000000000E+00  0.67649123288E+03  0.67649123288E+03  0.25500000920E-02 0. -1.
        2   -1    0    0  501    0  0.00000000000E+00  0.00000000000E+00 -0.23210304242E+03  0.23210304244E+03  0.25500000920E-02 0.  1.
    10030    2    1    2    0    0  0.00000000000E+00  0.00000000000E+00  0.44438819046E+03  0.90859427532E+03  0.79250406518E+03 0.  0.
        4    1    3    3  502    0  0.84045775270E+02 -0.27486796114E+03  0.53490933484E+03  0.60724434769E+03  0.12699999809E+01 0. -1.
       -4    1    3    3    0  502 -0.84045775270E+02  0.27486796114E+03 -0.90521144380E+02  0.30134992763E+03  0.12699999809E+01 0.  1.
</event>
<event>
 5   0  0.3467240E-02  0.8689318E+03  0.7818609E-02  0.9465274E-01
        2   -1    0    0  501    0  0.00000000000E+00  0.00000000000E+00  0.28698043571E+03  0.28698043572E+03  0.25500000920E-02 0.  1.
       -2   -1    0    0    0  501  0.00000000000E+00  0.00000000000E+00 -0.65774730848E+03  0.65774730849E+03  0.25500000920E-02 0. -1.
    10030    2    1    2    0    0  0.00000000000E+00  0.00000000000E+00 -0.37076687278E+03  0.94472774421E+03  0.86893177910E+03 0.  0.
        2    1    3    3  502    0  0.18883917521E+03 -0.27961138519E+03 -0.48297021818E+03  0.58915447251E+03  0.25500000920E-02 0.  1.
       -2    1    3    3    0  502 -0.18883917521E+03  0.27961138519E+03  0.11220334541E+03  0.35557327170E+03  0.25500000920E-02 0. -1.
</event>
<event>
 5   0  0.2132540E-02  0.7712715E+03  0.7818609E-02  0.9602557E-01
       -1   -1    0    0    0  501  0.00000000000E+00  0.00000000000E+00  0.59060559824E+03  0.59060559827E+03  0.50400001928E-02 0.  1.
        1   -1    0    0  501    0  0.00000000000E+00  0.00000000000E+00 -0.25180076444E+03  0.25180076449E+03  0.50400001928E-02 0. -1.
    10030    2    1    2    0    0  0.00000000000E+00  0.00000000000E+00  0.33880483381E+03  0.84240636275E+03  0.77127152456E+03 0.  0.
        4    1    3    3  502    0 -0.19499852849E+03  0.78211202135E+01 -0.19388164591E+03  0.27509507730E+03  0.12699999809E+01 0. -1.
       -4    1    3    3    0  502  0.19499852849E+03 -0.78211202135E+01  0.53268647971E+03  0.56731128545E+03  0.12699999809E+01 0.  1.
</event>
<event>
 5   0  0.1358000E-02  0.7958544E+03  0.7818609E-02  0.9566037E-01
       -3   -1    0    0    0  501  0.00000000000E+00  0.00000000000E+00  0.78976610511E+03  0.78976611156E+03  0.10100000352E+00 0.  1.
        3   -1    0    0  501    0  0.00000000000E+00  0.00000000000E+00 -0.20049740950E+03  0.20049743494E+03  0.10100000352E+00 0. -1.
    10030    2    1    2    0    0  0.00000000000E+00  0.00000000000E+00  0.58926869561E+03  0.99026354650E+03  0.79585444392E+03 0.  0.
        1    1    3    3  502    0 -0.15285020563E+03 -0.36600612182E+03  0.33442024312E+03  0.51880686734E+03  0.50400001928E-02 0. -1.
       -1    1    3    3    0  502  0.15285020563E+03  0.36600612182E+03  0.25484845249E+03  0.47145667916E+03  0.50400001928E-02 0.  1.
</event>
<event>
 5   0  0.3404132E-02  0.8093304E+03  0.7818609E-02  0.9546609E-01
        2   -1    0    0  501    0  0.00000000000E+00  0.00000000000E+00  0.12911341313E+04  0.12911341313E+04  0.25500000920E-02 0.  1.
       -2   -1    0    0    0  501  0.00000000000E+00  0.00000000000E+00 -0.12682950707E+03  0.12682950710E+03  0.25500000920E-02 0. -1.
    10030    2    1    2    0    0  0.00000000000E+00  0.00000000000E+00  0.11643046242E+04  0.14179636384E+04  0.80933035396E+03 0.  0.
        5    1    3    3  502    0  0.15788962522E+03 -0.34601754667E+03  0.82412496824E+03  0.90766807238E+03  0.46999998093E+01 0.  1.
       -5    1    3    3    0  502 -0.15788962522E+03  0.34601754667E+03  0.34017965601E+03  0.51029556604E+03  0.46999998093E+01 0. -1.
</event>
<event>
 5   0  0.2132540E-02  0.8428613E+03  0.7818609E-02  0.9499969E-01
        1   -1    0    0  501    0  0.00000000000E+00  0.00000000000E+00  0.43168166990E+03  0.43168166993E+03  0.50400001928E-02 0. -1.
       -1   -1    0    0    0  501  0.00000000000E+00  0.00000000000E+00 -0.41142306897E+03  0.41142306900E+03  0.50400001928E-02 0.  1.
    10030    2    1    2    0    0  0.00000000000E+00  0.00000000000E+00  0.20258600932E+02  0.84310473894E+03  0.84286131119E+03 0.  0.
        4    1    3    3  502    0  0.38860565864E+03  0.67030048894E+02 -0.13855682358E+03  0.41797965458E+03  0.12699999809E+01 0.  1.
       -4    1    3    3    0  502 -0.38860565864E+03 -0.67030048894E+02  0.15881542451E+03  0.42512508435E+03  0.12699999809E+01 0. -1.
</event>
<event>
 5   0  0.3343036E-02  0.9042490E+03  0.7818609E-02  0.9420285E-01
       -2   -1    0    0    0  501  0.00000000000E+00  0.00000000000E+00  0.23223666379E+03  0.23223666380E+03  0.25500000920E-02 0. -1.
        2   -1    0    0  501    0  0.00000000000E+00  0.00000000000E+00 -0.88020805564E+03  0.88020805564E+03  0.25500000920E-02 0.  1.
    10030    2    1    2    0    0  0.00000000000E+00  0.00000000000E+00 -0.64797139185E+03  0.11124447194E+04  0.90424904156E+03 0.  0.
        4    1    3    3  502    0  0.41029757945E+03 -0.56912577059E+02 -0.54689997514E+03  0.68606438535E+03  0.12699999809E+01 0.  1.
       -4    1    3    3    0  502 -0.41029757945E+03  0.56912577059E+02 -0.10107141670E+03  0.42638033410E+03  0.12699999809E+01 0. -1.
</event>
<event>
 5   0  0.2063692E-02  0.7890544E+03  0.7818609E-02  0.9575997E-01
       -1   -1    0    0    0  501  0.00000000000E+00  0.00000000000E+00  0.70871632634E+03  0.70871632635E+03  0.50400001928E-02 0.  1.
        1   -1    0    0  501    0  0.00000000000E+00  0.00000000000E+00 -0.21962483539E+03  0.21962483545E+03  0.50400001928E-02 0. -1.
    10030    2    1    2    0    0  0.00000000000E+00  0.00000000000E+00  0.48909149094E+03  0.92834116180E+03  0.78905438734E+03 0.  0.
        2    1    3    3  502    0  0.20858702527E+02  0.42322611409E+02 -0.21629336027E+03  0.22138000499E+03  0.25500000920E-02 0. -1.
       -2    1    3    3    0  502 -0.20858702527E+02 -0.42322611409E+02  0.70538485121E+03  0.70696115681E+03  0.25500000920E-02 0.  1.
</event>
<event>
 5   0  0.2063692E-02  0.7990009E+03  0.7818609E-02  0.9561464E-01
       -1   -1    0    0    0  501  0.00000000000E+00  0.00000000000E+00  0.24730391685E+03  0.24730391690E+03  0.50400001928E-02 0. -1.
        1   -1    0    0  501    0  0.00000000000E+00  0.00000000000E+00 -0.64536226343E+03  0.64536226345E+03  0.50400001928E-02 0.  1.
    10030    2    1    2    0    0  0.00000000000E+00  0.00000000000E+00 -0.39805834659E+03  0.89266618035E+03  0.79900091505E+03 0.  0.
        2    1    3    3  502    0  0.38449243219E+03  0.32463008959E+02 -0.83395601122E+02  0.39476968432E+03  0.25500000920E-02 0. -1.
       -2    1    3    3    0  502 -0.38449243219E+03 -0.32463008959E+02 -0.31466274546E+03  0.49789649603E+03  0.25500000920E-02 0.  1.
</event>
<event>
 5   0  0.3467240E-02  0.8604975E+03  0.7818609E-02  0.9476355E-01
        2   -1    0    0  501    0  0.00000000000E+00  0.00000000000E+00  0.12144246401E+04  0.12144246401E+04  0.25500000920E-02 0.  1.
       -2   -1    0    0    0  501  0.00000000000E+00  0.00000000000E+00 -0.15242939079E+03  0.15242939081E+03  0.25500000920E-02 0. -1.
    10030    2    1    2    0    0  0.00000000000E+00  0.00000000000E+00  0.10619952493E+04  0.13668540309E+04  0.86049754927E+03 0.  0.
        2    1    3    3  502    0  0.35811394949E+03  0.15323830594E+03  0.82123777065E+03  0.90893292117E+03  0.25500000920E-02 0. -1.
       -2    1    3    3    0  502 -0.35811394949E+03 -0.15323830594E+03  0.24075747868E+03  0.45792110978E+03  0.25500000920E-02 0.  1.
</event>
<event>
 5   0  0.2077795E-02  0.8032725E+03  0.7818609E-02  0.9555292E-01
        1   -1    0    0  501    0  0.00000000000E+00  0.00000000000E+00  0.14176735405E+04  0.14176735405E+04  0.50400001928E-02 0. -1.
       -1   -1    0    0    0  501  0.00000000000E+00  0.00000000000E+00 -0.11378620817E+03  0.11378620828E+03  0.50400001928E-02 0.  1.
    10030    2    1    2    0    0  0.00000000000E+00  0.00000000000E+00  0.13038873323E+04  0.15314597488E+04  0.80327254824E+03 0.  0.
        5    1    3    3  502    0 -0.19943718794E+03  0.32681786416E+03  0.88313298695E+03  0.96256483985E+03  0.46999998093E+01 0. -1.
       -5    1    3    3    0  502  0.19943718794E+03 -0.32681786416E+03  0.42075434536E+03  0.56889490893E+03  0.46999998093E+01 0.  1.
</event>
<event>
 5   0  0.2132540E-02  0.7938472E+03  0.7818609E-02  0.9568966E-01
        1   -1    0    0  501    0  0.00000000000E+00  0.00000000000E+00  0.78983954343E+03  0.78983954345E+03  0.50400001928E-02 0.  1.
       -1   -1    0    0    0  501  0.00000000000E+00  0.00000000000E+00 -0.19946878080E+03  0.19946878086E+03  0.50400001928E-02 0. -1.
    10030    2    1    2    0    0  0.00000000000E+00  0.00000000000E+00  0.59037076264E+03  0.98930832431E+03  0.79384716613E+03 0.  0.
        4    1    3    3  502    0  0.14885905652E+03 -0.56366670742E+02 -0.15794975042E+03  0.22424530505E+03  0.12699999809E+01 0. -1.
       -4    1    3    3    0  502 -0.14885905652E+03  0.56366670742E+02  0.74832051306E+03  0.76506301926E+03  0.12699999809E+01 0.  1.
</event>
<event>
 5   0  0.2077795E-02  0.7924631E+03  0.7818609E-02  0.9570991E-01
       -1   -1    0    0    0  501  0.00000000000E+00  0.00000000000E+00  0.70506666677E+02  0.70506666857E+02  0.50400001928E-02 0. -1.
        1   -1    0    0  501    0  0.00000000000E+00  0.00000000000E+00 -0.22267320959E+04  0.22267320959E+04  0.50400001928E-02 0.  1.
    10030    2    1    2    0    0  0.00000000000E+00  0.00000000000E+00 -0.21562254292E+04  0.22972387627E+04  0.79246314205E+03 0.  0.
        5    1    3    3  502    0 -0.22326949286E+03 -0.25277627360E+02 -0.13213756088E+03  0.26071181385E+03  0.46999998093E+01 0. -1.
       -5    1    3    3    0  502  0.22326949286E+03  0.25277627360E+02 -0.20240878683E+04  0.20365269489E+04  0.46999998093E+01 0.  1.
</event>
<event>
 5   0  0.3467240E-02  0.7752673E+03  0.7818609E-02  0.9596523E-01
       -2   -1    0    0    0  501  0.00000000000E+00  0.00000000000E+00  0.20903385272E+03  0.20903385273E+03  0.25500000920E-02 0.  1.
        2   -1    0    0  501    0  0.00000000000E+00  0.00000000000E+00 -0.71883022943E+03  0.71883022944E+03  0.25500000920E-02 0. -1.
    10030    2    1    2    0    0  0.00000000000E+00  0.00000000000E+00 -0.50979637672E+03  0.92786408217E+03  0.77526731471E+03 0.  0.
        2    1    3    3  502    0 -0.15830636134E+03 -0.23750186385E+03 -0.56880538063E+03  0.63640207448E+03  0.25500000920E-02 0. -1.
       -2    1    3    3    0  502  0.15830636134E+03  0.23750186385E+03  0.59009003910E+02  0.29146200768E+03  0.25500000920E-02 0.  1.
</event>
<event>
 5   0  0.3467240E-02  0.1079938E+04  0.7818609E-02  0.9224969E-01
        2   -1    0    0  501    0  0.00000000000E+00  0.00000000000E+00  0.93668316211E+03  0.93668316212E+03  0.25500000920E-02 0. -1.
       -2   -1    0    0    0  501  0.00000000000E+00  0.00000000000E+00 -0.31127546517E+03  0.31127546518E+03  0.25500000920E-02 0.  1.
    10030    2    1    2    0    0  0.00000000000E+00  0.00000000000E+00  0.62540769694E+03  0.12479586273E+04  0.10799379371E+04 0.  0.
        2    1    3    3  502    0 -0.36479432731E+02  0.75953646670E+02  0.92903932916E+03  0.93285249669E+03  0.25500000920E-02 0. -1.
       -2    1    3    3    0  502  0.36479432731E+02 -0.75953646670E+02 -0.30363163222E+03  0.31510613060E+03  0.25500000920E-02 0.  1.
</event>
<event>
 5   0  0.2132540E-02  0.7956440E+03  0.7818609E-02  0.9566344E-01
        1   -1    0    0  501    0  0.00000000000E+00  0.00000000000E+00  0.19967164315E+04  0.19967164315E+04  0.50400001928E-02 0.  1.
       -1   -1    0    0    0  501  0.00000000000E+00  0.00000000000E+00 -0.79261291809E+02  0.79261291969E+02  0.50400001928E-02 0. -1.
    10030    2    1    2    0    0  0.00000000000E+00  0.00000000000E+00  0.19174551397E+04  0.20759777234E+04  0.79564395029E+03 0.  0.
        4    1    3    3  502    0  0.24402822877E+02 -0.29267822408E+03  0.25858859010E+03  0.39131280639E+03  0.12699999809E+01 0.  1.
       -4    1    3    3    0  502 -0.24402822877E+02  0.29267822408E+03  0.16588665496E+04  0.16846649170E+04  0.12699999809E+01 0. -1.
</event>
<event>
 5   0  0.3550586E-02  0.7957363E+03  0.7818609E-02  0.9566209E-01
        2   -1    0    0  501    0  0.00000000000E+00  0.00000000000E+00  0.52592347217E+03  0.52592347218E+03  0.25500000920E-02 0.  1.
       -2   -1    0    0    0  501  0.00000000000E+00  0.00000000000E+00 -0.30099259678E+03  0.30099259679E+03  0.25500000920E-02 0. -1.
    10030    2    1    2    0    0  0.00000000000E+00  0.00000000000E+00  0.22493087540E+03  0.82691606897E+03  0.79573631714E+03 0.  0.
        3    1    3    3  502    0 -0.12500823024E+03 -0.18046423537E+03  0.45728755076E+03  0.50725369605E+03  0.10100000352E+00 0.  1.
       -3    1    3    3    0  502  0.12500823024E+03  0.18046423537E+03 -0.23235667536E+03  0.31966237292E+03  0.10100000352E+00 0. -1.
</event>
<event>
 5   0  0.3550586E-02  0.7921799E+03  0.7818609E-02  0.9571406E-01
        2   -1    0    0  501    0  0.00000000000E+00  0.00000000000E+00  0.70226413745E+03  0.70226413746E+03  0.25500000920E-02 0. -1.
       -2   -1    0    0    0  501  0.00000000000E+00  0.00000000000E+00 -0.22340205445E+03  0.22340205446E+03  0.25500000920E-02 0.  1.
    10030    2    1    2    0    0  0.00000000000E+00  0.00000000000E+00  0.47886208300E+03  0.92566619192E+03  0.79217990654E+03 0.  0.
        3    1    3    3  502    0  0.11666129929E+02  0.27809590661E+03 -0.89858997408E+02  0.29248603638E+03  0.10100000352E+00 0.  1.
       -3    1    3    3    0  502 -0.11666129929E+02 -0.27809590661E+03  0.56872108041E+03  0.63318015554E+03  0.10100000352E+00 0. -1.
</event>
<event>
 5   0  0.3343036E-02  0.7802499E+03  0.7818609E-02  0.9589053E-01
       -2   -1    0    0    0  501  0.00000000000E+00  0.00000000000E+00  0.16712334023E+03  0.16712334025E+03  0.25500000920E-02 0.  1.
        2   -1    0    0  501    0  0.00000000000E+00  0.00000000000E+00 -0.91068955842E+03  0.91068955842E+03  0.25500000920E-02 0. -1.
    10030    2    1    2    0    0  0.00000000000E+00  0.00000000000E+00 -0.74356621819E+03  0.10778128987E+04  0.78024991107E+03 0.  0.
        4    1    3    3  502    0  0.20810482321E+03  0.32870066066E+03 -0.33164902496E+03  0.51121857402E+03  0.12699999809E+01 0.  1.
       -4    1    3    3    0  502 -0.20810482321E+03 -0.32870066066E+03 -0.41191719322E+03  0.56659432466E+03  0.12699999809E+01 0. -1.
</event>
<event>
 5   0  0.2132540E-02  0.8056226E+03  0.7818609E-02  0.9551914E-01
        1   -1    0    0  501    0  0.00000000000E+00  0.00000000000E+00  0.12626541615E+04  0.12626541615E+04  0.50400001928E-02 0. -1.
       -1   -1    0    0    0  501  0.00000000000E+00  0.00000000000E+00 -0.12850464521E+03  0.12850464530E+03  0.50400001928E-02 0.  1.
    10030    2    1    2    0    0  0.00000000000E+00  0.00000000000E+00  0.11341495163E+04  0.13911588068E+04  0.80562255459E+03 0.  0.
        4    1    3    3  502    0  0.25542626432E+03 -0.24993900640E+03  0.88801676029E+03  0.95722905455E+03  0.12699999809E+01 0. -1.
       -4    1    3    3    0  502 -0.25542626432E+03  0.24993900640E+03  0.24613275601E+03  0.43392975227E+03  0.12699999809E+01 0.  1.
</event>
<event>
 5   0  0.2132540E-02  0.8377000E+03  0.7818609E-02  0.9506996E-01
        1   -1    0    0  501    0  0.00000000000E+00  0.00000000000E+00  0.11330616464E+04  0.11330616464E+04  0.50400001928E-02 0. -1.
       -1   -1    0    0    0  501  0.00000000000E+00  0.00000000000E+00 -0.15483298167E+03  0.15483298175E+03  0.50400001928E-02 0.  1.
    10030    2    1    2    0    0  0.00000000000E+00  0.00000000000E+00  0.97822866475E+03  0.12878946282E+04  0.83769997778E+03 0.  0.
        4    1    3    3  502    0  0.16147942678E+02  0.27108167221E+03  0.97937378799E+03  0.10163270431E+04  0.12699999809E+01 0. -1.
       -4    1    3    3    0  502 -0.16147942678E+02 -0.27108167221E+03 -0.11451232354E+01  0.27156758508E+03  0.12699999809E+01 0.  1.
</event>
<event>
 5   0  0.3404132E-02  0.8297589E+03  0.7818609E-02  0.9517914E-01
        2   -1    0    0  501    0  0.00000000000E+00  0.00000000000E+00  0.15416612410E+04  0.15416612410E+04  0.25500000920E-02 0.  1.
       -2   -1    0    0    0  501  0.00000000000E+00  0.00000000000E+00 -0.11164900859E+03  0.11164900862E+03  0.25500000920E-02 0. -1.
    10030    2    1    2    0    0  0.00000000000E+00  0.00000000000E+00  0.14300122324E+04  0.16533102496E+04  0.82975887863E+03 0.  0.
        5    1    3    3  502    0  0.18334640448E+03 -0.35629429337E+03  0.50094863521E+03  0.64150849772E+03  0.46999998093E+01 0. -1.
       -5    1    3    3    0  502 -0.18334640448E+03  0.35629429337E+03  0.92906359720E+03  0.10118017519E+04  0.46999998093E+01 0.  1.
</event>
<event>
 5   0  0.2132540E-02  0.7839847E+03  0.7818609E-02  0.9583492E-01
       -1   -1    0    0    0  501  0.00000000000E+00  0.00000000000E+00  0.31876961177E+03  0.31876961181E+03  0.50400001928E-02 0.  1.
        1   -1    0    0  501    0  0.00000000000E+00  0.00000000000E+00 -0.48203460371E+03  0.48203460374E+03  0.50400001928E-02 0. -1.
    10030    2    1    2    0    0  0.00000000000E+00  0.00000000000E+00 -0.16326499195E+03  0.80080421555E+03  0.78398465166E+03 0.  0.
        4    1    3    3  502    0  0.17122205345E+03  0.92226645527E+02  0.26601260516E+03  0.32952551455E+03  0.12699999809E+01 0.  1.
       -4    1    3    3    0  502 -0.17122205345E+03 -0.92226645527E+02 -0.42927759711E+03  0.47127870100E+03  0.12699999809E+01 0. -1.
</event>
<event>
 5   0  0.3550586E-02  0.8089734E+03  0.7818609E-02  0.9547119E-01
       -2   -1    0    0    0  501  0.00000000000E+00  0.00000000000E+00  0.19955305633E+03  0.19955305635E+03  0.25500000920E-02 0.  1.
        2   -1    0    0  501    0  0.00000000000E+00  0.00000000000E+00 -0.81987962842E+03  0.81987962842E+03  0.25500000920E-02 0. -1.
    10030    2    1    2    0    0  0.00000000000E+00  0.00000000000E+00 -0.62032657208E+03  0.10194326848E+04  0.80897338816E+03 0.  0.
        3    1    3    3  502    0 -0.76765447430E+02 -0.17788219366E+02  0.18978703204E+03  0.20549569922E+03  0.10100000352E+00 0.  1.
       -3    1    3    3    0  502  0.76765447430E+02  0.17788219366E+02 -0.81011360412E+03  0.81393698555E+03  0.10100000352E+00 0. -1.
</event>
<event>
 5   0  0.3550586E-02  0.8049733E+03  0.7818609E-02  0.9552846E-01
        2   -1    0    0  501    0  0.00000000000E+00  0.00000000000E+00  0.17112291650E+04  0.17112291650E+04  0.25500000920E-02 0.  1.
       -2   -1    0    0    0  501  0.00000000000E+00  0.00000000000E+00 -0.94666155073E+02  0.94666155108E+02  0.25500000920E-02 0. -1.
    10030    2    1    2    0    0  0.00000000000E+00  0.00000000000E+00  0.16165630099E+04  0.18058953201E+04  0.80497325554E+03 0.  0.
        3    1    3    3  502    0 -0.32603216066E+03  0.21976966885E+03  0.61529761371E+03  0.73019643985E+03  0.10100000352E+00 0. -1.
       -3    1    3    3    0  502  0.32603216066E+03 -0.21976966885E+03  0.10012653962E+04  0.10756988803E+04  0.10100000352E+00 0.  1.
</event>
<event>
 5   0  0.2132540E-02  0.7991721E+03  0.7818609E-02  0.9561216E-01
       -1   -1    0    0    0  501  0.00000000000E+00  0.00000000000E+00  0.23678980408E+03  0.23678980414E+03  0.50400001928E-02 0. -1.
        1   -1    0    0  501    0  0.00000000000E+00  0.00000000000E+00 -0.67430698094E+03  0.67430698096E+03  0.50400001928E-02 0.  1.
    10030    2    1    2    0    0  0.00000000000E+00  0.00000000000E+00 -0.43751717686E+03  0.91109678509E+03  0.79917211648E+03 0.  0.
        4    1    3    3  502    0 -0.19549289965E+03 -0.28290390079E+03  0.13250325691E+02  0.34413554731E+03  0.12699999809E+01 0. -1.
       -4    1    3    3    0  502  0.19549289965E+03  0.28290390079E+03 -0.45076750255E+03  0.56696123778E+03  0.12699999809E+01 0.  1.
</event>
<event>
 5   0  0.2129257E-02  0.8055157E+03  0.7818609E-02  0.9552068E-01
       -1   -1    0    0    0  501  0.00000000000E+00  0.00000000000E+00  0.24948786976E+03  0.24948786981E+03  0.50400001928E-02 0.  1.
        1   -1    0    0  501    0  0.00000000000E+00  0.00000000000E+00 -0.65018742334E+03  0.65018742336E+03  0.50400001928E-02 0. -1.
    10030    2    1    2    0    0  0.00000000000E+00  0.00000000000E+00 -0.40069955357E+03  0.89967529317E+03  0.80551567390E+03 0.  0.
        3    1    3    3  502    0 -0.21241216273E+03 -0.26310120614E+03 -0.44472418899E+03  0.55867771213E+03  0.10100000352E+00 0. -1.
       -3    1    3    3    0  502  0.21241216273E+03  0.26310120614E+03  0.44024635420E+02  0.34099758104E+03  0.10100000352E+00 0.  1.
</event>
<event>
 5   0  0.2132540E-02  0.7999289E+03  0.7818609E-02  0.9560120E-01
       -1   -1    0    0    0  501  0.00000000000E+00  0.00000000000E+00  0.93626017285E+02  0.93626017421E+02  0.50400001928E-02 0. -1.
        1   -1    0    0  501    0  0.00000000000E+00  0.00000000000E+00 -0.17086230527E+04  0.17086230527E+04  0.50400001928E-02 0.  1.
    10030    2    1    2    0    0  0.00000000000E+00  0.00000000000E+00 -0.16149970354E+04  0.18022490701E+04  0.79992892583E+03 0.  0.
        4    1    3    3  502    0 -0.28985678348E+03  0.24280022971E+02 -0.14260044838E+04  0.14553682953E+04  0.12699999809E+01 0.  1.
       -4    1    3    3    0  502  0.28985678348E+03 -0.24280022971E+02 -0.18899255165E+03  0.34688077480E+03  0.12699999809E+01 0. -1.
</event>
<event>
 5   0  0.3404132E-02  0.8275008E+03  0.7818609E-02  0.9521042E-01
        2   -1    0    0  501    0  0.00000000000E+00  0.00000000000E+00  0.12538919863E+04  0.12538919863E+04  0.25500000920E-02 0. -1.
       -2   -1    0    0    0  501  0.00000000000E+00  0.00000000000E+00 -0.13652643998E+03  0.13652644000E+03  0.25500000920E-02 0.  1.
    10030    2    1    2    0    0  0.00000000000E+00  0.00000000000E+00  0.11173655463E+04  0.13904184263E+04  0.82750083752E+03 0.  0.
        5    1    3    3  502    0  0.26256849633E+03  0.30764104011E+03  0.70499198150E+03  0.81278595510E+03  0.46999998093E+01 0.  1.
       -5    1    3    3    0  502 -0.26256849633E+03 -0.30764104011E+03  0.41237356483E+03  0.57763247121E+03  0.46999998093E+01 0. -1.
</event>
<event>
 5   0  0.2132540E-02  0.7968009E+03  0.7818609E-02  0.9564659E-01
       -1   -1    0    0    0  501  0.00000000000E+00  0.00000000000E+00  0.18595215571E+03  0.18595215578E+03  0.50400001928E-02 0. -1.
        1   -1    0    0  501    0  0.00000000000E+00  0.00000000000E+00 -0.85356868985E+03  0.85356868986E+03  0.50400001928E-02 0.  1.
    10030    2    1    2    0    0  0.00000000000E+00  0.00000000000E+00 -0.66761653414E+03  0.10395208456E+04  0.79680094871E+03 0.  0.
        4    1    3    3  502    0  0.36465738548E+03  0.77511645016E+02 -0.51709785960E+03  0.63747539027E+03  0.12699999809E+01 0.  1.
       -4    1    3    3    0  502 -0.36465738548E+03 -0.77511645016E+02 -0.15051867454E+03  0.40204545537E+03  0.12699999809E+01 0. -1.
</event>
<event>
 5   0  0.1358000E-02  0.8018896E+03  0.7818609E-02  0.9557286E-01
       -3   -1    0    0    0  501  0.00000000000E+00  0.00000000000E+00  0.31440024328E+03  0.31440025950E+03  0.10100000352E+00 0. -1.
        3   -1    0    0  501    0  0.00000000000E+00  0.00000000000E+00 -0.51131235719E+03  0.51131236716E+03  0.10100000352E+00 0.  1.
    10030    2    1    2    0    0  0.00000000000E+00  0.00000000000E+00 -0.19691211391E+03  0.82571262666E+03  0.80188961910E+03 0.  0.
        4    1    3    3  502    0 -0.83360949252E+02  0.22175654641E+02 -0.50164229031E+03  0.50900629450E+03  0.12699999809E+01 0.  1.
       -4    1    3    3    0  502  0.83360949252E+02 -0.22175654641E+02  0.30473017640E+03  0.31670633216E+03  0.12699999809E+01 0. -1.
</event>
<event>
 5   0  0.2063692E-02  0.8253257E+03  0.7818609E-02  0.9524066E-01
        1   -1    0    0  501    0  0.00000000000E+00  0.00000000000E+00  0.85827421595E+03  0.85827421597E+03  0.50400001928E-02 0.  1.
       -1   -1    0    0    0  501  0.00000000000E+00  0.00000000000E+00 -0.19841050330E+03  0.19841050336E+03  0.50400001928E-02 0. -1.
    10030    2    1    2    0    0  0.00000000000E+00  0.00000000000E+00  0.65986371266E+03  0.10566847193E+04  0.82532567922E+03 0.  0.
        2    1    3    3  502    0 -0.55555757648E+02  0.40764835919E+03  0.37096205778E+03  0.55396432671E+03  0.25500000920E-02 0. -1.
       -2    1    3    3    0  502  0.55555757648E+02 -0.40764835919E+03  0.28890165488E+03  0.50272039262E+03  0.25500000920E-02 0.  1.
</event>
<event>
 5   0  0.2077795E-02  0.8074461E+03  0.7818609E-02  0.9549301E-01
       -1   -1    0    0    0  501  0.00000000000E+00  0.00000000000E+00  0.23395117123E+03  0.23395117128E+03  0.50400001928E-02 0.  1.
        1   -1    0    0  501    0  0.00000000000E+00  0.00000000000E+00 -0.69669361410E+03  0.69669361412E+03  0.50400001928E-02 0. -1.
    10030    2    1    2    0    0  0.00000000000E+00  0.00000000000E+00 -0.46274244288E+03  0.93064478540E+03  0.80744606517E+03 0.  0.
        5    1    3    3  502    0  0.10663887538E+03  0.38878731726E+03 -0.20711857456E+03  0.45326330288E+03  0.46999998093E+01 0.  1.
       -5    1    3    3    0  502 -0.10663887538E+03 -0.38878731726E+03 -0.25562386832E+03  0.47738148253E+03  0.46999998093E+01 0. -1.
</event>
<event>
 5   0  0.3467240E-02  0.8143787E+03  0.7818609E-02  0.9539435E-01
        2   -1    0    0  501    0  0.00000000000E+00  0.00000000000E+00  0.12220847478E+04  0.12220847478E+04  0.25500000920E-02 0.  1.
       -2   -1    0    0    0  501  0.00000000000E+00  0.00000000000E+00 -0.13567240615E+03  0.13567240617E+03  0.25500000920E-02 0. -1.
    10030    2    1    2    0    0  0.00000000000E+00  0.00000000000E+00  0.10864123416E+04  0.13577571539E+04  0.81437872826E+03 0.  0.
        2    1    3    3  502    0  0.12542997578E+03  0.31481698619E+03  0.91957499849E+03  0.98003091353E+03  0.25500000920E-02 0. -1.
       -2    1    3    3    0  502 -0.12542997578E+03 -0.31481698619E+03  0.16683734312E+03  0.37772624040E+03  0.25500000920E-02 0.  1.
</event>
<event>
 5   0  0.3343036E-02  0.9000077E+03  0.7818609E-02  0.9425572E-01
       -2   -1    0    0    0  501  0.00000000000E+00  0.00000000000E+00  0.18093765057E+03  0.18093765058E+03  0.25500000920E-02 0. -1.
        2   -1    0    0  501    0  0.00000000000E+00  0.00000000000E+00 -0.11191892894E+04  0.11191892894E+04  0.25500000920E-02 0.  1.
    10030    2    1    2    0    0  0.00000000000E+00  0.00000000000E+00 -0.93825163880E+03  0.13001269400E+04  0.90000773457E+03 0.  0.
        4    1    3    3  502    0 -0.52166632233E+02  0.97645100812E+02 -0.10992080318E+04  0.11047695838E+04  0.12699999809E+01 0.  1.
       -4    1    3    3    0  502  0.52166632233E+02 -0.97645100812E+02  0.16095639303E+03  0.19535735612E+03  0.12699999809E+01 0. -1.
</event>
<event>
 5   0  0.3550586E-02  0.7449446E+03  0.7818609E-02  0.9643315E-01
        2   -1    0    0  501    0  0.00000000000E+00  0.00000000000E+00  0.20505694671E+04  0.20505694671E+04  0.25500000920E-02 0.  1.
       -2   -1    0    0    0  501  0.00000000000E+00  0.00000000000E+00 -0.67657107545E+02  0.67657107593E+02  0.25500000920E-02 0. -1.
    10030    2    1    2    0    0  0.00000000000E+00  0.00000000000E+00  0.19829123595E+04  0.21182265746E+04  0.74494455905E+03 0.  0.
        3    1    3    3  502    0  0.47530731575E+02 -0.33777434372E+03  0.56602810470E+03  0.66086193962E+03  0.10100000352E+00 0. -1.
       -3    1    3    3    0  502 -0.47530731575E+02  0.33777434372E+03  0.14168842548E+04  0.14573646350E+04  0.10100000352E+00 0.  1.
</event>
<event>
 5   0  0.2132540E-02  0.8097070E+03  0.7818609E-02  0.9546072E-01
       -1   -1    0    0    0  501  0.00000000000E+00  0.00000000000E+00  0.23192876342E+03  0.23192876348E+03  0.50400001928E-02 0. -1.
        1   -1    0    0  501    0  0.00000000000E+00  0.00000000000E+00 -0.70670995270E+03  0.70670995272E+03  0.50400001928E-02 0.  1.
    10030    2    1    2    0    0  0.00000000000E+00  0.00000000000E+00 -0.47478118927E+03  0.93863871619E+03  0.80970702223E+03 0.  0.
        4    1    3    3  502    0  0.24436910441E+03 -0.20369603554E+03 -0.52765375814E+03  0.61613994795E+03  0.12699999809E+01 0.  1.
       -4    1    3    3    0  502 -0.24436910441E+03  0.20369603554E+03  0.52872568865E+02  0.32249876825E+03  0.12699999809E+01 0. -1.
</event>
<event>
 5   0  0.2129257E-02  0.7827026E+03  0.7818609E-02  0.9585397E-01
       -1   -1    0    0    0  501  0.00000000000E+00  0.00000000000E+00  0.12005564450E+03  0.12005564461E+03  0.50400001928E-02 0.  1.
        1   -1    0    0  501    0  0.00000000000E+00  0.00000000000E+00 -0.12757071626E+04  0.12757071626E+04  0.50400001928E-02 0. -1.
    10030    2    1    2    0    0  0.00000000000E+00  0.00000000000E+00 -0.11556515181E+04  0.13957628072E+04  0.78270261449E+03 0.  0.
        3    1    3    3  502    0 -0.84522552597E+02 -0.28376069947E+03 -0.12146555387E+03  0.32002826037E+03  0.10100000352E+00 0.  1.
       -3    1    3    3    0  502  0.84522552597E+02  0.28376069947E+03 -0.10341859642E+04  0.10757345468E+04  0.10100000352E+00 0. -1.
</event>
<event>
 5   0  0.2077795E-02  0.8486469E+03  0.7818609E-02  0.9492155E-01
       -1   -1    0    0    0  501  0.00000000000E+00  0.00000000000E+00  0.51535303126E+03  0.51535303129E+03  0.50400001928E-02 0.  1.
        1   -1    0    0  501    0  0.00000000000E+00  0.00000000000E+00 -0.34937290911E+03  0.34937290915E+03  0.50400001928E-02 0. -1.
    10030    2    1    2    0    0  0.00000000000E+00  0.00000000000E+00  0.16598012215E+03  0.86472594044E+03  0.84864689425E+03 0.  0.
        5    1    3    3  502    0 -0.24959492403E+02  0.36644841615E+03 -0.13345129231E+03  0.39081805917E+03  0.46999998093E+01 0. -1.
       -5    1    3    3    0  502  0.24959492403E+02 -0.36644841615E+03  0.29943141446E+03  0.47390788126E+03  0.46999998093E+01 0.  1.
</event>
<event>
 5   0  0.2077795E-02  0.8094554E+03  0.7818609E-02  0.9546431E-01
        1   -1    0    0  501    0  0.00000000000E+00  0.00000000000E+00  0.10231814068E+04  0.10231814068E+04  0.50400001928E-02 0. -1.
       -1   -1    0    0    0  501  0.00000000000E+00  0.00000000000E+00 -0.16009333837E+03  0.16009333845E+03  0.50400001928E-02 0.  1.
    10030    2    1    2    0    0  0.00000000000E+00  0.00000000000E+00  0.86308806843E+03  0.11832747453E+04  0.80945543973E+03 0.  0.
        5    1    3    3  502    0  0.22920003307E+03  0.14574138007E+03  0.87011126441E+03  0.91153107872E+03  0.46999998093E+01 0. -1.
       -5    1    3    3    0  502 -0.22920003307E+03 -0.14574138007E+03 -0.70231959733E+01  0.27174366654E+03  0.46999998093E+01 0.  1.
</event>
<event>
 5   0  0.3467240E-02  0.8040740E+03  0.7818609E-02  0.9554139E-01
        2   -1    0    0  501    0  0.00000000000E+00  0.00000000000E+00  0.20969692496E+04  0.20969692496E+04  0.25500000920E-02 0. -1.
       -2   -1    0    0    0  501  0.00000000000E+00  0.00000000000E+00 -0.77079694108E+02  0.77079694150E+02  0.25500000920E-02 0.  1.
    10030    2    1    2    0    0  0.00000000000E+00  0.00000000000E+00  0.20198895555E+04  0.21740489438E+04  0.80407399749E+03 0.  0.
        2    1    3    3  502    0  0.12480252350E+03  0.15998655560E+03  0.71520964799E+02  0.21514324591E+03  0.25500000920E-02 0.  1.
       -2    1    3    3    0  502 -0.12480252350E+03 -0.15998655560E+03  0.19483685907E+04  0.19589056979E+04  0.25500000920E-02 0. -1.
</event>
<event>
 5   0  0.3467240E-02  0.7951154E+03  0.7818609E-02  0.9567114E-01
       -2   -1    0    0    0  501  0.00000000000E+00  0.00000000000E+00  0.16255397681E+03  0.16255397683E+03  0.25500000920E-02 0. -1.
        2   -1    0    0  501    0  0.00000000000E+00  0.00000000000E+00 -0.97230548599E+03  0.97230548599E+03  0.25500000920E-02 0.  1.
    10030    2    1    2    0    0  0.00000000000E+00  0.00000000000E+00 -0.80975150918E+03  0.11348594628E+04  0.79511539649E+03 0.  0.
        2    1    3    3  502    0  0.34310838361E+03  0.89522358978E+02 -0.66144860120E+03  0.75050107775E+03  0.25500000920E-02 0.  1.
       -2    1    3    3    0  502 -0.34310838361E+03 -0.89522358978E+02 -0.14830290798E+03  0.38435838508E+03  0.25500000920E-02 0. -1.
</event>
<event>
 5   0  0.2129257E-02  0.8007865E+03  0.7818609E-02  0.9558879E-01
       -1   -1    0    0    0  501  0.00000000000E+00  0.00000000000E+00  0.14279744488E+03  0.14279744497E+03  0.50400001928E-02 0. -1.
        1   -1    0    0  501    0  0.00000000000E+00  0.00000000000E+00 -0.11226723113E+04  0.11226723113E+04  0.50400001928E-02 0.  1.
    10030    2    1    2    0    0  0.00000000000E+00  0.00000000000E+00 -0.97987486638E+03  0.12654697562E+04  0.80078645729E+03 0.  0.
        3    1    3    3  502    0 -0.32275795750E+03 -0.95549781232E+02 -0.14729539097E+03  0.36742128711E+03  0.10100000352E+00 0.  1.
       -3    1    3    3    0  502  0.32275795750E+03  0.95549781232E+02 -0.83257947541E+03  0.89804846912E+03  0.10100000352E+00 0. -1.
</event>
<event>
 5   0  0.1989298E-02  0.7927736E+03  0.7818609E-02  0.9570536E-01
       -1   -1    0    0    0  501  0.00000000000E+00  0.00000000000E+00  0.40114385581E+03  0.40114385584E+03  0.50400001928E-02 0.  1.
        1   -1    0    0  501    0  0.00000000000E+00  0.00000000000E+00 -0.39168619229E+03  0.39168619232E+03  0.50400001928E-02 0. -1.
    10030    2    1    2    0    0  0.00000000000E+00  0.00000000000E+00  0.94576635237E+01  0.79283004817E+03  0.79277363596E+03 0.  0.
        1    1    3    3  502    0  0.17635221175E+03  0.23967196290E+03  0.26662483670E+03  0.39953917950E+03  0.50400001928E-02 0.  1.
       -1    1    3    3    0  502 -0.17635221175E+03 -0.23967196290E+03 -0.25716717317E+03  0.39329086866E+03  0.50400001928E-02 0. -1.
</event>
<event>
 5   0  0.3416160E-02  0.7898281E+03  0.7818609E-02  0.9574858E-01
        2   -1    0    0  501    0  0.00000000000E+00  0.00000000000E+00  0.52274999642E+03  0.52274999643E+03  0.25500000920E-02 0. -1.
       -2   -1    0    0    0  501  0.00000000000E+00  0.00000000000E+00 -0.29833978039E+03  0.29833978040E+03  0.25500000920E-02 0.  1.
    10030    2    1    2    0    0  0.00000000000E+00  0.00000000000E+00  0.22441021603E+03  0.82108977683E+03  0.78982813102E+03 0.  0.
        1    1    3    3  502    0  0.34459483616E+03  0.40562594175E+02  0.30825957567E+03  0.46412809781E+03  0.50400001928E-02 0. -1.
       -1    1    3    3    0  502 -0.34459483616E+03 -0.40562594175E+02 -0.83849359641E+02  0.35696167902E+03  0.50400001928E-02 0.  1.
</event>
<event>
 5   0  0.3404132E-02  0.6025886E+03  0.7818609E-02  0.9900050E-01
        2   -1    0    0  501    0  0.00000000000E+00  0.00000000000E+00  0.12085994230E+03  0.12085994233E+03  0.25500000920E-02 0. -1.
       -2   -1    0    0    0  501  0.00000000000E+00  0.00000000000E+00 -0.75110300346E+03  0.75110300346E+03  0.25500000920E-02 0.  1.
    10030    2    1    2    0    0  0.00000000000E+00  0.00000000000E+00 -0.63024306116E+03  0.87196294579E+03  0.60258863472E+03 0.  0.
        5    1    3    3  502    0 -0.23059943455E+03  0.17082694713E+03 -0.44772991718E+03  0.53182902686E+03  0.46999998093E+01 0. -1.
       -5    1    3    3    0  502  0.23059943455E+03 -0.17082694713E+03 -0.18251314398E+03  0.34013391893E+03  0.46999998093E+01 0.  1.
</event>
<event>
 5   0  0.2063692E-02  0.8096815E+03  0.7818609E-02  0.9546108E-01
        1   -1    0    0  501    0  0.00000000000E+00  0.00000000000E+00  0.11206765321E+04  0.11206765321E+04  0.50400001928E-02 0.  1.
       -1   -1    0    0    0  501  0.00000000000E+00  0.00000000000E+00 -0.14624738851E+03  0.14624738859E+03  0.50400001928E-02 0. -1.
    10030    2    1    2    0    0  0.00000000000E+00  0.00000000000E+00  0.97442914360E+03  0.12669239207E+04  0.80968145896E+03 0.  0.
        2    1    3    3  502    0  0.12574534409E+03 -0.28736350903E+03  0.88769196354E+03  0.94148112037E+03  0.25500000920E-02 0.  1.
       -2    1    3    3    0  502 -0.12574534409E+03  0.28736350903E+03  0.86737180064E+02  0.32544280034E+03  0.25500000920E-02 0. -1.
</event>
<event>
 5   0  0.2063692E-02  0.5479962E+03  0.7818609E-02  0.1001959E+00
       -1   -1    0    0    0  501  0.00000000000E+00  0.00000000000E+00  0.18748172149E+03  0.18748172155E+03  0.50400001928E-02 0. -1.
        1   -1    0    0  501    0  0.00000000000E+00  0.00000000000E+00 -0.40043875185E+03  0.40043875188E+03  0.50400001928E-02 0.  1.
    10030    2    1    2    0    0  0.00000000000E+00  0.00000000000E+00 -0.21295703036E+03  0.58792047343E+03  0.54799615537E+03 0.  0.
        2    1    3    3  502    0  0.13425720306E+03  0.11096429439E+03 -0.33339910114E+03  0.37615559527E+03  0.25500000920E-02 0.  1.
       -2    1    3    3    0  502 -0.13425720306E+03 -0.11096429439E+03  0.12044207078E+03  0.21176487816E+03  0.25500000920E-02 0. -1.
</event>
<event>
 5   0  0.2129257E-02  0.7609730E+03  0.7818609E-02  0.9618291E-01
       -1   -1    0    0    0  501  0.00000000000E+00  0.00000000000E+00  0.89588944107E+02  0.89588944249E+02  0.50400001928E-02 0.  1.
        1   -1    0    0  501    0  0.00000000000E+00  0.00000000000E+00 -0.16159359120E+04  0.16159359120E+04  0.50400001928E-02 0. -1.
    10030    2    1    2    0    0  0.00000000000E+00  0.00000000000E+00 -0.15263469679E+04  0.17055248563E+04  0.76097304086E+03 0.  0.
        3    1    3    3  502    0 -0.21045956165E+03 -0.10450152899E+03 -0.92460713726E+02  0.25251295103E+03  0.10100000352E+00 0.  1.
       -3    1    3    3    0  502  0.21045956165E+03  0.10450152899E+03 -0.14338862542E+04  0.14530119052E+04  0.10100000352E+00 0. -1.
</event>
<event>
 5   0  0.3550586E-02  0.8010619E+03  0.7818609E-02  0.9558481E-01
       -2   -1    0    0    0  501  0.00000000000E+00  0.00000000000E+00  0.21812064554E+03  0.21812064555E+03  0.25500000920E-02 0. -1.
        2   -1    0    0  501    0  0.00000000000E+00  0.00000000000E+00 -0.73548762616E+03  0.73548762617E+03  0.25500000920E-02 0.  1.
    10030    2    1    2    0    0  0.00000000000E+00  0.00000000000E+00 -0.51736698063E+03  0.95360827172E+03  0.80106188478E+03 0.  0.
        3    1    3    3  502    0 -0.20677625198E+03  0.28899229277E+03 -0.47867828557E+03  0.59615926978E+03  0.10100000352E+00 0.  1.
       -3    1    3    3    0  502  0.20677625198E+03 -0.28899229277E+03 -0.38688695057E+02  0.35744900194E+03  0.10100000352E+00 0. -1.
</event>
<event>
 5   0  0.2077795E-02  0.6452822E+03  0.7818609E-02  0.9815672E-01
       -1   -1    0    0    0  501  0.00000000000E+00  0.00000000000E+00  0.21444219552E+03  0.21444219558E+03  0.50400001928E-02 0. -1.
        1   -1    0    0  501    0  0.00000000000E+00  0.00000000000E+00 -0.48543285887E+03  0.48543285890E+03  0.50400001928E-02 0.  1.
    10030    2    1    2    0    0  0.00000000000E+00  0.00000000000E+00 -0.27099066335E+03  0.69987505448E+03  0.64528222683E+03 0.  0.
        5    1    3    3  502    0  0.30269957341E+02 -0.21893966737E+03 -0.39037554184E+03  0.44862679582E+03  0.46999998093E+01 0.  1.
       -5    1    3    3    0  502 -0.30269957341E+02  0.21893966737E+03  0.11938487849E+03  0.25124825866E+03  0.46999998093E+01 0. -1.
</event>
<event>
 5   0  0.2063692E-02  0.7939382E+03  0.7818609E-02  0.9568833E-01
        1   -1    0    0  501    0  0.00000000000E+00  0.00000000000E+00  0.10150174846E+04  0.10150174846E+04  0.50400001928E-02 0. -1.
       -1   -1    0    0    0  501  0.00000000000E+00  0.00000000000E+00 -0.15525297618E+03  0.15525297626E+03  0.50400001928E-02 0.  1.
    10030    2    1    2    0    0  0.00000000000E+00  0.00000000000E+00  0.85976450840E+03  0.11702704609E+04  0.79393824800E+03 0.  0.
        2    1    3    3  502    0  0.35986324711E+03  0.86643189196E+02  0.21844632108E+03  0.42979924855E+03  0.25500000920E-02 0.  1.
       -2    1    3    3    0  502 -0.35986324711E+03 -0.86643189196E+02  0.64131818732E+03  0.74047121230E+03  0.25500000920E-02 0. -1.
</event>
<event>
 5   0  0.3550586E-02  0.8157146E+03  0.7818609E-02  0.9537545E-01
        2   -1    0    0  501    0  0.00000000000E+00  0.00000000000E+00  0.10744961133E+04  0.10744961133E+04  0.25500000920E-02 0.  1.
       -2   -1    0    0    0  501  0.00000000000E+00  0.00000000000E+00 -0.15481448952E+03  0.15481448954E+03  0.25500000920E-02 0. -1.
    10030    2    1    2    0    0  0.00000000000E+00  0.00000000000E+00  0.91968162373E+03  0.12293106028E+04  0.81571457577E+03 0.  0.
        3    1    3    3  502    0 -0.22644653601E+03  0.29865685393E+03  0.21743005170E+03  0.43330103584E+03  0.10100000352E+00 0. -1.
       -3    1    3    3    0  502  0.22644653601E+03 -0.29865685393E+03  0.70225157203E+03  0.79600956696E+03  0.10100000352E+00 0.  1.
</event>
<event>
 5   0  0.3404132E-02  0.8212006E+03  0.7818609E-02  0.9529827E-01
        2   -1    0    0  501    0  0.00000000000E+00  0.00000000000E+00  0.15656421312E+04  0.15656421312E+04  0.25500000920E-02 0.  1.
       -2   -1    0    0    0  501  0.00000000000E+00  0.00000000000E+00 -0.10768272319E+03  0.10768272322E+03  0.25500000920E-02 0. -1.
    10030    2    1    2    0    0  0.00000000000E+00  0.00000000000E+00  0.14579594080E+04  0.16733248544E+04  0.82120060461E+03 0.  0.
        5    1    3    3  502    0  0.85632053412E+02  0.36140014755E+03  0.10855847680E+04  0.11473706000E+04  0.46999998093E+01 0.  1.
       -5    1    3    3    0  502 -0.85632053412E+02 -0.36140014755E+03  0.37237464000E+03  0.52595425441E+03  0.46999998093E+01 0. -1.
</event>
<event>
 5   0  0.3404132E-02  0.7995510E+03  0.7818609E-02  0.9560667E-01
       -2   -1    0    0    0  501  0.00000000000E+00  0.00000000000E+00  0.10287076574E+03  0.10287076577E+03  0.25500000920E-02 0. -1.
        2   -1    0    0  501    0  0.00000000000E+00  0.00000000000E+00 -0.15536041324E+04  0.15536041324E+04  0.25500000920E-02 0.  1.
    10030    2    1    2    0    0  0.00000000000E+00  0.00000000000E+00 -0.14507333667E+04  0.16564748982E+04  0.79955099097E+03 0.  0.
        5    1    3    3  502    0  0.11258800988E+03 -0.80145178794E+02  0.51746490543E+02  0.14764517917E+03  0.46999998093E+01 0. -1.
       -5    1    3    3    0  502 -0.11258800988E+03  0.80145178794E+02 -0.15024798572E+04  0.15088297190E+04  0.46999998093E+01 0.  1.
</event>
<event>
 5   0  0.3404132E-02  0.8004836E+03  0.7818609E-02  0.9559317E-01
       -2   -1    0    0    0  501  0.00000000000E+00  0.00000000000E+00  0.21290649795E+03  0.21290649797E+03  0.25500000920E-02 0.  1.
        2   -1    0    0  501    0  0.00000000000E+00  0.00000000000E+00 -0.75241251265E+03  0.75241251266E+03  0.25500000920E-02 0. -1.
    10030    2    1    2    0    0  0.00000000000E+00  0.00000000000E+00 -0.53950601470E+03  0.96531901062E+03  0.80048363654E+03 0.  0.
        5    1    3    3  502    0  0.12760703860E+03  0.32725493506E+03 -0.38442406233E+02  0.35338259354E+03  0.46999998093E+01 0.  1.
       -5    1    3    3    0  502 -0.12760703860E+03 -0.32725493506E+03 -0.50106360847E+03  0.61193641708E+03  0.46999998093E+01 0. -1.
</event>
<event>
 5   0  0.3467240E-02  0.8114528E+03  0.7818609E-02  0.9543586E-01
        2   -1    0    0  501    0  0.00000000000E+00  0.00000000000E+00  0.19866821623E+04  0.19866821623E+04  0.25500000920E-02 0. -1.
       -2   -1    0    0    0  501  0.00000000000E+00  0.00000000000E+00 -0.82858701833E+02  0.82858701872E+02  0.25500000920E-02 0.  1.
    10030    2    1    2    0    0  0.00000000000E+00  0.00000000000E+00  0.19038234605E+04  0.20695408642E+04  0.81145278351E+03 0.  0.
        2    1    3    3  502    0 -0.13616551204E+03  0.32442955326E+02 -0.19325162442E+02  0.14130482628E+03  0.25500000920E-02 0.  1.
       -2    1    3    3    0  502  0.13616551204E+03 -0.32442955326E+02  0.19231486229E+04  0.19282360379E+04  0.25500000920E-02 0. -1.
</event>
<event>
 5   0  0.3343036E-02  0.7880854E+03  0.7818609E-02  0.9577425E-01
        2   -1    0    0  501    0  0.00000000000E+00  0.00000000000E+00  0.18201539721E+04  0.18201539721E+04  0.25500000920E-02 0.  1.
       -2   -1    0    0    0  501  0.00000000000E+00  0.00000000000E+00 -0.85305783021E+02  0.85305783059E+02  0.25500000920E-02 0. -1.
    10030    2    1    2    0    0  0.00000000000E+00  0.00000000000E+00  0.17348481891E+04  0.19054597552E+04  0.78808542646E+03 0.  0.
        4    1    3    3  502    0  0.32247650454E+03 -0.22386636060E+03  0.78504711766E+03  0.87772879253E+03  0.12699999809E+01 0.  1.
       -4    1    3    3    0  502 -0.32247650454E+03  0.22386636060E+03  0.94980107144E+03  0.10277309626E+04  0.12699999809E+01 0. -1.
</event>
<event>
 5   0  0.3550586E-02  0.7674890E+03  0.7818609E-02  0.9608305E-01
       -2   -1    0    0    0  501  0.00000000000E+00  0.00000000000E+00  0.27131443065E+03  0.27131443066E+03  0.25500000920E-02 0. -1.
        2   -1    0    0  501    0  0.00000000000E+00  0.00000000000E+00 -0.54276452231E+03  0.54276452231E+03  0.25500000920E-02 0.  1.
    10030    2    1    2    0    0  0.00000000000E+00  0.00000000000E+00 -0.27145009166E+03  0.81407895298E+03  0.76748901583E+03 0.  0.
        3    1    3    3  502    0 -0.29344612299E+03  0.35686464119E+01  0.12654250145E+03  0.31958782393E+03  0.10100000352E+00 0. -1.
       -3    1    3    3    0  502  0.29344612299E+03 -0.35686464119E+01 -0.39799259311E+03  0.49449112904E+03  0.10100000352E+00 0.  1.
</event>
<event>
 5   0  0.3404132E-02  0.7967717E+03  0.7818609E-02  0.9564702E-01
       -2   -1    0    0    0  501  0.00000000000E+00  0.00000000000E+00  0.85724333132E+02  0.85724333170E+02  0.25500000920E-02 0.  1.
        2   -1    0    0  501    0  0.00000000000E+00  0.00000000000E+00 -0.18514147687E+04  0.18514147687E+04  0.25500000920E-02 0. -1.
    10030    2    1    2    0    0  0.00000000000E+00  0.00000000000E+00 -0.17656904355E+04  0.19371391018E+04  0.79677172750E+03 0.  0.
        5    1    3    3  502    0  0.34500462324E+03 -0.99409040966E+02 -0.13023925063E+04  0.13509843367E+04  0.46999998093E+01 0.  1.
       -5    1    3    3    0  502 -0.34500462324E+03  0.99409040966E+02 -0.46329792920E+03  0.58615476513E+03  0.46999998093E+01 0. -1.
</event>
<event>
 5   0  0.3416160E-02  0.7750088E+03  0.7818609E-02  0.9596912E-01
        2   -1    0    0  501    0  0.00000000000E+00  0.00000000000E+00  0.19920024125E+04  0.19920024125E+04  0.25500000920E-02 0. -1.
       -2   -1    0    0    0  501  0.00000000000E+00  0.00000000000E+00 -0.75381258710E+02  0.75381258754E+02  0.25500000920E-02 0.  1.
    10030    2    1    2    0    0  0.00000000000E+00  0.00000000000E+00  0.19166211538E+04  0.20673836712E+04  0.77500877221E+03 0.  0.
        1    1    3    3  502    0 -0.87035502169E+02  0.79910248130E+02 -0.26156372431E+02  0.12101645441E+03  0.50400001928E-02 0.  1.
       -1    1    3    3    0  502  0.87035502169E+02 -0.79910248130E+02  0.19427775262E+04  0.19463672168E+04  0.50400001928E-02 0. -1.
</event>
<event>
 5   0  0.1358000E-02  0.8123260E+03  0.7818609E-02  0.9542345E-01
        3   -1    0    0  501    0  0.00000000000E+00  0.00000000000E+00  0.23958374168E+04  0.23958374190E+04  0.10100000352E+00 0.  1.
       -3   -1    0    0    0  501  0.00000000000E+00  0.00000000000E+00 -0.68856212381E+02  0.68856286455E+02  0.10100000352E+00 0. -1.
    10030    2    1    2    0    0  0.00000000000E+00  0.00000000000E+00  0.23269812045E+04  0.24646937054E+04  0.81232600331E+03 0.  0.
        2    1    3    3  502    0  0.17156902371E+03 -0.19785653095E+03  0.21054623623E+04  0.21216868044E+04  0.25500000920E-02 0.  1.
       -2    1    3    3    0  502 -0.17156902371E+03  0.19785653095E+03  0.22151884215E+03  0.34300690106E+03  0.25500000920E-02 0. -1.
</event>
<event>
 5   0  0.3416160E-02  0.8351324E+03  0.7818609E-02  0.9510512E-01
        2   -1    0    0  501    0  0.00000000000E+00  0.00000000000E+00  0.36095199868E+03  0.36095199869E+03  0.25500000920E-02 0.  1.
       -2   -1    0    0    0  501  0.00000000000E+00  0.00000000000E+00 -0.48306012729E+03  0.48306012730E+03  0.25500000920E-02 0. -1.
    10030    2    1    2    0    0  0.00000000000E+00  0.00000000000E+00 -0.12210812861E+03  0.84401212599E+03  0.83513236900E+03 0.  0.
        1    1    3    3  502    0  0.39385272481E+03  0.98529616022E+02 -0.15973170165E+03  0.43628232901E+03  0.50400001928E-02 0. -1.
       -1    1    3    3    0  502 -0.39385272481E+03 -0.98529616022E+02  0.37623573042E+02  0.40772979698E+03  0.50400001928E-02 0.  1.
</event>
<event>
 5   0  0.2063692E-02  0.7977899E+03  0.7818609E-02  0.9563222E-01
        1   -1    0    0  501    0  0.00000000000E+00  0.00000000000E+00  0.45482992101E+03  0.45482992104E+03  0.50400001928E-02 0. -1.
       -1   -1    0    0    0  501  0.00000000000E+00  0.00000000000E+00 -0.34983889411E+03  0.34983889414E+03  0.50400001928E-02 0.  1.
    10030    2    1    2    0    0  0.00000000000E+00  0.00000000000E+00  0.10499102691E+03  0.80466881518E+03  0.79778993877E+03 0.  0.
        2    1    3    3  502    0  0.21404403539E+02 -0.19710238839E+03  0.40161540971E+03  0.44788663446E+03  0.25500000920E-02 0. -1.
       -2    1    3    3    0  502 -0.21404403539E+02  0.19710238839E+03 -0.29662438281E+03  0.35678218073E+03  0.25500000920E-02 0.  1.
</event>
<event>
 5   0  0.3550586E-02  0.8205908E+03  0.7818609E-02  0.9530682E-01
       -2   -1    0    0    0  501  0.00000000000E+00  0.00000000000E+00  0.11943467701E+03  0.11943467704E+03  0.25500000920E-02 0.  1.
        2   -1    0    0  501    0  0.00000000000E+00  0.00000000000E+00 -0.14094927800E+04  0.14094927800E+04  0.25500000920E-02 0. -1.
    10030    2    1    2    0    0  0.00000000000E+00  0.00000000000E+00 -0.12900581030E+04  0.15289274571E+04  0.82059079925E+03 0.  0.
        3    1    3    3  502    0  0.42050629368E+02  0.20266549441E+03 -0.13050890159E+04  0.13214003586E+04  0.10100000352E+00 0. -1.
       -3    1    3    3    0  502 -0.42050629368E+02 -0.20266549441E+03  0.15030912899E+02  0.20752709847E+03  0.10100000352E+00 0.  1.
</event>
<event>
 5   0  0.2132540E-02  0.7927755E+03  0.7818609E-02  0.9570534E-01
       -1   -1    0    0    0  501  0.00000000000E+00  0.00000000000E+00  0.14208668552E+03  0.14208668561E+03  0.50400001928E-02 0. -1.
        1   -1    0    0  501    0  0.00000000000E+00  0.00000000000E+00 -0.11058266877E+04  0.11058266878E+04  0.50400001928E-02 0.  1.
    10030    2    1    2    0    0  0.00000000000E+00  0.00000000000E+00 -0.96374000222E+03  0.12479133734E+04  0.79277550135E+03 0.  0.
        4    1    3    3  502    0  0.14268243630E+03  0.34830680529E+03 -0.67750133030E+03  0.77503907882E+03  0.12699999809E+01 0.  1.
       -4    1    3    3    0  502 -0.14268243630E+03 -0.34830680529E+03 -0.28623867192E+03  0.47287429454E+03  0.12699999809E+01 0. -1.
</event>
<event>
 5   0  0.1989298E-02  0.8019693E+03  0.7818609E-02  0.9557171E-01
        1   -1    0    0  501    0  0.00000000000E+00  0.00000000000E+00  0.71695620450E+03  0.71695620452E+03  0.50400001928E-02 0. -1.
       -1   -1    0    0    0  501  0.00000000000E+00  0.00000000000E+00 -0.22426569946E+03  0.22426569951E+03  0.50400001928E-02 0.  1.
    10030    2    1    2    0    0  0.00000000000E+00  0.00000000000E+00  0.49269050505E+03  0.94122190403E+03  0.80196928798E+03 0.  0.
        1    1    3    3  502    0  0.18705473132E+02  0.39748493292E+03  0.30437235894E+03  0.50098572787E+03  0.50400001928E-02 0. -1.
       -1    1    3    3    0  502 -0.18705473132E+02 -0.39748493292E+03  0.18831814611E+03  0.44023617616E+03  0.50400001928E-02 0.  1.
</event>
<event>
 5   0  0.2077795E-02  0.8188666E+03  0.7818609E-02  0.9533103E-01
       -1   -1    0    0    0  501  0.00000000000E+00  0.00000000000E+00  0.13182050123E+03  0.13182050132E+03  0.50400001928E-02 0.  1.
        1   -1    0    0  501    0  0.00000000000E+00  0.00000000000E+00 -0.12716963126E+04  0.12716963126E+04  0.50400001928E-02 0. -1.
    10030    2    1    2    0    0  0.00000000000E+00  0.00000000000E+00 -0.11398758114E+04  0.14035168139E+04  0.81886664459E+03 0.  0.
        5    1    3    3  502    0  0.11112359425E+03  0.12858018703E+03 -0.12083382821E+04  0.12202396533E+04  0.46999998093E+01 0. -1.
       -5    1    3    3    0  502 -0.11112359425E+03 -0.12858018703E+03  0.68462470700E+02  0.18327716058E+03  0.46999998093E+01 0.  1.
</event>
<event>
 5   0  0.3343036E-02  0.7931131E+03  0.7818609E-02  0.9570039E-01
       -2   -1    0    0    0  501  0.00000000000E+00  0.00000000000E+00  0.39851368801E+03  0.39851368801E+03  0.25500000920E-02 0. -1.
        2   -1    0    0  501    0  0.00000000000E+00  0.00000000000E+00 -0.39460899471E+03  0.39460899472E+03  0.25500000920E-02 0.  1.
    10030    2    1    2    0    0  0.00000000000E+00  0.00000000000E+00  0.39046932940E+01  0.79312268273E+03  0.79311307090E+03 0.  0.
        4    1    3    3  502    0 -0.24460907999E+02  0.39365147940E+03  0.43131112503E+02  0.39676407224E+03  0.12699999809E+01 0. -1.
       -4    1    3    3    0  502  0.24460907999E+02 -0.39365147940E+03 -0.39226419209E+02  0.39635861050E+03  0.12699999809E+01 0.  1.
</event>
<event>
 5   0  0.2063692E-02  0.7820299E+03  0.7818609E-02  0.9586399E-01
       -1   -1    0    0    0  501  0.00000000000E+00  0.00000000000E+00  0.20015079464E+03  0.20015079470E+03  0.50400001928E-02 0.  1.
        1   -1    0    0  501    0  0.00000000000E+00  0.00000000000E+00 -0.76388742687E+03  0.76388742689E+03  0.50400001928E-02 0. -1.
    10030    2    1    2    0    0  0.00000000000E+00  0.00000000000E+00 -0.56373663223E+03  0.96403822159E+03  0.78202986015E+03 0.  0.
        2    1    3    3  502    0 -0.19553973077E+03  0.16445009039E+03 -0.64675274774E+03  0.69539106642E+03  0.25500000920E-02 0. -1.
       -2    1    3    3    0  502  0.19553973077E+03 -0.16445009039E+03  0.83016115508E+02  0.26864715517E+03  0.25500000920E-02 0.  1.
</event>
<event>
 5   0  0.3467240E-02  0.7660508E+03  0.7818609E-02  0.9610500E-01
       -2   -1    0    0    0  501  0.00000000000E+00  0.00000000000E+00  0.36846649388E+03  0.36846649389E+03  0.25500000920E-02 0. -1.
        2   -1    0    0  501    0  0.00000000000E+00  0.00000000000E+00 -0.39815952814E+03  0.39815952815E+03  0.25500000920E-02 0.  1.
    10030    2    1    2    0    0  0.00000000000E+00  0.00000000000E+00 -0.29693034263E+02  0.76662602204E+03  0.76605076946E+03 0.  0.
        2    1    3    3  502    0  0.31174534162E+02 -0.25538492705E+03 -0.29881148169E+03  0.39431156988E+03  0.25500000920E-02 0.  1.
       -2    1    3    3    0  502 -0.31174534162E+02  0.25538492705E+03  0.26911844742E+03  0.37231445217E+03  0.25500000920E-02 0. -1.
</event>
<event>
 5   0  0.1358000E-02  0.7924094E+03  0.7818609E-02  0.9571070E-01
        3   -1    0    0  501    0  0.00000000000E+00  0.00000000000E+00  0.60859220185E+03  0.60859221023E+03  0.10100000352E+00 0. -1.
       -3   -1    0    0    0  501  0.00000000000E+00  0.00000000000E+00 -0.25793654789E+03  0.25793656766E+03  0.10100000352E+00 0.  1.
    10030    2    1    2    0    0  0.00000000000E+00  0.00000000000E+00  0.35065565396E+03  0.86652877789E+03  0.79240944925E+03 0.  0.
        5    1    3    3  502    0  0.36693530966E+03 -0.99791079489E+02  0.29688421635E+03  0.48245425580E+03  0.46999998093E+01 0. -1.
       -5    1    3    3    0  502 -0.36693530966E+03  0.99791079489E+02  0.53771437614E+02  0.38407452210E+03  0.46999998093E+01 0.  1.
</event>
<event>
 5   0  0.3416160E-02  0.7674296E+03  0.7818609E-02  0.9608396E-01
       -2   -1    0    0    0  501  0.00000000000E+00  0.00000000000E+00  0.66131047837E+02  0.66131047886E+02  0.25500000920E-02 0.  1.
        2   -1    0    0  501    0  0.00000000000E+00  0.00000000000E+00 -0.22264435393E+04  0.22264435393E+04  0.25500000920E-02 0. -1.
    10030    2    1    2    0    0  0.00000000000E+00  0.00000000000E+00 -0.21603124915E+04  0.22925745872E+04  0.76742959094E+03 0.  0.
        1    1    3    3  502    0 -0.34054371979E+03  0.12336883858E+03 -0.14585847779E+04  0.15028837113E+04  0.50400001928E-02 0. -1.
       -1    1    3    3    0  502  0.34054371979E+03 -0.12336883858E+03 -0.70172771362E+03  0.78969087592E+03  0.50400001928E-02 0.  1.
</event>
<event>
 5   0  0.3404132E-02  0.7802344E+03  0.7818609E-02  0.9589076E-01
       -2   -1    0    0    0  501  0.00000000000E+00  0.00000000000E+00  0.15801804306E+03  0.15801804308E+03  0.25500000920E-02 0.  1.
        2   -1    0    0  501    0  0.00000000000E+00  0.00000000000E+00 -0.96312699704E+03  0.96312699704E+03  0.25500000920E-02 0. -1.
    10030    2    1    2    0    0  0.00000000000E+00  0.00000000000E+00 -0.80510895397E+03  0.11211450401E+04  0.78023443479E+03 0.  0.
        5    1    3    3  502    0  0.51028980073E+01  0.17896332648E+03  0.95453280069E+02  0.20294661975E+03  0.46999998093E+01 0.  1.
       -5    1    3    3    0  502 -0.51028980073E+01 -0.17896332648E+03 -0.90056223404E+03  0.91819842037E+03  0.46999998093E+01 0. -1.
</event>
<event>
 5   0  0.2063692E-02  0.8013448E+03  0.7818609E-02  0.9558073E-01
        1   -1    0    0  501    0  0.00000000000E+00  0.00000000000E+00  0.36323311908E+03  0.36323311912E+03  0.50400001928E-02 0. -1.
       -1   -1    0    0    0  501  0.00000000000E+00  0.00000000000E+00 -0.44197061429E+03  0.44197061432E+03  0.50400001928E-02 0.  1.
    10030    2    1    2    0    0  0.00000000000E+00  0.00000000000E+00 -0.78737495214E+02  0.80520373344E+03  0.80134478172E+03 0.  0.
        2    1    3    3  502    0  0.33270619438E+03  0.83132258240E+02 -0.24757172932E+03  0.42296116288E+03  0.25500000920E-02 0.  1.
       -2    1    3    3    0  502 -0.33270619438E+03 -0.83132258240E+02  0.16883423410E+03  0.38224257056E+03  0.25500000920E-02 0. -1.
</event>
<event>
 5   0  0.2132540E-02  0.1002965E+04  0.7818609E-02  0.9305299E-01
        1   -1    0    0  501    0  0.00000000000E+00  0.00000000000E+00  0.86832881862E+03  0.86832881864E+03  0.50400001928E-02 0.  1.
       -1   -1    0    0    0  501  0.00000000000E+00  0.00000000000E+00 -0.28961900806E+03  0.28961900810E+03  0.50400001928E-02 0. -1.
    10030    2    1    2    0    0  0.00000000000E+00  0.00000000000E+00  0.57870981056E+03  0.11579478267E+04  0.10029646677E+04 0.  0.
        4    1    3    3  502    0 -0.39243890872E+03  0.16045222860E+03  0.59856443898E+03  0.73350815622E+03  0.12699999809E+01 0. -1.
       -4    1    3    3    0  502  0.39243890872E+03 -0.16045222860E+03 -0.19854628414E+02  0.42443967052E+03  0.12699999809E+01 0.  1.
</event>
<event>
 5   0  0.3343036E-02  0.7597404E+03  0.7818609E-02  0.9620192E-01
       -2   -1    0    0    0  501  0.00000000000E+00  0.00000000000E+00  0.13207466659E+03  0.13207466661E+03  0.25500000920E-02 0. -1.
        2   -1    0    0  501    0  0.00000000000E+00  0.00000000000E+00 -0.10925740598E+04  0.10925740598E+04  0.25500000920E-02 0.  1.
    10030    2    1    2    0    0  0.00000000000E+00  0.00000000000E+00 -0.96049939319E+03  0.12246487264E+04  0.75974036271E+03 0.  0.
        4    1    3    3  502    0 -0.39385266842E+02 -0.37643887047E+03 -0.53229082837E+03  0.65314053718E+03  0.12699999809E+01 0. -1.
       -4    1    3    3    0  502  0.39385266842E+02  0.37643887047E+03 -0.42820856482E+03  0.57150818921E+03  0.12699999809E+01 0.  1.
</event>
<event>
 5   0  0.3550586E-02  0.8056929E+03  0.7818609E-02  0.9551813E-01
       -2   -1    0    0    0  501  0.00000000000E+00  0.00000000000E+00  0.20137040186E+03  0.20137040187E+03  0.25500000920E-02 0. -1.
        2   -1    0    0  501    0  0.00000000000E+00  0.00000000000E+00 -0.80590432595E+03  0.80590432595E+03  0.25500000920E-02 0.  1.
    10030    2    1    2    0    0  0.00000000000E+00  0.00000000000E+00 -0.60453392409E+03  0.10072747278E+04  0.80569293899E+03 0.  0.
        3    1    3    3  502    0 -0.24735908067E+03  0.26110776758E+03 -0.75427765748E+02  0.36749576749E+03  0.10100000352E+00 0. -1.
       -3    1    3    3    0  502  0.24735908067E+03 -0.26110776758E+03 -0.52910615834E+03  0.63977896033E+03  0.10100000352E+00 0.  1.
</event>
<event>
 5   0  0.1989298E-02  0.8569757E+03  0.7818609E-02  0.9481022E-01
        1   -1    0    0  501    0  0.00000000000E+00  0.00000000000E+00  0.11891327461E+04  0.11891327461E+04  0.50400001928E-02 0. -1.
       -1   -1    0    0    0  501  0.00000000000E+00  0.00000000000E+00 -0.15439976999E+03  0.15439977007E+03  0.50400001928E-02 0.  1.
    10030    2    1    2    0    0  0.00000000000E+00  0.00000000000E+00  0.10347329761E+04  0.13435325162E+04  0.85697566489E+03 0.  0.
        1    1    3    3  502    0 -0.27288854581E+03 -0.20100836229E+03  0.10635812398E+03  0.35522467637E+03  0.50400001928E-02 0.  1.
       -1    1    3    3    0  502  0.27288854581E+03  0.20100836229E+03  0.92837485214E+03  0.98830783982E+03  0.50400001928E-02 0. -1.
</event>
<event>
 5   0  0.1989298E-02  0.7862464E+03  0.7818609E-02  0.9580141E-01
       -1   -1    0    0    0  501  0.00000000000E+00  0.00000000000E+00  0.47939715862E+03  0.47939715865E+03  0.50400001928E-02 0. -1.
        1   -1    0    0  501    0  0.00000000000E+00  0.00000000000E+00 -0.32237541195E+03  0.32237541199E+03  0.50400001928E-02 0.  1.
    10030    2    1    2    0    0  0.00000000000E+00  0.00000000000E+00  0.15702174667E+03  0.80177257063E+03  0.78624641563E+03 0.  0.
        1    1    3    3  502    0  0.13630666756E+03  0.14301706795E+03 -0.26807187866E+03  0.33301039248E+03  0.50400001928E-02 0.  1.
       -1    1    3    3    0  502 -0.13630666756E+03 -0.14301706795E+03  0.42509362533E+03  0.46876217815E+03  0.50400001928E-02 0. -1.
</event>
<event>
 5   0  0.2063692E-02  0.8008060E+03  0.7818609E-02  0.9558851E-01
       -1   -1    0    0    0  501  0.00000000000E+00  0.00000000000E+00  0.21979382082E+03  0.21979382088E+03  0.50400001928E-02 0.  1.
        1   -1    0    0  501    0  0.00000000000E+00  0.00000000000E+00 -0.72942256948E+03  0.72942256950E+03  0.50400001928E-02 0. -1.
    10030    2    1    2    0    0  0.00000000000E+00  0.00000000000E+00 -0.50962874866E+03  0.94921639038E+03  0.80080602789E+03 0.  0.
        2    1    3    3  502    0 -0.94084431355E+02 -0.10245111524E+03  0.19023492189E+03  0.23566382147E+03  0.25500000920E-02 0.  1.
       -2    1    3    3    0  502  0.94084431355E+02  0.10245111524E+03 -0.69986367055E+03  0.71355256891E+03  0.25500000920E-02 0. -1.
</event>
<event>
 5   0  0.2063692E-02  0.7726843E+03  0.7818609E-02  0.9600419E-01
        1   -1    0    0  501    0  0.00000000000E+00  0.00000000000E+00  0.48835583319E+03  0.48835583322E+03  0.50400001928E-02 0.  1.
       -1   -1    0    0    0  501  0.00000000000E+00  0.00000000000E+00 -0.30563830626E+03  0.30563830631E+03  0.50400001928E-02 0. -1.
    10030    2    1    2    0    0  0.00000000000E+00  0.00000000000E+00  0.18271752693E+03  0.79399413953E+03  0.77268428155E+03 0.  0.
        2    1    3    3  502    0  0.47876886686E+02 -0.37384507851E+03  0.17859961957E+03  0.41707333063E+03  0.25500000920E-02 0.  1.
       -2    1    3    3    0  502 -0.47876886686E+02  0.37384507851E+03  0.41179073571E+01  0.37692080889E+03  0.25500000920E-02 0. -1.
</event>
<event>
 5   0  0.3404132E-02  0.7880580E+03  0.7818609E-02  0.9577465E-01
       -2   -1    0    0    0  501  0.00000000000E+00  0.00000000000E+00  0.16247004316E+03  0.16247004318E+03  0.25500000920E-02 0.  1.
        2   -1    0    0  501    0  0.00000000000E+00  0.00000000000E+00 -0.95561516939E+03  0.95561516939E+03  0.25500000920E-02 0. -1.
    10030    2    1    2    0    0  0.00000000000E+00  0.00000000000E+00 -0.79314512622E+03  0.11180852126E+04  0.78805796191E+03 0.  0.
        5    1    3    3  502    0 -0.23548204112E+02 -0.24308546862E+03  0.42086190909E+02  0.24786770753E+03  0.46999998093E+01 0.  1.
       -5    1    3    3    0  502  0.23548204112E+02  0.24308546862E+03 -0.83523131713E+03  0.87021750504E+03  0.46999998093E+01 0. -1.
</event>
<event>
 5   0  0.2077795E-02  0.7959300E+03  0.7818609E-02  0.9565927E-01
       -1   -1    0    0    0  501  0.00000000000E+00  0.00000000000E+00  0.33252216503E+03  0.33252216507E+03  0.50400001928E-02 0. -1.
        1   -1    0    0  501    0  0.00000000000E+00  0.00000000000E+00 -0.47628751403E+03  0.47628751406E+03  0.50400001928E-02 0.  1.
    10030    2    1    2    0    0  0.00000000000E+00  0.00000000000E+00 -0.14376534900E+03  0.80880967913E+03  0.79593003555E+03 0.  0.
        5    1    3    3  502    0 -0.15246159610E+03 -0.33923535030E+03  0.71930952935E+02  0.37884206890E+03  0.46999998093E+01 0.  1.
       -5    1    3    3    0  502  0.15246159610E+03  0.33923535030E+03 -0.21569630194E+03  0.42996761023E+03  0.46999998093E+01 0. -1.
</event>
<event>
 5   0  0.2129257E-02  0.8140455E+03  0.7818609E-02  0.9539906E-01
        1   -1    0    0  501    0  0.00000000000E+00  0.00000000000E+00  0.49160787354E+03  0.49160787357E+03  0.50400001928E-02 0. -1.
       -1   -1    0    0    0  501  0.00000000000E+00  0.00000000000E+00 -0.33699120953E+03  0.33699120957E+03  0.50400001928E-02 0.  1.
    10030    2    1    2    0    0  0.00000000000E+00  0.00000000000E+00  0.15461666401E+03  0.82859908314E+03  0.81404553177E+03 0.  0.
        3    1    3    3  502    0  0.35076756436E+03 -0.31734186129E+02 -0.13035520393E+03  0.37554950695E+03  0.10100000352E+00 0.  1.
       -3    1    3    3    0  502 -0.35076756436E+03  0.31734186129E+02  0.28497186794E+03  0.45304957620E+03  0.10100000352E+00 0. -1.
</event>
<event>
 5   0  0.2129257E-02  0.8143022E+03  0.7818609E-02  0.9539543E-01
        1   -1    0    0  501    0  0.00000000000E+00  0.00000000000E+00  0.12913151336E+04  0.12913151337E+04  0.50400001928E-02 0.  1.
       -1   -1    0    0    0  501  0.00000000000E+00  0.00000000000E+00 -0.12837457272E+03  0.12837457282E+03  0.50400001928E-02 0. -1.
    10030    2    1    2    0    0  0.00000000000E+00  0.00000000000E+00  0.11629405609E+04  0.14196897065E+04  0.81430222547E+03 0.  0.
        3    1    3    3  502    0 -0.77527570700E+02 -0.11837428708E+02 -0.11508137384E+03  0.13926371295E+03  0.10100000352E+00 0. -1.
       -3    1    3    3    0  502  0.77527570700E+02  0.11837428708E+02  0.12780219348E+04  0.12804259935E+04  0.10100000352E+00 0.  1.
</event>
<event>
 5   0  0.2132540E-02  0.8020762E+03  0.7818609E-02  0.9557017E-01
        1   -1    0    0  501    0  0.00000000000E+00  0.00000000000E+00  0.29039609499E+03  0.29039609503E+03  0.50400001928E-02 0. -1.
       -1   -1    0    0    0  501  0.00000000000E+00  0.00000000000E+00 -0.55383515023E+03  0.55383515026E+03  0.50400001928E-02 0.  1.
    10030    2    1    2    0    0  0.00000000000E+00  0.00000000000E+00 -0.26343905525E+03  0.84423124529E+03  0.80207621813E+03 0.  0.
        4    1    3    3  502    0  0.35292881670E+03 -0.18620967726E+03 -0.17378442031E+03  0.43524180774E+03  0.12699999809E+01 0.  1.
       -4    1    3    3    0  502 -0.35292881670E+03  0.18620967726E+03 -0.89654634933E+02  0.40898943755E+03  0.12699999809E+01 0. -1.
</event>
<event>
 5   0  0.3467240E-02  0.7947015E+03  0.7818609E-02  0.9567718E-01
        2   -1    0    0  501    0  0.00000000000E+00  0.00000000000E+00  0.17581985664E+04  0.17581985664E+04  0.25500000920E-02 0.  1.
       -2   -1    0    0    0  501  0.00000000000E+00  0.00000000000E+00 -0.89800785614E+02  0.89800785650E+02  0.25500000920E-02 0. -1.
    10030    2    1    2    0    0  0.00000000000E+00  0.00000000000E+00  0.16683977808E+04  0.18479993520E+04  0.79470148499E+03 0.  0.
        2    1    3    3  502    0  0.39015637674E+03 -0.68511239156E+02  0.76170662385E+03  0.85855271767E+03  0.25500000920E-02 0. -1.
       -2    1    3    3    0  502 -0.39015637674E+03  0.68511239156E+02  0.90669115691E+03  0.98944663435E+03  0.25500000920E-02 0.  1.
</event>
<event>
 5   0  0.3416160E-02  0.8012700E+03  0.7818609E-02  0.9558181E-01
        2   -1    0    0  501    0  0.00000000000E+00  0.00000000000E+00  0.51070874243E+03  0.51070874244E+03  0.25500000920E-02 0.  1.
       -2   -1    0    0    0  501  0.00000000000E+00  0.00000000000E+00 -0.31428563600E+03  0.31428563601E+03  0.25500000920E-02 0. -1.
    10030    2    1    2    0    0  0.00000000000E+00  0.00000000000E+00  0.19642310643E+03  0.82499437844E+03  0.80127004669E+03 0.  0.
        1    1    3    3  502    0 -0.19539262295E+03  0.94435435772E+01  0.45819328731E+03  0.49820532532E+03  0.50400001928E-02 0.  1.
       -1    1    3    3    0  502  0.19539262295E+03 -0.94435435772E+01 -0.26177018088E+03  0.32678905312E+03  0.50400001928E-02 0. -1.
</event>
<event>
 5   0  0.2077795E-02  0.7582185E+03  0.7818609E-02  0.9622544E-01
       -1   -1    0    0    0  501  0.00000000000E+00  0.00000000000E+00  0.12239974213E+04  0.12239974213E+04  0.50400001928E-02 0. -1.
        1   -1    0    0  501    0  0.00000000000E+00  0.00000000000E+00 -0.11742168089E+03  0.11742168100E+03  0.50400001928E-02 0.  1.
    10030    2    1    2    0    0  0.00000000000E+00  0.00000000000E+00  0.11065757404E+04  0.13414191023E+04  0.75821852969E+03 0.  0.
        5    1    3    3  502    0  0.62209461065E+02 -0.21074159272E+03  0.67891664759E+01  0.21988683164E+03  0.46999998093E+01 0.  1.
       -5    1    3    3    0  502 -0.62209461065E+02  0.21074159272E+03  0.10997865739E+04  0.11215322707E+04  0.46999998093E+01 0. -1.
</event>
<event>
 5   0  0.2063692E-02  0.8013906E+03  0.7818609E-02  0.9558006E-01
       -1   -1    0    0    0  501  0.00000000000E+00  0.00000000000E+00  0.29180241207E+03  0.29180241211E+03  0.50400001928E-02 0.  1.
        1   -1    0    0  501    0  0.00000000000E+00  0.00000000000E+00 -0.55022416330E+03  0.55022416332E+03  0.50400001928E-02 0. -1.
    10030    2    1    2    0    0  0.00000000000E+00  0.00000000000E+00 -0.25842175122E+03  0.84202657543E+03  0.80139063647E+03 0.  0.
        2    1    3    3  502    0 -0.97827643025E+01  0.15920134533E+03  0.25700922446E+03  0.30248059821E+03  0.25500000920E-02 0.  1.
       -2    1    3    3    0  502  0.97827643025E+01 -0.15920134533E+03 -0.51543097569E+03  0.53954597722E+03  0.25500000920E-02 0. -1.
</event>
<event>
 5   0  0.2129257E-02  0.7991599E+03  0.7818609E-02  0.9561234E-01
       -1   -1    0    0    0  501  0.00000000000E+00  0.00000000000E+00  0.88825252846E+02  0.88825252989E+02  0.50400001928E-02 0. -1.
        1   -1    0    0  501    0  0.00000000000E+00  0.00000000000E+00 -0.17975085324E+04  0.17975085324E+04  0.50400001928E-02 0.  1.
    10030    2    1    2    0    0  0.00000000000E+00  0.00000000000E+00 -0.17086832795E+04  0.18863337854E+04  0.79915993398E+03 0.  0.
        3    1    3    3  502    0 -0.26242685305E+03  0.22425783175E+03 -0.37929351000E+03  0.51285768517E+03  0.10100000352E+00 0.  1.
       -3    1    3    3    0  502  0.26242685305E+03 -0.22425783175E+03 -0.13293897695E+04  0.13734761002E+04  0.10100000352E+00 0. -1.
</event>
<event>
 5   0  0.3467240E-02  0.8170038E+03  0.7818609E-02  0.9535726E-01
       -2   -1    0    0    0  501  0.00000000000E+00  0.00000000000E+00  0.11703970040E+03  0.11703970043E+03  0.25500000920E-02 0. -1.
        2   -1    0    0  501    0  0.00000000000E+00  0.00000000000E+00 -0.14257881389E+04  0.14257881389E+04  0.25500000920E-02 0.  1.
    10030    2    1    2    0    0  0.00000000000E+00  0.00000000000E+00 -0.13087484385E+04  0.15428278393E+04  0.81700383509E+03 0.  0.
        2    1    3    3  502    0 -0.11414303584E+02 -0.40600672666E+03 -0.73673233754E+03  0.84127658092E+03  0.25500000920E-02 0.  1.
       -2    1    3    3    0  502  0.11414303584E+02  0.40600672666E+03 -0.57201610097E+03  0.70155125843E+03  0.25500000920E-02 0. -1.
</event>
<event>
 5   0  0.3416160E-02  0.7883792E+03  0.7818609E-02  0.9576992E-01
        2   -1    0    0  501    0  0.00000000000E+00  0.00000000000E+00  0.42180674074E+03  0.42180674075E+03  0.25500000920E-02 0.  1.
       -2   -1    0    0    0  501  0.00000000000E+00  0.00000000000E+00 -0.36838066621E+03  0.36838066622E+03  0.25500000920E-02 0. -1.
    10030    2    1    2    0    0  0.00000000000E+00  0.00000000000E+00  0.53426074535E+02  0.79018740697E+03  0.78837921884E+03 0.  0.
        1    1    3    3  502    0  0.20905077476E+03 -0.72587145156E+02 -0.30024723752E+03  0.37298729701E+03  0.50400001928E-02 0. -1.
       -1    1    3    3    0  502 -0.20905077476E+03  0.72587145156E+02  0.35367331205E+03  0.41720010996E+03  0.50400001928E-02 0.  1.
</event>
<event>
 5   0  0.1989298E-02  0.8524965E+03  0.7818609E-02  0.9486992E-01
        1   -1    0    0  501    0  0.00000000000E+00  0.00000000000E+00  0.45215765352E+03  0.45215765354E+03  0.50400001928E-02 0.  1.
       -1   -1    0    0    0  501  0.00000000000E+00  0.00000000000E+00 -0.40182353975E+03  0.40182353978E+03  0.50400001928E-02 0. -1.
    10030    2    1    2    0    0  0.00000000000E+00  0.00000000000E+00  0.50334113770E+02  0.85398119332E+03  0.85249654283E+03 0.  0.
        1    1    3    3  502    0  0.12547139159E+03  0.32574937644E+03 -0.21986445587E+03  0.41254830667E+03  0.50400001928E-02 0. -1.
       -1    1    3    3    0  502 -0.12547139159E+03 -0.32574937644E+03  0.27019856964E+03  0.44143288665E+03  0.50400001928E-02 0.  1.
</event>
<event>
 5   0  0.3467240E-02  0.7548215E+03  0.7818609E-02  0.9627816E-01
        2   -1    0    0  501    0  0.00000000000E+00  0.00000000000E+00  0.18552251828E+03  0.18552251829E+03  0.25500000920E-02 0. -1.
       -2   -1    0    0    0  501  0.00000000000E+00  0.00000000000E+00 -0.76777144444E+03  0.76777144445E+03  0.25500000920E-02 0.  1.
    10030    2    1    2    0    0  0.00000000000E+00  0.00000000000E+00 -0.58224892617E+03  0.95329396274E+03  0.75482154671E+03 0.  0.
        2    1    3    3  502    0  0.24309148783E+03  0.27383097595E+03 -0.17563613962E+03  0.40610950295E+03  0.25500000920E-02 0. -1.
       -2    1    3    3    0  502 -0.24309148783E+03 -0.27383097595E+03 -0.40661278654E+03  0.54718445978E+03  0.25500000920E-02 0.  1.
</event>
<event>
 5   0  0.2063692E-02  0.8075320E+03  0.7818609E-02  0.9549178E-01
        1   -1    0    0  501    0  0.00000000000E+00  0.00000000000E+00  0.24349854086E+03  0.24349854092E+03  0.50400001928E-02 0. -1.
       -1   -1    0    0    0  501  0.00000000000E+00  0.00000000000E+00 -0.66951936706E+03  0.66951936708E+03  0.50400001928E-02 0.  1.
    10030    2    1    2    0    0  0.00000000000E+00  0.00000000000E+00 -0.42602082620E+03  0.91301790800E+03  0.80753201545E+03 0.  0.
        2    1    3    3  502    0 -0.36648353960E+03  0.64917228246E+02 -0.36029978820E+02  0.37392859038E+03  0.25500000920E-02 0.  1.
       -2    1    3    3    0  502  0.36648353960E+03 -0.64917228246E+02 -0.38999084738E+03  0.53908931762E+03  0.25500000920E-02 0. -1.
</event>
<event>
 5   0  0.1358000E-02  0.8094318E+03  0.7818609E-02  0.9546464E-01
        3   -1    0    0  501    0  0.00000000000E+00  0.00000000000E+00  0.44101315384E+03  0.44101316541E+03  0.10100000352E+00 0.  1.
       -3   -1    0    0    0  501  0.00000000000E+00  0.00000000000E+00 -0.37140605574E+03  0.37140606948E+03  0.10100000352E+00 0. -1.
    10030    2    1    2    0    0  0.00000000000E+00  0.00000000000E+00  0.69607098099E+02  0.81241923488E+03  0.80943181621E+03 0.  0.
        1    1    3    3  502    0 -0.49361130778E+02 -0.25494790997E+03  0.34636831625E+03  0.43290411012E+03  0.50400001928E-02 0.  1.
       -1    1    3    3    0  502  0.49361130778E+02  0.25494790997E+03 -0.27676121815E+03  0.37951512477E+03  0.50400001928E-02 0. -1.
</event>
<event>
 5   0  0.2129257E-02  0.8259541E+03  0.7818609E-02  0.9523191E-01
        1   -1    0    0  501    0  0.00000000000E+00  0.00000000000E+00  0.35133440541E+03  0.35133440544E+03  0.50400001928E-02 0.  1.
       -1   -1    0    0    0  501  0.00000000000E+00  0.00000000000E+00 -0.48543512298E+03  0.48543512301E+03  0.50400001928E-02 0. -1.
    10030    2    1    2    0    0  0.00000000000E+00  0.00000000000E+00 -0.13410071757E+03  0.83676952845E+03  0.82595413995E+03 0.  0.
        3    1    3    3  502    0  0.18934166393E+03 -0.28114231814E+02 -0.43777837980E+03  0.47779765147E+03  0.10100000352E+00 0. -1.
       -3    1    3    3    0  502 -0.18934166393E+03  0.28114231814E+02  0.30367766222E+03  0.35897187698E+03  0.10100000352E+00 0.  1.
</event>
<event>
 5   0  0.3404132E-02  0.5381693E+03  0.7818609E-02  0.1004270E+00
       -2   -1    0    0    0  501  0.00000000000E+00  0.00000000000E+00  0.37782989675E+02  0.37782989761E+02  0.25500000920E-02 0. -1.
        2   -1    0    0  501    0  0.00000000000E+00  0.00000000000E+00 -0.19163795780E+04  0.19163795780E+04  0.25500000920E-02 0.  1.
    10030    2    1    2    0    0  0.00000000000E+00  0.00000000000E+00 -0.18785965883E+04  0.19541625678E+04  0.53816930382E+03 0.  0.
        5    1    3    3  502    0  0.18311256455E+02  0.46626898409E+02 -0.18991473849E+04  0.18998137407E+04  0.46999998093E+01 0.  1.
       -5    1    3    3    0  502 -0.18311256455E+02 -0.46626898409E+02  0.20550796556E+02  0.54348827085E+02  0.46999998093E+01 0. -1.
</event>
<event>
 5   0  0.3467240E-02  0.7706083E+03  0.7818609E-02  0.9603563E-01
        2   -1    0    0  501    0  0.00000000000E+00  0.00000000000E+00  0.21620480948E+04  0.21620480948E+04  0.25500000920E-02 0. -1.
       -2   -1    0    0    0  501  0.00000000000E+00  0.00000000000E+00 -0.68666051396E+02  0.68666051443E+02  0.25500000920E-02 0.  1.
    10030    2    1    2    0    0  0.00000000000E+00  0.00000000000E+00  0.20933820434E+04  0.22307141463E+04  0.77060834580E+03 0.  0.
        2    1    3    3  502    0 -0.19579560923E+03  0.34080678223E+02  0.20022280736E+04  0.20120672633E+04  0.25500000920E-02 0. -1.
       -2    1    3    3    0  502  0.19579560923E+03 -0.34080678223E+02  0.91153969823E+02  0.21864688299E+03  0.25500000920E-02 0.  1.
</event>
<event>
 5   0  0.2077795E-02  0.7990234E+03  0.7818609E-02  0.9561432E-01
       -1   -1    0    0    0  501  0.00000000000E+00  0.00000000000E+00  0.42814856244E+03  0.42814856247E+03  0.50400001928E-02 0. -1.
        1   -1    0    0  501    0  0.00000000000E+00  0.00000000000E+00 -0.37279022172E+03  0.37279022176E+03  0.50400001928E-02 0.  1.
    10030    2    1    2    0    0  0.00000000000E+00  0.00000000000E+00  0.55358340713E+02  0.80093878422E+03  0.79902339777E+03 0.  0.
        5    1    3    3  502    0 -0.70461455561E+02 -0.64968565206E+02 -0.36106716685E+03  0.37360048201E+03  0.46999998093E+01 0.  1.
       -5    1    3    3    0  502  0.70461455561E+02  0.64968565206E+02  0.41642550757E+03  0.42733830221E+03  0.46999998093E+01 0. -1.
</event>
<event>
 5   0  0.2077795E-02  0.6470574E+03  0.7818609E-02  0.9812316E-01
        1   -1    0    0  501    0  0.00000000000E+00  0.00000000000E+00  0.92514534370E+02  0.92514534508E+02  0.50400001928E-02 0.  1.
       -1   -1    0    0    0  501  0.00000000000E+00  0.00000000000E+00 -0.11313988139E+04  0.11313988139E+04  0.50400001928E-02 0. -1.
    10030    2    1    2    0    0  0.00000000000E+00  0.00000000000E+00 -0.10388842795E+04  0.12239133484E+04  0.64705744580E+03 0.  0.
        5    1    3    3  502    0  0.59182178521E+02  0.26411807580E+03 -0.18433115785E+03  0.32750718156E+03  0.46999998093E+01 0.  1.
       -5    1    3    3    0  502 -0.59182178521E+02 -0.26411807580E+03 -0.85455312164E+03  0.89640616683E+03  0.46999998093E+01 0. -1.
</event>
<event>
 5   0  0.2063692E-02  0.7719959E+03  0.7818609E-02  0.9601460E-01
       -1   -1    0    0    0  501  0.00000000000E+00  0.00000000000E+00  0.50957408518E+03  0.50957408521E+03  0.50400001928E-02 0.  1.
        1   -1    0    0  501    0  0.00000000000E+00  0.00000000000E+00 -0.29239011615E+03  0.29239011619E+03  0.50400001928E-02 0. -1.
    10030    2    1    2    0    0  0.00000000000E+00  0.00000000000E+00  0.21718396903E+03  0.80196420140E+03  0.77199592221E+03 0.  0.
        2    1    3    3  502    0  0.11450417611E+03 -0.17897968449E+03 -0.22617464873E+03  0.31032226079E+03  0.25500000920E-02 0. -1.
       -2    1    3    3    0  502 -0.11450417611E+03  0.17897968449E+03  0.44335861777E+03  0.49164194060E+03  0.25500000920E-02 0.  1.
</event>
<event>
 5   0  0.1989298E-02  0.8193226E+03  0.7818609E-02  0.9532462E-01
        1   -1    0    0  501    0  0.00000000000E+00  0.00000000000E+00  0.59942896858E+03  0.59942896860E+03  0.50400001928E-02 0.  1.
       -1   -1    0    0    0  501  0.00000000000E+00  0.00000000000E+00 -0.27997041642E+03  0.27997041647E+03  0.50400001928E-02 0. -1.
    10030    2    1    2    0    0  0.00000000000E+00  0.00000000000E+00  0.31945855216E+03  0.87939938507E+03  0.81932259332E+03 0.  0.
        1    1    3    3  502    0 -0.70073636460E+02 -0.34589570012E+03  0.38299177518E+03  0.52080404162E+03  0.50400001928E-02 0.  1.
       -1    1    3    3    0  502  0.70073636460E+02  0.34589570012E+03 -0.63533223019E+02  0.35859534345E+03  0.50400001928E-02 0. -1.
</event>
<event>
 5   0  0.3467240E-02  0.7970332E+03  0.7818609E-02  0.9564321E-01
        2   -1    0    0  501    0  0.00000000000E+00  0.00000000000E+00  0.50020890071E+03  0.50020890071E+03  0.25500000920E-02 0.  1.
       -2   -1    0    0    0  501  0.00000000000E+00  0.00000000000E+00 -0.31749829755E+03  0.31749829756E+03  0.25500000920E-02 0. -1.
    10030    2    1    2    0    0  0.00000000000E+00  0.00000000000E+00  0.18271060316E+03  0.81770719827E+03  0.79703318475E+03 0.  0.
        2    1    3    3  502    0  0.38448451517E+03 -0.10416060629E+03  0.79316354197E+02  0.40616358571E+03  0.25500000920E-02 0.  1.
       -2    1    3    3    0  502 -0.38448451517E+03  0.10416060629E+03  0.10339424896E+03  0.41154361256E+03  0.25500000920E-02 0. -1.
</event>
<event>
 5   0  0.1989298E-02  0.8023288E+03  0.7818609E-02  0.9556652E-01
        1   -1    0    0  501    0  0.00000000000E+00  0.00000000000E+00  0.26931437033E+03  0.26931437037E+03  0.50400001928E-02 0. -1.
       -1   -1    0    0    0  501  0.00000000000E+00  0.00000000000E+00 -0.59756505891E+03  0.59756505893E+03  0.50400001928E-02 0.  1.
    10030    2    1    2    0    0  0.00000000000E+00  0.00000000000E+00 -0.32825068858E+03  0.86687942930E+03  0.80232875456E+03 0.  0.
        1    1    3    3  502    0 -0.30789616044E+03 -0.25035757443E+03 -0.10062720133E+03  0.40939564526E+03  0.50400001928E-02 0. -1.
       -1    1    3    3    0  502  0.30789616044E+03  0.25035757443E+03 -0.22762348725E+03  0.45748378404E+03  0.50400001928E-02 0.  1.
</event>
<event>
 5   0  0.1358000E-02  0.7972751E+03  0.7818609E-02  0.9563970E-01
       -3   -1    0    0    0  501  0.00000000000E+00  0.00000000000E+00  0.40896235910E+03  0.40896237157E+03  0.10100000352E+00 0. -1.
        3   -1    0    0  501    0  0.00000000000E+00  0.00000000000E+00 -0.38857342672E+03  0.38857343985E+03  0.10100000352E+00 0.  1.
    10030    2    1    2    0    0  0.00000000000E+00  0.00000000000E+00  0.20388932377E+02  0.79753581141E+03  0.79727514819E+03 0.  0.
        5    1    3    3  502    0 -0.12403716691E+03  0.25599950364E+03 -0.26912587296E+03  0.39162710598E+03  0.46999998093E+01 0.  1.
       -5    1    3    3    0  502  0.12403716691E+03 -0.25599950364E+03  0.28951480534E+03  0.40590870544E+03  0.46999998093E+01 0. -1.
</event>
<event>
 5   0  0.3404132E-02  0.8158188E+03  0.7818609E-02  0.9537398E-01
       -2   -1    0    0    0  501  0.00000000000E+00  0.00000000000E+00  0.68709885645E+03  0.68709885645E+03  0.25500000920E-02 0. -1.
        2   -1    0    0  501    0  0.00000000000E+00  0.00000000000E+00 -0.24216324606E+03  0.24216324607E+03  0.25500000920E-02 0.  1.
    10030    2    1    2    0    0  0.00000000000E+00  0.00000000000E+00  0.44493561039E+03  0.92926210252E+03  0.81581882658E+03 0.  0.
        5    1    3    3  502    0  0.31284495817E+03  0.20601441680E+03  0.40632577959E+03  0.55266322199E+03  0.46999998093E+01 0. -1.
       -5    1    3    3    0  502 -0.31284495817E+03 -0.20601441680E+03  0.38609830794E+02  0.37659888053E+03  0.46999998093E+01 0.  1.
</event>
<event>
 5   0  0.2129257E-02  0.8396824E+03  0.7818609E-02  0.9504290E-01
        1   -1    0    0  501    0  0.00000000000E+00  0.00000000000E+00  0.88078330157E+03  0.88078330159E+03  0.50400001928E-02 0. -1.
       -1   -1    0    0    0  501  0.00000000000E+00  0.00000000000E+00 -0.20012486146E+03  0.20012486152E+03  0.50400001928E-02 0.  1.
    10030    2    1    2    0    0  0.00000000000E+00  0.00000000000E+00  0.68065844012E+03  0.10809081631E+04  0.83968240720E+03 0.  0.
        3    1    3    3  502    0  0.39933033509E+03  0.73410929715E+02  0.47785014917E+03  0.62705235538E+03  0.10100000352E+00 0. -1.
       -3    1    3    3    0  502 -0.39933033509E+03 -0.73410929715E+02  0.20280829095E+03  0.45385580772E+03  0.10100000352E+00 0.  1.
</event>
<event>
 5   0  0.2077795E-02  0.7988088E+03  0.7818609E-02  0.9561743E-01
       -1   -1    0    0    0  501  0.00000000000E+00  0.00000000000E+00  0.17333077953E+03  0.17333077961E+03  0.50400001928E-02 0. -1.
        1   -1    0    0  501    0  0.00000000000E+00  0.00000000000E+00 -0.92034363838E+03  0.92034363839E+03  0.50400001928E-02 0.  1.
    10030    2    1    2    0    0  0.00000000000E+00  0.00000000000E+00 -0.74701285885E+03  0.10936744180E+04  0.79880881399E+03 0.  0.
        5    1    3    3  502    0  0.83851243349E+02  0.12770603334E+03  0.13170486639E+03  0.20176254309E+03  0.46999998093E+01 0. -1.
       -5    1    3    3    0  502 -0.83851243349E+02 -0.12770603334E+03 -0.87871772524E+03  0.89191187491E+03  0.46999998093E+01 0.  1.
</event>
<event>
 5   0  0.2077795E-02  0.7801611E+03  0.7818609E-02  0.9589186E-01
        1   -1    0    0  501    0  0.00000000000E+00  0.00000000000E+00  0.77622619473E+03  0.77622619474E+03  0.50400001928E-02 0.  1.
       -1   -1    0    0    0  501  0.00000000000E+00  0.00000000000E+00 -0.19602898169E+03  0.19602898175E+03  0.50400001928E-02 0. -1.
    10030    2    1    2    0    0  0.00000000000E+00  0.00000000000E+00  0.58019721304E+03  0.97225517650E+03  0.78016108735E+03 0.  0.
        5    1    3    3  502    0 -0.16966790874E+03  0.25871905979E+03  0.58610751511E+03  0.66277210293E+03  0.46999998093E+01 0.  1.
       -5    1    3    3    0  502  0.16966790874E+03 -0.25871905979E+03 -0.59103020704E+01  0.30948307357E+03  0.46999998093E+01 0. -1.
</event>
<event>
 5   0  0.3467240E-02  0.7919579E+03  0.7818609E-02  0.9571731E-01
       -2   -1    0    0    0  501  0.00000000000E+00  0.00000000000E+00  0.13761937782E+03  0.13761937785E+03  0.25500000920E-02 0. -1.
        2   -1    0    0  501    0  0.00000000000E+00  0.00000000000E+00 -0.11393695293E+04  0.11393695293E+04  0.25500000920E-02 0.  1.
    10030    2    1    2    0    0  0.00000000000E+00  0.00000000000E+00 -0.10017501515E+04  0.12769889071E+04  0.79195789219E+03 0.  0.
        2    1    3    3  502    0 -0.14558765053E+03 -0.26174694755E+03 -0.83217159526E+02  0.31085740169E+03  0.25500000920E-02 0. -1.
       -2    1    3    3    0  502  0.14558765053E+03  0.26174694755E+03 -0.91853299195E+03  0.96613150546E+03  0.25500000920E-02 0.  1.
</event>
<event>
 5   0  0.2077795E-02  0.7925165E+03  0.7818609E-02  0.9570913E-01
       -1   -1    0    0    0  501  0.00000000000E+00  0.00000000000E+00  0.48591684744E+03  0.48591684747E+03  0.50400001928E-02 0.  1.
        1   -1    0    0  501    0  0.00000000000E+00  0.00000000000E+00 -0.32314291578E+03  0.32314291582E+03  0.50400001928E-02 0. -1.
    10030    2    1    2    0    0  0.00000000000E+00  0.00000000000E+00  0.16277393167E+03  0.80905976329E+03  0.79251646528E+03 0.  0.
        5    1    3    3  502    0 -0.66211392805E+02  0.15700990890E+03 -0.28379856370E+03  0.33105856700E+03  0.46999998093E+01 0. -1.
       -5    1    3    3    0  502  0.66211392805E+02 -0.15700990890E+03  0.44657249537E+03  0.47800119628E+03  0.46999998093E+01 0.  1.
</event>
<event>
 5   0  0.1989298E-02  0.7973762E+03  0.7818609E-02  0.9563823E-01
        1   -1    0    0  501    0  0.00000000000E+00  0.00000000000E+00  0.20003158994E+03  0.20003159000E+03  0.50400001928E-02 0. -1.
       -1   -1    0    0    0  501  0.00000000000E+00  0.00000000000E+00 -0.79463542514E+03  0.79463542516E+03  0.50400001928E-02 0.  1.
    10030    2    1    2    0    0  0.00000000000E+00  0.00000000000E+00 -0.59460383520E+03  0.99466701516E+03  0.79737616606E+03 0.  0.
        1    1    3    3  502    0 -0.23082512192E+03  0.28289812993E+03 -0.49704812716E+03  0.61674016374E+03  0.50400001928E-02 0. -1.
       -1    1    3    3    0  502  0.23082512192E+03 -0.28289812993E+03 -0.97555708043E+02  0.37792685142E+03  0.50400001928E-02 0.  1.
</event>
<event>
 5   0  0.3467240E-02  0.7662446E+03  0.7818609E-02  0.9610204E-01
       -2   -1    0    0    0  501  0.00000000000E+00  0.00000000000E+00  0.34217953383E+03  0.34217953384E+03  0.25500000920E-02 0. -1.
        2   -1    0    0  501    0  0.00000000000E+00  0.00000000000E+00 -0.42896396344E+03  0.42896396345E+03  0.25500000920E-02 0.  1.
    10030    2    1    2    0    0  0.00000000000E+00  0.00000000000E+00 -0.86784429615E+02  0.77114349728E+03  0.76624457987E+03 0.  0.
        2    1    3    3  502    0  0.89521184806E+02 -0.17938011392E+03  0.28517854472E+03  0.34859442075E+03  0.25500000920E-02 0. -1.
       -2    1    3    3    0  502 -0.89521184806E+02  0.17938011392E+03 -0.37196297433E+03  0.42254907654E+03  0.25500000920E-02 0.  1.
</event>
<event>
 5   0  0.1358000E-02  0.7943751E+03  0.7818609E-02  0.9568195E-01
        4   -1    0    0  501    0  0.00000000000E+00  0.00000000000E+00  0.15139040791E+03  0.15139573477E+03  0.12699999809E+01 0. -1.
       -4   -1    0    0    0  501  0.00000000000E+00  0.00000000000E+00 -0.10420364527E+04  0.10420372267E+04  0.12699999809E+01 0.  1.
    10030    2    1    2    0    0  0.00000000000E+00  0.00000000000E+00 -0.89064604483E+03  0.11934329614E+04  0.79437513572E+03 0.  0.
        3    1    3    3  502    0  0.14563551595E+03  0.33192451776E+03 -0.20133787398E+03  0.41463301690E+03  0.10100000352E+00 0. -1.
       -3    1    3    3    0  502 -0.14563551595E+03 -0.33192451776E+03 -0.68930817084E+03  0.77879994453E+03  0.10100000352E+00 0.  1.
</event>
<event>
 5   0  0.2063692E-02  0.8354378E+03  0.7818609E-02  0.9510093E-01
        1   -1    0    0  501    0  0.00000000000E+00  0.00000000000E+00  0.31147106701E+03  0.31147106705E+03  0.50400001928E-02 0. -1.
       -1   -1    0    0    0  501  0.00000000000E+00  0.00000000000E+00 -0.56020964963E+03  0.56020964965E+03  0.50400001928E-02 0.  1.
    10030    2    1    2    0    0  0.00000000000E+00  0.00000000000E+00 -0.24873858262E+03  0.87168071670E+03  0.83543784292E+03 0.  0.
        2    1    3    3  502    0 -0.15752141842E+03 -0.10812046338E+03 -0.51194889176E+03  0.54643819380E+03  0.25500000920E-02 0.  1.
       -2    1    3    3    0  502  0.15752141842E+03  0.10812046338E+03  0.26321030914E+03  0.32524252290E+03  0.25500000920E-02 0. -1.
</event>
<event>
 5   0  0.2132540E-02  0.7968115E+03  0.7818609E-02  0.9564644E-01
       -1   -1    0    0    0  501  0.00000000000E+00  0.00000000000E+00  0.14043901597E+03  0.14043901606E+03  0.50400001928E-02 0.  1.
        1   -1    0    0  501    0  0.00000000000E+00  0.00000000000E+00 -0.11302210594E+04  0.11302210594E+04  0.50400001928E-02 0. -1.
    10030    2    1    2    0    0  0.00000000000E+00  0.00000000000E+00 -0.98978204343E+03  0.12706600755E+04  0.79681147953E+03 0.  0.
        4    1    3    3  502    0 -0.49320151837E+02  0.27300064659E+03 -0.38902359822E+02  0.28013717518E+03  0.12699999809E+01 0.  1.
       -4    1    3    3    0  502  0.49320151837E+02 -0.27300064659E+03 -0.95087968361E+03  0.99052290030E+03  0.12699999809E+01 0. -1.
</event>
<event>
 5   0  0.2132540E-02  0.8086750E+03  0.7818609E-02  0.9547545E-01
       -1   -1    0    0    0  501  0.00000000000E+00  0.00000000000E+00  0.12513999436E+03  0.12513999446E+03  0.50400001928E-02 0.  1.
        1   -1    0    0  501    0  0.00000000000E+00  0.00000000000E+00 -0.13064473846E+04  0.13064473846E+04  0.50400001928E-02 0. -1.
    10030    2    1    2    0    0  0.00000000000E+00  0.00000000000E+00 -0.11813073902E+04  0.14315873791E+04  0.80867501115E+03 0.  0.
        4    1    3    3  502    0 -0.78286716039E+02 -0.22320319254E+03 -0.10121526054E+02  0.23675416207E+03  0.12699999809E+01 0.  1.
       -4    1    3    3    0  502  0.78286716039E+02  0.22320319254E+03 -0.11711858642E+04  0.11948332170E+04  0.12699999809E+01 0. -1.
</event>
<event>
 5   0  0.2077795E-02  0.9221791E+03  0.7818609E-02  0.9398273E-01
        1   -1    0    0  501    0  0.00000000000E+00  0.00000000000E+00  0.57760538701E+03  0.57760538703E+03  0.50400001928E-02 0.  1.
       -1   -1    0    0    0  501  0.00000000000E+00  0.00000000000E+00 -0.36807757686E+03  0.36807757689E+03  0.50400001928E-02 0. -1.
    10030    2    1    2    0    0  0.00000000000E+00  0.00000000000E+00  0.20952781015E+03  0.94568296393E+03  0.92217913934E+03 0.  0.
        5    1    3    3  502    0 -0.28050806275E+03  0.31372233197E+03 -0.88384726433E+02  0.43004700291E+03  0.46999998093E+01 0. -1.
       -5    1    3    3    0  502  0.28050806275E+03 -0.31372233197E+03  0.29791253659E+03  0.51563596102E+03  0.46999998093E+01 0.  1.
</event>
<event>
 5   0  0.2129257E-02  0.7996752E+03  0.7818609E-02  0.9560487E-01
        1   -1    0    0  501    0  0.00000000000E+00  0.00000000000E+00  0.11253930090E+04  0.11253930090E+04  0.50400001928E-02 0.  1.
       -1   -1    0    0    0  501  0.00000000000E+00  0.00000000000E+00 -0.14205713554E+03  0.14205713563E+03  0.50400001928E-02 0. -1.
    10030    2    1    2    0    0  0.00000000000E+00  0.00000000000E+00  0.98333587344E+03  0.12674501446E+04  0.79967520225E+03 0.  0.
        3    1    3    3  502    0 -0.17824402663E+03 -0.52888819384E+02  0.10527109371E+04  0.10690035021E+04  0.10100000352E+00 0.  1.
       -3    1    3    3    0  502  0.17824402663E+03  0.52888819384E+02 -0.69375063691E+02  0.19844664247E+03  0.10100000352E+00 0. -1.
</event>
<event>
 5   0  0.3404132E-02  0.8031183E+03  0.7818609E-02  0.9555514E-01
        2   -1    0    0  501    0  0.00000000000E+00  0.00000000000E+00  0.95474232645E+03  0.95474232645E+03  0.25500000920E-02 0.  1.
       -2   -1    0    0    0  501  0.00000000000E+00  0.00000000000E+00 -0.16889348727E+03  0.16889348729E+03  0.25500000920E-02 0. -1.
    10030    2    1    2    0    0  0.00000000000E+00  0.00000000000E+00  0.78584883917E+03  0.11236358137E+04  0.80311832497E+03 0.  0.
        5    1    3    3  502    0  0.20434054145E+03 -0.17110498078E+03 -0.27259040943E+02  0.26794983978E+03  0.46999998093E+01 0. -1.
       -5    1    3    3    0  502 -0.20434054145E+03  0.17110498078E+03  0.81310788012E+03  0.85568597396E+03  0.46999998093E+01 0.  1.
</event>
<event>
 5   0  0.2077795E-02  0.8005223E+03  0.7818609E-02  0.9559261E-01
       -1   -1    0    0    0  501  0.00000000000E+00  0.00000000000E+00  0.51199193341E+03  0.51199193344E+03  0.50400001928E-02 0. -1.
        1   -1    0    0  501    0  0.00000000000E+00  0.00000000000E+00 -0.31291312898E+03  0.31291312902E+03  0.50400001928E-02 0.  1.
    10030    2    1    2    0    0  0.00000000000E+00  0.00000000000E+00  0.19907880443E+03  0.82490506246E+03  0.80052232430E+03 0.  0.
        5    1    3    3  502    0 -0.13810231967E+03 -0.92330127439E+02 -0.27568025886E+03  0.32189873913E+03  0.46999998093E+01 0.  1.
       -5    1    3    3    0  502  0.13810231967E+03  0.92330127439E+02  0.47475906329E+03  0.50300632333E+03  0.46999998093E+01 0. -1.
</event>
<event>
 5   0  0.3416160E-02  0.7956290E+03  0.7818609E-02  0.9566366E-01
       -2   -1    0    0    0  501  0.00000000000E+00  0.00000000000E+00  0.99073459572E+02  0.99073459605E+02  0.25500000920E-02 0. -1.
        2   -1    0    0  501    0  0.00000000000E+00  0.00000000000E+00 -0.15973638339E+04  0.15973638339E+04  0.25500000920E-02 0.  1.
    10030    2    1    2    0    0  0.00000000000E+00  0.00000000000E+00 -0.14982903743E+04  0.16964372935E+04  0.79562896188E+03 0.  0.
        1    1    3    3  502    0 -0.19849410293E+02 -0.35745037913E+03 -0.11190157646E+04  0.11748876772E+04  0.50400001928E-02 0.  1.
       -1    1    3    3    0  502  0.19849410293E+02  0.35745037913E+03 -0.37927460969E+03  0.52154961625E+03  0.50400001928E-02 0. -1.
</event>
<event>
 5   0  0.2129257E-02  0.8062709E+03  0.7818609E-02  0.9550984E-01
        1   -1    0    0  501    0  0.00000000000E+00  0.00000000000E+00  0.35242636911E+03  0.35242636915E+03  0.50400001928E-02 0. -1.
       -1   -1    0    0    0  501  0.00000000000E+00  0.00000000000E+00 -0.46114086237E+03  0.46114086240E+03  0.50400001928E-02 0.  1.
    10030    2    1    2    0    0  0.00000000000E+00  0.00000000000E+00 -0.10871449326E+03  0.81356723155E+03  0.80627092172E+03 0.  0.
        3    1    3    3  502    0  0.81485163528E+00 -0.39279781297E+03  0.37168621249E+02  0.39455329484E+03  0.10100000352E+00 0. -1.
       -3    1    3    3    0  502 -0.81485163528E+00  0.39279781297E+03 -0.14588311451E+03  0.41901393671E+03  0.10100000352E+00 0.  1.
</event>
<event>
 5   0  0.2063692E-02  0.7938999E+03  0.7818609E-02  0.9568889E-01
       -1   -1    0    0    0  501  0.00000000000E+00  0.00000000000E+00  0.18518913760E+03  0.18518913767E+03  0.50400001928E-02 0.  1.
        1   -1    0    0  501    0  0.00000000000E+00  0.00000000000E+00 -0.85085587947E+03  0.85085587949E+03  0.50400001928E-02 0. -1.
    10030    2    1    2    0    0  0.00000000000E+00  0.00000000000E+00 -0.66566674187E+03  0.10360450172E+04  0.79389990952E+03 0.  0.
        2    1    3    3  502    0  0.36217717378E+02  0.16480377462E+03  0.13605707669E+03  0.21675685757E+03  0.25500000920E-02 0.  1.
       -2    1    3    3    0  502 -0.36217717378E+02 -0.16480377462E+03 -0.80172381856E+03  0.81928815958E+03  0.25500000920E-02 0. -1.
</event>
<event>
 5   0  0.1358000E-02  0.8053018E+03  0.7818609E-02  0.9552375E-01
       -3   -1    0    0    0  501  0.00000000000E+00  0.00000000000E+00  0.22052179983E+03  0.22052182296E+03  0.10100000352E+00 0. -1.
        3   -1    0    0  501    0  0.00000000000E+00  0.00000000000E+00 -0.73520043956E+03  0.73520044650E+03  0.10100000352E+00 0.  1.
    10030    2    1    2    0    0  0.00000000000E+00  0.00000000000E+00 -0.51467863973E+03  0.95572226946E+03  0.80530177831E+03 0.  0.
        1    1    3    3  502    0 -0.98949817361E+02 -0.36896725820E+03 -0.10628667398E+03  0.39651577657E+03  0.50400001928E-02 0. -1.
       -1    1    3    3    0  502  0.98949817361E+02  0.36896725820E+03 -0.40839196575E+03  0.55920649289E+03  0.50400001928E-02 0.  1.
</event>
<event>
 5   0  0.3416160E-02  0.7922223E+03  0.7818609E-02  0.9571344E-01
       -2   -1    0    0    0  501  0.00000000000E+00  0.00000000000E+00  0.44677926512E+03  0.44677926513E+03  0.25500000920E-02 0. -1.
        2   -1    0    0  501    0  0.00000000000E+00  0.00000000000E+00 -0.35118914113E+03  0.35118914114E+03  0.25500000920E-02 0.  1.
    10030    2    1    2    0    0  0.00000000000E+00  0.00000000000E+00  0.95590123992E+02  0.79796840627E+03  0.79222225771E+03 0.  0.
        1    1    3    3  502    0  0.54593565319E+02  0.39027374736E+03  0.73795857846E+01  0.39414275785E+03  0.50400001928E-02 0. -1.
       -1    1    3    3    0  502 -0.54593565319E+02 -0.39027374736E+03  0.88210538207E+02  0.40382564843E+03  0.50400001928E-02 0.  1.
</event>
<event>
 5   0  0.3550586E-02  0.7926977E+03  0.7818609E-02  0.9570647E-01
       -2   -1    0    0    0  501  0.00000000000E+00  0.00000000000E+00  0.13891229684E+03  0.13891229686E+03  0.25500000920E-02 0. -1.
        2   -1    0    0  501    0  0.00000000000E+00  0.00000000000E+00 -0.11308748516E+04  0.11308748516E+04  0.25500000920E-02 0.  1.
    10030    2    1    2    0    0  0.00000000000E+00  0.00000000000E+00 -0.99196255476E+03  0.12697871485E+04  0.79269773076E+03 0.  0.
        3    1    3    3  502    0 -0.14359512584E+03  0.86314882979E+01 -0.10875808763E+04  0.10970534333E+04  0.10100000352E+00 0.  1.
       -3    1    3    3    0  502  0.14359512584E+03 -0.86314882979E+01  0.95618321532E+02  0.17273371520E+03  0.10100000352E+00 0. -1.
</event>
<event>
 5   0  0.3416160E-02  0.7133209E+03  0.7818609E-02  0.9694719E-01
       -2   -1    0    0    0  501  0.00000000000E+00  0.00000000000E+00  0.12953245503E+03  0.12953245505E+03  0.25500000920E-02 0.  1.
        2   -1    0    0  501    0  0.00000000000E+00  0.00000000000E+00 -0.98204476305E+03  0.98204476305E+03  0.25500000920E-02 0. -1.
    10030    2    1    2    0    0  0.00000000000E+00  0.00000000000E+00 -0.85251230802E+03  0.11115772181E+04  0.71332087904E+03 0.  0.
        1    1    3    3  502    0  0.94930697449E+02 -0.34378367185E+03 -0.42195488623E+03  0.55248979754E+03  0.50400001928E-02 0. -1.
       -1    1    3    3    0  502 -0.94930697449E+02  0.34378367185E+03 -0.43055742179E+03  0.55908742056E+03  0.50400001928E-02 0.  1.
</event>
<event>
 5   0  0.3550586E-02  0.7948092E+03  0.7818609E-02  0.9567561E-01
        2   -1    0    0  501    0  0.00000000000E+00  0.00000000000E+00  0.11427610869E+04  0.11427610869E+04  0.25500000920E-02 0.  1.
       -2   -1    0    0    0  501  0.00000000000E+00  0.00000000000E+00 -0.13820073046E+03  0.13820073048E+03  0.25500000920E-02 0. -1.
    10030    2    1    2    0    0  0.00000000000E+00  0.00000000000E+00  0.10045603564E+04  0.12809618173E+04  0.79480920216E+03 0.  0.
        3    1    3    3  502    0  0.22671268211E+03  0.28569598691E+03  0.24791573084E+03  0.44100233215E+03  0.10100000352E+00 0. -1.
       -3    1    3    3    0  502 -0.22671268211E+03 -0.28569598691E+03  0.75664462556E+03  0.83995948519E+03  0.10100000352E+00 0.  1.
</event>
<event>
 5   0  0.3467240E-02  0.7986282E+03  0.7818609E-02  0.9562005E-01
       -2   -1    0    0    0  501  0.00000000000E+00  0.00000000000E+00  0.98409473301E+02  0.98409473334E+02  0.25500000920E-02 0.  1.
        2   -1    0    0  501    0  0.00000000000E+00  0.00000000000E+00 -0.16202887036E+04  0.16202887036E+04  0.25500000920E-02 0. -1.
    10030    2    1    2    0    0  0.00000000000E+00  0.00000000000E+00 -0.15218792303E+04  0.17186981769E+04  0.79862821875E+03 0.  0.
        2    1    3    3  502    0 -0.38924408406E+03 -0.54940813201E+02 -0.91192654612E+03  0.99304555558E+03  0.25500000920E-02 0.  1.
       -2    1    3    3    0  502  0.38924408406E+03  0.54940813201E+02 -0.60995268417E+03  0.72565262135E+03  0.25500000920E-02 0. -1.
</event>
<event>
 5   0  0.3416160E-02  0.8062137E+03  0.7818609E-02  0.9551066E-01
       -2   -1    0    0    0  501  0.00000000000E+00  0.00000000000E+00  0.24862515588E+03  0.24862515589E+03  0.25500000920E-02 0. -1.
        2   -1    0    0  501    0  0.00000000000E+00  0.00000000000E+00 -0.65357480677E+03  0.65357480678E+03  0.25500000920E-02 0.  1.
    10030    2    1    2    0    0  0.00000000000E+00  0.00000000000E+00 -0.40494965089E+03  0.90219996267E+03  0.80621371415E+03 0.  0.
        1    1    3    3  502    0  0.14925650500E+03  0.48868163905E+02  0.21297996509E+03  0.26462438906E+03  0.50400001928E-02 0. -1.
       -1    1    3    3    0  502 -0.14925650500E+03 -0.48868163905E+02 -0.61792961598E+03  0.63757557361E+03  0.50400001928E-02 0.  1.
</event>
<event>
 5   0  0.2077795E-02  0.8542249E+03  0.7818609E-02  0.9484684E-01
        1   -1    0    0  501    0  0.00000000000E+00  0.00000000000E+00  0.60835622623E+03  0.60835622625E+03  0.50400001928E-02 0.  1.
       -1   -1    0    0    0  501  0.00000000000E+00  0.00000000000E+00 -0.29986549021E+03  0.29986549025E+03  0.50400001928E-02 0. -1.
    10030    2    1    2    0    0  0.00000000000E+00  0.00000000000E+00  0.30849073602E+03  0.90822171651E+03  0.85422488381E+03 0.  0.
        5    1    3    3  502    0  0.26652147066E+03 -0.32371300628E+03  0.24048449191E+03  0.48340323293E+03  0.46999998093E+01 0.  1.
       -5    1    3    3    0  502 -0.26652147066E+03  0.32371300628E+03  0.68006244111E+02  0.42481848358E+03  0.46999998093E+01 0. -1.
</event>
<event>
 5   0  0.2077795E-02  0.7982895E+03  0.7818609E-02  0.9562496E-01
        1   -1    0    0  501    0  0.00000000000E+00  0.00000000000E+00  0.99198836107E+03  0.99198836108E+03  0.50400001928E-02 0.  1.
       -1   -1    0    0    0  501  0.00000000000E+00  0.00000000000E+00 -0.16060323478E+03  0.16060323486E+03  0.50400001928E-02 0. -1.
    10030    2    1    2    0    0  0.00000000000E+00  0.00000000000E+00  0.83138512629E+03  0.11525915959E+04  0.79828952067E+03 0.  0.
        5    1    3    3  502    0 -0.21285786626E+03  0.16224521385E+02 -0.71206214549E+02  0.22508691946E+03  0.46999998093E+01 0. -1.
       -5    1    3    3    0  502  0.21285786626E+03 -0.16224521385E+02  0.90259134084E+03  0.92750467648E+03  0.46999998093E+01 0.  1.
</event>
<event>
 5   0  0.3467240E-02  0.7997481E+03  0.7818609E-02  0.9560382E-01
       -2   -1    0    0    0  501  0.00000000000E+00  0.00000000000E+00  0.24141959442E+03  0.24141959443E+03  0.25500000920E-02 0.  1.
        2   -1    0    0  501    0  0.00000000000E+00  0.00000000000E+00 -0.66232929759E+03  0.66232929760E+03  0.25500000920E-02 0. -1.
    10030    2    1    2    0    0  0.00000000000E+00  0.00000000000E+00 -0.42090970317E+03  0.90374889203E+03  0.79974813637E+03 0.  0.
        2    1    3    3  502    0 -0.11228783646E+03  0.36250560268E+03 -0.35285985963E+03  0.51819779113E+03  0.25500000920E-02 0.  1.
       -2    1    3    3    0  502  0.11228783646E+03 -0.36250560268E+03 -0.68049843547E+02  0.38555110090E+03  0.25500000920E-02 0. -1.
</event>
<event>
 5   0  0.2129257E-02  0.7766360E+03  0.7818609E-02  0.9594465E-01
        1   -1    0    0  501    0  0.00000000000E+00  0.00000000000E+00  0.17064709190E+03  0.17064709197E+03  0.50400001928E-02 0.  1.
       -1   -1    0    0    0  501  0.00000000000E+00  0.00000000000E+00 -0.88364151520E+03  0.88364151522E+03  0.50400001928E-02 0. -1.
    10030    2    1    2    0    0  0.00000000000E+00  0.00000000000E+00 -0.71299442331E+03  0.10542886072E+04  0.77663596336E+03 0.  0.
        3    1    3    3  502    0 -0.12696208097E+03  0.22998101861E+03 -0.74470667291E+03  0.78968264372E+03  0.10100000352E+00 0. -1.
       -3    1    3    3    0  502  0.12696208097E+03 -0.22998101861E+03  0.31712249601E+02  0.26460596346E+03  0.10100000352E+00 0.  1.
</event>
<event>
 5   0  0.2077795E-02  0.7894999E+03  0.7818609E-02  0.9575341E-01
        1   -1    0    0  501    0  0.00000000000E+00  0.00000000000E+00  0.36007258886E+03  0.36007258889E+03  0.50400001928E-02 0. -1.
       -1   -1    0    0    0  501  0.00000000000E+00  0.00000000000E+00 -0.43276692330E+03  0.43276692332E+03  0.50400001928E-02 0.  1.
    10030    2    1    2    0    0  0.00000000000E+00  0.00000000000E+00 -0.72694334438E+02  0.79283951222E+03  0.78949985806E+03 0.  0.
        5    1    3    3  502    0 -0.31985503361E+03  0.28581414260E+02  0.19414776174E+03  0.37528600181E+03  0.46999998093E+01 0. -1.
       -5    1    3    3    0  502  0.31985503361E+03 -0.28581414260E+02 -0.26684209618E+03  0.41755351041E+03  0.46999998093E+01 0.  1.
</event>
<event>
 5   0  0.3404132E-02  0.8062446E+03  0.7818609E-02  0.9551022E-01
        2   -1    0    0  501    0  0.00000000000E+00  0.00000000000E+00  0.64756778932E+03  0.64756778933E+03  0.25500000920E-02 0.  1.
       -2   -1    0    0    0  501  0.00000000000E+00  0.00000000000E+00 -0.25095070038E+03  0.25095070040E+03  0.25500000920E-02 0. -1.
    10030    2    1    2    0    0  0.00000000000E+00  0.00000000000E+00  0.39661708894E+03  0.89851848972E+03  0.80624460379E+03 0.  0.
        5    1    3    3  502    0 -0.20679099592E+03 -0.22380384709E+03  0.49239392357E+03  0.57907214053E+03  0.46999998093E+01 0.  1.
       -5    1    3    3    0  502  0.20679099592E+03  0.22380384709E+03 -0.95776834633E+02  0.31944634920E+03  0.46999998093E+01 0. -1.
</event>
<event>
 5   0  0.3550586E-02  0.7277111E+03  0.7818609E-02  0.9670982E-01
       -2   -1    0    0    0  501  0.00000000000E+00  0.00000000000E+00  0.12003401964E+03  0.12003401967E+03  0.25500000920E-02 0. -1.
        2   -1    0    0  501    0  0.00000000000E+00  0.00000000000E+00 -0.11029443603E+04  0.11029443603E+04  0.25500000920E-02 0.  1.
    10030    2    1    2    0    0  0.00000000000E+00  0.00000000000E+00 -0.98291034064E+03  0.12229783800E+04  0.72771105536E+03 0.  0.
        3    1    3    3  502    0  0.80066466052E+01  0.12732875141E+03 -0.10641223841E+04  0.10717430550E+04  0.10100000352E+00 0.  1.
       -3    1    3    3    0  502 -0.80066466052E+01 -0.12732875141E+03  0.81212043443E+02  0.15123532500E+03  0.10100000352E+00 0. -1.
</event>
<event>
 5   0  0.2077795E-02  0.8104418E+03  0.7818609E-02  0.9545025E-01
        1   -1    0    0  501    0  0.00000000000E+00  0.00000000000E+00  0.66513906746E+03  0.66513906748E+03  0.50400001928E-02 0.  1.
       -1   -1    0    0    0  501  0.00000000000E+00  0.00000000000E+00 -0.24687164397E+03  0.24687164402E+03  0.50400001928E-02 0. -1.
    10030    2    1    2    0    0  0.00000000000E+00  0.00000000000E+00  0.41826742349E+03  0.91201071150E+03  0.81044179331E+03 0.  0.
        5    1    3    3  502    0  0.18468395009E+03  0.50638948570E+02  0.61097008579E+03  0.64029602550E+03  0.46999998093E+01 0.  1.
       -5    1    3    3    0  502 -0.18468395009E+03 -0.50638948570E+02 -0.19270266230E+03  0.27171468601E+03  0.46999998093E+01 0. -1.
</event>
<event>
 5   0  0.3467240E-02  0.7935166E+03  0.7818609E-02  0.9569449E-01
        2   -1    0    0  501    0  0.00000000000E+00  0.00000000000E+00  0.14319090626E+04  0.14319090626E+04  0.25500000920E-02 0.  1.
       -2   -1    0    0    0  501  0.00000000000E+00  0.00000000000E+00 -0.10993514563E+03  0.10993514566E+03  0.25500000920E-02 0. -1.
    10030    2    1    2    0    0  0.00000000000E+00  0.00000000000E+00  0.13219739170E+04  0.15418442083E+04  0.79351655649E+03 0.  0.
        2    1    3    3  502    0 -0.24662476836E+03  0.25536090303E+03  0.31676403824E+03  0.47578611066E+03  0.25500000920E-02 0. -1.
       -2    1    3    3    0  502  0.24662476836E+03 -0.25536090303E+03  0.10052098787E+04  0.10660580976E+04  0.25500000920E-02 0.  1.
</event>
<event>
 5   0  0.1989298E-02  0.7435142E+03  0.7818609E-02  0.9645581E-01
       -1   -1    0    0    0  501  0.00000000000E+00  0.00000000000E+00  0.74126552673E+03  0.74126552674E+03  0.50400001928E-02 0.  1.
        1   -1    0    0  501    0  0.00000000000E+00  0.00000000000E+00 -0.18644243030E+03  0.18644243037E+03  0.50400001928E-02 0. -1.
    10030    2    1    2    0    0  0.00000000000E+00  0.00000000000E+00  0.55482309643E+03  0.92770795711E+03  0.74351421329E+03 0.  0.
        1    1    3    3  502    0  0.11162210122E+03 -0.69430981752E+02  0.71129871714E+03  0.72334363877E+03  0.50400001928E-02 0.  1.
       -1    1    3    3    0  502 -0.11162210122E+03  0.69430981752E+02 -0.15647562072E+03  0.20436431834E+03  0.50400001928E-02 0. -1.
</event>
<event>
 5   0  0.1358000E-02  0.7994960E+03  0.7818609E-02  0.9560747E-01
       -3   -1    0    0    0  501  0.00000000000E+00  0.00000000000E+00  0.52633735076E+03  0.52633736045E+03  0.10100000352E+00 0.  1.
        3   -1    0    0  501    0  0.00000000000E+00  0.00000000000E+00 -0.30360459865E+03  0.30360461545E+03  0.10100000352E+00 0. -1.
    10030    2    1    2    0    0  0.00000000000E+00  0.00000000000E+00  0.22273275211E+03  0.82994197590E+03  0.79949596903E+03 0.  0.
        4    1    3    3  502    0 -0.16308731295E+03 -0.34808298557E+03  0.22526053117E+03  0.44553693033E+03  0.12699999809E+01 0.  1.
       -4    1    3    3    0  502  0.16308731295E+03  0.34808298557E+03 -0.25277790632E+01  0.38440504556E+03  0.12699999809E+01 0. -1.
</event>
<event>
 5   0  0.3416160E-02  0.7974499E+03  0.7818609E-02  0.9563716E-01
       -2   -1    0    0    0  501  0.00000000000E+00  0.00000000000E+00  0.20967682398E+03  0.20967682400E+03  0.25500000920E-02 0. -1.
        2   -1    0    0  501    0  0.00000000000E+00  0.00000000000E+00 -0.75822194812E+03  0.75822194812E+03  0.25500000920E-02 0.  1.
    10030    2    1    2    0    0  0.00000000000E+00  0.00000000000E+00 -0.54854512414E+03  0.96789877212E+03  0.79744986040E+03 0.  0.
        1    1    3    3  502    0  0.64719367181E+02  0.46100634633E+02 -0.74851470129E+03  0.75272048137E+03  0.50400001928E-02 0.  1.
       -1    1    3    3    0  502 -0.64719367181E+02 -0.46100634633E+02  0.19996957715E+03  0.21517829075E+03  0.50400001928E-02 0. -1.
</event>
<event>
 5   0  0.2063692E-02  0.8897127E+03  0.7818609E-02  0.9438533E-01
        1   -1    0    0  501    0  0.00000000000E+00  0.00000000000E+00  0.92790200411E+03  0.92790200412E+03  0.50400001928E-02 0. -1.
       -1   -1    0    0    0  501  0.00000000000E+00  0.00000000000E+00 -0.21327378665E+03  0.21327378671E+03  0.50400001928E-02 0.  1.
    10030    2    1    2    0    0  0.00000000000E+00  0.00000000000E+00  0.71462821746E+03  0.11411757908E+04  0.88971270442E+03 0.  0.
        2    1    3    3  502    0  0.32881178942E+03 -0.29897726399E+03  0.38272764507E+03  0.58650238495E+03  0.25500000920E-02 0.  1.
       -2    1    3    3    0  502 -0.32881178942E+03  0.29897726399E+03  0.33190057239E+03  0.55467340589E+03  0.25500000920E-02 0. -1.
</event>
<event>
 5   0  0.2129257E-02  0.7363201E+03  0.7818609E-02  0.9657060E-01
       -1   -1    0    0    0  501  0.00000000000E+00  0.00000000000E+00  0.20661648259E+03  0.20661648265E+03  0.50400001928E-02 0. -1.
        1   -1    0    0  501    0  0.00000000000E+00  0.00000000000E+00 -0.65600681818E+03  0.65600681820E+03  0.50400001928E-02 0.  1.
    10030    2    1    2    0    0  0.00000000000E+00  0.00000000000E+00 -0.44939033559E+03  0.86262330086E+03  0.73632009714E+03 0.  0.
        3    1    3    3  502    0  0.30720147963E+03 -0.16709472696E+03 -0.35954067495E+03  0.50156046895E+03  0.10100000352E+00 0.  1.
       -3    1    3    3    0  502 -0.30720147963E+03  0.16709472696E+03 -0.89849660641E+02  0.36106283191E+03  0.10100000352E+00 0. -1.
</event>
<event>
 5   0  0.2077795E-02  0.1041746E+04  0.7818609E-02  0.9263907E-01
       -1   -1    0    0    0  501  0.00000000000E+00  0.00000000000E+00  0.26686959534E+03  0.26686959539E+03  0.50400001928E-02 0. -1.
        1   -1    0    0  501    0  0.00000000000E+00  0.00000000000E+00 -0.10166339927E+04  0.10166339927E+04  0.50400001928E-02 0.  1.
    10030    2    1    2    0    0  0.00000000000E+00  0.00000000000E+00 -0.74976439732E+03  0.12835035881E+04  0.10417460387E+04 0.  0.
        5    1    3    3  502    0  0.15827695239E+03  0.49562699784E+03 -0.40478109319E+03  0.65921736783E+03  0.46999998093E+01 0.  1.
       -5    1    3    3    0  502 -0.15827695239E+03 -0.49562699784E+03 -0.34498330413E+03  0.62428622023E+03  0.46999998093E+01 0. -1.
</event>
<event>
 5   0  0.2063692E-02  0.7796230E+03  0.7818609E-02  0.9589990E-01
        1   -1    0    0  501    0  0.00000000000E+00  0.00000000000E+00  0.17498713156E+03  0.17498713163E+03  0.50400001928E-02 0. -1.
       -1   -1    0    0    0  501  0.00000000000E+00  0.00000000000E+00 -0.86836671119E+03  0.86836671120E+03  0.50400001928E-02 0.  1.
    10030    2    1    2    0    0  0.00000000000E+00  0.00000000000E+00 -0.69337957963E+03  0.10433538428E+04  0.77962298575E+03 0.  0.
        2    1    3    3  502    0 -0.23097298801E+03 -0.22475013149E+03 -0.64017266106E+03  0.71671624704E+03  0.25500000920E-02 0.  1.
       -2    1    3    3    0  502  0.23097298801E+03  0.22475013149E+03 -0.53206918574E+02  0.32663759579E+03  0.25500000920E-02 0. -1.
</event>
<event>
 5   0  0.3343036E-02  0.7956625E+03  0.7818609E-02  0.9566317E-01
       -2   -1    0    0    0  501  0.00000000000E+00  0.00000000000E+00  0.16692360596E+03  0.16692360598E+03  0.25500000920E-02 0.  1.
        2   -1    0    0  501    0  0.00000000000E+00  0.00000000000E+00 -0.94815640438E+03  0.94815640438E+03  0.25500000920E-02 0. -1.
    10030    2    1    2    0    0  0.00000000000E+00  0.00000000000E+00 -0.78123279842E+03  0.11150800104E+04  0.79566245618E+03 0.  0.
        4    1    3    3  502    0 -0.38031300360E+03 -0.79235126528E+02 -0.27045178936E+03  0.47335184509E+03  0.12699999809E+01 0. -1.
       -4    1    3    3    0  502  0.38031300360E+03  0.79235126528E+02 -0.51078100906E+03  0.64172816526E+03  0.12699999809E+01 0.  1.
</event>
<event>
 5   0  0.2132540E-02  0.8023320E+03  0.7818609E-02  0.9556648E-01
        1   -1    0    0  501    0  0.00000000000E+00  0.00000000000E+00  0.17322021341E+04  0.17322021341E+04  0.50400001928E-02 0.  1.
       -1   -1    0    0    0  501  0.00000000000E+00  0.00000000000E+00 -0.92907269231E+02  0.92907269368E+02  0.50400001928E-02 0. -1.
    10030    2    1    2    0    0  0.00000000000E+00  0.00000000000E+00  0.16392948649E+04  0.18251094035E+04  0.80233202645E+03 0.  0.
        4    1    3    3  502    0 -0.13940568204E+03 -0.25619526858E+02 -0.34044655338E+02  0.14577707570E+03  0.12699999809E+01 0. -1.
       -4    1    3    3    0  502  0.13940568204E+03  0.25619526858E+02  0.16733395202E+04  0.16793323278E+04  0.12699999809E+01 0.  1.
</event>
<event>
 5   0  0.2129257E-02  0.8138573E+03  0.7818609E-02  0.9540173E-01
       -1   -1    0    0    0  501  0.00000000000E+00  0.00000000000E+00  0.15545334421E+03  0.15545334429E+03  0.50400001928E-02 0. -1.
        1   -1    0    0  501    0  0.00000000000E+00  0.00000000000E+00 -0.10652130162E+04  0.10652130162E+04  0.50400001928E-02 0.  1.
    10030    2    1    2    0    0  0.00000000000E+00  0.00000000000E+00 -0.90975967196E+03  0.12206663605E+04  0.81385729882E+03 0.  0.
        3    1    3    3  502    0  0.24932348168E+03  0.35645506934E+02  0.24505945403E+02  0.25304812238E+03  0.10100000352E+00 0. -1.
       -3    1    3    3    0  502 -0.24932348168E+03 -0.35645506934E+02 -0.93426561736E+03  0.96761823808E+03  0.10100000352E+00 0.  1.
</event>
<event>
 5   0  0.1358000E-02  0.8617081E+03  0.7818609E-02  0.9474756E-01
        4   -1    0    0  501    0  0.00000000000E+00  0.00000000000E+00  0.27180954696E+03  0.27181251391E+03  0.12699999809E+01 0.  1.
       -4   -1    0    0    0  501  0.00000000000E+00  0.00000000000E+00 -0.68295338555E+03  0.68295456638E+03  0.12699999809E+01 0. -1.
    10030    2    1    2    0    0  0.00000000000E+00  0.00000000000E+00 -0.41114383859E+03  0.95476708029E+03  0.86170814177E+03 0.  0.
        4    1    3    3  502    0 -0.37592425507E+03 -0.17923836409E+03 -0.32789451374E+03  0.53005835693E+03  0.12699999809E+01 0. -1.
       -4    1    3    3    0  502  0.37592425507E+03  0.17923836409E+03 -0.83249324854E+02  0.42470872336E+03  0.12699999809E+01 0.  1.
</event>
<event>
 5   0  0.3416160E-02  0.8086319E+03  0.7818609E-02  0.9547606E-01
       -2   -1    0    0    0  501  0.00000000000E+00  0.00000000000E+00  0.43666060620E+03  0.43666060621E+03  0.25500000920E-02 0. -1.
        2   -1    0    0  501    0  0.00000000000E+00  0.00000000000E+00 -0.37436717855E+03  0.37436717856E+03  0.25500000920E-02 0.  1.
    10030    2    1    2    0    0  0.00000000000E+00  0.00000000000E+00  0.62293427647E+02  0.81102778477E+03  0.80863192896E+03 0.  0.
        1    1    3    3  502    0 -0.60813858544E+02  0.43567001366E+02 -0.36736538902E+03  0.37490497206E+03  0.50400001928E-02 0.  1.
       -1    1    3    3    0  502  0.60813858544E+02 -0.43567001366E+02  0.42965881667E+03  0.43612281271E+03  0.50400001928E-02 0. -1.
</event>
<event>
 5   0  0.3550586E-02  0.8051747E+03  0.7818609E-02  0.9552557E-01
        2   -1    0    0  501    0  0.00000000000E+00  0.00000000000E+00  0.17881328721E+04  0.17881328721E+04  0.25500000920E-02 0.  1.
       -2   -1    0    0    0  501  0.00000000000E+00  0.00000000000E+00 -0.90640127753E+02  0.90640127789E+02  0.25500000920E-02 0. -1.
    10030    2    1    2    0    0  0.00000000000E+00  0.00000000000E+00  0.16974927444E+04  0.18787729999E+04  0.80517474377E+03 0.  0.
        3    1    3    3  502    0 -0.13781958760E+03 -0.34203462061E+03  0.47181698424E+03  0.59882651682E+03  0.10100000352E+00 0. -1.
       -3    1    3    3    0  502  0.13781958760E+03  0.34203462061E+03  0.12256757601E+04  0.12799464831E+04  0.10100000352E+00 0.  1.
</event>
<event>
 5   0  0.3550586E-02  0.7904201E+03  0.7818609E-02  0.9573988E-01
       -2   -1    0    0    0  501  0.00000000000E+00  0.00000000000E+00  0.14046856218E+03  0.14046856221E+03  0.25500000920E-02 0. -1.
        2   -1    0    0  501    0  0.00000000000E+00  0.00000000000E+00 -0.11119283271E+04  0.11119283271E+04  0.25500000920E-02 0.  1.
    10030    2    1    2    0    0  0.00000000000E+00  0.00000000000E+00 -0.97145976489E+03  0.12523968893E+04  0.79042007407E+03 0.  0.
        3    1    3    3  502    0 -0.21768112068E+03  0.37556995819E+02  0.33520455579E+02  0.22342611615E+03  0.10100000352E+00 0. -1.
       -3    1    3    3    0  502  0.21768112068E+03 -0.37556995819E+02 -0.10049802205E+04  0.10289707731E+04  0.10100000352E+00 0.  1.
</event>
<event>
 5   0  0.2132540E-02  0.7860890E+03  0.7818609E-02  0.9580374E-01
        1   -1    0    0  501    0  0.00000000000E+00  0.00000000000E+00  0.11106148220E+04  0.11106148220E+04  0.50400001928E-02 0.  1.
       -1   -1    0    0    0  501  0.00000000000E+00  0.00000000000E+00 -0.13909769955E+03  0.13909769964E+03  0.50400001928E-02 0. -1.
    10030    2    1    2    0    0  0.00000000000E+00  0.00000000000E+00  0.97151712244E+03  0.12497125217E+04  0.78608896925E+03 0.  0.
        4    1    3    3  502    0 -0.24538909277E+03  0.18450118458E+02  0.97298590932E+03  0.10036231396E+04  0.12699999809E+01 0.  1.
       -4    1    3    3    0  502  0.24538909277E+03 -0.18450118458E+02 -0.14687868738E+01  0.24608938205E+03  0.12699999809E+01 0. -1.
</event>
<event>
 5   0  0.3416160E-02  0.7957700E+03  0.7818609E-02  0.9566160E-01
       -2   -1    0    0    0  501  0.00000000000E+00  0.00000000000E+00  0.14119245641E+03  0.14119245644E+03  0.25500000920E-02 0.  1.
        2   -1    0    0  501    0  0.00000000000E+00  0.00000000000E+00 -0.11212531540E+04  0.11212531540E+04  0.25500000920E-02 0. -1.
    10030    2    1    2    0    0  0.00000000000E+00  0.00000000000E+00 -0.98006069758E+03  0.12624456104E+04  0.79577003484E+03 0.  0.
        1    1    3    3  502    0 -0.16347837814E+03  0.13566099607E+03  0.43693323008E+02  0.21688290037E+03  0.50400001928E-02 0.  1.
       -1    1    3    3    0  502  0.16347837814E+03 -0.13566099607E+03 -0.10237540206E+04  0.10455627101E+04  0.50400001928E-02 0. -1.
</event>
<event>
 5   0  0.2063692E-02  0.8135430E+03  0.7818609E-02  0.9540618E-01
       -1   -1    0    0    0  501  0.00000000000E+00  0.00000000000E+00  0.75667428207E+02  0.75667428375E+02  0.50400001928E-02 0.  1.
        1   -1    0    0  501    0  0.00000000000E+00  0.00000000000E+00 -0.21867146334E+04  0.21867146335E+04  0.50400001928E-02 0. -1.
    10030    2    1    2    0    0  0.00000000000E+00  0.00000000000E+00 -0.21110472052E+04  0.22623820618E+04  0.81354304799E+03 0.  0.
        2    1    3    3  502    0 -0.73518865874E+01 -0.38746387055E+03 -0.13992857482E+04  0.14519583005E+04  0.25500000920E-02 0. -1.
       -2    1    3    3    0  502  0.73518865874E+01  0.38746387055E+03 -0.71176145703E+03  0.81042376134E+03  0.25500000920E-02 0.  1.
</event>
<event>
 5   0  0.1989298E-02  0.8010619E+03  0.7818609E-02  0.9558481E-01
       -1   -1    0    0    0  501  0.00000000000E+00  0.00000000000E+00  0.18937535676E+03  0.18937535683E+03  0.50400001928E-02 0. -1.
        1   -1    0    0  501    0  0.00000000000E+00  0.00000000000E+00 -0.84712723409E+03  0.84712723411E+03  0.50400001928E-02 0.  1.
    10030    2    1    2    0    0  0.00000000000E+00  0.00000000000E+00 -0.65775187733E+03  0.10365025909E+04  0.80106185084E+03 0.  0.
        1    1    3    3  502    0 -0.23882527317E+03 -0.17021590199E+03 -0.68184109557E+03  0.74223867053E+03  0.50400001928E-02 0.  1.
       -1    1    3    3    0  502  0.23882527317E+03  0.17021590199E+03  0.24089218234E+02  0.29426392041E+03  0.50400001928E-02 0. -1.
</event>
<event>
 5   0  0.2077795E-02  0.7651063E+03  0.7818609E-02  0.9611944E-01
        1   -1    0    0  501    0  0.00000000000E+00  0.00000000000E+00  0.15076049710E+03  0.15076049718E+03  0.50400001928E-02 0.  1.
       -1   -1    0    0    0  501  0.00000000000E+00  0.00000000000E+00 -0.97072463280E+03  0.97072463281E+03  0.50400001928E-02 0. -1.
    10030    2    1    2    0    0  0.00000000000E+00  0.00000000000E+00 -0.81996413570E+03  0.11214851300E+04  0.76510634095E+03 0.  0.
        5    1    3    3  502    0  0.47433844225E+02  0.20522894703E+02  0.14557681431E+03  0.15455050194E+03  0.46999998093E+01 0.  1.
       -5    1    3    3    0  502 -0.47433844225E+02 -0.20522894703E+02 -0.96554095001E+03  0.96693462806E+03  0.46999998093E+01 0. -1.
</event>
<event>
 5   0  0.3467240E-02  0.5507285E+03  0.7818609E-02  0.1001325E+00
       -2   -1    0    0    0  501  0.00000000000E+00  0.00000000000E+00  0.16502951992E+03  0.16502951994E+03  0.25500000920E-02 0.  1.
        2   -1    0    0  501    0  0.00000000000E+00  0.00000000000E+00 -0.45946616901E+03  0.45946616902E+03  0.25500000920E-02 0. -1.
    10030    2    1    2    0    0  0.00000000000E+00  0.00000000000E+00 -0.29443664909E+03  0.62449568896E+03  0.55072854039E+03 0.  0.
        2    1    3    3  502    0  0.20664766727E+03 -0.59882989813E+02 -0.34209934365E+03  0.40413016689E+03  0.25500000920E-02 0. -1.
       -2    1    3    3    0  502 -0.20664766727E+03  0.59882989813E+02  0.47662694561E+02  0.22036552207E+03  0.25500000920E-02 0.  1.
</event>
<event>
 5   0  0.3416160E-02  0.7752067E+03  0.7818609E-02  0.9596614E-01
        2   -1    0    0  501    0  0.00000000000E+00  0.00000000000E+00  0.13931100439E+04  0.13931100439E+04  0.25500000920E-02 0.  1.
       -2   -1    0    0    0  501  0.00000000000E+00  0.00000000000E+00 -0.10784243236E+03  0.10784243239E+03  0.25500000920E-02 0. -1.
    10030    2    1    2    0    0  0.00000000000E+00  0.00000000000E+00  0.12852676116E+04  0.15009524763E+04  0.77520674844E+03 0.  0.
        1    1    3    3  502    0 -0.79256701860E+02 -0.18383213262E+03  0.12852657976E+04  0.13007628717E+04  0.50400001928E-02 0.  1.
       -1    1    3    3    0  502  0.79256701860E+02  0.18383213262E+03  0.18139386150E-02  0.20018960463E+03  0.50400001928E-02 0. -1.
</event>
<event>
 5   0  0.3404132E-02  0.7436535E+03  0.7818609E-02  0.9645360E-01
       -2   -1    0    0    0  501  0.00000000000E+00  0.00000000000E+00  0.15132677176E+03  0.15132677178E+03  0.25500000920E-02 0. -1.
        2   -1    0    0  501    0  0.00000000000E+00  0.00000000000E+00 -0.91361974655E+03  0.91361974656E+03  0.25500000920E-02 0.  1.
    10030    2    1    2    0    0  0.00000000000E+00  0.00000000000E+00 -0.76229297479E+03  0.10649465183E+04  0.74365348618E+03 0.  0.
        5    1    3    3  502    0  0.25921452105E+03 -0.10325606146E+03 -0.29261827455E+02  0.28059281298E+03  0.46999998093E+01 0. -1.
       -5    1    3    3    0  502 -0.25921452105E+03  0.10325606146E+03 -0.73303114733E+03  0.78435370536E+03  0.46999998093E+01 0.  1.
</event>
<event>
 5   0  0.1358000E-02  0.7879761E+03  0.7818609E-02  0.9577586E-01
        3   -1    0    0  501    0  0.00000000000E+00  0.00000000000E+00  0.25657240675E+03  0.25657242663E+03  0.10100000352E+00 0. -1.
       -3   -1    0    0    0  501  0.00000000000E+00  0.00000000000E+00 -0.60500100773E+03  0.60500101616E+03  0.10100000352E+00 0.  1.
    10030    2    1    2    0    0  0.00000000000E+00  0.00000000000E+00 -0.34842860098E+03  0.86157344280E+03  0.78797608298E+03 0.  0.
        2    1    3    3  502    0  0.39021162044E+03  0.31862671463E+02 -0.12597763568E+03  0.41127934942E+03  0.25500000920E-02 0. -1.
       -2    1    3    3    0  502 -0.39021162044E+03 -0.31862671463E+02 -0.22245096530E+03  0.45029409338E+03  0.25500000920E-02 0.  1.
</event>
<event>
 5   0  0.1358000E-02  0.7900672E+03  0.7818609E-02  0.9574507E-01
       -4   -1    0    0    0  501  0.00000000000E+00  0.00000000000E+00  0.30831587511E+03  0.30831849076E+03  0.12699999809E+01 0.  1.
        4   -1    0    0  501    0  0.00000000000E+00  0.00000000000E+00 -0.50613615981E+03  0.50613775315E+03  0.12699999809E+01 0. -1.
    10030    2    1    2    0    0  0.00000000000E+00  0.00000000000E+00 -0.19782028470E+03  0.81445624391E+03  0.79006715424E+03 0.  0.
        4    1    3    3  502    0  0.35741946104E+03  0.13738636289E+03 -0.19899601344E+03  0.43153761146E+03  0.12699999809E+01 0. -1.
       -4    1    3    3    0  502 -0.35741946104E+03 -0.13738636289E+03  0.11757287423E+01  0.38291863245E+03  0.12699999809E+01 0.  1.
</event>
<event>
 5   0  0.3343036E-02  0.7592534E+03  0.7818609E-02  0.9620944E-01
       -2   -1    0    0    0  501  0.00000000000E+00  0.00000000000E+00  0.23198105849E+03  0.23198105851E+03  0.25500000920E-02 0.  1.
        2   -1    0    0  501    0  0.00000000000E+00  0.00000000000E+00 -0.62124216743E+03  0.62124216744E+03  0.25500000920E-02 0. -1.
    10030    2    1    2    0    0  0.00000000000E+00  0.00000000000E+00 -0.38926110894E+03  0.85322322594E+03  0.75925335848E+03 0.  0.
        4    1    3    3  502    0  0.16932942674E+03  0.32373462733E+03 -0.78723246599E+02  0.37373189073E+03  0.12699999809E+01 0.  1.
       -4    1    3    3    0  502 -0.16932942674E+03 -0.32373462733E+03 -0.31053786234E+03  0.47949133521E+03  0.12699999809E+01 0. -1.
</event>
<event>
 5   0  0.3416160E-02  0.8051803E+03  0.7818609E-02  0.9552549E-01
        2   -1    0    0  501    0  0.00000000000E+00  0.00000000000E+00  0.11825905928E+04  0.11825905928E+04  0.25500000920E-02 0. -1.
       -2   -1    0    0    0  501  0.00000000000E+00  0.00000000000E+00 -0.13705405132E+03  0.13705405135E+03  0.25500000920E-02 0.  1.
    10030    2    1    2    0    0  0.00000000000E+00  0.00000000000E+00  0.10455365415E+04  0.13196446441E+04  0.80518030730E+03 0.  0.
        1    1    3    3  502    0 -0.19873471103E+03 -0.25628261313E+03  0.13181055323E+03  0.35007182853E+03  0.50400001928E-02 0.  1.
       -1    1    3    3    0  502  0.19873471103E+03  0.25628261313E+03  0.91372598823E+03  0.96957281560E+03  0.50400001928E-02 0. -1.
</event>
<event>
 5   0  0.2132540E-02  0.7972229E+03  0.7818609E-02  0.9564046E-01
        1   -1    0    0  501    0  0.00000000000E+00  0.00000000000E+00  0.18730546194E+04  0.18730546194E+04  0.50400001928E-02 0.  1.
       -1   -1    0    0    0  501  0.00000000000E+00  0.00000000000E+00 -0.84829917083E+02  0.84829917233E+02  0.50400001928E-02 0. -1.
    10030    2    1    2    0    0  0.00000000000E+00  0.00000000000E+00  0.17882247023E+04  0.19578845366E+04  0.79722285017E+03 0.  0.
        4    1    3    3  502    0  0.39838606012E+02  0.35301081423E+03  0.45010897537E+03  0.57341385761E+03  0.12699999809E+01 0. -1.
       -4    1    3    3    0  502 -0.39838606012E+02 -0.35301081423E+03  0.13381157269E+04  0.13844706790E+04  0.12699999809E+01 0.  1.
</event>
<event>
 5   0  0.2077795E-02  0.6533712E+03  0.7818609E-02  0.9800474E-01
        1   -1    0    0  501    0  0.00000000000E+00  0.00000000000E+00  0.52376225714E+03  0.52376225717E+03  0.50400001928E-02 0.  1.
       -1   -1    0    0    0  501  0.00000000000E+00  0.00000000000E+00 -0.20376318818E+03  0.20376318825E+03  0.50400001928E-02 0. -1.
    10030    2    1    2    0    0  0.00000000000E+00  0.00000000000E+00  0.31999906896E+03  0.72752544541E+03  0.65337115760E+03 0.  0.
        5    1    3    3  502    0 -0.13849045875E+03  0.12159831707E+02  0.48913835668E+03  0.50853307724E+03  0.46999998093E+01 0.  1.
       -5    1    3    3    0  502  0.13849045875E+03 -0.12159831707E+02 -0.16913928772E+03  0.21899236818E+03  0.46999998093E+01 0. -1.
</event>
<event>
 5   0  0.3404132E-02  0.7935276E+03  0.7818609E-02  0.9569433E-01
        2   -1    0    0  501    0  0.00000000000E+00  0.00000000000E+00  0.13352193493E+03  0.13352193496E+03  0.25500000920E-02 0. -1.
       -2   -1    0    0    0  501  0.00000000000E+00  0.00000000000E+00 -0.11789935225E+04  0.11789935225E+04  0.25500000920E-02 0.  1.
    10030    2    1    2    0    0  0.00000000000E+00  0.00000000000E+00 -0.10454715876E+04  0.13125154575E+04  0.79352755824E+03 0.  0.
        5    1    3    3  502    0  0.32615635042E+03 -0.80555261325E+02 -0.17369198914E+03  0.37823023694E+03  0.46999998093E+01 0. -1.
       -5    1    3    3    0  502 -0.32615635042E+03  0.80555261325E+02 -0.87177959848E+03  0.93428522056E+03  0.46999998093E+01 0.  1.
</event>
<event>
 5   0  0.3404132E-02  0.7873922E+03  0.7818609E-02  0.9578448E-01
        2   -1    0    0  501    0  0.00000000000E+00  0.00000000000E+00  0.15083513080E+04  0.15083513080E+04  0.25500000920E-02 0. -1.
       -2   -1    0    0    0  501  0.00000000000E+00  0.00000000000E+00 -0.10275896572E+03  0.10275896575E+03  0.25500000920E-02 0.  1.
    10030    2    1    2    0    0  0.00000000000E+00  0.00000000000E+00  0.14055923423E+04  0.16111102738E+04  0.78739220312E+03 0.  0.
        5    1    3    3  502    0  0.19567296860E+03 -0.22151760635E+03  0.12348563115E+04  0.12697441320E+04  0.46999998093E+01 0. -1.
       -5    1    3    3    0  502 -0.19567296860E+03  0.22151760635E+03  0.17073603076E+03  0.34136614179E+03  0.46999998093E+01 0.  1.
</event>
<event>
 5   0  0.3404132E-02  0.7685987E+03  0.7818609E-02  0.9606615E-01
       -2   -1    0    0    0  501  0.00000000000E+00  0.00000000000E+00  0.20227597919E+03  0.20227597920E+03  0.25500000920E-02 0.  1.
        2   -1    0    0  501    0  0.00000000000E+00  0.00000000000E+00 -0.73012118203E+03  0.73012118204E+03  0.25500000920E-02 0. -1.
    10030    2    1    2    0    0  0.00000000000E+00  0.00000000000E+00 -0.52784520285E+03  0.93239716124E+03  0.76859866518E+03 0.  0.
        5    1    3    3  502    0  0.30964288242E+03 -0.30912811262E+02 -0.53742399069E+03  0.62103216688E+03  0.46999998093E+01 0. -1.
       -5    1    3    3    0  502 -0.30964288242E+03  0.30912811262E+02  0.95787878442E+01  0.31136499436E+03  0.46999998093E+01 0.  1.
</event>
<event>
 5   0  0.3343036E-02  0.8133137E+03  0.7818609E-02  0.9540944E-01
        2   -1    0    0  501    0  0.00000000000E+00  0.00000000000E+00  0.11861561928E+04  0.11861561928E+04  0.25500000920E-02 0. -1.
       -2   -1    0    0    0  501  0.00000000000E+00  0.00000000000E+00 -0.13941654107E+03  0.13941654109E+03  0.25500000920E-02 0.  1.
    10030    2    1    2    0    0  0.00000000000E+00  0.00000000000E+00  0.10467396518E+04  0.13255727339E+04  0.81331369985E+03 0.  0.
        4    1    3    3  502    0  0.19284613669E+03  0.58562663128E+02  0.10990270328E+04  0.11173545765E+04  0.12699999809E+01 0. -1.
       -4    1    3    3    0  502 -0.19284613669E+03 -0.58562663128E+02 -0.52287381058E+02  0.20821815739E+03  0.12699999809E+01 0.  1.
</event>
<event>
 5   0  0.3343036E-02  0.8039954E+03  0.7818609E-02  0.9554252E-01
        2   -1    0    0  501    0  0.00000000000E+00  0.00000000000E+00  0.79266535596E+03  0.79266535596E+03  0.25500000920E-02 0. -1.
       -2   -1    0    0    0  501  0.00000000000E+00  0.00000000000E+00 -0.20387182293E+03  0.20387182295E+03  0.25500000920E-02 0.  1.
    10030    2    1    2    0    0  0.00000000000E+00  0.00000000000E+00  0.58879353303E+03  0.99653717891E+03  0.80399535099E+03 0.  0.
        4    1    3    3  502    0  0.23080840896E+02  0.15042535267E+03  0.75557709433E+03  0.77075214584E+03  0.12699999809E+01 0. -1.
       -4    1    3    3    0  502 -0.23080840896E+02 -0.15042535267E+03 -0.16678356130E+03  0.22578503308E+03  0.12699999809E+01 0.  1.
</event>
<event>
 5   0  0.2077795E-02  0.7875745E+03  0.7818609E-02  0.9578179E-01
        1   -1    0    0  501    0  0.00000000000E+00  0.00000000000E+00  0.13148807082E+04  0.13148807082E+04  0.50400001928E-02 0. -1.
       -1   -1    0    0    0  501  0.00000000000E+00  0.00000000000E+00 -0.11793344686E+03  0.11793344697E+03  0.50400001928E-02 0.  1.
    10030    2    1    2    0    0  0.00000000000E+00  0.00000000000E+00  0.11969472613E+04  0.14328141552E+04  0.78757454051E+03 0.  0.
        5    1    3    3  502    0 -0.36266021688E+03  0.67053000500E+01  0.87723805444E+03  0.94928188022E+03  0.46999998093E+01 0. -1.
       -5    1    3    3    0  502  0.36266021688E+03 -0.67053000500E+01  0.31970920689E+03  0.48353227496E+03  0.46999998093E+01 0.  1.
</event>
<event>
 5   0  0.3550586E-02  0.7818646E+03  0.7818609E-02  0.9586645E-01
        2   -1    0    0  501    0  0.00000000000E+00  0.00000000000E+00  0.21585584449E+04  0.21585584449E+04  0.25500000920E-02 0. -1.
       -2   -1    0    0    0  501  0.00000000000E+00  0.00000000000E+00 -0.70800988192E+02  0.70800988238E+02  0.25500000920E-02 0.  1.
    10030    2    1    2    0    0  0.00000000000E+00  0.00000000000E+00  0.20877574567E+04  0.22293594332E+04  0.78186462006E+03 0.  0.
        3    1    3    3  502    0  0.28265330716E+03  0.15028408232E+03  0.40407365288E+03  0.51551306928E+03  0.10100000352E+00 0.  1.
       -3    1    3    3    0  502 -0.28265330716E+03 -0.15028408232E+03  0.16836838039E+04  0.17138463639E+04  0.10100000352E+00 0. -1.
</event>
<event>
 5   0  0.3467240E-02  0.7779104E+03  0.7818609E-02  0.9592553E-01
       -2   -1    0    0    0  501  0.00000000000E+00  0.00000000000E+00  0.47485119440E+03  0.47485119441E+03  0.25500000920E-02 0.  1.
        2   -1    0    0  501    0  0.00000000000E+00  0.00000000000E+00 -0.31859693870E+03  0.31859693871E+03  0.25500000920E-02 0. -1.
    10030    2    1    2    0    0  0.00000000000E+00  0.00000000000E+00  0.15625425570E+03  0.79344813312E+03  0.77791037242E+03 0.  0.
        2    1    3    3  502    0 -0.74223045680E+02  0.15802038583E+03 -0.27638767368E+03  0.32690923666E+03  0.25500000920E-02 0. -1.
       -2    1    3    3    0  502  0.74223045680E+02 -0.15802038583E+03  0.43264192938E+03  0.46653889646E+03  0.25500000920E-02 0.  1.
</event>
<event>
 5   0  0.1989298E-02  0.7992157E+03  0.7818609E-02  0.9561153E-01
       -1   -1    0    0    0  501  0.00000000000E+00  0.00000000000E+00  0.63566380532E+03  0.63566380534E+03  0.50400001928E-02 0.  1.
        1   -1    0    0  501    0  0.00000000000E+00  0.00000000000E+00 -0.25121206236E+03  0.25121206241E+03  0.50400001928E-02 0. -1.
    10030    2    1    2    0    0  0.00000000000E+00  0.00000000000E+00  0.38445174296E+03  0.88687586775E+03  0.79921565433E+03 0.  0.
        1    1    3    3  502    0 -0.32107415953E+03 -0.12052539706E+03 -0.35384728588E+02  0.34477103460E+03  0.50400001928E-02 0. -1.
       -1    1    3    3    0  502  0.32107415953E+03  0.12052539706E+03  0.41983647155E+03  0.54210483315E+03  0.50400001928E-02 0.  1.
</event>
<event>
 5   0  0.3404132E-02  0.8101258E+03  0.7818609E-02  0.9545475E-01
        2   -1    0    0  501    0  0.00000000000E+00  0.00000000000E+00  0.75791604801E+03  0.75791604801E+03  0.25500000920E-02 0. -1.
       -2   -1    0    0    0  501  0.00000000000E+00  0.00000000000E+00 -0.21648300034E+03  0.21648300035E+03  0.25500000920E-02 0.  1.
    10030    2    1    2    0    0  0.00000000000E+00  0.00000000000E+00  0.54143304767E+03  0.97439904837E+03  0.81012576823E+03 0.  0.
        5    1    3    3  502    0 -0.12022341686E+03 -0.10463296280E+03  0.71858208358E+03  0.73605979900E+03  0.46999998093E+01 0. -1.
       -5    1    3    3    0  502  0.12022341686E+03  0.10463296280E+03 -0.17714903591E+03  0.23833924936E+03  0.46999998093E+01 0.  1.
</event>
<event>
 5   0  0.3467240E-02  0.8713304E+03  0.7818609E-02  0.9462147E-01
        2   -1    0    0  501    0  0.00000000000E+00  0.00000000000E+00  0.11352697339E+04  0.11352697339E+04  0.25500000920E-02 0.  1.
       -2   -1    0    0    0  501  0.00000000000E+00  0.00000000000E+00 -0.16718860695E+03  0.16718860697E+03  0.25500000920E-02 0. -1.
    10030    2    1    2    0    0  0.00000000000E+00  0.00000000000E+00  0.96808112696E+03  0.13024583409E+04  0.87133039737E+03 0.  0.
        2    1    3    3  502    0  0.43443287857E+03 -0.13903980221E+02  0.43972509704E+03  0.61829071449E+03  0.25500000920E-02 0.  1.
       -2    1    3    3    0  502 -0.43443287857E+03  0.13903980221E+02  0.52835602993E+03  0.68416762640E+03  0.25500000920E-02 0. -1.
</event>
<event>
 5   0  0.1989298E-02  0.8030203E+03  0.7818609E-02  0.9555656E-01
       -1   -1    0    0    0  501  0.00000000000E+00  0.00000000000E+00  0.20046310302E+03  0.20046310308E+03  0.50400001928E-02 0.  1.
        1   -1    0    0  501    0  0.00000000000E+00  0.00000000000E+00 -0.80418998764E+03  0.80418998766E+03  0.50400001928E-02 0. -1.
    10030    2    1    2    0    0  0.00000000000E+00  0.00000000000E+00 -0.60372688462E+03  0.10046530907E+04  0.80302034938E+03 0.  0.
        1    1    3    3  502    0  0.26210064752E+03 -0.31692168305E+02  0.76598432755E+02  0.27489718603E+03  0.50400001928E-02 0.  1.
       -1    1    3    3    0  502 -0.26210064752E+03  0.31692168305E+02 -0.68032531738E+03  0.72975590471E+03  0.50400001928E-02 0. -1.
</event>
<event>
 5   0  0.3404132E-02  0.7899938E+03  0.7818609E-02  0.9574615E-01
        2   -1    0    0  501    0  0.00000000000E+00  0.00000000000E+00  0.78816158586E+03  0.78816158586E+03  0.25500000920E-02 0. -1.
       -2   -1    0    0    0  501  0.00000000000E+00  0.00000000000E+00 -0.19795758524E+03  0.19795758526E+03  0.25500000920E-02 0.  1.
    10030    2    1    2    0    0  0.00000000000E+00  0.00000000000E+00  0.59020400061E+03  0.98611917112E+03  0.78999383372E+03 0.  0.
        5    1    3    3  502    0 -0.84356079140E+02  0.36063633510E+03  0.12383082937E+03  0.39055176173E+03  0.46999998093E+01 0. -1.
       -5    1    3    3    0  502  0.84356079140E+02 -0.36063633510E+03  0.46637317124E+03  0.59556740940E+03  0.46999998093E+01 0.  1.
</event>
<event>
 5   0  0.3404132E-02  0.7964443E+03  0.7818609E-02  0.9565178E-01
       -2   -1    0    0    0  501  0.00000000000E+00  0.00000000000E+00  0.21788066649E+03  0.21788066650E+03  0.25500000920E-02 0.  1.
        2   -1    0    0  501    0  0.00000000000E+00  0.00000000000E+00 -0.72783356707E+03  0.72783356707E+03  0.25500000920E-02 0. -1.
    10030    2    1    2    0    0  0.00000000000E+00  0.00000000000E+00 -0.50995290058E+03  0.94571423358E+03  0.79644425466E+03 0.  0.
        5    1    3    3  502    0 -0.25815345709E+03  0.16548251796E+03  0.46663653128E+02  0.31020518642E+03  0.46999998093E+01 0.  1.
       -5    1    3    3    0  502  0.25815345709E+03 -0.16548251796E+03 -0.55661655371E+03  0.63550904716E+03  0.46999998093E+01 0. -1.
</event>
<event>
 5   0  0.3550586E-02  0.6824236E+03  0.7818609E-02  0.9747771E-01
       -2   -1    0    0    0  501  0.00000000000E+00  0.00000000000E+00  0.66508741411E+03  0.66508741411E+03  0.25500000920E-02 0.  1.
        2   -1    0    0  501    0  0.00000000000E+00  0.00000000000E+00 -0.17505292092E+03  0.17505292094E+03  0.25500000920E-02 0. -1.
    10030    2    1    2    0    0  0.00000000000E+00  0.00000000000E+00  0.49003449319E+03  0.84014033506E+03  0.68242360603E+03 0.  0.
        3    1    3    3  502    0 -0.47319209483E+02 -0.16527161812E+03  0.60787539236E+03  0.63171696050E+03  0.10100000352E+00 0.  1.
       -3    1    3    3    0  502  0.47319209483E+02  0.16527161812E+03 -0.11784089917E+03  0.20842337456E+03  0.10100000352E+00 0. -1.
</event>
<event>
 5   0  0.1358000E-02  0.8003403E+03  0.7818609E-02  0.9559525E-01
        4   -1    0    0  501    0  0.00000000000E+00  0.00000000000E+00  0.32225574657E+03  0.32225824908E+03  0.12699999809E+01 0. -1.
       -4   -1    0    0    0  501  0.00000000000E+00  0.00000000000E+00 -0.49691727937E+03  0.49691890227E+03  0.12699999809E+01 0.  1.
    10030    2    1    2    0    0  0.00000000000E+00  0.00000000000E+00 -0.17466153280E+03  0.81917715135E+03  0.80034027405E+03 0.  0.
        3    1    3    3  502    0  0.24129052838E+03 -0.87886523186E+02  0.22679805840E+03  0.34261133889E+03  0.10100000352E+00 0. -1.
       -3    1    3    3    0  502 -0.24129052838E+03  0.87886523186E+02 -0.40145959120E+03  0.47656581246E+03  0.10100000352E+00 0.  1.
</event>
<event>
 5   0  0.2077795E-02  0.7986811E+03  0.7818609E-02  0.9561928E-01
       -1   -1    0    0    0  501  0.00000000000E+00  0.00000000000E+00  0.92471509799E+03  0.92471509801E+03  0.50400001928E-02 0. -1.
        1   -1    0    0  501    0  0.00000000000E+00  0.00000000000E+00 -0.17245621623E+03  0.17245621630E+03  0.50400001928E-02 0.  1.
    10030    2    1    2    0    0  0.00000000000E+00  0.00000000000E+00  0.75225888177E+03  0.10971713143E+04  0.79868108012E+03 0.  0.
        5    1    3    3  502    0 -0.17854365715E+03  0.15975184873E+03 -0.62716834863E+02  0.24769735981E+03  0.46999998093E+01 0.  1.
       -5    1    3    3    0  502  0.17854365715E+03 -0.15975184873E+03  0.81497571663E+03  0.84947395450E+03  0.46999998093E+01 0. -1.
</event>
<event>
 5   0  0.3467240E-02  0.8100994E+03  0.7818609E-02  0.9545513E-01
        2   -1    0    0  501    0  0.00000000000E+00  0.00000000000E+00  0.45739759289E+03  0.45739759290E+03  0.25500000920E-02 0. -1.
       -2   -1    0    0    0  501  0.00000000000E+00  0.00000000000E+00 -0.35869288653E+03  0.35869288654E+03  0.25500000920E-02 0.  1.
    10030    2    1    2    0    0  0.00000000000E+00  0.00000000000E+00  0.98704706363E+02  0.81609047943E+03  0.81009940845E+03 0.  0.
        2    1    3    3  502    0  0.36264362125E+03  0.53192273948E+02  0.22303811058E+03  0.42905222622E+03  0.25500000920E-02 0. -1.
       -2    1    3    3    0  502 -0.36264362125E+03 -0.53192273948E+02 -0.12433340422E+03  0.38703825322E+03  0.25500000920E-02 0.  1.
</event>
<event>
 5   0  0.3416160E-02  0.8256359E+03  0.7818609E-02  0.9523634E-01
        2   -1    0    0  501    0  0.00000000000E+00  0.00000000000E+00  0.22729718410E+04  0.22729718410E+04  0.25500000920E-02 0.  1.
       -2   -1    0    0    0  501  0.00000000000E+00  0.00000000000E+00 -0.74976134352E+02  0.74976134395E+02  0.25500000920E-02 0. -1.
    10030    2    1    2    0    0  0.00000000000E+00  0.00000000000E+00  0.21979957066E+04  0.23479479754E+04  0.82563585721E+03 0.  0.
        1    1    3    3  502    0 -0.34616977776E+03  0.14313280227E+03  0.60563134283E+03  0.71211644944E+03  0.50400001928E-02 0. -1.
       -1    1    3    3    0  502  0.34616977776E+03 -0.14313280227E+03  0.15923643638E+04  0.16358315259E+04  0.50400001928E-02 0.  1.
</event>
<event>
 5   0  0.2063692E-02  0.5162424E+03  0.7818609E-02  0.1009624E+00
        1   -1    0    0  501    0  0.00000000000E+00  0.00000000000E+00  0.89366738832E+03  0.89366738834E+03  0.50400001928E-02 0. -1.
       -1   -1    0    0    0  501  0.00000000000E+00  0.00000000000E+00 -0.74554091044E+02  0.74554091215E+02  0.50400001928E-02 0.  1.
    10030    2    1    2    0    0  0.00000000000E+00  0.00000000000E+00  0.81911329728E+03  0.96822147955E+03  0.51624242337E+03 0.  0.
        2    1    3    3  502    0  0.21742844365E+03  0.13555536311E+03  0.46815493811E+03  0.53368476712E+03  0.25500000920E-02 0. -1.
       -2    1    3    3    0  502 -0.21742844365E+03 -0.13555536311E+03  0.35095835917E+03  0.43453671243E+03  0.25500000920E-02 0.  1.
</event>
<event>
 5   0  0.2129257E-02  0.7858726E+03  0.7818609E-02  0.9580694E-01
       -1   -1    0    0    0  501  0.00000000000E+00  0.00000000000E+00  0.34579612557E+03  0.34579612561E+03  0.50400001928E-02 0. -1.
        1   -1    0    0  501    0  0.00000000000E+00  0.00000000000E+00 -0.44650276739E+03  0.44650276742E+03  0.50400001928E-02 0.  1.
    10030    2    1    2    0    0  0.00000000000E+00  0.00000000000E+00 -0.10070664182E+03  0.79229889303E+03  0.78587257758E+03 0.  0.
        3    1    3    3  502    0 -0.13593586405E+03 -0.26638604948E+03 -0.30730769363E+03  0.42881011562E+03  0.10100000352E+00 0.  1.
       -3    1    3    3    0  502  0.13593586405E+03  0.26638604948E+03  0.20660105181E+03  0.36348877741E+03  0.10100000352E+00 0. -1.
</event>
<event>
 5   0  0.3467240E-02  0.7988748E+03  0.7818609E-02  0.9561647E-01
        2   -1    0    0  501    0  0.00000000000E+00  0.00000000000E+00  0.17507114208E+04  0.17507114208E+04  0.25500000920E-02 0.  1.
       -2   -1    0    0    0  501  0.00000000000E+00  0.00000000000E+00 -0.91134512913E+02  0.91134512949E+02  0.25500000920E-02 0. -1.
    10030    2    1    2    0    0  0.00000000000E+00  0.00000000000E+00  0.16595769079E+04  0.18418459338E+04  0.79887479025E+03 0.  0.
        2    1    3    3  502    0  0.75389614763E+01  0.16539975617E+03  0.16678688510E+04  0.16760669496E+04  0.25500000920E-02 0.  1.
       -2    1    3    3    0  502 -0.75389614763E+01 -0.16539975617E+03 -0.82919430784E+01  0.16577898422E+03  0.25500000920E-02 0. -1.
</event>
<event>
 5   0  0.1989298E-02  0.7452278E+03  0.7818609E-02  0.9642867E-01
       -1   -1    0    0    0  501  0.00000000000E+00  0.00000000000E+00  0.21906915186E+03  0.21906915192E+03  0.50400001928E-02 0.  1.
        1   -1    0    0  501    0  0.00000000000E+00  0.00000000000E+00 -0.63377758561E+03  0.63377758563E+03  0.50400001928E-02 0. -1.
    10030    2    1    2    0    0  0.00000000000E+00  0.00000000000E+00 -0.41470843376E+03  0.85284673755E+03  0.74522779921E+03 0.  0.
        1    1    3    3  502    0 -0.17738724459E+03  0.12476213381E+02  0.16737562759E+03  0.24420583773E+03  0.50400001928E-02 0.  1.
       -1    1    3    3    0  502  0.17738724459E+03 -0.12476213381E+02 -0.58208406134E+03  0.60864089982E+03  0.50400001928E-02 0. -1.
</event>
<event>
 5   0  0.1989298E-02  0.7882053E+03  0.7818609E-02  0.9577248E-01
       -1   -1    0    0    0  501  0.00000000000E+00  0.00000000000E+00  0.24776092657E+03  0.24776092662E+03  0.50400001928E-02 0. -1.
        1   -1    0    0  501    0  0.00000000000E+00  0.00000000000E+00 -0.62688210078E+03  0.62688210080E+03  0.50400001928E-02 0.  1.
    10030    2    1    2    0    0  0.00000000000E+00  0.00000000000E+00 -0.37912117421E+03  0.87464302742E+03  0.78820527826E+03 0.  0.
        1    1    3    3  502    0 -0.19013858082E+03  0.23042584094E+03 -0.47478555929E+03  0.56095461085E+03  0.50400001928E-02 0.  1.
       -1    1    3    3    0  502  0.19013858082E+03 -0.23042584094E+03  0.95664385082E+02  0.31368841657E+03  0.50400001928E-02 0. -1.
</event>
<event>
 5   0  0.2063692E-02  0.6217151E+03  0.7818609E-02  0.9861351E-01
       -1   -1    0    0    0  501  0.00000000000E+00  0.00000000000E+00  0.27883031359E+03  0.27883031363E+03  0.50400001928E-02 0. -1.
        1   -1    0    0  501    0  0.00000000000E+00  0.00000000000E+00 -0.34656349957E+03  0.34656349960E+03  0.50400001928E-02 0.  1.
    10030    2    1    2    0    0  0.00000000000E+00  0.00000000000E+00 -0.67733185978E+02  0.62539381324E+03  0.62171507715E+03 0.  0.
        2    1    3    3  502    0  0.11786191179E+03  0.28509352016E+03 -0.72337678141E+02  0.31686351190E+03  0.25500000920E-02 0.  1.
       -2    1    3    3    0  502 -0.11786191179E+03 -0.28509352016E+03  0.46044921632E+01  0.30853030134E+03  0.25500000920E-02 0. -1.
</event>
<event>
 5   0  0.3343036E-02  0.8079313E+03  0.7818609E-02  0.9548607E-01
       -2   -1    0    0    0  501  0.00000000000E+00  0.00000000000E+00  0.41493056989E+03  0.41493056990E+03  0.25500000920E-02 0.  1.
        2   -1    0    0  501    0  0.00000000000E+00  0.00000000000E+00 -0.39329053664E+03  0.39329053665E+03  0.25500000920E-02 0. -1.
    10030    2    1    2    0    0  0.00000000000E+00  0.00000000000E+00  0.21640033250E+02  0.80822110655E+03  0.80793134983E+03 0.  0.
        4    1    3    3  502    0  0.21424634359E+03  0.28738788822E+03 -0.17550831967E+03  0.39912163210E+03  0.12699999809E+01 0. -1.
       -4    1    3    3    0  502 -0.21424634359E+03 -0.28738788822E+03  0.19714835292E+03  0.40909947445E+03  0.12699999809E+01 0.  1.
</event>
<event>
 5   0  0.1358000E-02  0.8040267E+03  0.7818609E-02  0.9554207E-01
       -4   -1    0    0    0  501  0.00000000000E+00  0.00000000000E+00  0.94365110181E+03  0.94365195641E+03  0.12699999809E+01 0. -1.
        4   -1    0    0  501    0  0.00000000000E+00  0.00000000000E+00 -0.17126206289E+03  0.17126677169E+03  0.12699999809E+01 0.  1.
    10030    2    1    2    0    0  0.00000000000E+00  0.00000000000E+00  0.77238903891E+03  0.11149187281E+04  0.80402670530E+03 0.  0.
        2    1    3    3  502    0 -0.14198801907E+03 -0.20056482324E+02  0.90698395965E+03  0.91824983698E+03  0.25500000920E-02 0. -1.
       -2    1    3    3    0  502  0.14198801907E+03  0.20056482324E+02 -0.13459492074E+03  0.19666889113E+03  0.25500000920E-02 0.  1.
</event>
<event>
 5   0  0.3343036E-02  0.7646172E+03  0.7818609E-02  0.9612693E-01
       -2   -1    0    0    0  501  0.00000000000E+00  0.00000000000E+00  0.45611217670E+03  0.45611217670E+03  0.25500000920E-02 0.  1.
        2   -1    0    0  501    0  0.00000000000E+00  0.00000000000E+00 -0.32044715614E+03  0.32044715615E+03  0.25500000920E-02 0. -1.
    10030    2    1    2    0    0  0.00000000000E+00  0.00000000000E+00  0.13566502056E+03  0.77655933285E+03  0.76461715887E+03 0.  0.
        4    1    3    3  502    0  0.43313777884E+02 -0.18315376739E+03  0.40580137172E+03  0.44732287226E+03  0.12699999809E+01 0.  1.
       -4    1    3    3    0  502 -0.43313777884E+02  0.18315376739E+03 -0.27013635116E+03  0.32923646059E+03  0.12699999809E+01 0. -1.
</event>
<event>
 5   0  0.3416160E-02  0.7785646E+03  0.7818609E-02  0.9591573E-01
        2   -1    0    0  501    0  0.00000000000E+00  0.00000000000E+00  0.17953922238E+04  0.17953922238E+04  0.25500000920E-02 0.  1.
       -2   -1    0    0    0  501  0.00000000000E+00  0.00000000000E+00 -0.84405345771E+02  0.84405345809E+02  0.25500000920E-02 0. -1.
    10030    2    1    2    0    0  0.00000000000E+00  0.00000000000E+00  0.17109868780E+04  0.18797975696E+04  0.77856458044E+03 0.  0.
        1    1    3    3  502    0 -0.38386292135E+03  0.17309407178E+02  0.10060883914E+04  0.10769699203E+04  0.50400001928E-02 0.  1.
       -1    1    3    3    0  502  0.38386292135E+03 -0.17309407178E+02  0.70489848658E+03  0.80282764924E+03  0.50400001928E-02 0. -1.
</event>
<event>
 5   0  0.3404132E-02  0.8093050E+03  0.7818609E-02  0.9546645E-01
        2   -1    0    0  501    0  0.00000000000E+00  0.00000000000E+00  0.97190480035E+03  0.97190480036E+03  0.25500000920E-02 0.  1.
       -2   -1    0    0    0  501  0.00000000000E+00  0.00000000000E+00 -0.16847705727E+03  0.16847705729E+03  0.25500000920E-02 0. -1.
    10030    2    1    2    0    0  0.00000000000E+00  0.00000000000E+00  0.80342774308E+03  0.11403818576E+04  0.80930503699E+03 0.  0.
        5    1    3    3  502    0  0.24133510203E+00  0.28801010557E+03  0.12460316276E+01  0.28805124847E+03  0.46999998093E+01 0. -1.
       -5    1    3    3    0  502 -0.24133510203E+00 -0.28801010557E+03  0.80218171145E+03  0.85233060918E+03  0.46999998093E+01 0.  1.
</event>
<event>
 5   0  0.3550586E-02  0.7933297E+03  0.7818609E-02  0.9569723E-01
       -2   -1    0    0    0  501  0.00000000000E+00  0.00000000000E+00  0.89525314994E+02  0.89525315031E+02  0.25500000920E-02 0.  1.
        2   -1    0    0  501    0  0.00000000000E+00  0.00000000000E+00 -0.17575251343E+04  0.17575251343E+04  0.25500000920E-02 0. -1.
    10030    2    1    2    0    0  0.00000000000E+00  0.00000000000E+00 -0.16679998193E+04  0.18470504493E+04  0.79332966992E+03 0.  0.
        3    1    3    3  502    0 -0.16998252831E+03  0.61191810622E+02 -0.11821449461E+02  0.18104765805E+03  0.10100000352E+00 0.  1.
       -3    1    3    3    0  502  0.16998252831E+03 -0.61191810622E+02 -0.16561783698E+04  0.16660027913E+04  0.10100000352E+00 0. -1.
</event>
<event>
 5   0  0.3343036E-02  0.7936927E+03  0.7818609E-02  0.9569192E-01
       -2   -1    0    0    0  501  0.00000000000E+00  0.00000000000E+00  0.10141213317E+03  0.10141213320E+03  0.25500000920E-02 0.  1.
        2   -1    0    0  501    0  0.00000000000E+00  0.00000000000E+00 -0.15529405007E+04  0.15529405007E+04  0.25500000920E-02 0. -1.
    10030    2    1    2    0    0  0.00000000000E+00  0.00000000000E+00 -0.14515283675E+04  0.16543526339E+04  0.79369265813E+03 0.  0.
        4    1    3    3  502    0  0.22957108437E+03 -0.34786305034E+02 -0.13965715131E+04  0.14157424109E+04  0.12699999809E+01 0. -1.
       -4    1    3    3    0  502 -0.22957108437E+03  0.34786305034E+02 -0.54956854428E+02  0.23861022305E+03  0.12699999809E+01 0.  1.
</event>
<event>
 5   0  0.2129257E-02  0.7999128E+03  0.7818609E-02  0.9560143E-01
       -1   -1    0    0    0  501  0.00000000000E+00  0.00000000000E+00  0.37835358242E+03  0.37835358245E+03  0.50400001928E-02 0. -1.
        1   -1    0    0  501    0  0.00000000000E+00  0.00000000000E+00 -0.42279264909E+03  0.42279264912E+03  0.50400001928E-02 0.  1.
    10030    2    1    2    0    0  0.00000000000E+00  0.00000000000E+00 -0.44439066669E+02  0.80114623157E+03  0.79991277882E+03 0.  0.
        3    1    3    3  502    0 -0.34186180521E+03 -0.19103041158E+03 -0.10360362474E+03  0.40508743904E+03  0.10100000352E+00 0.  1.
       -3    1    3    3    0  502  0.34186180521E+03  0.19103041158E+03  0.59164558072E+02  0.39605879253E+03  0.10100000352E+00 0. -1.
</event>
<event>
 5   0  0.2063692E-02  0.8093108E+03  0.7818609E-02  0.9546637E-01
       -1   -1    0    0    0  501  0.00000000000E+00  0.00000000000E+00  0.32138858921E+03  0.32138858925E+03  0.50400001928E-02 0.  1.
        1   -1    0    0  501    0  0.00000000000E+00  0.00000000000E+00 -0.50949536104E+03  0.50949536106E+03  0.50400001928E-02 0. -1.
    10030    2    1    2    0    0  0.00000000000E+00  0.00000000000E+00 -0.18810677183E+03  0.83088395031E+03  0.80931080635E+03 0.  0.
        2    1    3    3  502    0  0.25769066727E+03  0.12745485108E+03  0.19831258713E+03  0.34925220297E+03  0.25500000920E-02 0.  1.
       -2    1    3    3    0  502 -0.25769066727E+03 -0.12745485108E+03 -0.38641935896E+03  0.48163174734E+03  0.25500000920E-02 0. -1.
</event>
<event>
 5   0  0.2129257E-02  0.8109339E+03  0.7818609E-02  0.9544324E-01
       -1   -1    0    0    0  501  0.00000000000E+00  0.00000000000E+00  0.15113000098E+03  0.15113000107E+03  0.50400001928E-02 0.  1.
        1   -1    0    0  501    0  0.00000000000E+00  0.00000000000E+00 -0.10878281357E+04  0.10878281358E+04  0.50400001928E-02 0. -1.
    10030    2    1    2    0    0  0.00000000000E+00  0.00000000000E+00 -0.93669813476E+03  0.12389581368E+04  0.81093394869E+03 0.  0.
        3    1    3    3  502    0 -0.29194025660E+03  0.28047814528E+03 -0.43396967981E+03  0.59348698098E+03  0.10100000352E+00 0.  1.
       -3    1    3    3    0  502  0.29194025660E+03 -0.28047814528E+03 -0.50272845495E+03  0.64547115584E+03  0.10100000352E+00 0. -1.
</event>
<event>
 5   0  0.3343036E-02  0.7377899E+03  0.7818609E-02  0.9654703E-01
        2   -1    0    0  501    0  0.00000000000E+00  0.00000000000E+00  0.32360055849E+03  0.32360055850E+03  0.25500000920E-02 0. -1.
       -2   -1    0    0    0  501  0.00000000000E+00  0.00000000000E+00 -0.42052925566E+03  0.42052925566E+03  0.25500000920E-02 0.  1.
    10030    2    1    2    0    0  0.00000000000E+00  0.00000000000E+00 -0.96928697164E+02  0.74412981416E+03  0.73778994842E+03 0.  0.
        4    1    3    3  502    0 -0.13637255303E+03  0.16357392630E+03  0.25533483858E+03  0.33249269959E+03  0.12699999809E+01 0. -1.
       -4    1    3    3    0  502  0.13637255303E+03 -0.16357392630E+03 -0.35226353574E+03  0.41163711458E+03  0.12699999809E+01 0.  1.
</event>
<event>
 5   0  0.1989298E-02  0.7971973E+03  0.7818609E-02  0.9564083E-01
       -1   -1    0    0    0  501  0.00000000000E+00  0.00000000000E+00  0.58480392081E+03  0.58480392084E+03  0.50400001928E-02 0. -1.
        1   -1    0    0  501    0  0.00000000000E+00  0.00000000000E+00 -0.27168229477E+03  0.27168229482E+03  0.50400001928E-02 0.  1.
    10030    2    1    2    0    0  0.00000000000E+00  0.00000000000E+00  0.31312162604E+03  0.85648621565E+03  0.79719726850E+03 0.  0.
        1    1    3    3  502    0  0.96900530744E+02 -0.62064386373E+02  0.56657008109E+03  0.57813783627E+03  0.50400001928E-02 0. -1.
       -1    1    3    3    0  502 -0.96900530744E+02  0.62064386373E+02 -0.25344845505E+03  0.27834837938E+03  0.50400001928E-02 0.  1.
</event>
<event>
 5   0  0.2077795E-02  0.8005099E+03  0.7818609E-02  0.9559279E-01
       -1   -1    0    0    0  501  0.00000000000E+00  0.00000000000E+00  0.25622427411E+03  0.25622427416E+03  0.50400001928E-02 0. -1.
        1   -1    0    0  501    0  0.00000000000E+00  0.00000000000E+00 -0.62524918783E+03  0.62524918786E+03  0.50400001928E-02 0.  1.
    10030    2    1    2    0    0  0.00000000000E+00  0.00000000000E+00 -0.36902491372E+03  0.88147346202E+03  0.80050988582E+03 0.  0.
        5    1    3    3  502    0 -0.27092486534E+03 -0.12484554446E+03 -0.47832342980E+03  0.56373937784E+03  0.46999998093E+01 0.  1.
       -5    1    3    3    0  502  0.27092486534E+03  0.12484554446E+03  0.10929851608E+03  0.31773408418E+03  0.46999998093E+01 0. -1.
</event>
<event>
 5   0  0.1989298E-02  0.7915804E+03  0.7818609E-02  0.9572285E-01
        1   -1    0    0  501    0  0.00000000000E+00  0.00000000000E+00  0.12224593533E+04  0.12224593533E+04  0.50400001928E-02 0.  1.
       -1   -1    0    0    0  501  0.00000000000E+00  0.00000000000E+00 -0.12814322961E+03  0.12814322971E+03  0.50400001928E-02 0. -1.
    10030    2    1    2    0    0  0.00000000000E+00  0.00000000000E+00  0.10943161237E+04  0.13506025830E+04  0.79158041833E+03 0.  0.
        1    1    3    3  502    0 -0.22791537759E+03 -0.31563903515E+03  0.42559169522E+03  0.57680300877E+03  0.50400001928E-02 0. -1.
       -1    1    3    3    0  502  0.22791537759E+03  0.31563903515E+03  0.66872442849E+03  0.77379957427E+03  0.50400001928E-02 0.  1.
</event>
<event>
 5   0  0.2063692E-02  0.8077838E+03  0.7818609E-02  0.9548818E-01
       -1   -1    0    0    0  501  0.00000000000E+00  0.00000000000E+00  0.23804606789E+03  0.23804606794E+03  0.50400001928E-02 0. -1.
        1   -1    0    0  501    0  0.00000000000E+00  0.00000000000E+00 -0.68528193631E+03  0.68528193633E+03  0.50400001928E-02 0.  1.
    10030    2    1    2    0    0  0.00000000000E+00  0.00000000000E+00 -0.44723586842E+03  0.92332800427E+03  0.80778380862E+03 0.  0.
        2    1    3    3  502    0 -0.47992289106E+02 -0.10576081207E+03  0.21854751365E+03  0.24749065621E+03  0.25500000920E-02 0. -1.
       -2    1    3    3    0  502  0.47992289106E+02  0.10576081207E+03 -0.66578338207E+03  0.67583734806E+03  0.25500000920E-02 0.  1.
</event>
<event>
 5   0  0.3404132E-02  0.8561326E+03  0.7818609E-02  0.9482143E-01
        2   -1    0    0  501    0  0.00000000000E+00  0.00000000000E+00  0.16225197207E+04  0.16225197207E+04  0.25500000920E-02 0.  1.
       -2   -1    0    0    0  501  0.00000000000E+00  0.00000000000E+00 -0.11293593055E+03  0.11293593058E+03  0.25500000920E-02 0. -1.
    10030    2    1    2    0    0  0.00000000000E+00  0.00000000000E+00  0.15095837902E+04  0.17354556513E+04  0.85613264048E+03 0.  0.
        5    1    3    3  502    0  0.42352880926E+03  0.45963295273E+02  0.67049313938E+03  0.79440066512E+03  0.46999998093E+01 0. -1.
       -5    1    3    3    0  502 -0.42352880926E+03 -0.45963295273E+02  0.83909065080E+03  0.94105498619E+03  0.46999998093E+01 0.  1.
</event>
<event>
 5   0  0.3343036E-02  0.7992481E+03  0.7818609E-02  0.9561106E-01
       -2   -1    0    0    0  501  0.00000000000E+00  0.00000000000E+00  0.30590989302E+03  0.30590989303E+03  0.25500000920E-02 0. -1.
        2   -1    0    0  501    0  0.00000000000E+00  0.00000000000E+00 -0.52204709531E+03  0.52204709531E+03  0.25500000920E-02 0.  1.
    10030    2    1    2    0    0  0.00000000000E+00  0.00000000000E+00 -0.21613720228E+03  0.82795698834E+03  0.79924807434E+03 0.  0.
        4    1    3    3  502    0  0.34920526893E+03 -0.18732905943E+03 -0.54628166713E+02  0.40002793134E+03  0.12699999809E+01 0.  1.
       -4    1    3    3    0  502 -0.34920526893E+03  0.18732905943E+03 -0.16150903557E+03  0.42792905700E+03  0.12699999809E+01 0. -1.
</event>
<event>
 5   0  0.2129257E-02  0.8125467E+03  0.7818609E-02  0.9542032E-01
        1   -1    0    0  501    0  0.00000000000E+00  0.00000000000E+00  0.23028491804E+04  0.23028491804E+04  0.50400001928E-02 0.  1.
       -1   -1    0    0    0  501  0.00000000000E+00  0.00000000000E+00 -0.71675570613E+02  0.71675570790E+02  0.50400001928E-02 0. -1.
    10030    2    1    2    0    0  0.00000000000E+00  0.00000000000E+00  0.22311736098E+04  0.23745247512E+04  0.81254668607E+03 0.  0.
        3    1    3    3  502    0 -0.50173492609E+02  0.33189960757E+03  0.17844306947E+04  0.18157278550E+04  0.10100000352E+00 0.  1.
       -3    1    3    3    0  502  0.50173492609E+02 -0.33189960757E+03  0.44674291508E+03  0.55879689623E+03  0.10100000352E+00 0. -1.
</event>
<event>
 5   0  0.1358000E-02  0.7901941E+03  0.7818609E-02  0.9574320E-01
        4   -1    0    0  501    0  0.00000000000E+00  0.00000000000E+00  0.34584183690E+03  0.34584416874E+03  0.12699999809E+01 0.  1.
       -4   -1    0    0    0  501  0.00000000000E+00  0.00000000000E+00 -0.45136254297E+03  0.45136432967E+03  0.12699999809E+01 0. -1.
    10030    2    1    2    0    0  0.00000000000E+00  0.00000000000E+00 -0.10552070607E+03  0.79720849841E+03  0.79019413471E+03 0.  0.
        5    1    3    3  502    0  0.34968748031E+03  0.10325973324E+03 -0.20621477398E+03  0.41891589776E+03  0.46999998093E+01 0. -1.
       -5    1    3    3    0  502 -0.34968748031E+03 -0.10325973324E+03  0.10069406791E+03  0.37829260065E+03  0.46999998093E+01 0.  1.
</event>
<event>
 5   0  0.3343036E-02  0.8081706E+03  0.7818609E-02  0.9548265E-01
       -2   -1    0    0    0  501  0.00000000000E+00  0.00000000000E+00  0.11005910398E+03  0.11005910401E+03  0.25500000920E-02 0.  1.
        2   -1    0    0  501    0  0.00000000000E+00  0.00000000000E+00 -0.14836114015E+04  0.14836114015E+04  0.25500000920E-02 0. -1.
    10030    2    1    2    0    0  0.00000000000E+00  0.00000000000E+00 -0.13735522975E+04  0.15936705055E+04  0.80817062934E+03 0.  0.
        4    1    3    3  502    0 -0.96915185581E+02 -0.91507446951E+02 -0.14390094937E+04  0.14451699214E+04  0.12699999809E+01 0. -1.
       -4    1    3    3    0  502  0.96915185581E+02  0.91507446951E+02  0.65457196152E+02  0.14850058408E+03  0.12699999809E+01 0.  1.
</event>
<event>
 5   0  0.1989298E-02  0.8207787E+03  0.7818609E-02  0.9530418E-01
       -1   -1    0    0    0  501  0.00000000000E+00  0.00000000000E+00  0.10521547927E+03  0.10521547939E+03  0.50400001928E-02 0.  1.
        1   -1    0    0  501    0  0.00000000000E+00  0.00000000000E+00 -0.16007094561E+04  0.16007094561E+04  0.50400001928E-02 0. -1.
    10030    2    1    2    0    0  0.00000000000E+00  0.00000000000E+00 -0.14954939768E+04  0.17059249355E+04  0.82077868565E+03 0.  0.
        1    1    3    3  502    0  0.39595417372E+03 -0.64231927614E+02 -0.92791115450E+03  0.10109028434E+04  0.50400001928E-02 0. -1.
       -1    1    3    3    0  502 -0.39595417372E+03  0.64231927614E+02 -0.56758282232E+03  0.69502209204E+03  0.50400001928E-02 0.  1.
</event>
<event>
 5   0  0.3416160E-02  0.7865460E+03  0.7818609E-02  0.9579698E-01
        2   -1    0    0  501    0  0.00000000000E+00  0.00000000000E+00  0.47379163537E+03  0.47379163538E+03  0.25500000920E-02 0. -1.
       -2   -1    0    0    0  501  0.00000000000E+00  0.00000000000E+00 -0.32643815725E+03  0.32643815726E+03  0.25500000920E-02 0.  1.
    10030    2    1    2    0    0  0.00000000000E+00  0.00000000000E+00  0.14735347813E+03  0.80022979264E+03  0.78654604030E+03 0.  0.
        1    1    3    3  502    0 -0.17934785140E+03  0.23455143135E+03 -0.19061879548E+03  0.35144779266E+03  0.50400001928E-02 0.  1.
       -1    1    3    3    0  502  0.17934785140E+03 -0.23455143135E+03  0.33797227361E+03  0.44878199998E+03  0.50400001928E-02 0. -1.
</event>
<event>
 5   0  0.2132540E-02  0.8089377E+03  0.7818609E-02  0.9547170E-01
        1   -1    0    0  501    0  0.00000000000E+00  0.00000000000E+00  0.57259195906E+03  0.57259195908E+03  0.50400001928E-02 0.  1.
       -1   -1    0    0    0  501  0.00000000000E+00  0.00000000000E+00 -0.28570964595E+03  0.28570964599E+03  0.50400001928E-02 0. -1.
    10030    2    1    2    0    0  0.00000000000E+00  0.00000000000E+00  0.28688231311E+03  0.85830160507E+03  0.80893768839E+03 0.  0.
        4    1    3    3  502    0 -0.22758053793E+03  0.11789292019E+03  0.47542746542E+03  0.54011529293E+03  0.12699999809E+01 0. -1.
       -4    1    3    3    0  502  0.22758053793E+03 -0.11789292019E+03 -0.18854515231E+03  0.31818631214E+03  0.12699999809E+01 0.  1.
</event>
<event>
 5   0  0.1989298E-02  0.8376430E+03  0.7818609E-02  0.9507074E-01
        1   -1    0    0  501    0  0.00000000000E+00  0.00000000000E+00  0.12878277273E+04  0.12878277273E+04  0.50400001928E-02 0. -1.
       -1   -1    0    0    0  501  0.00000000000E+00  0.00000000000E+00 -0.13620722621E+03  0.13620722630E+03  0.50400001928E-02 0.  1.
    10030    2    1    2    0    0  0.00000000000E+00  0.00000000000E+00  0.11516205011E+04  0.14240349536E+04  0.83764298514E+03 0.  0.
        1    1    3    3  502    0 -0.23933358982E+03 -0.47161556903E+02 -0.29729202592E+01  0.24395413082E+03  0.50400001928E-02 0.  1.
       -1    1    3    3    0  502  0.23933358982E+03  0.47161556903E+02  0.11545934213E+04  0.11800808228E+04  0.50400001928E-02 0. -1.
</event>
<event>
 5   0  0.3550586E-02  0.8148345E+03  0.7818609E-02  0.9538790E-01
       -2   -1    0    0    0  501  0.00000000000E+00  0.00000000000E+00  0.10563767308E+03  0.10563767311E+03  0.25500000920E-02 0.  1.
        2   -1    0    0  501    0  0.00000000000E+00  0.00000000000E+00 -0.15713030417E+04  0.15713030417E+04  0.25500000920E-02 0. -1.
    10030    2    1    2    0    0  0.00000000000E+00  0.00000000000E+00 -0.14656653686E+04  0.16769407148E+04  0.81483445447E+03 0.  0.
        3    1    3    3  502    0 -0.38511435686E+03 -0.10884943861E+03 -0.57572762796E+03  0.70115874090E+03  0.10100000352E+00 0.  1.
       -3    1    3    3    0  502  0.38511435686E+03  0.10884943861E+03 -0.88993774064E+03  0.97578197388E+03  0.10100000352E+00 0. -1.
</event>
<event>
 5   0  0.2077795E-02  0.7859317E+03  0.7818609E-02  0.9580607E-01
        1   -1    0    0  501    0  0.00000000000E+00  0.00000000000E+00  0.73921540147E+03  0.73921540149E+03  0.50400001928E-02 0.  1.
       -1   -1    0    0    0  501  0.00000000000E+00  0.00000000000E+00 -0.20890007519E+03  0.20890007525E+03  0.50400001928E-02 0. -1.
    10030    2    1    2    0    0  0.00000000000E+00  0.00000000000E+00  0.53031532628E+03  0.94811547674E+03  0.78593168403E+03 0.  0.
        5    1    3    3  502    0  0.57730935135E+02 -0.37969297473E+03  0.16494674229E+03  0.41800614077E+03  0.46999998093E+01 0. -1.
       -5    1    3    3    0  502 -0.57730935135E+02  0.37969297473E+03  0.36536858399E+03  0.53010933598E+03  0.46999998093E+01 0.  1.
</event>
<event>
 5   0  0.3550586E-02  0.7742404E+03  0.7818609E-02  0.9598070E-01
        2   -1    0    0  501    0  0.00000000000E+00  0.00000000000E+00  0.13627913902E+04  0.13627913902E+04  0.25500000920E-02 0. -1.
       -2   -1    0    0    0  501  0.00000000000E+00  0.00000000000E+00 -0.10996697906E+03  0.10996697909E+03  0.25500000920E-02 0.  1.
    10030    2    1    2    0    0  0.00000000000E+00  0.00000000000E+00  0.12528244111E+04  0.14727583693E+04  0.77424040785E+03 0.  0.
        3    1    3    3  502    0  0.38336873945E+01  0.36899578325E+03  0.84897305737E+03  0.92570397404E+03  0.10100000352E+00 0. -1.
       -3    1    3    3    0  502 -0.38336873945E+01 -0.36899578325E+03  0.40385135377E+03  0.54705439524E+03  0.10100000352E+00 0.  1.
</event>
<event>
 5   0  0.3343036E-02  0.7972890E+03  0.7818609E-02  0.9563949E-01
       -2   -1    0    0    0  501  0.00000000000E+00  0.00000000000E+00  0.16064116430E+03  0.16064116432E+03  0.25500000920E-02 0.  1.
        2   -1    0    0  501    0  0.00000000000E+00  0.00000000000E+00 -0.98926973949E+03  0.98926973950E+03  0.25500000920E-02 0. -1.
    10030    2    1    2    0    0  0.00000000000E+00  0.00000000000E+00 -0.82862857520E+03  0.11499109038E+04  0.79728901352E+03 0.  0.
        4    1    3    3  502    0 -0.24113992667E+02 -0.34684607729E+03 -0.13304402656E+03  0.37227142232E+03  0.12699999809E+01 0.  1.
       -4    1    3    3    0  502  0.24113992667E+02  0.34684607729E+03 -0.69558454863E+03  0.77763948149E+03  0.12699999809E+01 0. -1.
</event>
<event>
 5   0  0.3550586E-02  0.7873704E+03  0.7818609E-02  0.9578480E-01
        2   -1    0    0  501    0  0.00000000000E+00  0.00000000000E+00  0.13101146878E+04  0.13101146878E+04  0.25500000920E-02 0.  1.
       -2   -1    0    0    0  501  0.00000000000E+00  0.00000000000E+00 -0.11830111133E+03  0.11830111136E+03  0.25500000920E-02 0. -1.
    10030    2    1    2    0    0  0.00000000000E+00  0.00000000000E+00  0.11918135765E+04  0.14284157992E+04  0.78737036663E+03 0.  0.
        3    1    3    3  502    0 -0.38134447572E+03  0.45232367598E+02  0.43860293341E+03  0.58295979247E+03  0.10100000352E+00 0. -1.
       -3    1    3    3    0  502  0.38134447572E+03 -0.45232367598E+02  0.75321064308E+03  0.84545600672E+03  0.10100000352E+00 0.  1.
</event>
<event>
 5   0  0.3416160E-02  0.8194631E+03  0.7818609E-02  0.9532265E-01
        2   -1    0    0  501    0  0.00000000000E+00  0.00000000000E+00  0.13109019217E+04  0.13109019217E+04  0.25500000920E-02 0. -1.
       -2   -1    0    0    0  501  0.00000000000E+00  0.00000000000E+00 -0.12806445742E+03  0.12806445745E+03  0.25500000920E-02 0.  1.
    10030    2    1    2    0    0  0.00000000000E+00  0.00000000000E+00  0.11828374643E+04  0.14389663792E+04  0.81946310071E+03 0.  0.
        1    1    3    3  502    0 -0.10604901179E+03  0.10718108112E+03  0.12604145927E+04  0.12694010881E+04  0.50400001928E-02 0. -1.
       -1    1    3    3    0  502  0.10604901179E+03 -0.10718108112E+03 -0.77577128387E+02  0.16956529104E+03  0.50400001928E-02 0.  1.
</event>
<event>
 5   0  0.2063692E-02  0.8102260E+03  0.7818609E-02  0.9545332E-01
        1   -1    0    0  501    0  0.00000000000E+00  0.00000000000E+00  0.12100930981E+03  0.12100930992E+03  0.50400001928E-02 0. -1.
       -1   -1    0    0    0  501  0.00000000000E+00  0.00000000000E+00 -0.13562308663E+04  0.13562308663E+04  0.50400001928E-02 0.  1.
    10030    2    1    2    0    0  0.00000000000E+00  0.00000000000E+00 -0.12352215565E+04  0.14772401763E+04  0.81022604541E+03 0.  0.
        2    1    3    3  502    0  0.11280273402E+03  0.19387191826E+03 -0.12326843652E+04  0.12529251860E+04  0.25500000920E-02 0.  1.
       -2    1    3    3    0  502 -0.11280273402E+03 -0.19387191826E+03 -0.25371912768E+01  0.22431499022E+03  0.25500000920E-02 0. -1.
</event>
<event>
 5   0  0.2132540E-02  0.7929215E+03  0.7818609E-02  0.9570320E-01
        1   -1    0    0  501    0  0.00000000000E+00  0.00000000000E+00  0.18225344907E+04  0.18225344907E+04  0.50400001928E-02 0. -1.
       -1   -1    0    0    0  501  0.00000000000E+00  0.00000000000E+00 -0.86243146649E+02  0.86243146796E+02  0.50400001928E-02 0.  1.
    10030    2    1    2    0    0  0.00000000000E+00  0.00000000000E+00  0.17362913440E+04  0.19087776375E+04  0.79292145765E+03 0.  0.
        4    1    3    3  502    0 -0.21786917977E+03  0.32751808131E+03  0.74912746738E+03  0.84612566937E+03  0.12699999809E+01 0.  1.
       -4    1    3    3    0  502  0.21786917977E+03 -0.32751808131E+03  0.98716387665E+03  0.10626519681E+04  0.12699999809E+01 0. -1.
</event>
<event>
 5   0  0.3404132E-02  0.7637655E+03  0.7818609E-02  0.9613999E-01
       -2   -1    0    0    0  501  0.00000000000E+00  0.00000000000E+00  0.50827765225E+03  0.50827765226E+03  0.25500000920E-02 0.  1.
        2   -1    0    0  501    0  0.00000000000E+00  0.00000000000E+00 -0.28691882835E+03  0.28691882836E+03  0.25500000920E-02 0. -1.
    10030    2    1    2    0    0  0.00000000000E+00  0.00000000000E+00  0.22135882390E+03  0.79519648062E+03  0.76376548356E+03 0.  0.
        5    1    3    3  502    0  0.81682911704E+02 -0.19173329672E+03  0.44381342729E+03  0.49033274761E+03  0.46999998093E+01 0.  1.
       -5    1    3    3    0  502 -0.81682911704E+02  0.19173329672E+03 -0.22245460339E+03  0.30486373301E+03  0.46999998093E+01 0. -1.
</event>
<event>
 5   0  0.1989298E-02  0.8150778E+03  0.7818609E-02  0.9538445E-01
        1   -1    0    0  501    0  0.00000000000E+00  0.00000000000E+00  0.12579039952E+04  0.12579039953E+04  0.50400001928E-02 0. -1.
       -1   -1    0    0    0  501  0.00000000000E+00  0.00000000000E+00 -0.13203548554E+03  0.13203548564E+03  0.50400001928E-02 0.  1.
    10030    2    1    2    0    0  0.00000000000E+00  0.00000000000E+00  0.11258685097E+04  0.13899394809E+04  0.81507782414E+03 0.  0.
        1    1    3    3  502    0  0.35094413434E+02 -0.12572026897E+03  0.12212949763E+04  0.12282502282E+04  0.50400001928E-02 0. -1.
       -1    1    3    3    0  502 -0.35094413434E+02  0.12572026897E+03 -0.95426466605E+02  0.16168925270E+03  0.50400001928E-02 0.  1.
</event>
<event>
 5   0  0.2132540E-02  0.6286839E+03  0.7818609E-02  0.9847620E-01
       -1   -1    0    0    0  501  0.00000000000E+00  0.00000000000E+00  0.10634698367E+03  0.10634698378E+03  0.50400001928E-02 0.  1.
        1   -1    0    0  501    0  0.00000000000E+00  0.00000000000E+00 -0.92913658322E+03  0.92913658323E+03  0.50400001928E-02 0. -1.
    10030    2    1    2    0    0  0.00000000000E+00  0.00000000000E+00 -0.82278959955E+03  0.10354835670E+04  0.62868393683E+03 0.  0.
        4    1    3    3  502    0  0.19544321604E+03 -0.20235718943E+03 -0.64235294241E+03  0.70125986506E+03  0.12699999809E+01 0.  1.
       -4    1    3    3    0  502 -0.19544321604E+03  0.20235718943E+03 -0.18043665714E+03  0.33422370196E+03  0.12699999809E+01 0. -1.
</event>
<event>
 5   0  0.2077795E-02  0.7872208E+03  0.7818609E-02  0.9578701E-01
        1   -1    0    0  501    0  0.00000000000E+00  0.00000000000E+00  0.90348675405E+03  0.90348675406E+03  0.50400001928E-02 0.  1.
       -1   -1    0    0    0  501  0.00000000000E+00  0.00000000000E+00 -0.17147917639E+03  0.17147917646E+03  0.50400001928E-02 0. -1.
    10030    2    1    2    0    0  0.00000000000E+00  0.00000000000E+00  0.73200757766E+03  0.10749659305E+04  0.78722084452E+03 0.  0.
        5    1    3    3  502    0  0.19970339625E+03  0.19472526467E+03 -0.13177577956E+02  0.27927605292E+03  0.46999998093E+01 0. -1.
       -5    1    3    3    0  502 -0.19970339625E+03 -0.19472526467E+03  0.74518515561E+03  0.79568987760E+03  0.46999998093E+01 0.  1.
</event>
<event>
 5   0  0.3343036E-02  0.8169647E+03  0.7818609E-02  0.9535781E-01
        2   -1    0    0  501    0  0.00000000000E+00  0.00000000000E+00  0.57694241009E+03  0.57694241010E+03  0.25500000920E-02 0.  1.
       -2   -1    0    0    0  501  0.00000000000E+00  0.00000000000E+00 -0.28921051802E+03  0.28921051803E+03  0.25500000920E-02 0. -1.
    10030    2    1    2    0    0  0.00000000000E+00  0.00000000000E+00  0.28773189207E+03  0.86615292813E+03  0.81696465847E+03 0.  0.
        4    1    3    3  502    0  0.20593984839E+03 -0.48378649579E+01 -0.23010611207E+03  0.30884472118E+03  0.12699999809E+01 0. -1.
       -4    1    3    3    0  502 -0.20593984839E+03  0.48378649579E+01  0.51783800414E+03  0.55730820694E+03  0.12699999809E+01 0.  1.
</event>
<event>
 5   0  0.1989298E-02  0.7635160E+03  0.7818609E-02  0.9614381E-01
        1   -1    0    0  501    0  0.00000000000E+00  0.00000000000E+00  0.10195861814E+03  0.10195861826E+03  0.50400001928E-02 0. -1.
       -1   -1    0    0    0  501  0.00000000000E+00  0.00000000000E+00 -0.14293952774E+04  0.14293952774E+04  0.50400001928E-02 0.  1.
    10030    2    1    2    0    0  0.00000000000E+00  0.00000000000E+00 -0.13274366593E+04  0.15313538957E+04  0.76351599160E+03 0.  0.
        1    1    3    3  502    0 -0.18061112214E+03 -0.29357427716E+03 -0.99287242343E+03  0.10510004200E+04  0.50400001928E-02 0.  1.
       -1    1    3    3    0  502  0.18061112214E+03  0.29357427716E+03 -0.33456423584E+03  0.48035347566E+03  0.50400001928E-02 0. -1.
</event>
<event>
 5   0  0.3467240E-02  0.8025034E+03  0.7818609E-02  0.9556401E-01
        2   -1    0    0  501    0  0.00000000000E+00  0.00000000000E+00  0.96958686300E+03  0.96958686300E+03  0.25500000920E-02 0.  1.
       -2   -1    0    0    0  501  0.00000000000E+00  0.00000000000E+00 -0.16605310853E+03  0.16605310855E+03  0.25500000920E-02 0. -1.
    10030    2    1    2    0    0  0.00000000000E+00  0.00000000000E+00  0.80353375447E+03  0.11356399716E+04  0.80250336475E+03 0.  0.
        2    1    3    3  502    0 -0.26133735652E+03 -0.21057799409E+03  0.90560376450E+02  0.34762262196E+03  0.25500000920E-02 0. -1.
       -2    1    3    3    0  502  0.26133735652E+03  0.21057799409E+03  0.71297337802E+03  0.78801734960E+03  0.25500000920E-02 0.  1.
</event>
<event>
 5   0  0.3404132E-02  0.7930963E+03  0.7818609E-02  0.9570064E-01
       -2   -1    0    0    0  501  0.00000000000E+00  0.00000000000E+00  0.83331204179E+02  0.83331204218E+02  0.25500000920E-02 0.  1.
        2   -1    0    0  501    0  0.00000000000E+00  0.00000000000E+00 -0.18870533503E+04  0.18870533503E+04  0.25500000920E-02 0. -1.
    10030    2    1    2    0    0  0.00000000000E+00  0.00000000000E+00 -0.18037221461E+04  0.19703845545E+04  0.79309628185E+03 0.  0.
        5    1    3    3  502    0  0.27899494240E+03  0.21993924716E+03 -0.13394075484E+04  0.13857294545E+04  0.46999998093E+01 0. -1.
       -5    1    3    3    0  502 -0.27899494240E+03 -0.21993924716E+03 -0.46431459765E+03  0.58465509997E+03  0.46999998093E+01 0.  1.
</event>
<event>
 5   0  0.2129257E-02  0.8167537E+03  0.7818609E-02  0.9536078E-01
       -1   -1    0    0    0  501  0.00000000000E+00  0.00000000000E+00  0.27883270093E+03  0.27883270097E+03  0.50400001928E-02 0. -1.
        1   -1    0    0  501    0  0.00000000000E+00  0.00000000000E+00 -0.59810649433E+03  0.59810649435E+03  0.50400001928E-02 0.  1.
    10030    2    1    2    0    0  0.00000000000E+00  0.00000000000E+00 -0.31927379340E+03  0.87693919533E+03  0.81675369430E+03 0.  0.
        3    1    3    3  502    0 -0.38359416904E+03 -0.13947730406E+03 -0.14550517045E+03  0.43332455469E+03  0.10100000352E+00 0. -1.
       -3    1    3    3    0  502  0.38359416904E+03  0.13947730406E+03 -0.17376862296E+03  0.44361464064E+03  0.10100000352E+00 0.  1.
</event>
<event>
 5   0  0.1358000E-02  0.7708238E+03  0.7818609E-02  0.9603236E-01
       -3   -1    0    0    0  501  0.00000000000E+00  0.00000000000E+00  0.15492843394E+03  0.15492846686E+03  0.10100000352E+00 0. -1.
        3   -1    0    0  501    0  0.00000000000E+00  0.00000000000E+00 -0.95878008515E+03  0.95878009047E+03  0.10100000352E+00 0.  1.
    10030    2    1    2    0    0  0.00000000000E+00  0.00000000000E+00 -0.80385165121E+03  0.11137085573E+04  0.77082376295E+03 0.  0.
        1    1    3    3  502    0  0.81225056087E+02  0.20477576511E+03  0.54995949295E+02  0.22705765386E+03  0.50400001928E-02 0. -1.
       -1    1    3    3    0  502 -0.81225056087E+02 -0.20477576511E+03 -0.85884760051E+03  0.88665090347E+03  0.50400001928E-02 0.  1.
</event>
<event>
 5   0  0.2077795E-02  0.7842198E+03  0.7818609E-02  0.9583143E-01
        1   -1    0    0  501    0  0.00000000000E+00  0.00000000000E+00  0.77517774496E+03  0.77517774498E+03  0.50400001928E-02 0. -1.
       -1   -1    0    0    0  501  0.00000000000E+00  0.00000000000E+00 -0.19834182251E+03  0.19834182258E+03  0.50400001928E-02 0.  1.
    10030    2    1    2    0    0  0.00000000000E+00  0.00000000000E+00  0.57683592245E+03  0.97351956755E+03  0.78421978232E+03 0.  0.
        5    1    3    3  502    0 -0.69150699628E+02 -0.17435015878E+03 -0.13900172359E+03  0.23350239032E+03  0.46999998093E+01 0.  1.
       -5    1    3    3    0  502  0.69150699628E+02  0.17435015878E+03  0.71583764603E+03  0.74001717723E+03  0.46999998093E+01 0. -1.
</event>
<event>
 5   0  0.3467240E-02  0.8190159E+03  0.7818609E-02  0.9532893E-01
       -2   -1    0    0    0  501  0.00000000000E+00  0.00000000000E+00  0.19230894353E+03  0.19230894355E+03  0.25500000920E-02 0. -1.
        2   -1    0    0  501    0  0.00000000000E+00  0.00000000000E+00 -0.87201753301E+03  0.87201753301E+03  0.25500000920E-02 0.  1.
    10030    2    1    2    0    0  0.00000000000E+00  0.00000000000E+00 -0.67970858948E+03  0.10643264766E+04  0.81901592299E+03 0.  0.
        2    1    3    3  502    0 -0.39417810833E+03  0.16789473355E+02 -0.19727096133E+03  0.44110554258E+03  0.25500000920E-02 0. -1.
       -2    1    3    3    0  502  0.39417810833E+03 -0.16789473355E+02 -0.48243762815E+03  0.62322093399E+03  0.25500000920E-02 0.  1.
</event>
<event>
 5   0  0.2132540E-02  0.7921714E+03  0.7818609E-02  0.9571418E-01
        1   -1    0    0  501    0  0.00000000000E+00  0.00000000000E+00  0.28304052182E+04  0.28304052182E+04  0.50400001928E-02 0.  1.
       -1   -1    0    0    0  501  0.00000000000E+00  0.00000000000E+00 -0.55428067891E+02  0.55428068120E+02  0.50400001928E-02 0. -1.
    10030    2    1    2    0    0  0.00000000000E+00  0.00000000000E+00  0.27749771503E+04  0.28858332863E+04  0.79217142824E+03 0.  0.
        4    1    3    3  502    0  0.68530949387E+02  0.28873521796E+03  0.23431462224E+04  0.23618637449E+04  0.12699999809E+01 0.  1.
       -4    1    3    3    0  502 -0.68530949387E+02 -0.28873521796E+03  0.43183092787E+03  0.52396954137E+03  0.12699999809E+01 0. -1.
</event>
<event>
 5   0  0.3550586E-02  0.8086822E+03  0.7818609E-02  0.9547534E-01
       -2   -1    0    0    0  501  0.00000000000E+00  0.00000000000E+00  0.67194703747E+03  0.67194703748E+03  0.25500000920E-02 0. -1.
        2   -1    0    0  501    0  0.00000000000E+00  0.00000000000E+00 -0.24331044883E+03  0.24331044884E+03  0.25500000920E-02 0.  1.
    10030    2    1    2    0    0  0.00000000000E+00  0.00000000000E+00  0.42863658865E+03  0.91525748632E+03  0.80868222506E+03 0.  0.
        3    1    3    3  502    0  0.35655924735E+03  0.62529409674E+02  0.10447656226E+02  0.36215133254E+03  0.10100000352E+00 0.  1.
       -3    1    3    3    0  502 -0.35655924735E+03 -0.62529409674E+02  0.41818893242E+03  0.55310615377E+03  0.10100000352E+00 0. -1.
</event>
<event>
 5   0  0.3404132E-02  0.7967360E+03  0.7818609E-02  0.9564754E-01
        2   -1    0    0  501    0  0.00000000000E+00  0.00000000000E+00  0.10155939887E+04  0.10155939887E+04  0.25500000920E-02 0.  1.
       -2   -1    0    0    0  501  0.00000000000E+00  0.00000000000E+00 -0.15626033349E+03  0.15626033351E+03  0.25500000920E-02 0. -1.
    10030    2    1    2    0    0  0.00000000000E+00  0.00000000000E+00  0.85933365521E+03  0.11718543222E+04  0.79673597979E+03 0.  0.
        5    1    3    3  502    0 -0.20887224412E+03 -0.77080056166E+02 -0.56162295500E+02  0.22966332501E+03  0.46999998093E+01 0. -1.
       -5    1    3    3    0  502  0.20887224412E+03  0.77080056166E+02  0.91549595071E+03  0.94219099719E+03  0.46999998093E+01 0.  1.
</event>
<event>
 5   0  0.3416160E-02  0.8075298E+03  0.7818609E-02  0.9549182E-01
        2   -1    0    0  501    0  0.00000000000E+00  0.00000000000E+00  0.12022926504E+04  0.12022926504E+04  0.25500000920E-02 0.  1.
       -2   -1    0    0    0  501  0.00000000000E+00  0.00000000000E+00 -0.13559601077E+03  0.13559601080E+03  0.25500000920E-02 0. -1.
    10030    2    1    2    0    0  0.00000000000E+00  0.00000000000E+00  0.10666966396E+04  0.13378886612E+04  0.80752978197E+03 0.  0.
        1    1    3    3  502    0  0.74692610011E+02  0.33791374077E+03  0.18875112747E+03  0.39419750169E+03  0.50400001928E-02 0. -1.
       -1    1    3    3    0  502 -0.74692610011E+02 -0.33791374077E+03  0.87794551214E+03  0.94369115949E+03  0.50400001928E-02 0.  1.
</event>
<event>
 5   0  0.2132540E-02  0.6834845E+03  0.7818609E-02  0.9745900E-01
       -1   -1    0    0    0  501  0.00000000000E+00  0.00000000000E+00  0.51092470135E+03  0.51092470138E+03  0.50400001928E-02 0.  1.
        1   -1    0    0  501    0  0.00000000000E+00  0.00000000000E+00 -0.22858115795E+03  0.22858115801E+03  0.50400001928E-02 0. -1.
    10030    2    1    2    0    0  0.00000000000E+00  0.00000000000E+00  0.28234354340E+03  0.73950585938E+03  0.68348448378E+03 0.  0.
        4    1    3    3  502    0  0.17588951354E+03 -0.28733213751E+03  0.79118792003E+02  0.34606108473E+03  0.12699999809E+01 0.  1.
       -4    1    3    3    0  502 -0.17588951354E+03  0.28733213751E+03  0.20322475140E+03  0.39344477465E+03  0.12699999809E+01 0. -1.
</event>
<event>
 5   0  0.3416160E-02  0.8137899E+03  0.7818609E-02  0.9540269E-01
       -2   -1    0    0    0  501  0.00000000000E+00  0.00000000000E+00  0.73378917708E+03  0.73378917709E+03  0.25500000920E-02 0. -1.
        2   -1    0    0  501    0  0.00000000000E+00  0.00000000000E+00 -0.22562815822E+03  0.22562815823E+03  0.25500000920E-02 0.  1.
    10030    2    1    2    0    0  0.00000000000E+00  0.00000000000E+00  0.50816101887E+03  0.95941733532E+03  0.81378990054E+03 0.  0.
        1    1    3    3  502    0 -0.78177165054E+02  0.38235264012E+03  0.11833076447E+03  0.40780801903E+03  0.50400001928E-02 0. -1.
       -1    1    3    3    0  502  0.78177165054E+02 -0.38235264012E+03  0.38983025439E+03  0.55160931628E+03  0.50400001928E-02 0.  1.
</event>
<event>
 5   0  0.2132540E-02  0.6457264E+03  0.7818609E-02  0.9814831E-01
       -1   -1    0    0    0  501  0.00000000000E+00  0.00000000000E+00  0.10841006205E+03  0.10841006217E+03  0.50400001928E-02 0.  1.
        1   -1    0    0  501    0  0.00000000000E+00  0.00000000000E+00 -0.96154046392E+03  0.96154046393E+03  0.50400001928E-02 0. -1.
    10030    2    1    2    0    0  0.00000000000E+00  0.00000000000E+00 -0.85313040187E+03  0.10699505261E+04  0.64572644806E+03 0.  0.
        4    1    3    3  502    0 -0.27727481376E+02  0.18428380040E+03 -0.86342077300E+03  0.88330423777E+03  0.12699999809E+01 0. -1.
       -4    1    3    3    0  502  0.27727481376E+02 -0.18428380040E+03  0.10290371130E+02  0.18664628834E+03  0.12699999809E+01 0.  1.
</event>
<event>
 5   0  0.3343036E-02  0.7757559E+03  0.7818609E-02  0.9595788E-01
        2   -1    0    0  501    0  0.00000000000E+00  0.00000000000E+00  0.11968539368E+04  0.11968539368E+04  0.25500000920E-02 0.  1.
       -2   -1    0    0    0  501  0.00000000000E+00  0.00000000000E+00 -0.12570396795E+03  0.12570396797E+03  0.25500000920E-02 0. -1.
    10030    2    1    2    0    0  0.00000000000E+00  0.00000000000E+00  0.10711499688E+04  0.13225579048E+04  0.77575586089E+03 0.  0.
        4    1    3    3  502    0  0.19078353201E+03  0.56445651368E+02 -0.32078557026E+02  0.20153191897E+03  0.12699999809E+01 0. -1.
       -4    1    3    3    0  502 -0.19078353201E+03 -0.56445651368E+02  0.11032285259E+04  0.11210259858E+04  0.12699999809E+01 0.  1.
</event>
<event>
 5   0  0.1989298E-02  0.8036589E+03  0.7818609E-02  0.9554736E-01
        1   -1    0    0  501    0  0.00000000000E+00  0.00000000000E+00  0.15656616248E+04  0.15656616248E+04  0.50400001928E-02 0.  1.
       -1   -1    0    0    0  501  0.00000000000E+00  0.00000000000E+00 -0.10313013590E+03  0.10313013603E+03  0.50400001928E-02 0. -1.
    10030    2    1    2    0    0  0.00000000000E+00  0.00000000000E+00  0.14625314889E+04  0.16687917608E+04  0.80365887352E+03 0.  0.
        1    1    3    3  502    0 -0.32274658988E+03  0.74717911175E+02  0.12034967419E+04  0.12482598028E+04  0.50400001928E-02 0.  1.
       -1    1    3    3    0  502  0.32274658988E+03 -0.74717911175E+02  0.25903474696E+03  0.42053195798E+03  0.50400001928E-02 0. -1.
</event>
<event>
 5   0  0.3404132E-02  0.8004068E+03  0.7818609E-02  0.9559429E-01
       -2   -1    0    0    0  501  0.00000000000E+00  0.00000000000E+00  0.69050504938E+03  0.69050504939E+03  0.25500000920E-02 0.  1.
        2   -1    0    0  501    0  0.00000000000E+00  0.00000000000E+00 -0.23195013965E+03  0.23195013967E+03  0.25500000920E-02 0. -1.
    10030    2    1    2    0    0  0.00000000000E+00  0.00000000000E+00  0.45855490973E+03  0.92245518905E+03  0.80040675320E+03 0.  0.
        5    1    3    3  502    0  0.11486322822E+03  0.25425023692E+03 -0.10135445351E+03  0.29686960002E+03  0.46999998093E+01 0. -1.
       -5    1    3    3    0  502 -0.11486322822E+03 -0.25425023692E+03  0.55990936324E+03  0.62558558903E+03  0.46999998093E+01 0.  1.
</event>
<event>
 5   0  0.3404132E-02  0.8088882E+03  0.7818609E-02  0.9547240E-01
        2   -1    0    0  501    0  0.00000000000E+00  0.00000000000E+00  0.44105346052E+03  0.44105346053E+03  0.25500000920E-02 0.  1.
       -2   -1    0    0    0  501  0.00000000000E+00  0.00000000000E+00 -0.37087345121E+03  0.37087345122E+03  0.25500000920E-02 0. -1.
    10030    2    1    2    0    0  0.00000000000E+00  0.00000000000E+00  0.70180009316E+02  0.81192691175E+03  0.80888817294E+03 0.  0.
        5    1    3    3  502    0 -0.12334581667E+03 -0.24655033961E+03  0.33209288757E+03  0.43163530489E+03  0.46999998093E+01 0.  1.
       -5    1    3    3    0  502  0.12334581667E+03  0.24655033961E+03 -0.26191287826E+03  0.38029160686E+03  0.46999998093E+01 0. -1.
</event>
<event>
 5   0  0.3467240E-02  0.7849900E+03  0.7818609E-02  0.9582001E-01
        2   -1    0    0  501    0  0.00000000000E+00  0.00000000000E+00  0.46671465477E+03  0.46671465478E+03  0.25500000920E-02 0. -1.
       -2   -1    0    0    0  501  0.00000000000E+00  0.00000000000E+00 -0.33007819425E+03  0.33007819426E+03  0.25500000920E-02 0.  1.
    10030    2    1    2    0    0  0.00000000000E+00  0.00000000000E+00  0.13663646053E+03  0.79679284904E+03  0.78499001391E+03 0.  0.
        2    1    3    3  502    0 -0.18003895242E+03  0.31770520438E+03  0.21436245836E+03  0.42344053282E+03  0.25500000920E-02 0. -1.
       -2    1    3    3    0  502  0.18003895242E+03 -0.31770520438E+03 -0.77725997835E+02  0.37335231621E+03  0.25500000920E-02 0.  1.
</event>
<event>
 5   0  0.3467240E-02  0.7868030E+03  0.7818609E-02  0.9579318E-01
       -2   -1    0    0    0  501  0.00000000000E+00  0.00000000000E+00  0.16504825483E+03  0.16504825485E+03  0.25500000920E-02 0. -1.
        2   -1    0    0  501    0  0.00000000000E+00  0.00000000000E+00 -0.93769386943E+03  0.93769386943E+03  0.25500000920E-02 0.  1.
    10030    2    1    2    0    0  0.00000000000E+00  0.00000000000E+00 -0.77264561460E+03  0.11027421243E+04  0.78680299116E+03 0.  0.
        2    1    3    3  502    0 -0.33595573885E+03 -0.10898105462E+03 -0.62916544271E+03  0.72152081261E+03  0.25500000920E-02 0.  1.
       -2    1    3    3    0  502  0.33595573885E+03  0.10898105462E+03 -0.14348017189E+03  0.38122131166E+03  0.25500000920E-02 0. -1.
</event>
<event>
 5   0  0.3416160E-02  0.8012605E+03  0.7818609E-02  0.9558194E-01
       -2   -1    0    0    0  501  0.00000000000E+00  0.00000000000E+00  0.13238776352E+03  0.13238776354E+03  0.25500000920E-02 0.  1.
        2   -1    0    0  501    0  0.00000000000E+00  0.00000000000E+00 -0.12123822998E+04  0.12123822998E+04  0.25500000920E-02 0. -1.
    10030    2    1    2    0    0  0.00000000000E+00  0.00000000000E+00 -0.10799945363E+04  0.13447700634E+04  0.80126046008E+03 0.  0.
        1    1    3    3  502    0 -0.31521088509E+03 -0.20809914559E+03 -0.31582128331E+03  0.49234768151E+03  0.50400001928E-02 0. -1.
       -1    1    3    3    0  502  0.31521088509E+03  0.20809914559E+03 -0.76417325300E+03  0.85242238186E+03  0.50400001928E-02 0.  1.
</event>
<event>
 5   0  0.2129257E-02  0.7965026E+03  0.7818609E-02  0.9565093E-01
       -1   -1    0    0    0  501  0.00000000000E+00  0.00000000000E+00  0.15626001518E+03  0.15626001526E+03  0.50400001928E-02 0.  1.
        1   -1    0    0  501    0  0.00000000000E+00  0.00000000000E+00 -0.10150012743E+04  0.10150012743E+04  0.50400001928E-02 0. -1.
    10030    2    1    2    0    0  0.00000000000E+00  0.00000000000E+00 -0.85874125911E+03  0.11712612896E+04  0.79650264176E+03 0.  0.
        3    1    3    3  502    0 -0.35278668107E+03 -0.32117492080E+02 -0.69696269757E+03  0.78182286206E+03  0.10100000352E+00 0. -1.
       -3    1    3    3    0  502  0.35278668107E+03  0.32117492080E+02 -0.16177856154E+03  0.38943842750E+03  0.10100000352E+00 0.  1.
</event>
<event>
 5   0  0.2129257E-02  0.7699064E+03  0.7818609E-02  0.9604628E-01
        1   -1    0    0  501    0  0.00000000000E+00  0.00000000000E+00  0.35221971128E+03  0.35221971132E+03  0.50400001928E-02 0. -1.
       -1   -1    0    0    0  501  0.00000000000E+00  0.00000000000E+00 -0.42072872253E+03  0.42072872256E+03  0.50400001928E-02 0.  1.
    10030    2    1    2    0    0  0.00000000000E+00  0.00000000000E+00 -0.68509011250E+02  0.77294843388E+03  0.76990635587E+03 0.  0.
        3    1    3    3  502    0 -0.31070594321E+03  0.20570646938E+03 -0.13125720829E+03  0.39507189171E+03  0.10100000352E+00 0.  1.
       -3    1    3    3    0  502  0.31070594321E+03 -0.20570646938E+03  0.62748197042E+02  0.37787654217E+03  0.10100000352E+00 0. -1.
</event>
<event>
 5   0  0.1358000E-02  0.8229704E+03  0.7818609E-02  0.9527351E-01
        3   -1    0    0  501    0  0.00000000000E+00  0.00000000000E+00  0.15589910406E+04  0.15589910439E+04  0.10100000352E+00 0. -1.
       -3   -1    0    0    0  501  0.00000000000E+00  0.00000000000E+00 -0.10860873503E+03  0.10860878199E+03  0.10100000352E+00 0.  1.
    10030    2    1    2    0    0  0.00000000000E+00  0.00000000000E+00  0.14503823056E+04  0.16675998259E+04  0.82297044109E+03 0.  0.
        4    1    3    3  502    0  0.10192085507E+03 -0.38944201397E+03  0.55247168907E+03  0.68357846884E+03  0.12699999809E+01 0. -1.
       -4    1    3    3    0  502 -0.10192085507E+03  0.38944201397E+03  0.89791061654E+03  0.98402135705E+03  0.12699999809E+01 0.  1.
</event>
<event>
 5   0  0.3550586E-02  0.7588236E+03  0.7818609E-02  0.9621608E-01
       -2   -1    0    0    0  501  0.00000000000E+00  0.00000000000E+00  0.16779615981E+03  0.16779615983E+03  0.25500000920E-02 0. -1.
        2   -1    0    0  501    0  0.00000000000E+00  0.00000000000E+00 -0.85790579823E+03  0.85790579823E+03  0.25500000920E-02 0.  1.
    10030    2    1    2    0    0  0.00000000000E+00  0.00000000000E+00 -0.69010963842E+03  0.10257019581E+04  0.75882355902E+03 0.  0.
        3    1    3    3  502    0 -0.14606975676E+03  0.31534175049E+03 -0.13927430142E+03  0.37439836362E+03  0.10100000352E+00 0. -1.
       -3    1    3    3    0  502  0.14606975676E+03 -0.31534175049E+03 -0.55083533700E+03  0.65130359444E+03  0.10100000352E+00 0.  1.
</event>
<event>
 5   0  0.1989298E-02  0.8003829E+03  0.7818609E-02  0.9559463E-01
        1   -1    0    0  501    0  0.00000000000E+00  0.00000000000E+00  0.40902719084E+03  0.40902719087E+03  0.50400001928E-02 0. -1.
       -1   -1    0    0    0  501  0.00000000000E+00  0.00000000000E+00 -0.39154657975E+03  0.39154657978E+03  0.50400001928E-02 0.  1.
    10030    2    1    2    0    0  0.00000000000E+00  0.00000000000E+00  0.17480611095E+02  0.80057377065E+03  0.80038290242E+03 0.  0.
        1    1    3    3  502    0 -0.23909357156E+03 -0.10728836272E+03 -0.29378292191E+03  0.39368125936E+03  0.50400001928E-02 0.  1.
       -1    1    3    3    0  502  0.23909357156E+03  0.10728836272E+03  0.31126353301E+03  0.40689251129E+03  0.50400001928E-02 0. -1.
</event>
<event>
 5   0  0.3467240E-02  0.8102042E+03  0.7818609E-02  0.9545363E-01
        2   -1    0    0  501    0  0.00000000000E+00  0.00000000000E+00  0.41560201627E+03  0.41560201628E+03  0.25500000920E-02 0. -1.
       -2   -1    0    0    0  501  0.00000000000E+00  0.00000000000E+00 -0.39486743211E+03  0.39486743212E+03  0.25500000920E-02 0.  1.
    10030    2    1    2    0    0  0.00000000000E+00  0.00000000000E+00  0.20734584160E+02  0.81046944840E+03  0.81020417415E+03 0.  0.
        2    1    3    3  502    0  0.28806543003E+03  0.28301674853E+03 -0.21698296809E+02  0.40441437662E+03  0.25500000920E-02 0. -1.
       -2    1    3    3    0  502 -0.28806543003E+03 -0.28301674853E+03  0.42432880968E+02  0.40605507178E+03  0.25500000920E-02 0.  1.
</event>
<event>
 5   0  0.2132540E-02  0.8029584E+03  0.7818609E-02  0.9555745E-01
       -1   -1    0    0    0  501  0.00000000000E+00  0.00000000000E+00  0.23359122712E+03  0.23359122717E+03  0.50400001928E-02 0. -1.
        1   -1    0    0  501    0  0.00000000000E+00  0.00000000000E+00 -0.69003253004E+03  0.69003253006E+03  0.50400001928E-02 0.  1.
    10030    2    1    2    0    0  0.00000000000E+00  0.00000000000E+00 -0.45644130292E+03  0.92362375723E+03  0.80295839363E+03 0.  0.
        4    1    3    3  502    0 -0.34590496169E+03  0.51031025933E+02 -0.45517661673E+03  0.57397018516E+03  0.12699999809E+01 0.  1.
       -4    1    3    3    0  502  0.34590496169E+03 -0.51031025933E+02 -0.12646861854E+01  0.34965357207E+03  0.12699999809E+01 0. -1.
</event>
<event>
 5   0  0.1989298E-02  0.7712729E+03  0.7818609E-02  0.9602555E-01
       -1   -1    0    0    0  501  0.00000000000E+00  0.00000000000E+00  0.18355114110E+03  0.18355114117E+03  0.50400001928E-02 0. -1.
        1   -1    0    0  501    0  0.00000000000E+00  0.00000000000E+00 -0.81021262917E+03  0.81021262919E+03  0.50400001928E-02 0.  1.
    10030    2    1    2    0    0  0.00000000000E+00  0.00000000000E+00 -0.62666148806E+03  0.99376377036E+03  0.77127285098E+03 0.  0.
        1    1    3    3  502    0 -0.10700559546E+03  0.33053732199E+03 -0.52897319465E+03  0.63286472439E+03  0.50400001928E-02 0.  1.
       -1    1    3    3    0  502  0.10700559546E+03 -0.33053732199E+03 -0.97688293414E+02  0.36089904597E+03  0.50400001928E-02 0. -1.
</event>
<event>
 5   0  0.2063692E-02  0.7909747E+03  0.7818609E-02  0.9573174E-01
        1   -1    0    0  501    0  0.00000000000E+00  0.00000000000E+00  0.14741714705E+04  0.14741714705E+04  0.50400001928E-02 0. -1.
       -1   -1    0    0    0  501  0.00000000000E+00  0.00000000000E+00 -0.10610042896E+03  0.10610042908E+03  0.50400001928E-02 0.  1.
    10030    2    1    2    0    0  0.00000000000E+00  0.00000000000E+00  0.13680710416E+04  0.15802718996E+04  0.79097465315E+03 0.  0.
        2    1    3    3  502    0  0.88846800043E+02 -0.35738143452E+03  0.39593202780E+03  0.54071934889E+03  0.25500000920E-02 0. -1.
       -2    1    3    3    0  502 -0.88846800043E+02  0.35738143452E+03  0.97213901377E+03  0.10395525507E+04  0.25500000920E-02 0.  1.
</event>
<event>
 5   0  0.2129257E-02  0.8311646E+03  0.7818609E-02  0.9515972E-01
        1   -1    0    0  501    0  0.00000000000E+00  0.00000000000E+00  0.89543387515E+03  0.89543387516E+03  0.50400001928E-02 0.  1.
       -1   -1    0    0    0  501  0.00000000000E+00  0.00000000000E+00 -0.19287705807E+03  0.19287705814E+03  0.50400001928E-02 0. -1.
    10030    2    1    2    0    0  0.00000000000E+00  0.00000000000E+00  0.70255681708E+03  0.10883109333E+04  0.83116460844E+03 0.  0.
        3    1    3    3  502    0 -0.68492283386E+02  0.91704470955E+02  0.87438828755E+03  0.88184794068E+03  0.10100000352E+00 0.  1.
       -3    1    3    3    0  502  0.68492283386E+02 -0.91704470955E+02 -0.17183147047E+03  0.20646299262E+03  0.10100000352E+00 0. -1.
</event>
<event>
 5   0  0.3343036E-02  0.8241633E+03  0.7818609E-02  0.9525686E-01
        2   -1    0    0  501    0  0.00000000000E+00  0.00000000000E+00  0.51571930382E+03  0.51571930382E+03  0.25500000920E-02 0. -1.
       -2   -1    0    0    0  501  0.00000000000E+00  0.00000000000E+00 -0.32927076203E+03  0.32927076204E+03  0.25500000920E-02 0.  1.
    10030    2    1    2    0    0  0.00000000000E+00  0.00000000000E+00  0.18644854178E+03  0.84499006587E+03  0.82416330462E+03 0.  0.
        4    1    3    3  502    0  0.24195445072E+03  0.27452915134E+03  0.28748920241E+03  0.46535993119E+03  0.12699999809E+01 0. -1.
       -4    1    3    3    0  502 -0.24195445072E+03 -0.27452915134E+03 -0.10104066062E+03  0.37963013468E+03  0.12699999809E+01 0.  1.
</event>
<event>
 5   0  0.3343036E-02  0.5923555E+03  0.7818609E-02  0.9921394E-01
       -2   -1    0    0    0  501  0.00000000000E+00  0.00000000000E+00  0.46114684209E+03  0.46114684209E+03  0.25500000920E-02 0.  1.
        2   -1    0    0  501    0  0.00000000000E+00  0.00000000000E+00 -0.19022415698E+03  0.19022415700E+03  0.25500000920E-02 0. -1.
    10030    2    1    2    0    0  0.00000000000E+00  0.00000000000E+00  0.27092268511E+03  0.65137099909E+03  0.59235553273E+03 0.  0.
        4    1    3    3  502    0  0.16425472607E+03  0.10397807110E+03 -0.11024743586E+03  0.22348862235E+03  0.12699999809E+01 0. -1.
       -4    1    3    3    0  502 -0.16425472607E+03 -0.10397807110E+03  0.38117012097E+03  0.42788237674E+03  0.12699999809E+01 0.  1.
</event>
<event>
 5   0  0.2063692E-02  0.7976142E+03  0.7818609E-02  0.9563477E-01
       -1   -1    0    0    0  501  0.00000000000E+00  0.00000000000E+00  0.29826198268E+03  0.29826198272E+03  0.50400001928E-02 0.  1.
        1   -1    0    0  501    0  0.00000000000E+00  0.00000000000E+00 -0.53324631357E+03  0.53324631359E+03  0.50400001928E-02 0. -1.
    10030    2    1    2    0    0  0.00000000000E+00  0.00000000000E+00 -0.23498433089E+03  0.83150829631E+03  0.79761419939E+03 0.  0.
        2    1    3    3  502    0  0.32776874741E+02 -0.18183792282E+03 -0.48593354601E+03  0.51987572057E+03  0.25500000920E-02 0. -1.
       -2    1    3    3    0  502 -0.32776874741E+02  0.18183792282E+03  0.25094921511E+03  0.31163257575E+03  0.25500000920E-02 0.  1.
</event>
<event>
 5   0  0.3343036E-02  0.8307561E+03  0.7818609E-02  0.9516536E-01
        2   -1    0    0  501    0  0.00000000000E+00  0.00000000000E+00  0.48821045379E+03  0.48821045379E+03  0.25500000920E-02 0.  1.
       -2   -1    0    0    0  501  0.00000000000E+00  0.00000000000E+00 -0.35341096740E+03  0.35341096741E+03  0.25500000920E-02 0. -1.
    10030    2    1    2    0    0  0.00000000000E+00  0.00000000000E+00  0.13479948639E+03  0.84162142120E+03  0.83075611047E+03 0.  0.
        4    1    3    3  502    0  0.32091340193E+03  0.14531449491E+03 -0.15555955410E+03  0.38510011911E+03  0.12699999809E+01 0. -1.
       -4    1    3    3    0  502 -0.32091340193E+03 -0.14531449491E+03  0.29035904049E+03  0.45652130209E+03  0.12699999809E+01 0.  1.
</event>
<event>
 5   0  0.3416160E-02  0.8249689E+03  0.7818609E-02  0.9524563E-01
       -2   -1    0    0    0  501  0.00000000000E+00  0.00000000000E+00  0.30207605258E+03  0.30207605260E+03  0.25500000920E-02 0. -1.
        2   -1    0    0  501    0  0.00000000000E+00  0.00000000000E+00 -0.56324703245E+03  0.56324703246E+03  0.25500000920E-02 0.  1.
    10030    2    1    2    0    0  0.00000000000E+00  0.00000000000E+00 -0.26117097987E+03  0.86532308505E+03  0.82496894536E+03 0.  0.
        1    1    3    3  502    0  0.31962154788E+02  0.32311025664E+03  0.13626339276E+03  0.35212146984E+03  0.50400001928E-02 0. -1.
       -1    1    3    3    0  502 -0.31962154788E+02 -0.32311025664E+03 -0.39743437263E+03  0.51320161522E+03  0.50400001928E-02 0.  1.
</event>
<event>
 5   0  0.1358000E-02  0.7984870E+03  0.7818609E-02  0.9562210E-01
       -3   -1    0    0    0  501  0.00000000000E+00  0.00000000000E+00  0.50325874155E+03  0.50325875169E+03  0.10100000352E+00 0.  1.
        3   -1    0    0  501    0  0.00000000000E+00  0.00000000000E+00 -0.31672645687E+03  0.31672647297E+03  0.10100000352E+00 0. -1.
    10030    2    1    2    0    0  0.00000000000E+00  0.00000000000E+00  0.18653228468E+03  0.81998522466E+03  0.79848699140E+03 0.  0.
        5    1    3    3  502    0  0.33411326269E+03  0.42883591780E+01 -0.13107195662E+03  0.35895962188E+03  0.46999998093E+01 0.  1.
       -5    1    3    3    0  502 -0.33411326269E+03 -0.42883591780E+01  0.31760424131E+03  0.46102560278E+03  0.46999998093E+01 0. -1.
</event>
<event>
 5   0  0.3343036E-02  0.8003653E+03  0.7818609E-02  0.9559489E-01
       -2   -1    0    0    0  501  0.00000000000E+00  0.00000000000E+00  0.17442434715E+03  0.17442434717E+03  0.25500000920E-02 0.  1.
        2   -1    0    0  501    0  0.00000000000E+00  0.00000000000E+00 -0.91814100752E+03  0.91814100753E+03  0.25500000920E-02 0. -1.
    10030    2    1    2    0    0  0.00000000000E+00  0.00000000000E+00 -0.74371666037E+03  0.10925653547E+04  0.80036528121E+03 0.  0.
        4    1    3    3  502    0  0.26066532184E+03  0.30027273025E+03 -0.43342965057E+03  0.58819469348E+03  0.12699999809E+01 0.  1.
       -4    1    3    3    0  502 -0.26066532184E+03 -0.30027273025E+03 -0.31028700980E+03  0.50437066121E+03  0.12699999809E+01 0. -1.
</event>
<event>
 5   0  0.2129257E-02  0.8045434E+03  0.7818609E-02  0.9553464E-01
       -1   -1    0    0    0  501  0.00000000000E+00  0.00000000000E+00  0.38164907727E+03  0.38164907730E+03  0.50400001928E-02 0.  1.
        1   -1    0    0  501    0  0.00000000000E+00  0.00000000000E+00 -0.42400870008E+03  0.42400870011E+03  0.50400001928E-02 0. -1.
    10030    2    1    2    0    0  0.00000000000E+00  0.00000000000E+00 -0.42359622815E+02  0.80565777741E+03  0.80454342124E+03 0.  0.
        3    1    3    3  502    0  0.39755055082E+03  0.49179086614E+02 -0.58075055428E+02  0.40476875531E+03  0.10100000352E+00 0. -1.
       -3    1    3    3    0  502 -0.39755055082E+03 -0.49179086614E+02  0.15715432613E+02  0.40088902210E+03  0.10100000352E+00 0.  1.
</event>
<event>
 5   0  0.3404132E-02  0.8292940E+03  0.7818609E-02  0.9518557E-01
        2   -1    0    0  501    0  0.00000000000E+00  0.00000000000E+00  0.12781476887E+04  0.12781476887E+04  0.25500000920E-02 0. -1.
       -2   -1    0    0    0  501  0.00000000000E+00  0.00000000000E+00 -0.13451665187E+03  0.13451665190E+03  0.25500000920E-02 0.  1.
    10030    2    1    2    0    0  0.00000000000E+00  0.00000000000E+00  0.11436310369E+04  0.14126643406E+04  0.82929403159E+03 0.  0.
        5    1    3    3  502    0 -0.10535325128E+03 -0.37051647462E+03  0.31052379993E+03  0.49480186524E+03  0.46999998093E+01 0.  1.
       -5    1    3    3    0  502  0.10535325128E+03  0.37051647462E+03  0.83310723692E+03  0.91786247539E+03  0.46999998093E+01 0. -1.
</event>
<event>
 5   0  0.2129257E-02  0.7858599E+03  0.7818609E-02  0.9580713E-01
       -1   -1    0    0    0  501  0.00000000000E+00  0.00000000000E+00  0.52115341060E+03  0.52115341063E+03  0.50400001928E-02 0.  1.
        1   -1    0    0  501    0  0.00000000000E+00  0.00000000000E+00 -0.29625433149E+03  0.29625433153E+03  0.50400001928E-02 0. -1.
    10030    2    1    2    0    0  0.00000000000E+00  0.00000000000E+00  0.22489907912E+03  0.81740774216E+03  0.78585992464E+03 0.  0.
        3    1    3    3  502    0  0.25152132667E+03 -0.20031692472E+03 -0.12245755647E+03  0.34407224741E+03  0.10100000352E+00 0. -1.
       -3    1    3    3    0  502 -0.25152132667E+03  0.20031692472E+03  0.34735663559E+03  0.47333549475E+03  0.10100000352E+00 0.  1.
</event>
<event>
 5   0  0.2129257E-02  0.8098328E+03  0.7818609E-02  0.9545893E-01
        1   -1    0    0  501    0  0.00000000000E+00  0.00000000000E+00  0.56618609612E+03  0.56618609614E+03  0.50400001928E-02 0. -1.
       -1   -1    0    0    0  501  0.00000000000E+00  0.00000000000E+00 -0.28958198883E+03  0.28958198887E+03  0.50400001928E-02 0.  1.
    10030    2    1    2    0    0  0.00000000000E+00  0.00000000000E+00  0.27660410730E+03  0.85576808501E+03  0.80983281185E+03 0.  0.
        3    1    3    3  502    0 -0.17882367171E+03 -0.17790674346E+03  0.47301539972E+03  0.53607116459E+03  0.10100000352E+00 0. -1.
       -3    1    3    3    0  502  0.17882367171E+03  0.17790674346E+03 -0.19641129243E+03  0.31969692042E+03  0.10100000352E+00 0.  1.
</event>
<event>
 5   0  0.3550586E-02  0.8135600E+03  0.7818609E-02  0.9540594E-01
        2   -1    0    0  501    0  0.00000000000E+00  0.00000000000E+00  0.65446095104E+03  0.65446095104E+03  0.25500000920E-02 0.  1.
       -2   -1    0    0    0  501  0.00000000000E+00  0.00000000000E+00 -0.25283398551E+03  0.25283398553E+03  0.25500000920E-02 0. -1.
    10030    2    1    2    0    0  0.00000000000E+00  0.00000000000E+00  0.40162696552E+03  0.90729493657E+03  0.81356000546E+03 0.  0.
        3    1    3    3  502    0  0.28488017875E+03 -0.27853813806E+03  0.29230026574E+03  0.49414538969E+03  0.10100000352E+00 0.  1.
       -3    1    3    3    0  502 -0.28488017875E+03  0.27853813806E+03  0.10932669978E+03  0.41314954688E+03  0.10100000352E+00 0. -1.
</event>
<event>
 5   0  0.1989298E-02  0.7851593E+03  0.7818609E-02  0.9581750E-01
       -1   -1    0    0    0  501  0.00000000000E+00  0.00000000000E+00  0.19517005293E+03  0.19517005300E+03  0.50400001928E-02 0.  1.
        1   -1    0    0  501    0  0.00000000000E+00  0.00000000000E+00 -0.78966409515E+03  0.78966409517E+03  0.50400001928E-02 0. -1.
    10030    2    1    2    0    0  0.00000000000E+00  0.00000000000E+00 -0.59449404222E+03  0.98483414816E+03  0.78515930431E+03 0.  0.
        1    1    3    3  502    0  0.34939471409E+03 -0.37800184865E+02 -0.77784618703E+02  0.35993883806E+03  0.50400001928E-02 0.  1.
       -1    1    3    3    0  502 -0.34939471409E+03  0.37800184865E+02 -0.51670942352E+03  0.62489531010E+03  0.50400001928E-02 0. -1.
</event>
<event>
 5   0  0.2132540E-02  0.8407946E+03  0.7818609E-02  0.9502776E-01
       -1   -1    0    0    0  501  0.00000000000E+00  0.00000000000E+00  0.29543587172E+03  0.29543587176E+03  0.50400001928E-02 0.  1.
        1   -1    0    0  501    0  0.00000000000E+00  0.00000000000E+00 -0.59821398188E+03  0.59821398190E+03  0.50400001928E-02 0. -1.
    10030    2    1    2    0    0  0.00000000000E+00  0.00000000000E+00 -0.30277811016E+03  0.89364985366E+03  0.84079455098E+03 0.  0.
        4    1    3    3  502    0  0.36815575780E+03  0.13735825663E+03 -0.31020200542E+03  0.50063244974E+03  0.12699999809E+01 0. -1.
       -4    1    3    3    0  502 -0.36815575780E+03 -0.13735825663E+03  0.74238952655E+01  0.39301740392E+03  0.12699999809E+01 0.  1.
</event>
<event>
 5   0  0.2077795E-02  0.7954454E+03  0.7818609E-02  0.9566633E-01
       -1   -1    0    0    0  501  0.00000000000E+00  0.00000000000E+00  0.10114057597E+03  0.10114057610E+03  0.50400001928E-02 0.  1.
        1   -1    0    0  501    0  0.00000000000E+00  0.00000000000E+00 -0.15639948904E+04  0.15639948904E+04  0.50400001928E-02 0. -1.
    10030    2    1    2    0    0  0.00000000000E+00  0.00000000000E+00 -0.14628543144E+04  0.16651354665E+04  0.79544539508E+03 0.  0.
        5    1    3    3  502    0  0.27213548148E+03  0.26624343201E+03 -0.97209693659E+03  0.10440008762E+04  0.46999998093E+01 0. -1.
       -5    1    3    3    0  502 -0.27213548148E+03 -0.26624343201E+03 -0.49075737782E+03  0.62113459029E+03  0.46999998093E+01 0.  1.
</event>
<event>
 5   0  0.2132540E-02  0.8440887E+03  0.7818609E-02  0.9498305E-01
       -1   -1    0    0    0  501  0.00000000000E+00  0.00000000000E+00  0.24493200454E+03  0.24493200459E+03  0.50400001928E-02 0. -1.
        1   -1    0    0  501    0  0.00000000000E+00  0.00000000000E+00 -0.72722812015E+03  0.72722812017E+03  0.50400001928E-02 0.  1.
    10030    2    1    2    0    0  0.00000000000E+00  0.00000000000E+00 -0.48229611562E+03  0.97216012476E+03  0.84408871870E+03 0.  0.
        4    1    3    3  502    0 -0.11308353022E+03 -0.13064629606E+03 -0.68462068166E+03  0.70609024220E+03  0.12699999809E+01 0.  1.
       -4    1    3    3    0  502  0.11308353022E+03  0.13064629606E+03  0.20232456604E+03  0.26606988256E+03  0.12699999809E+01 0. -1.
</event>
<event>
 5   0  0.1989298E-02  0.8137090E+03  0.7818609E-02  0.9540383E-01
       -1   -1    0    0    0  501  0.00000000000E+00  0.00000000000E+00  0.14556842250E+04  0.14556842251E+04  0.50400001928E-02 0.  1.
        1   -1    0    0  501    0  0.00000000000E+00  0.00000000000E+00 -0.11371325231E+03  0.11371325242E+03  0.50400001928E-02 0. -1.
    10030    2    1    2    0    0  0.00000000000E+00  0.00000000000E+00  0.13419709727E+04  0.15693974775E+04  0.81370900859E+03 0.  0.
        1    1    3    3  502    0 -0.29964638544E+02 -0.16890108560E+03 -0.40557390956E+02  0.17626785942E+03  0.50400001928E-02 0. -1.
       -1    1    3    3    0  502  0.29964638544E+02  0.16890108560E+03  0.13825283637E+04  0.13931296181E+04  0.50400001928E-02 0.  1.
</event>
<event>
 5   0  0.3343036E-02  0.8437932E+03  0.7818609E-02  0.9498706E-01
        2   -1    0    0  501    0  0.00000000000E+00  0.00000000000E+00  0.61541765620E+03  0.61541765621E+03  0.25500000920E-02 0. -1.
       -2   -1    0    0    0  501  0.00000000000E+00  0.00000000000E+00 -0.28922916138E+03  0.28922916139E+03  0.25500000920E-02 0.  1.
    10030    2    1    2    0    0  0.00000000000E+00  0.00000000000E+00  0.32618849483E+03  0.90464681759E+03  0.84379317989E+03 0.  0.
        4    1    3    3  502    0 -0.19433724553E+03  0.12052418818E+03 -0.21702010839E+03  0.31526557897E+03  0.12699999809E+01 0.  1.
       -4    1    3    3    0  502  0.19433724553E+03 -0.12052418818E+03  0.54320860321E+03  0.58938123862E+03  0.12699999809E+01 0. -1.
</event>
<event>
 5   0  0.2132540E-02  0.7978871E+03  0.7818609E-02  0.9563081E-01
        1   -1    0    0  501    0  0.00000000000E+00  0.00000000000E+00  0.67874069213E+03  0.67874069215E+03  0.50400001928E-02 0.  1.
       -1   -1    0    0    0  501  0.00000000000E+00  0.00000000000E+00 -0.23448711184E+03  0.23448711189E+03  0.50400001928E-02 0. -1.
    10030    2    1    2    0    0  0.00000000000E+00  0.00000000000E+00  0.44425358029E+03  0.91322780404E+03  0.79788707125E+03 0.  0.
        4    1    3    3  502    0  0.14282634702E+03 -0.31889085036E+03  0.44247597591E+03  0.56380612094E+03  0.12699999809E+01 0.  1.
       -4    1    3    3    0  502 -0.14282634702E+03  0.31889085036E+03  0.17776043822E+01  0.34942168311E+03  0.12699999809E+01 0. -1.
</event>
<event>
 5   0  0.2132540E-02  0.8450523E+03  0.7818609E-02  0.9497002E-01
       -1   -1    0    0    0  501  0.00000000000E+00  0.00000000000E+00  0.56132318536E+03  0.56132318538E+03  0.50400001928E-02 0.  1.
        1   -1    0    0  501    0  0.00000000000E+00  0.00000000000E+00 -0.31804911189E+03  0.31804911193E+03  0.50400001928E-02 0. -1.
    10030    2    1    2    0    0  0.00000000000E+00  0.00000000000E+00  0.24327407346E+03  0.87937229731E+03  0.84505228386E+03 0.  0.
        4    1    3    3  502    0  0.23400034055E+03  0.32639753216E+03 -0.14977718236E+02  0.40189234046E+03  0.12699999809E+01 0. -1.
       -4    1    3    3    0  502 -0.23400034055E+03 -0.32639753216E+03  0.25825179170E+03  0.47747995685E+03  0.12699999809E+01 0.  1.
</event>
<event>
 5   0  0.2129257E-02  0.8194235E+03  0.7818609E-02  0.9532320E-01
       -1   -1    0    0    0  501  0.00000000000E+00  0.00000000000E+00  0.32120386077E+03  0.32120386081E+03  0.50400001928E-02 0.  1.
        1   -1    0    0  501    0  0.00000000000E+00  0.00000000000E+00 -0.52260799401E+03  0.52260799403E+03  0.50400001928E-02 0. -1.
    10030    2    1    2    0    0  0.00000000000E+00  0.00000000000E+00 -0.20140413324E+03  0.84381185484E+03  0.81942346897E+03 0.  0.
        3    1    3    3  502    0  0.99074634819E+02  0.19194407402E+03 -0.45920951312E+03  0.50747581022E+03  0.10100000352E+00 0. -1.
       -3    1    3    3    0  502 -0.99074634819E+02 -0.19194407402E+03  0.25780537989E+03  0.33633604463E+03  0.10100000352E+00 0.  1.
</event>
<event>
 5   0  0.2129257E-02  0.7978568E+03  0.7818609E-02  0.9563124E-01
        1   -1    0    0  501    0  0.00000000000E+00  0.00000000000E+00  0.51363296150E+03  0.51363296152E+03  0.50400001928E-02 0.  1.
       -1   -1    0    0    0  501  0.00000000000E+00  0.00000000000E+00 -0.30983967585E+03  0.30983967589E+03  0.50400001928E-02 0. -1.
    10030    2    1    2    0    0  0.00000000000E+00  0.00000000000E+00  0.20379328565E+03  0.82347263741E+03  0.79785680500E+03 0.  0.
        3    1    3    3  502    0 -0.20441640968E+03  0.19660315283E+03 -0.18765455012E+03  0.34007809196E+03  0.10100000352E+00 0. -1.
       -3    1    3    3    0  502  0.20441640968E+03 -0.19660315283E+03  0.39144783576E+03  0.48339454545E+03  0.10100000352E+00 0.  1.
</event>
<event>
 5   0  0.3343036E-02  0.8248999E+03  0.7818609E-02  0.9524659E-01
        2   -1    0    0  501    0  0.00000000000E+00  0.00000000000E+00  0.55359710233E+03  0.55359710233E+03  0.25500000920E-02 0.  1.
       -2   -1    0    0    0  501  0.00000000000E+00  0.00000000000E+00 -0.30729018851E+03  0.30729018852E+03  0.25500000920E-02 0. -1.
    10030    2    1    2    0    0  0.00000000000E+00  0.00000000000E+00  0.24630691382E+03  0.86088729085E+03  0.82489989196E+03 0.  0.
        4    1    3    3  502    0  0.39524282305E+03  0.11160302538E+03  0.16277307441E+03  0.44177914290E+03  0.12699999809E+01 0.  1.
       -4    1    3    3    0  502 -0.39524282305E+03 -0.11160302538E+03  0.83533839418E+02  0.41910814795E+03  0.12699999809E+01 0. -1.
</event>
<event>
 5   0  0.2063692E-02  0.8003710E+03  0.7818609E-02  0.9559480E-01
       -1   -1    0    0    0  501  0.00000000000E+00  0.00000000000E+00  0.59959194441E+03  0.59959194443E+03  0.50400001928E-02 0. -1.
        1   -1    0    0  501    0  0.00000000000E+00  0.00000000000E+00 -0.26709568050E+03  0.26709568055E+03  0.50400001928E-02 0.  1.
    10030    2    1    2    0    0  0.00000000000E+00  0.00000000000E+00  0.33249626391E+03  0.86668762498E+03  0.80037096011E+03 0.  0.
        2    1    3    3  502    0  0.35447775862E+03 -0.56617456773E+02  0.35778966322E+03  0.50682685493E+03  0.25500000920E-02 0. -1.
       -2    1    3    3    0  502 -0.35447775862E+03  0.56617456773E+02 -0.25293399309E+02  0.35986077005E+03  0.25500000920E-02 0.  1.
</event>
<event>
 5   0  0.2132540E-02  0.7930690E+03  0.7818609E-02  0.9570104E-01
       -1   -1    0    0    0  501  0.00000000000E+00  0.00000000000E+00  0.81710913617E+02  0.81710913773E+02  0.50400001928E-02 0.  1.
        1   -1    0    0  501    0  0.00000000000E+00  0.00000000000E+00 -0.19243403486E+04  0.19243403487E+04  0.50400001928E-02 0. -1.
    10030    2    1    2    0    0  0.00000000000E+00  0.00000000000E+00 -0.18426294350E+04  0.20060512624E+04  0.79306899614E+03 0.  0.
        4    1    3    3  502    0 -0.26020953919E+03 -0.11575996332E+03 -0.16192337448E+04  0.16440890811E+04  0.12699999809E+01 0. -1.
       -4    1    3    3    0  502  0.26020953919E+03  0.11575996332E+03 -0.22339569023E+03  0.36196218132E+03  0.12699999809E+01 0.  1.
</event>
<event>
 5   0  0.3343036E-02  0.7999477E+03  0.7818609E-02  0.9560093E-01
       -2   -1    0    0    0  501  0.00000000000E+00  0.00000000000E+00  0.19783014902E+03  0.19783014903E+03  0.25500000920E-02 0. -1.
        2   -1    0    0  501    0  0.00000000000E+00  0.00000000000E+00 -0.80866881528E+03  0.80866881529E+03  0.25500000920E-02 0.  1.
    10030    2    1    2    0    0  0.00000000000E+00  0.00000000000E+00 -0.61083866627E+03  0.10064989643E+04  0.79994767889E+03 0.  0.
        4    1    3    3  502    0  0.61221823018E+02  0.70620554293E+02 -0.79473382433E+03  0.80021174619E+03  0.12699999809E+01 0.  1.
       -4    1    3    3    0  502 -0.61221823018E+02 -0.70620554293E+02  0.18389515807E+03  0.20628721813E+03  0.12699999809E+01 0. -1.
</event>
<event>
 5   0  0.3404132E-02  0.7845721E+03  0.7818609E-02  0.9582621E-01
        2   -1    0    0  501    0  0.00000000000E+00  0.00000000000E+00  0.75486409443E+03  0.75486409443E+03  0.25500000920E-02 0. -1.
       -2   -1    0    0    0  501  0.00000000000E+00  0.00000000000E+00 -0.20386230016E+03  0.20386230017E+03  0.25500000920E-02 0.  1.
    10030    2    1    2    0    0  0.00000000000E+00  0.00000000000E+00  0.55100179427E+03  0.95872639461E+03  0.78457206324E+03 0.  0.
        5    1    3    3  502    0 -0.43983706137E+02  0.24819172297E+03 -0.91767840343E+02  0.26828552752E+03  0.46999998093E+01 0.  1.
       -5    1    3    3    0  502  0.43983706137E+02 -0.24819172297E+03  0.64276963462E+03  0.69044086708E+03  0.46999998093E+01 0. -1.
</event>
<event>
 5   0  0.2132540E-02  0.7510111E+03  0.7818609E-02  0.9633765E-01
       -1   -1    0    0    0  501  0.00000000000E+00  0.00000000000E+00  0.41504904890E+03  0.41504904893E+03  0.50400001928E-02 0.  1.
        1   -1    0    0  501    0  0.00000000000E+00  0.00000000000E+00 -0.33972954486E+03  0.33972954490E+03  0.50400001928E-02 0. -1.
    10030    2    1    2    0    0  0.00000000000E+00  0.00000000000E+00  0.75319504038E+02  0.75477859382E+03  0.75101111710E+03 0.  0.
        4    1    3    3  502    0  0.29849294741E+03  0.19449111048E+03 -0.81586126943E+02  0.36548972724E+03  0.12699999809E+01 0. -1.
       -4    1    3    3    0  502 -0.29849294741E+03 -0.19449111048E+03  0.15690563098E+03  0.38928886658E+03  0.12699999809E+01 0.  1.
</event>
<event>
 5   0  0.3343036E-02  0.8056554E+03  0.7818609E-02  0.9551867E-01
       -2   -1    0    0    0  501  0.00000000000E+00  0.00000000000E+00  0.10752304370E+04  0.10752304370E+04  0.25500000920E-02 0. -1.
        2   -1    0    0  501    0  0.00000000000E+00  0.00000000000E+00 -0.15091662919E+03  0.15091662922E+03  0.25500000920E-02 0.  1.
    10030    2    1    2    0    0  0.00000000000E+00  0.00000000000E+00  0.92431380782E+03  0.12261470662E+04  0.80565539327E+03 0.  0.
        4    1    3    3  502    0 -0.15113875456E+03  0.12253896912E+03  0.99896687279E+03  0.10177402163E+04  0.12699999809E+01 0. -1.
       -4    1    3    3    0  502  0.15113875456E+03 -0.12253896912E+03 -0.74653064972E+02  0.20840684991E+03  0.12699999809E+01 0.  1.
</event>
<event>
 5   0  0.3550586E-02  0.7962285E+03  0.7818609E-02  0.9565492E-01
        2   -1    0    0  501    0  0.00000000000E+00  0.00000000000E+00  0.11219134816E+04  0.11219134816E+04  0.25500000920E-02 0. -1.
       -2   -1    0    0    0  501  0.00000000000E+00  0.00000000000E+00 -0.14127200176E+03  0.14127200179E+03  0.25500000920E-02 0.  1.
    10030    2    1    2    0    0  0.00000000000E+00  0.00000000000E+00  0.98064147984E+03  0.12631854834E+04  0.79622851838E+03 0.  0.
        3    1    3    3  502    0 -0.37527148721E+03 -0.94282958571E+02  0.34169222297E+03  0.51620882483E+03  0.10100000352E+00 0. -1.
       -3    1    3    3    0  502  0.37527148721E+03  0.94282958571E+02  0.63894925687E+03  0.74697665857E+03  0.10100000352E+00 0.  1.
</event>
<event>
 5   0  0.2077795E-02  0.6840341E+03  0.7818609E-02  0.9744932E-01
       -1   -1    0    0    0  501  0.00000000000E+00  0.00000000000E+00  0.16244640154E+03  0.16244640162E+03  0.50400001928E-02 0. -1.
        1   -1    0    0  501    0  0.00000000000E+00  0.00000000000E+00 -0.72008766496E+03  0.72008766497E+03  0.50400001928E-02 0.  1.
    10030    2    1    2    0    0  0.00000000000E+00  0.00000000000E+00 -0.55764126341E+03  0.88253406659E+03  0.68403406351E+03 0.  0.
        5    1    3    3  502    0  0.19261185169E+03  0.17478653626E+03 -0.56530068720E+03  0.62228338851E+03  0.46999998093E+01 0.  1.
       -5    1    3    3    0  502 -0.19261185169E+03 -0.17478653626E+03  0.76594237835E+01  0.26025067808E+03  0.46999998093E+01 0. -1.
</event>
<event>
 5   0  0.3467240E-02  0.7957273E+03  0.7818609E-02  0.9566222E-01
        2   -1    0    0  501    0  0.00000000000E+00  0.00000000000E+00  0.11384324571E+04  0.11384324571E+04  0.25500000920E-02 0.  1.
       -2   -1    0    0    0  501  0.00000000000E+00  0.00000000000E+00 -0.13904689834E+03  0.13904689836E+03  0.25500000920E-02 0. -1.
    10030    2    1    2    0    0  0.00000000000E+00  0.00000000000E+00  0.99938555871E+03  0.12774793554E+04  0.79572734561E+03 0.  0.
        2    1    3    3  502    0 -0.65193726611E+01 -0.10489104364E+03 -0.11636087832E+03  0.15679441083E+03  0.25500000920E-02 0. -1.
       -2    1    3    3    0  502  0.65193726611E+01  0.10489104364E+03  0.11157464370E+04  0.11206849446E+04  0.25500000920E-02 0.  1.
</event>
<event>
 5   0  0.2077795E-02  0.8199299E+03  0.7818609E-02  0.9531609E-01
        1   -1    0    0  501    0  0.00000000000E+00  0.00000000000E+00  0.31677082595E+03  0.31677082599E+03  0.50400001928E-02 0.  1.
       -1   -1    0    0    0  501  0.00000000000E+00  0.00000000000E+00 -0.53057677686E+03  0.53057677689E+03  0.50400001928E-02 0. -1.
    10030    2    1    2    0    0  0.00000000000E+00  0.00000000000E+00 -0.21380595091E+03  0.84734760288E+03  0.81992986008E+03 0.  0.
        5    1    3    3  502    0 -0.19464503788E+02  0.27393631889E+03  0.20762466179E+03  0.34431099880E+03  0.46999998093E+01 0.  1.
       -5    1    3    3    0  502  0.19464503788E+02 -0.27393631889E+03 -0.42143061271E+03  0.50303660408E+03  0.46999998093E+01 0. -1.
</event>
<event>
 5   0  0.3467240E-02  0.7814060E+03  0.7818609E-02  0.9587328E-01
        2   -1    0    0  501    0  0.00000000000E+00  0.00000000000E+00  0.83290437112E+03  0.83290437112E+03  0.25500000920E-02 0. -1.
       -2   -1    0    0    0  501  0.00000000000E+00  0.00000000000E+00 -0.18327294631E+03  0.18327294633E+03  0.25500000920E-02 0.  1.
    10030    2    1    2    0    0  0.00000000000E+00  0.00000000000E+00  0.64963142481E+03  0.10161773175E+04  0.78140600996E+03 0.  0.
        2    1    3    3  502    0 -0.32980196425E+03  0.11004280536E+03  0.93021852625E+02  0.35990529269E+03  0.25500000920E-02 0.  1.
       -2    1    3    3    0  502  0.32980196425E+03 -0.11004280536E+03  0.55660957219E+03  0.65627202476E+03  0.25500000920E-02 0. -1.
</event>
<event>
 5   0  0.2129257E-02  0.7740863E+03  0.7818609E-02  0.9598303E-01
        1   -1    0    0  501    0  0.00000000000E+00  0.00000000000E+00  0.84265209317E+03  0.84265209319E+03  0.50400001928E-02 0.  1.
       -1   -1    0    0    0  501  0.00000000000E+00  0.00000000000E+00 -0.17777488960E+03  0.17777488967E+03  0.50400001928E-02 0. -1.
    10030    2    1    2    0    0  0.00000000000E+00  0.00000000000E+00  0.66487720358E+03  0.10204269829E+04  0.77408625585E+03 0.  0.
        3    1    3    3  502    0  0.20938852022E+03 -0.46060689244E+02  0.75722356142E+03  0.78698962615E+03  0.10100000352E+00 0.  1.
       -3    1    3    3    0  502 -0.20938852022E+03  0.46060689244E+02 -0.92346357848E+02  0.23343735670E+03  0.10100000352E+00 0. -1.
</event>
<event>
 5   0  0.3550586E-02  0.7876321E+03  0.7818609E-02  0.9578094E-01
        2   -1    0    0  501    0  0.00000000000E+00  0.00000000000E+00  0.84996914521E+03  0.84996914521E+03  0.25500000920E-02 0. -1.
       -2   -1    0    0    0  501  0.00000000000E+00  0.00000000000E+00 -0.18246672822E+03  0.18246672824E+03  0.25500000920E-02 0.  1.
    10030    2    1    2    0    0  0.00000000000E+00  0.00000000000E+00  0.66750241698E+03  0.10324358735E+04  0.78763211978E+03 0.  0.
        3    1    3    3  502    0  0.24908771013E+03 -0.26226701391E+03  0.53792810157E+03  0.64822475005E+03  0.10100000352E+00 0. -1.
       -3    1    3    3    0  502 -0.24908771013E+03  0.26226701391E+03  0.12957431542E+03  0.38421112340E+03  0.10100000352E+00 0.  1.
</event>
<event>
 5   0  0.2063692E-02  0.8057381E+03  0.7818609E-02  0.9551748E-01
        1   -1    0    0  501    0  0.00000000000E+00  0.00000000000E+00  0.23404675217E+03  0.23404675222E+03  0.50400001928E-02 0. -1.
       -1   -1    0    0    0  501  0.00000000000E+00  0.00000000000E+00 -0.69346595390E+03  0.69346595392E+03  0.50400001928E-02 0.  1.
    10030    2    1    2    0    0  0.00000000000E+00  0.00000000000E+00 -0.45941920173E+03  0.92751270614E+03  0.80573805739E+03 0.  0.
        2    1    3    3  502    0  0.35061387422E+03 -0.94890062004E+02 -0.43031516005E+03  0.56312107902E+03  0.25500000920E-02 0.  1.
       -2    1    3    3    0  502 -0.35061387422E+03  0.94890062004E+02 -0.29104041680E+02  0.36439162711E+03  0.25500000920E-02 0. -1.
</event>
<event>
 5   0  0.1989298E-02  0.7806843E+03  0.7818609E-02  0.9588404E-01
       -1   -1    0    0    0  501  0.00000000000E+00  0.00000000000E+00  0.36358759150E+03  0.36358759153E+03  0.50400001928E-02 0. -1.
        1   -1    0    0  501    0  0.00000000000E+00  0.00000000000E+00 -0.41906539662E+03  0.41906539665E+03  0.50400001928E-02 0.  1.
    10030    2    1    2    0    0  0.00000000000E+00  0.00000000000E+00 -0.55477805119E+02  0.78265298818E+03  0.78068425951E+03 0.  0.
        1    1    3    3  502    0 -0.74999973276E+02 -0.11225711214E+03 -0.39491423657E+03  0.41735345870E+03  0.50400001928E-02 0.  1.
       -1    1    3    3    0  502  0.74999973276E+02  0.11225711214E+03  0.33943643145E+03  0.36529952948E+03  0.50400001928E-02 0. -1.
</event>
<event>
 5   0  0.3467240E-02  0.7304686E+03  0.7818609E-02  0.9666500E-01
        2   -1    0    0  501    0  0.00000000000E+00  0.00000000000E+00  0.51952689456E+03  0.51952689457E+03  0.25500000920E-02 0. -1.
       -2   -1    0    0    0  501  0.00000000000E+00  0.00000000000E+00 -0.25676455273E+03  0.25676455274E+03  0.25500000920E-02 0.  1.
    10030    2    1    2    0    0  0.00000000000E+00  0.00000000000E+00  0.26276234183E+03  0.77629144731E+03  0.73046859131E+03 0.  0.
        2    1    3    3  502    0  0.36203623479E+03 -0.17551878871E+02  0.83643534718E+02  0.37198729099E+03  0.25500000920E-02 0.  1.
       -2    1    3    3    0  502 -0.36203623479E+03  0.17551878871E+02  0.17911880711E+03  0.40430415632E+03  0.25500000920E-02 0. -1.
</event>
<event>
 5   0  0.2129257E-02  0.7758658E+03  0.7818609E-02  0.9595623E-01
       -1   -1    0    0    0  501  0.00000000000E+00  0.00000000000E+00  0.36050517616E+03  0.36050517620E+03  0.50400001928E-02 0.  1.
        1   -1    0    0  501    0  0.00000000000E+00  0.00000000000E+00 -0.41744740795E+03  0.41744740798E+03  0.50400001928E-02 0. -1.
    10030    2    1    2    0    0  0.00000000000E+00  0.00000000000E+00 -0.56942231786E+02  0.77795258418E+03  0.77586584244E+03 0.  0.
        3    1    3    3  502    0  0.37546765237E+03 -0.68499966190E+02 -0.98111048615E+02  0.39407358628E+03  0.10100000352E+00 0. -1.
       -3    1    3    3    0  502 -0.37546765237E+03  0.68499966190E+02  0.41168816829E+02  0.38387899790E+03  0.10100000352E+00 0.  1.
</event>
<event>
 5   0  0.3343036E-02  0.8089966E+03  0.7818609E-02  0.9547086E-01
        2   -1    0    0  501    0  0.00000000000E+00  0.00000000000E+00  0.50030042660E+03  0.50030042661E+03  0.25500000920E-02 0.  1.
       -2   -1    0    0    0  501  0.00000000000E+00  0.00000000000E+00 -0.32704120580E+03  0.32704120581E+03  0.25500000920E-02 0. -1.
    10030    2    1    2    0    0  0.00000000000E+00  0.00000000000E+00  0.17325922080E+03  0.82734163242E+03  0.80899655076E+03 0.  0.
        4    1    3    3  502    0 -0.34228165775E+03  0.16893642973E+03  0.22353458349E+03  0.44234101487E+03  0.12699999809E+01 0.  1.
       -4    1    3    3    0  502  0.34228165775E+03 -0.16893642973E+03 -0.50275362689E+02  0.38500061755E+03  0.12699999809E+01 0. -1.
</event>
<event>
 5   0  0.3550586E-02  0.7856303E+03  0.7818609E-02  0.9581053E-01
       -2   -1    0    0    0  501  0.00000000000E+00  0.00000000000E+00  0.91491179750E+02  0.91491179785E+02  0.25500000920E-02 0. -1.
        2   -1    0    0  501    0  0.00000000000E+00  0.00000000000E+00 -0.16865423282E+04  0.16865423282E+04  0.25500000920E-02 0.  1.
    10030    2    1    2    0    0  0.00000000000E+00  0.00000000000E+00 -0.15950511485E+04  0.17780335080E+04  0.78563031342E+03 0.  0.
        3    1    3    3  502    0  0.19110203675E+03 -0.37315168621E+02 -0.25410522822E+02  0.19636220393E+03  0.10100000352E+00 0. -1.
       -3    1    3    3    0  502 -0.19110203675E+03  0.37315168621E+02 -0.15696406257E+04  0.15816713041E+04  0.10100000352E+00 0.  1.
</event>
<event>
 5   0  0.3404132E-02  0.7977797E+03  0.7818609E-02  0.9563236E-01
        2   -1    0    0  501    0  0.00000000000E+00  0.00000000000E+00  0.15244849334E+04  0.15244849334E+04  0.25500000920E-02 0. -1.
       -2   -1    0    0    0  501  0.00000000000E+00  0.00000000000E+00 -0.10437172822E+03  0.10437172825E+03  0.25500000920E-02 0.  1.
    10030    2    1    2    0    0  0.00000000000E+00  0.00000000000E+00  0.14201132052E+04  0.16288566617E+04  0.79777973696E+03 0.  0.
        5    1    3    3  502    0  0.18169074398E+03  0.94104412700E+02  0.14091060471E+04  0.14238922392E+04  0.46999998093E+01 0. -1.
       -5    1    3    3    0  502 -0.18169074398E+03 -0.94104412700E+02  0.11007158080E+02  0.20496442244E+03  0.46999998093E+01 0.  1.
</event>
<event>
 5   0  0.2132540E-02  0.7588803E+03  0.7818609E-02  0.9621521E-01
       -1   -1    0    0    0  501  0.00000000000E+00  0.00000000000E+00  0.10221428518E+04  0.10221428518E+04  0.50400001928E-02 0.  1.
        1   -1    0    0  501    0  0.00000000000E+00  0.00000000000E+00 -0.14085588987E+03  0.14085588996E+03  0.50400001928E-02 0. -1.
    10030    2    1    2    0    0  0.00000000000E+00  0.00000000000E+00  0.88128696196E+03  0.11629987418E+04  0.75888033583E+03 0.  0.
        4    1    3    3  502    0 -0.10618556078E+03 -0.21309260521E+02  0.99794927287E+03  0.10038096543E+04  0.12699999809E+01 0.  1.
       -4    1    3    3    0  502  0.10618556078E+03  0.21309260521E+02 -0.11666231091E+03  0.15918908753E+03  0.12699999809E+01 0. -1.
</event>
<event>
 5   0  0.1989298E-02  0.8170922E+03  0.7818609E-02  0.9535601E-01
        1   -1    0    0  501    0  0.00000000000E+00  0.00000000000E+00  0.29248351443E+03  0.29248351448E+03  0.50400001928E-02 0. -1.
       -1   -1    0    0    0  501  0.00000000000E+00  0.00000000000E+00 -0.57066432674E+03  0.57066432677E+03  0.50400001928E-02 0.  1.
    10030    2    1    2    0    0  0.00000000000E+00  0.00000000000E+00 -0.27818081231E+03  0.86314784124E+03  0.81709218055E+03 0.  0.
        1    1    3    3  502    0  0.29296756658E+02 -0.28914062733E+03  0.16423419505E+03  0.33381652621E+03  0.50400001928E-02 0. -1.
       -1    1    3    3    0  502 -0.29296756658E+02  0.28914062733E+03 -0.44241500735E+03  0.52933131504E+03  0.50400001928E-02 0.  1.
</event>
<event>
 5   0  0.2077795E-02  0.7967600E+03  0.7818609E-02  0.9564719E-01
        1   -1    0    0  501    0  0.00000000000E+00  0.00000000000E+00  0.61251018095E+03  0.61251018097E+03  0.50400001928E-02 0. -1.
       -1   -1    0    0    0  501  0.00000000000E+00  0.00000000000E+00 -0.25910854462E+03  0.25910854467E+03  0.50400001928E-02 0.  1.
    10030    2    1    2    0    0  0.00000000000E+00  0.00000000000E+00  0.35340163633E+03  0.87161872564E+03  0.79675999292E+03 0.  0.
        5    1    3    3  502    0 -0.27318128563E+03 -0.71381032801E+02 -0.13070075188E+03  0.31117204759E+03  0.46999998093E+01 0.  1.
       -5    1    3    3    0  502  0.27318128563E+03  0.71381032801E+02  0.48410238821E+03  0.56044667805E+03  0.46999998093E+01 0. -1.
</event>
<event>
 5   0  0.3343036E-02  0.6998864E+03  0.7818609E-02  0.9717426E-01
       -2   -1    0    0    0  501  0.00000000000E+00  0.00000000000E+00  0.43186781079E+03  0.43186781080E+03  0.25500000920E-02 0.  1.
        2   -1    0    0  501    0  0.00000000000E+00  0.00000000000E+00 -0.28355957639E+03  0.28355957640E+03  0.25500000920E-02 0. -1.
    10030    2    1    2    0    0  0.00000000000E+00  0.00000000000E+00  0.14830823440E+03  0.71542738720E+03  0.69988642933E+03 0.  0.
        4    1    3    3  502    0 -0.11756229620E+03  0.10427834700E+03  0.39376897987E+03  0.42396991585E+03  0.12699999809E+01 0.  1.
       -4    1    3    3    0  502  0.11756229620E+03 -0.10427834700E+03 -0.24546074546E+03  0.29145747135E+03  0.12699999809E+01 0. -1.
</event>
<event>
 5   0  0.3416160E-02  0.7445991E+03  0.7818609E-02  0.9643862E-01
        2   -1    0    0  501    0  0.00000000000E+00  0.00000000000E+00  0.22822394754E+04  0.22822394754E+04  0.25500000920E-02 0. -1.
       -2   -1    0    0    0  501  0.00000000000E+00  0.00000000000E+00 -0.60732873670E+02  0.60732873724E+02  0.25500000920E-02 0.  1.
    10030    2    1    2    0    0  0.00000000000E+00  0.00000000000E+00  0.22215066017E+04  0.23429723491E+04  0.74459911847E+03 0.  0.
        1    1    3    3  502    0  0.29684495697E+02  0.26486826172E+02  0.22755318054E+04  0.22758795484E+04  0.50400001928E-02 0. -1.
       -1    1    3    3    0  502 -0.29684495697E+02 -0.26486826172E+02 -0.54025203718E+02  0.67092800714E+02  0.50400001928E-02 0.  1.
</event>
<event>
 5   0  0.3404132E-02  0.8121849E+03  0.7818609E-02  0.9542546E-01
       -2   -1    0    0    0  501  0.00000000000E+00  0.00000000000E+00  0.10192950268E+03  0.10192950271E+03  0.25500000920E-02 0. -1.
        2   -1    0    0  501    0  0.00000000000E+00  0.00000000000E+00 -0.16178934137E+04  0.16178934137E+04  0.25500000920E-02 0.  1.
    10030    2    1    2    0    0  0.00000000000E+00  0.00000000000E+00 -0.15159639110E+04  0.17198229164E+04  0.81218488307E+03 0.  0.
        5    1    3    3  502    0  0.34622775522E+03  0.85076145642E+02 -0.11695528941E+04  0.12226968844E+04  0.46999998093E+01 0.  1.
       -5    1    3    3    0  502 -0.34622775522E+03 -0.85076145642E+02 -0.34641101687E+03  0.49712603196E+03  0.46999998093E+01 0. -1.
</event>
<event>
 5   0  0.3343036E-02  0.7806441E+03  0.7818609E-02  0.9588464E-01
        2   -1    0    0  501    0  0.00000000000E+00  0.00000000000E+00  0.11370351346E+04  0.11370351347E+04  0.25500000920E-02 0.  1.
       -2   -1    0    0    0  501  0.00000000000E+00  0.00000000000E+00 -0.13398996371E+03  0.13398996373E+03  0.25500000920E-02 0. -1.
    10030    2    1    2    0    0  0.00000000000E+00  0.00000000000E+00  0.10030451709E+04  0.12710250984E+04  0.78064408393E+03 0.  0.
        4    1    3    3  502    0 -0.38401646395E+03  0.68295241866E+02  0.52549598296E+03  0.65443145222E+03  0.12699999809E+01 0. -1.
       -4    1    3    3    0  502  0.38401646395E+03 -0.68295241866E+02  0.47754918798E+03  0.61659364616E+03  0.12699999809E+01 0.  1.
</event>
<event>
 5   0  0.3467240E-02  0.8086372E+03  0.7818609E-02  0.9547599E-01
        2   -1    0    0  501    0  0.00000000000E+00  0.00000000000E+00  0.86878240120E+03  0.86878240120E+03  0.25500000920E-02 0. -1.
       -2   -1    0    0    0  501  0.00000000000E+00  0.00000000000E+00 -0.18816397287E+03  0.18816397288E+03  0.25500000920E-02 0.  1.
    10030    2    1    2    0    0  0.00000000000E+00  0.00000000000E+00  0.68061842833E+03  0.10569463741E+04  0.80863724420E+03 0.  0.
        2    1    3    3  502    0 -0.12806723260E+03 -0.25728206556E+03  0.71202854087E+03  0.76784107753E+03  0.25500000920E-02 0. -1.
       -2    1    3    3    0  502  0.12806723260E+03  0.25728206556E+03 -0.31410112535E+02  0.28910529656E+03  0.25500000920E-02 0.  1.
</event>
<event>
 5   0  0.3404132E-02  0.8033243E+03  0.7818609E-02  0.9555218E-01
        2   -1    0    0  501    0  0.00000000000E+00  0.00000000000E+00  0.11561807183E+04  0.11561807183E+04  0.25500000920E-02 0.  1.
       -2   -1    0    0    0  501  0.00000000000E+00  0.00000000000E+00 -0.13953915285E+03  0.13953915288E+03  0.25500000920E-02 0. -1.
    10030    2    1    2    0    0  0.00000000000E+00  0.00000000000E+00  0.10166415654E+04  0.12957198712E+04  0.80332428817E+03 0.  0.
        5    1    3    3  502    0 -0.58433899342E+02 -0.18473643414E+03 -0.59125773342E+02  0.20263271642E+03  0.46999998093E+01 0. -1.
       -5    1    3    3    0  502  0.58433899342E+02  0.18473643414E+03  0.10757673388E+04  0.10930871547E+04  0.46999998093E+01 0.  1.
</event>
<event>
 5   0  0.3404132E-02  0.7655527E+03  0.7818609E-02  0.9611262E-01
        2   -1    0    0  501    0  0.00000000000E+00  0.00000000000E+00  0.10184691744E+04  0.10184691744E+04  0.25500000920E-02 0.  1.
       -2   -1    0    0    0  501  0.00000000000E+00  0.00000000000E+00 -0.14386074058E+03  0.14386074060E+03  0.25500000920E-02 0. -1.
    10030    2    1    2    0    0  0.00000000000E+00  0.00000000000E+00  0.87460843387E+03  0.11623299150E+04  0.76555268847E+03 0.  0.
        5    1    3    3  502    0  0.10411588383E+03  0.64703551194E+02 -0.11320673649E+03  0.16692669645E+03  0.46999998093E+01 0. -1.
       -5    1    3    3    0  502 -0.10411588383E+03 -0.64703551194E+02  0.98781517036E+03  0.99540321860E+03  0.46999998093E+01 0.  1.
</event>
<event>
 5   0  0.1358000E-02  0.8108998E+03  0.7818609E-02  0.9544373E-01
        4   -1    0    0  501    0  0.00000000000E+00  0.00000000000E+00  0.22474859124E+03  0.22475217944E+03  0.12699999809E+01 0. -1.
       -4   -1    0    0    0  501  0.00000000000E+00  0.00000000000E+00 -0.73142793377E+03  0.73142903634E+03  0.12699999809E+01 0.  1.
    10030    2    1    2    0    0  0.00000000000E+00  0.00000000000E+00 -0.50667934253E+03  0.95618121578E+03  0.81089984663E+03 0.  0.
        5    1    3    3  502    0  0.20959859282E+03  0.27216160388E+03  0.56087354547E+00  0.34354899696E+03  0.46999998093E+01 0. -1.
       -5    1    3    3    0  502 -0.20959859282E+03 -0.27216160388E+03 -0.50724021607E+03  0.61263221882E+03  0.46999998093E+01 0.  1.
</event>
<event>
 5   0  0.2063692E-02  0.7965132E+03  0.7818609E-02  0.9565078E-01
       -1   -1    0    0    0  501  0.00000000000E+00  0.00000000000E+00  0.25897953910E+03  0.25897953915E+03  0.50400001928E-02 0.  1.
        1   -1    0    0  501    0  0.00000000000E+00  0.00000000000E+00 -0.61243572465E+03  0.61243572467E+03  0.50400001928E-02 0. -1.
    10030    2    1    2    0    0  0.00000000000E+00  0.00000000000E+00 -0.35345618554E+03  0.87141526382E+03  0.79651320574E+03 0.  0.
        2    1    3    3  502    0  0.21003926211E+03  0.27883052357E+03 -0.38644502205E+03  0.52077126224E+03  0.25500000920E-02 0. -1.
       -2    1    3    3    0  502 -0.21003926211E+03 -0.27883052357E+03  0.32988836504E+02  0.35064400158E+03  0.25500000920E-02 0.  1.
</event>
<event>
 5   0  0.1358000E-02  0.7882842E+03  0.7818609E-02  0.9577132E-01
       -4   -1    0    0    0  501  0.00000000000E+00  0.00000000000E+00  0.87578579875E+02  0.87587787693E+02  0.12699999809E+01 0. -1.
        4   -1    0    0  501    0  0.00000000000E+00  0.00000000000E+00 -0.17737099514E+04  0.17737104060E+04  0.12699999809E+01 0.  1.
    10030    2    1    2    0    0  0.00000000000E+00  0.00000000000E+00 -0.16861313715E+04  0.18612981937E+04  0.78828418990E+03 0.  0.
        4    1    3    3  502    0 -0.25629718126E+03 -0.29642869724E+03 -0.74321837286E+03  0.84019841723E+03  0.12699999809E+01 0. -1.
       -4    1    3    3    0  502  0.25629718126E+03  0.29642869724E+03 -0.94291299863E+03  0.10210997765E+04  0.12699999809E+01 0.  1.
</event>
<event>
 5   0  0.2129257E-02  0.8119271E+03  0.7818609E-02  0.9542912E-01
        1   -1    0    0  501    0  0.00000000000E+00  0.00000000000E+00  0.35952715081E+03  0.35952715084E+03  0.50400001928E-02 0. -1.
       -1   -1    0    0    0  501  0.00000000000E+00  0.00000000000E+00 -0.45839762895E+03  0.45839762898E+03  0.50400001928E-02 0.  1.
    10030    2    1    2    0    0  0.00000000000E+00  0.00000000000E+00 -0.98870478142E+02  0.81792477982E+03  0.81192707431E+03 0.  0.
        3    1    3    3  502    0 -0.19217717205E+03  0.40613212875E+02  0.30847064116E+03  0.36569884492E+03  0.10100000352E+00 0. -1.
       -3    1    3    3    0  502  0.19217717205E+03 -0.40613212875E+02 -0.40734111931E+03  0.45222593490E+03  0.10100000352E+00 0.  1.
</event>
<event>
 5   0  0.3550586E-02  0.7815725E+03  0.7818609E-02  0.9587080E-01
       -2   -1    0    0    0  501  0.00000000000E+00  0.00000000000E+00  0.89687829768E+02  0.89687829805E+02  0.25500000920E-02 0. -1.
        2   -1    0    0  501    0  0.00000000000E+00  0.00000000000E+00 -0.17027269942E+04  0.17027269942E+04  0.25500000920E-02 0.  1.
    10030    2    1    2    0    0  0.00000000000E+00  0.00000000000E+00 -0.16130391644E+04  0.17924148240E+04  0.78157248885E+03 0.  0.
        3    1    3    3  502    0  0.17172501392E+03  0.33301059757E+03 -0.55188254824E+03  0.66705314312E+03  0.10100000352E+00 0. -1.
       -3    1    3    3    0  502 -0.17172501392E+03 -0.33301059757E+03 -0.10611566162E+04  0.11253616809E+04  0.10100000352E+00 0.  1.
</event>
<event>
 5   0  0.1989298E-02  0.7908282E+03  0.7818609E-02  0.9573389E-01
        1   -1    0    0  501    0  0.00000000000E+00  0.00000000000E+00  0.11109455871E+03  0.11109455882E+03  0.50400001928E-02 0. -1.
       -1   -1    0    0    0  501  0.00000000000E+00  0.00000000000E+00 -0.14073803166E+04  0.14073803166E+04  0.50400001928E-02 0.  1.
    10030    2    1    2    0    0  0.00000000000E+00  0.00000000000E+00 -0.12962857579E+04  0.15184748754E+04  0.79082816161E+03 0.  0.
        1    1    3    3  502    0  0.19051112311E+03  0.34060132989E+03 -0.77031574780E+03  0.86353349981E+03  0.50400001928E-02 0.  1.
       -1    1    3    3    0  502 -0.19051112311E+03 -0.34060132989E+03 -0.52597001005E+03  0.65494137559E+03  0.50400001928E-02 0. -1.
</event>
<event>
 5   0  0.2063692E-02  0.8044012E+03  0.7818609E-02  0.9553668E-01
        1   -1    0    0  501    0  0.00000000000E+00  0.00000000000E+00  0.24923909341E+03  0.24923909346E+03  0.50400001928E-02 0. -1.
       -1   -1    0    0    0  501  0.00000000000E+00  0.00000000000E+00 -0.64903665283E+03  0.64903665285E+03  0.50400001928E-02 0.  1.
    10030    2    1    2    0    0  0.00000000000E+00  0.00000000000E+00 -0.39979755942E+03  0.89827574631E+03  0.80440116104E+03 0.  0.
        2    1    3    3  502    0  0.34640110572E+03 -0.19975327004E+03 -0.24819158213E+03  0.47063165680E+03  0.25500000920E-02 0. -1.
       -2    1    3    3    0  502 -0.34640110572E+03  0.19975327004E+03 -0.15160597730E+03  0.42764408951E+03  0.25500000920E-02 0.  1.
</event>
<event>
 5   0  0.2077795E-02  0.8014420E+03  0.7818609E-02  0.9557932E-01
       -1   -1    0    0    0  501  0.00000000000E+00  0.00000000000E+00  0.27338502919E+03  0.27338502924E+03  0.50400001928E-02 0.  1.
        1   -1    0    0  501    0  0.00000000000E+00  0.00000000000E+00 -0.58736691756E+03  0.58736691758E+03  0.50400001928E-02 0. -1.
    10030    2    1    2    0    0  0.00000000000E+00  0.00000000000E+00 -0.31398188837E+03  0.86075194682E+03  0.80144200522E+03 0.  0.
        5    1    3    3  502    0  0.86199637469E+02  0.35020887963E+02  0.26159293715E+03  0.27768650464E+03  0.46999998093E+01 0.  1.
       -5    1    3    3    0  502 -0.86199637469E+02 -0.35020887963E+02 -0.57557482552E+03  0.58306544218E+03  0.46999998093E+01 0. -1.
</event>
<event>
 5   0  0.3467240E-02  0.7854986E+03  0.7818609E-02  0.9581248E-01
        2   -1    0    0  501    0  0.00000000000E+00  0.00000000000E+00  0.16747034183E+04  0.16747034183E+04  0.25500000920E-02 0. -1.
       -2   -1    0    0    0  501  0.00000000000E+00  0.00000000000E+00 -0.92107058411E+02  0.92107058446E+02  0.25500000920E-02 0.  1.
    10030    2    1    2    0    0  0.00000000000E+00  0.00000000000E+00  0.15825963599E+04  0.17668104767E+04  0.78549858206E+03 0.  0.
        2    1    3    3  502    0  0.37439843932E+03 -0.11821578590E+03  0.81410844012E+03  0.90383721747E+03  0.25500000920E-02 0.  1.
       -2    1    3    3    0  502 -0.37439843932E+03  0.11821578590E+03  0.76848791977E+03  0.86297325928E+03  0.25500000920E-02 0. -1.
</event>
<event>
 5   0  0.3343036E-02  0.8034256E+03  0.7818609E-02  0.9555072E-01
        2   -1    0    0  501    0  0.00000000000E+00  0.00000000000E+00  0.15987378142E+04  0.15987378142E+04  0.25500000920E-02 0. -1.
       -2   -1    0    0    0  501  0.00000000000E+00  0.00000000000E+00 -0.10093786547E+03  0.10093786550E+03  0.25500000920E-02 0.  1.
    10030    2    1    2    0    0  0.00000000000E+00  0.00000000000E+00  0.14977999487E+04  0.16996756797E+04  0.80342562180E+03 0.  0.
        4    1    3    3  502    0 -0.13953291329E+03 -0.36205562057E+03  0.52886529917E+03  0.65593736274E+03  0.12699999809E+01 0.  1.
       -4    1    3    3    0  502  0.13953291329E+03  0.36205562057E+03  0.96893464958E+03  0.10437383170E+04  0.12699999809E+01 0. -1.
</event>
<event>
 5   0  0.2129257E-02  0.7993883E+03  0.7818609E-02  0.9560903E-01
        1   -1    0    0  501    0  0.00000000000E+00  0.00000000000E+00  0.31948648563E+03  0.31948648567E+03  0.50400001928E-02 0. -1.
       -1   -1    0    0    0  501  0.00000000000E+00  0.00000000000E+00 -0.50003806853E+03  0.50003806856E+03  0.50400001928E-02 0.  1.
    10030    2    1    2    0    0  0.00000000000E+00  0.00000000000E+00 -0.18055158290E+03  0.81952455422E+03  0.79938827918E+03 0.  0.
        3    1    3    3  502    0  0.58911155995E+02 -0.27999472620E+03  0.19583812320E+03  0.34672777752E+03  0.10100000352E+00 0. -1.
       -3    1    3    3    0  502 -0.58911155995E+02  0.27999472620E+03 -0.37638970611E+03  0.47279677671E+03  0.10100000352E+00 0.  1.
</event>
<event>
 5   0  0.3467240E-02  0.7988550E+03  0.7818609E-02  0.9561676E-01
       -2   -1    0    0    0  501  0.00000000000E+00  0.00000000000E+00  0.23079969782E+03  0.23079969784E+03  0.25500000920E-02 0. -1.
        2   -1    0    0  501    0  0.00000000000E+00  0.00000000000E+00 -0.69125884314E+03  0.69125884315E+03  0.25500000920E-02 0.  1.
    10030    2    1    2    0    0  0.00000000000E+00  0.00000000000E+00 -0.46045914532E+03  0.92205854098E+03  0.79885501093E+03 0.  0.
        2    1    3    3  502    0  0.34990904143E+03  0.12094626091E+03 -0.57180477027E+02  0.37461172200E+03  0.25500000920E-02 0.  1.
       -2    1    3    3    0  502 -0.34990904143E+03 -0.12094626091E+03 -0.40327866829E+03  0.54744681898E+03  0.25500000920E-02 0. -1.
</event>
<event>
 5   0  0.2077795E-02  0.8208496E+03  0.7818609E-02  0.9530319E-01
        1   -1    0    0  501    0  0.00000000000E+00  0.00000000000E+00  0.65273301273E+03  0.65273301275E+03  0.50400001928E-02 0. -1.
       -1   -1    0    0    0  501  0.00000000000E+00  0.00000000000E+00 -0.25806651191E+03  0.25806651196E+03  0.50400001928E-02 0.  1.
    10030    2    1    2    0    0  0.00000000000E+00  0.00000000000E+00  0.39466650082E+03  0.91079952470E+03  0.82084963747E+03 0.  0.
        5    1    3    3  502    0 -0.18780183724E+03  0.33703746516E+03  0.35252660660E+03  0.52264795164E+03  0.46999998093E+01 0.  1.
       -5    1    3    3    0  502  0.18780183724E+03 -0.33703746516E+03  0.42139894221E+02  0.38815157307E+03  0.46999998093E+01 0. -1.
</event>
<event>
 5   0  0.1358000E-02  0.7999204E+03  0.7818609E-02  0.9560132E-01
       -3   -1    0    0    0  501  0.00000000000E+00  0.00000000000E+00  0.84769627984E+03  0.84769628586E+03  0.10100000352E+00 0.  1.
        3   -1    0    0  501    0  0.00000000000E+00  0.00000000000E+00 -0.18870926970E+03  0.18870929673E+03  0.10100000352E+00 0. -1.
    10030    2    1    2    0    0  0.00000000000E+00  0.00000000000E+00  0.65898701014E+03  0.10364055826E+04  0.79992040359E+03 0.  0.
        4    1    3    3  502    0 -0.12862402992E+03  0.25497040709E+01 -0.16116760006E+03  0.20622136231E+03  0.12699999809E+01 0. -1.
       -4    1    3    3    0  502  0.12862402992E+03 -0.25497040709E+01  0.82015461020E+03  0.83018422028E+03  0.12699999809E+01 0.  1.
</event>
<event>
 5   0  0.2132540E-02  0.7676171E+03  0.7818609E-02  0.9608110E-01
        1   -1    0    0  501    0  0.00000000000E+00  0.00000000000E+00  0.11702679802E+04  0.11702679802E+04  0.50400001928E-02 0. -1.
       -1   -1    0    0    0  501  0.00000000000E+00  0.00000000000E+00 -0.12587628435E+03  0.12587628446E+03  0.50400001928E-02 0.  1.
    10030    2    1    2    0    0  0.00000000000E+00  0.00000000000E+00  0.10443916958E+04  0.12961442647E+04  0.76761705327E+03 0.  0.
        4    1    3    3  502    0 -0.11283962398E+03 -0.13591528956E+03  0.10975402319E+04  0.11116662810E+04  0.12699999809E+01 0. -1.
       -4    1    3    3    0  502  0.11283962398E+03  0.13591528956E+03 -0.53148536081E+02  0.18447798368E+03  0.12699999809E+01 0.  1.
</event>
<event>
 5   0  0.2063692E-02  0.8053127E+03  0.7818609E-02  0.9552359E-01
        1   -1    0    0  501    0  0.00000000000E+00  0.00000000000E+00  0.18483297187E+04  0.18483297187E+04  0.50400001928E-02 0.  1.
       -1   -1    0    0    0  501  0.00000000000E+00  0.00000000000E+00 -0.87718193440E+02  0.87718193585E+02  0.50400001928E-02 0. -1.
    10030    2    1    2    0    0  0.00000000000E+00  0.00000000000E+00  0.17606115252E+04  0.19360479123E+04  0.80531271926E+03 0.  0.
        2    1    3    3  502    0 -0.19584736675E+03  0.10563958566E+03  0.16870800273E+04  0.17016917852E+04  0.25500000920E-02 0.  1.
       -2    1    3    3    0  502  0.19584736675E+03 -0.10563958566E+03  0.73531497933E+02  0.23435612712E+03  0.25500000920E-02 0. -1.
</event>
<event>
 5   0  0.2077795E-02  0.7997305E+03  0.7818609E-02  0.9560407E-01
       -1   -1    0    0    0  501  0.00000000000E+00  0.00000000000E+00  0.27034740214E+03  0.27034740219E+03  0.50400001928E-02 0.  1.
        1   -1    0    0  501    0  0.00000000000E+00  0.00000000000E+00 -0.59143249158E+03  0.59143249161E+03  0.50400001928E-02 0. -1.
    10030    2    1    2    0    0  0.00000000000E+00  0.00000000000E+00 -0.32108508944E+03  0.86177989380E+03  0.79973054880E+03 0.  0.
        5    1    3    3  502    0 -0.11672876812E+03 -0.35859149623E+03 -0.17354351436E+02  0.37754036868E+03  0.46999998093E+01 0. -1.
       -5    1    3    3    0  502  0.11672876812E+03  0.35859149623E+03 -0.30373073800E+03  0.48423952511E+03  0.46999998093E+01 0.  1.
</event>
<event>
 5   0  0.1989298E-02  0.8216346E+03  0.7818609E-02  0.9529219E-01
       -1   -1    0    0    0  501  0.00000000000E+00  0.00000000000E+00  0.14920609962E+03  0.14920609970E+03  0.50400001928E-02 0. -1.
        1   -1    0    0  501    0  0.00000000000E+00  0.00000000000E+00 -0.11311256677E+04  0.11311256677E+04  0.50400001928E-02 0.  1.
    10030    2    1    2    0    0  0.00000000000E+00  0.00000000000E+00 -0.98191956804E+03  0.12803317674E+04  0.82163458814E+03 0.  0.
        1    1    3    3  502    0  0.14980002670E+03  0.11876807423E+03 -0.10575910132E+04  0.10747300381E+04  0.50400001928E-02 0.  1.
       -1    1    3    3    0  502 -0.14980002670E+03 -0.11876807423E+03  0.75671445169E+02  0.20560172931E+03  0.50400001928E-02 0. -1.
</event>
<event>
 5   0  0.3550586E-02  0.8308731E+03  0.7818609E-02  0.9516374E-01
       -2   -1    0    0    0  501  0.00000000000E+00  0.00000000000E+00  0.94459564743E+03  0.94459564743E+03  0.25500000920E-02 0. -1.
        2   -1    0    0  501    0  0.00000000000E+00  0.00000000000E+00 -0.18271046490E+03  0.18271046492E+03  0.25500000920E-02 0.  1.
    10030    2    1    2    0    0  0.00000000000E+00  0.00000000000E+00  0.76188518252E+03  0.11273061123E+04  0.83087305865E+03 0.  0.
        3    1    3    3  502    0 -0.26743057554E+03  0.13283809167E+03 -0.10933347535E+02  0.29880532060E+03  0.10100000352E+00 0.  1.
       -3    1    3    3    0  502  0.26743057554E+03 -0.13283809167E+03  0.77281853006E+03  0.82850079175E+03  0.10100000352E+00 0. -1.
</event>
<event>
 5   0  0.3550586E-02  0.8100635E+03  0.7818609E-02  0.9545564E-01
        2   -1    0    0  501    0  0.00000000000E+00  0.00000000000E+00  0.17667728598E+04  0.17667728598E+04  0.25500000920E-02 0. -1.
       -2   -1    0    0    0  501  0.00000000000E+00  0.00000000000E+00 -0.92853306145E+02  0.92853306180E+02  0.25500000920E-02 0.  1.
    10030    2    1    2    0    0  0.00000000000E+00  0.00000000000E+00  0.16739195536E+04  0.18596261660E+04  0.81006345744E+03 0.  0.
        3    1    3    3  502    0 -0.32137173721E+03  0.11748063935E+03  0.13344827906E+04  0.13776522866E+04  0.10100000352E+00 0. -1.
       -3    1    3    3    0  502  0.32137173721E+03 -0.11748063935E+03  0.33943676298E+03  0.48197387934E+03  0.10100000352E+00 0.  1.
</event>
<event>
 5   0  0.2077795E-02  0.8053882E+03  0.7818609E-02  0.9552251E-01
        1   -1    0    0  501    0  0.00000000000E+00  0.00000000000E+00  0.80492052799E+03  0.80492052801E+03  0.50400001928E-02 0.  1.
       -1   -1    0    0    0  501  0.00000000000E+00  0.00000000000E+00 -0.20146403311E+03  0.20146403317E+03  0.50400001928E-02 0. -1.
    10030    2    1    2    0    0  0.00000000000E+00  0.00000000000E+00  0.60345649488E+03  0.10063845612E+04  0.80538819445E+03 0.  0.
        5    1    3    3  502    0 -0.20633687243E+03 -0.34233476299E+03  0.24086468928E+03  0.46669677888E+03  0.46999998093E+01 0.  1.
       -5    1    3    3    0  502  0.20633687243E+03  0.34233476299E+03  0.36259180561E+03  0.53968778230E+03  0.46999998093E+01 0. -1.
</event>
<event>
 5   0  0.2129257E-02  0.7666628E+03  0.7818609E-02  0.9609566E-01
       -1   -1    0    0    0  501  0.00000000000E+00  0.00000000000E+00  0.19954006605E+03  0.19954006611E+03  0.50400001928E-02 0. -1.
        1   -1    0    0  501    0  0.00000000000E+00  0.00000000000E+00 -0.73640839768E+03  0.73640839769E+03  0.50400001928E-02 0.  1.
    10030    2    1    2    0    0  0.00000000000E+00  0.00000000000E+00 -0.53686833163E+03  0.93594846381E+03  0.76666284728E+03 0.  0.
        3    1    3    3  502    0  0.30407721119E+03 -0.10531447469E+03 -0.52272853516E+03  0.61383973528E+03  0.10100000352E+00 0.  1.
       -3    1    3    3    0  502 -0.30407721119E+03  0.10531447469E+03 -0.14139796471E+02  0.32210872852E+03  0.10100000352E+00 0. -1.
</event>
<event>
 5   0  0.2129257E-02  0.8133401E+03  0.7818609E-02  0.9540906E-01
        1   -1    0    0  501    0  0.00000000000E+00  0.00000000000E+00  0.35178522429E+03  0.35178522433E+03  0.50400001928E-02 0.  1.
       -1   -1    0    0    0  501  0.00000000000E+00  0.00000000000E+00 -0.47011789678E+03  0.47011789681E+03  0.50400001928E-02 0. -1.
    10030    2    1    2    0    0  0.00000000000E+00  0.00000000000E+00 -0.11833267249E+03  0.82190312113E+03  0.81334010054E+03 0.  0.
        3    1    3    3  502    0 -0.15402164199E+03 -0.13562022937E+03 -0.41395386591E+03  0.46203173714E+03  0.10100000352E+00 0. -1.
       -3    1    3    3    0  502  0.15402164199E+03  0.13562022937E+03  0.29562119342E+03  0.35987138400E+03  0.10100000352E+00 0.  1.
</event>
<event>
 5   0  0.3467240E-02  0.7904809E+03  0.7818609E-02  0.9573899E-01
       -2   -1    0    0    0  501  0.00000000000E+00  0.00000000000E+00  0.16824488900E+03  0.16824488902E+03  0.25500000920E-02 0.  1.
        2   -1    0    0  501    0  0.00000000000E+00  0.00000000000E+00 -0.92849790793E+03  0.92849790793E+03  0.25500000920E-02 0. -1.
    10030    2    1    2    0    0  0.00000000000E+00  0.00000000000E+00 -0.76025301893E+03  0.10967427969E+04  0.79048093580E+03 0.  0.
        2    1    3    3  502    0 -0.10696633114E+03  0.10171953797E+03 -0.88881934523E+03  0.90099305706E+03  0.25500000920E-02 0. -1.
       -2    1    3    3    0  502  0.10696633114E+03 -0.10171953797E+03  0.12856632630E+03  0.19574973989E+03  0.25500000920E-02 0.  1.
</event>
<event>
 5   0  0.3467240E-02  0.7507408E+03  0.7818609E-02  0.9634189E-01
        2   -1    0    0  501    0  0.00000000000E+00  0.00000000000E+00  0.11710031307E+04  0.11710031307E+04  0.25500000920E-02 0. -1.
       -2   -1    0    0    0  501  0.00000000000E+00  0.00000000000E+00 -0.12032668819E+03  0.12032668821E+03  0.25500000920E-02 0.  1.
    10030    2    1    2    0    0  0.00000000000E+00  0.00000000000E+00  0.10506764426E+04  0.12913298190E+04  0.75074077709E+03 0.  0.
        2    1    3    3  502    0  0.20866881673E+03 -0.46422717648E+02  0.10560729105E+04  0.10774914088E+04  0.25500000920E-02 0. -1.
       -2    1    3    3    0  502 -0.20866881673E+03  0.46422717648E+02 -0.53964679175E+01  0.21383841016E+03  0.25500000920E-02 0.  1.
</event>
<event>
 5   0  0.2132540E-02  0.8094837E+03  0.7818609E-02  0.9546390E-01
       -1   -1    0    0    0  501  0.00000000000E+00  0.00000000000E+00  0.18295952904E+03  0.18295952911E+03  0.50400001928E-02 0.  1.
        1   -1    0    0  501    0  0.00000000000E+00  0.00000000000E+00 -0.89536722095E+03  0.89536722096E+03  0.50400001928E-02 0. -1.
    10030    2    1    2    0    0  0.00000000000E+00  0.00000000000E+00 -0.71240769191E+03  0.10783267501E+04  0.80948369991E+03 0.  0.
        4    1    3    3  502    0 -0.16906811951E+03  0.30706462746E+03 -0.62574487150E+03  0.71723843426E+03  0.12699999809E+01 0. -1.
       -4    1    3    3    0  502  0.16906811951E+03 -0.30706462746E+03 -0.86662820410E+02  0.36108831581E+03  0.12699999809E+01 0.  1.
</event>
<event>
 5   0  0.3416160E-02  0.7776267E+03  0.7818609E-02  0.9592978E-01
       -2   -1    0    0    0  501  0.00000000000E+00  0.00000000000E+00  0.29453492711E+03  0.29453492712E+03  0.25500000920E-02 0. -1.
        2   -1    0    0  501    0  0.00000000000E+00  0.00000000000E+00 -0.51326954600E+03  0.51326954601E+03  0.25500000920E-02 0.  1.
    10030    2    1    2    0    0  0.00000000000E+00  0.00000000000E+00 -0.21873461889E+03  0.80780447313E+03  0.77762666705E+03 0.  0.
        1    1    3    3  502    0  0.56051984716E+02  0.54915989067E+02  0.28622367879E+03  0.29678541940E+03  0.50400001928E-02 0. -1.
       -1    1    3    3    0  502 -0.56051984716E+02 -0.54915989067E+02 -0.50495829768E+03  0.51101905372E+03  0.50400001928E-02 0.  1.
</event>
<event>
 5   0  0.1358000E-02  0.8249631E+03  0.7818609E-02  0.9524571E-01
        3   -1    0    0  501    0  0.00000000000E+00  0.00000000000E+00  0.26664169235E+03  0.26664171148E+03  0.10100000352E+00 0.  1.
       -3   -1    0    0    0  501  0.00000000000E+00  0.00000000000E+00 -0.63808855224E+03  0.63808856024E+03  0.10100000352E+00 0. -1.
    10030    2    1    2    0    0  0.00000000000E+00  0.00000000000E+00 -0.37144685989E+03  0.90473027171E+03  0.82496308695E+03 0.  0.
        2    1    3    3  502    0 -0.14533733749E+03  0.38442384588E+03 -0.22428565881E+03  0.46819727862E+03  0.25500000920E-02 0. -1.
       -2    1    3    3    0  502  0.14533733749E+03 -0.38442384588E+03 -0.14716120109E+03  0.43653299310E+03  0.25500000920E-02 0.  1.
</event>
<event>
 5   0  0.3404132E-02  0.7970458E+03  0.7818609E-02  0.9564303E-01
       -2   -1    0    0    0  501  0.00000000000E+00  0.00000000000E+00  0.51458872777E+03  0.51458872777E+03  0.25500000920E-02 0.  1.
        2   -1    0    0  501    0  0.00000000000E+00  0.00000000000E+00 -0.30863576019E+03  0.30863576020E+03  0.25500000920E-02 0. -1.
    10030    2    1    2    0    0  0.00000000000E+00  0.00000000000E+00  0.20595296758E+03  0.82322448797E+03  0.79704575323E+03 0.  0.
        5    1    3    3  502    0  0.24251550194E+03 -0.31130783264E+03  0.45729880574E+02  0.39729038161E+03  0.46999998093E+01 0. -1.
       -5    1    3    3    0  502 -0.24251550194E+03  0.31130783264E+03  0.16022308701E+03  0.42593410635E+03  0.46999998093E+01 0.  1.
</event>
<event>
 5   0  0.3404132E-02  0.7840585E+03  0.7818609E-02  0.9583383E-01
       -2   -1    0    0    0  501  0.00000000000E+00  0.00000000000E+00  0.18475116640E+03  0.18475116642E+03  0.25500000920E-02 0. -1.
        2   -1    0    0  501    0  0.00000000000E+00  0.00000000000E+00 -0.83185910293E+03  0.83185910293E+03  0.25500000920E-02 0.  1.
    10030    2    1    2    0    0  0.00000000000E+00  0.00000000000E+00 -0.64710793652E+03  0.10166102694E+04  0.78405851710E+03 0.  0.
        5    1    3    3  502    0 -0.20765071751E+03 -0.26571995582E+03 -0.58267594673E+03  0.67324532252E+03  0.46999998093E+01 0.  1.
       -5    1    3    3    0  502  0.20765071751E+03  0.26571995582E+03 -0.64431989795E+02  0.34336494683E+03  0.46999998093E+01 0. -1.
</event>
<event>
 5   0  0.1358000E-02  0.7570148E+03  0.7818609E-02  0.9624409E-01
        3   -1    0    0  501    0  0.00000000000E+00  0.00000000000E+00  0.17228639764E+03  0.17228642725E+03  0.10100000352E+00 0. -1.
       -3   -1    0    0    0  501  0.00000000000E+00  0.00000000000E+00 -0.83156787316E+03  0.83156787930E+03  0.10100000352E+00 0.  1.
    10030    2    1    2    0    0  0.00000000000E+00  0.00000000000E+00 -0.65928147552E+03  0.10038543065E+04  0.75701479827E+03 0.  0.
        5    1    3    3  502    0  0.17368987171E+03  0.25053087478E+03 -0.32199247118E+02  0.30658240697E+03  0.46999998093E+01 0.  1.
       -5    1    3    3    0  502 -0.17368987171E+03 -0.25053087478E+03 -0.62708222840E+03  0.69727189957E+03  0.46999998093E+01 0. -1.
</event>
<event>
 5   0  0.3467240E-02  0.7992657E+03  0.7818609E-02  0.9561081E-01
        2   -1    0    0  501    0  0.00000000000E+00  0.00000000000E+00  0.12956576744E+04  0.12956576744E+04  0.25500000920E-02 0. -1.
       -2   -1    0    0    0  501  0.00000000000E+00  0.00000000000E+00 -0.12326282916E+03  0.12326282919E+03  0.25500000920E-02 0.  1.
    10030    2    1    2    0    0  0.00000000000E+00  0.00000000000E+00  0.11723948452E+04  0.14189205036E+04  0.79926573953E+03 0.  0.
        2    1    3    3  502    0  0.10559233305E+02 -0.27750252468E+03  0.10963774510E+04  0.11310007355E+04  0.25500000920E-02 0. -1.
       -2    1    3    3    0  502 -0.10559233305E+02  0.27750252468E+03  0.76017394191E+02  0.28791976806E+03  0.25500000920E-02 0.  1.
</event>
<event>
 5   0  0.2077795E-02  0.7258605E+03  0.7818609E-02  0.9674002E-01
        1   -1    0    0  501    0  0.00000000000E+00  0.00000000000E+00  0.25066732421E+03  0.25066732426E+03  0.50400001928E-02 0.  1.
       -1   -1    0    0    0  501  0.00000000000E+00  0.00000000000E+00 -0.52547082627E+03  0.52547082629E+03  0.50400001928E-02 0. -1.
    10030    2    1    2    0    0  0.00000000000E+00  0.00000000000E+00 -0.27480350205E+03  0.77613815055E+03  0.72586049900E+03 0.  0.
        5    1    3    3  502    0  0.50073678601E+02  0.22286208190E+03  0.16412639954E+03  0.28130845324E+03  0.46999998093E+01 0.  1.
       -5    1    3    3    0  502 -0.50073678601E+02 -0.22286208190E+03 -0.43892990159E+03  0.49482969732E+03  0.46999998093E+01 0. -1.
</event>
<event>
 5   0  0.3550586E-02  0.8332988E+03  0.7818609E-02  0.9513031E-01
       -2   -1    0    0    0  501  0.00000000000E+00  0.00000000000E+00  0.12440337277E+03  0.12440337279E+03  0.25500000920E-02 0. -1.
        2   -1    0    0  501    0  0.00000000000E+00  0.00000000000E+00 -0.13954341480E+04  0.13954341480E+04  0.25500000920E-02 0.  1.
    10030    2    1    2    0    0  0.00000000000E+00  0.00000000000E+00 -0.12710307752E+04  0.15198375208E+04  0.83329878076E+03 0.  0.
        3    1    3    3  502    0  0.29879037210E+03 -0.23165165960E+03 -0.95486916259E+03  0.10269923591E+04  0.10100000352E+00 0.  1.
       -3    1    3    3    0  502 -0.29879037210E+03  0.23165165960E+03 -0.31616161263E+03  0.49284516164E+03  0.10100000352E+00 0. -1.
</event>
<event>
 5   0  0.2129257E-02  0.7984232E+03  0.7818609E-02  0.9562302E-01
       -1   -1    0    0    0  501  0.00000000000E+00  0.00000000000E+00  0.21852047678E+03  0.21852047684E+03  0.50400001928E-02 0.  1.
        1   -1    0    0  501    0  0.00000000000E+00  0.00000000000E+00 -0.72931340342E+03  0.72931340344E+03  0.50400001928E-02 0. -1.
    10030    2    1    2    0    0  0.00000000000E+00  0.00000000000E+00 -0.51079292664E+03  0.94783388027E+03  0.79842322780E+03 0.  0.
        3    1    3    3  502    0  0.20986010839E+03 -0.21757705349E+03 -0.56493730219E+03  0.64073021226E+03  0.10100000352E+00 0. -1.
       -3    1    3    3    0  502 -0.20986010839E+03  0.21757705349E+03  0.54144375551E+02  0.30710366801E+03  0.10100000352E+00 0.  1.
</event>
<event>
 5   0  0.3343036E-02  0.7766110E+03  0.7818609E-02  0.9594503E-01
       -2   -1    0    0    0  501  0.00000000000E+00  0.00000000000E+00  0.10418871343E+03  0.10418871346E+03  0.25500000920E-02 0.  1.
        2   -1    0    0  501    0  0.00000000000E+00  0.00000000000E+00 -0.14471927811E+04  0.14471927811E+04  0.25500000920E-02 0. -1.
    10030    2    1    2    0    0  0.00000000000E+00  0.00000000000E+00 -0.13430040677E+04  0.15513814946E+04  0.77661098105E+03 0.  0.
        4    1    3    3  502    0  0.62593461861E+02 -0.10705043658E+03 -0.14065696742E+04  0.14120260617E+04  0.12699999809E+01 0. -1.
       -4    1    3    3    0  502 -0.62593461861E+02  0.10705043658E+03  0.63565606566E+02  0.13935543290E+03  0.12699999809E+01 0.  1.
</event>
<event>
 5   0  0.2063692E-02  0.7970477E+03  0.7818609E-02  0.9564300E-01
       -1   -1    0    0    0  501  0.00000000000E+00  0.00000000000E+00  0.19006428690E+03  0.19006428697E+03  0.50400001928E-02 0.  1.
        1   -1    0    0  501    0  0.00000000000E+00  0.00000000000E+00 -0.83561870067E+03  0.83561870069E+03  0.50400001928E-02 0. -1.
    10030    2    1    2    0    0  0.00000000000E+00  0.00000000000E+00 -0.64555441377E+03  0.10256829877E+04  0.79704773384E+03 0.  0.
        2    1    3    3  502    0 -0.34094699181E+02 -0.23966093232E+03 -0.73016610217E+03  0.76924791047E+03  0.25500000920E-02 0. -1.
       -2    1    3    3    0  502  0.34094699181E+02  0.23966093232E+03  0.84611688399E+02  0.25643507718E+03  0.25500000920E-02 0.  1.
</event>
<event>
 5   0  0.1989298E-02  0.7374480E+03  0.7818609E-02  0.9655251E-01
        1   -1    0    0  501    0  0.00000000000E+00  0.00000000000E+00  0.77300361188E+03  0.77300361190E+03  0.50400001928E-02 0. -1.
       -1   -1    0    0    0  501  0.00000000000E+00  0.00000000000E+00 -0.17588195222E+03  0.17588195229E+03  0.50400001928E-02 0.  1.
    10030    2    1    2    0    0  0.00000000000E+00  0.00000000000E+00  0.59712165966E+03  0.94888556419E+03  0.73744798968E+03 0.  0.
        1    1    3    3  502    0  0.32286814568E+03 -0.56150385761E+02  0.81107176817E+02  0.33760195419E+03  0.50400001928E-02 0.  1.
       -1    1    3    3    0  502 -0.32286814568E+03  0.56150385761E+02  0.51601448285E+03  0.61128361000E+03  0.50400001928E-02 0. -1.
</event>
<event>
 5   0  0.3404132E-02  0.7888526E+03  0.7818609E-02  0.9576294E-01
        2   -1    0    0  501    0  0.00000000000E+00  0.00000000000E+00  0.34818246531E+03  0.34818246532E+03  0.25500000920E-02 0. -1.
       -2   -1    0    0    0  501  0.00000000000E+00  0.00000000000E+00 -0.44681198560E+03  0.44681198561E+03  0.25500000920E-02 0.  1.
    10030    2    1    2    0    0  0.00000000000E+00  0.00000000000E+00 -0.98629520292E+02  0.79499445092E+03  0.78885258111E+03 0.  0.
        5    1    3    3  502    0  0.26518558895E+03 -0.75806044094E+02 -0.33343183061E+03  0.43274568579E+03  0.46999998093E+01 0.  1.
       -5    1    3    3    0  502 -0.26518558895E+03  0.75806044094E+02  0.23480231032E+03  0.36224876513E+03  0.46999998093E+01 0. -1.
</event>
<event>
 5   0  0.2077795E-02  0.8023922E+03  0.7818609E-02  0.9556561E-01
       -1   -1    0    0    0  501  0.00000000000E+00  0.00000000000E+00  0.48919768439E+03  0.48919768441E+03  0.50400001928E-02 0. -1.
        1   -1    0    0  501    0  0.00000000000E+00  0.00000000000E+00 -0.32902505793E+03  0.32902505797E+03  0.50400001928E-02 0.  1.
    10030    2    1    2    0    0  0.00000000000E+00  0.00000000000E+00  0.16017262646E+03  0.81822274238E+03  0.80239216465E+03 0.  0.
        5    1    3    3  502    0 -0.46850383158E+02  0.12752215736E+03  0.46499775946E+03  0.48446038571E+03  0.46999998093E+01 0. -1.
       -5    1    3    3    0  502  0.46850383158E+02 -0.12752215736E+03 -0.30482513301E+03  0.33376235667E+03  0.46999998093E+01 0.  1.
</event>
<event>
 5   0  0.3550586E-02  0.8002683E+03  0.7818609E-02  0.9559629E-01
       -2   -1    0    0    0  501  0.00000000000E+00  0.00000000000E+00  0.12709435507E+03  0.12709435510E+03  0.25500000920E-02 0. -1.
        2   -1    0    0  501    0  0.00000000000E+00  0.00000000000E+00 -0.12597516483E+04  0.12597516483E+04  0.25500000920E-02 0.  1.
    10030    2    1    2    0    0  0.00000000000E+00  0.00000000000E+00 -0.11326572932E+04  0.13868460034E+04  0.80026826330E+03 0.  0.
        3    1    3    3  502    0 -0.10288231852E+03 -0.24969317453E+03 -0.54657690424E+02  0.27553389300E+03  0.10100000352E+00 0. -1.
       -3    1    3    3    0  502  0.10288231852E+03  0.24969317453E+03 -0.10779996028E+04  0.11113121104E+04  0.10100000352E+00 0.  1.
</event>
<event>
 5   0  0.3416160E-02  0.7974461E+03  0.7818609E-02  0.9563721E-01
       -2   -1    0    0    0  501  0.00000000000E+00  0.00000000000E+00  0.53344835764E+03  0.53344835764E+03  0.25500000920E-02 0. -1.
        2   -1    0    0  501    0  0.00000000000E+00  0.00000000000E+00 -0.29802332253E+03  0.29802332254E+03  0.25500000920E-02 0.  1.
    10030    2    1    2    0    0  0.00000000000E+00  0.00000000000E+00  0.23542503511E+03  0.83147168019E+03  0.79744605322E+03 0.  0.
        1    1    3    3  502    0  0.38478970011E+03 -0.10408223732E+03  0.10816618008E+03  0.41303286549E+03  0.50400001928E-02 0.  1.
       -1    1    3    3    0  502 -0.38478970011E+03  0.10408223732E+03  0.12725885503E+03  0.41843881470E+03  0.50400001928E-02 0. -1.
</event>
<event>
 5   0  0.2063692E-02  0.8175980E+03  0.7818609E-02  0.9534888E-01
       -1   -1    0    0    0  501  0.00000000000E+00  0.00000000000E+00  0.21456922471E+03  0.21456922477E+03  0.50400001928E-02 0.  1.
        1   -1    0    0  501    0  0.00000000000E+00  0.00000000000E+00 -0.77884715738E+03  0.77884715739E+03  0.50400001928E-02 0. -1.
    10030    2    1    2    0    0  0.00000000000E+00  0.00000000000E+00 -0.56427793266E+03  0.99341638217E+03  0.81759802046E+03 0.  0.
        2    1    3    3  502    0 -0.98444366085E+02 -0.28154181650E+03 -0.62182875532E+03  0.68965795044E+03  0.25500000920E-02 0. -1.
       -2    1    3    3    0  502  0.98444366085E+02  0.28154181650E+03  0.57550822662E+02  0.30375843173E+03  0.25500000920E-02 0.  1.
</event>
<event>
 5   0  0.2063692E-02  0.6876949E+03  0.7818609E-02  0.9738510E-01
        1   -1    0    0  501    0  0.00000000000E+00  0.00000000000E+00  0.91335284260E+03  0.91335284261E+03  0.50400001928E-02 0.  1.
       -1   -1    0    0    0  501  0.00000000000E+00  0.00000000000E+00 -0.12944730462E+03  0.12944730472E+03  0.50400001928E-02 0. -1.
    10030    2    1    2    0    0  0.00000000000E+00  0.00000000000E+00  0.78390553798E+03  0.10428001473E+04  0.68769488496E+03 0.  0.
        2    1    3    3  502    0  0.23188158464E+03  0.77662451734E+02  0.25409513914E+02  0.24585802632E+03  0.25500000920E-02 0. -1.
       -2    1    3    3    0  502 -0.23188158464E+03 -0.77662451734E+02  0.75849602407E+03  0.79694212101E+03  0.25500000920E-02 0.  1.
</event>
<event>
 5   0  0.3550586E-02  0.8027951E+03  0.7818609E-02  0.9555980E-01
       -2   -1    0    0    0  501  0.00000000000E+00  0.00000000000E+00  0.51534454049E+03  0.51534454050E+03  0.25500000920E-02 0.  1.
        2   -1    0    0  501    0  0.00000000000E+00  0.00000000000E+00 -0.31264521864E+03  0.31264521865E+03  0.25500000920E-02 0. -1.
    10030    2    1    2    0    0  0.00000000000E+00  0.00000000000E+00  0.20269932185E+03  0.82798975915E+03  0.80279513338E+03 0.  0.
        3    1    3    3  502    0  0.13971106506E+03  0.14081020558E+03 -0.25856229446E+03  0.32588520373E+03  0.10100000352E+00 0. -1.
       -3    1    3    3    0  502 -0.13971106506E+03 -0.14081020558E+03  0.46126161631E+03  0.50210455542E+03  0.10100000352E+00 0.  1.
</event>
<event>
 5   0  0.3550586E-02  0.8022183E+03  0.7818609E-02  0.9556812E-01
        2   -1    0    0  501    0  0.00000000000E+00  0.00000000000E+00  0.54891770545E+03  0.54891770545E+03  0.25500000920E-02 0. -1.
       -2   -1    0    0    0  501  0.00000000000E+00  0.00000000000E+00 -0.29310143748E+03  0.29310143749E+03  0.25500000920E-02 0.  1.
    10030    2    1    2    0    0  0.00000000000E+00  0.00000000000E+00  0.25581626797E+03  0.84201914295E+03  0.80221834567E+03 0.  0.
        3    1    3    3  502    0 -0.66846343476E+02  0.37814140077E+03  0.24954200797E+03  0.45796351007E+03  0.10100000352E+00 0. -1.
       -3    1    3    3    0  502  0.66846343476E+02 -0.37814140077E+03  0.62742599985E+01  0.38405563288E+03  0.10100000352E+00 0.  1.
</event>
<event>
 5   0  0.2132540E-02  0.7985456E+03  0.7818609E-02  0.9562125E-01
        1   -1    0    0  501    0  0.00000000000E+00  0.00000000000E+00  0.51938918974E+03  0.51938918976E+03  0.50400001928E-02 0.  1.
       -1   -1    0    0    0  501  0.00000000000E+00  0.00000000000E+00 -0.30693509632E+03  0.30693509636E+03  0.50400001928E-02 0. -1.
    10030    2    1    2    0    0  0.00000000000E+00  0.00000000000E+00  0.21245409342E+03  0.82632428612E+03  0.79854560547E+03 0.  0.
        4    1    3    3  502    0 -0.11526431688E+03 -0.19336233365E+03 -0.23500519314E+03  0.32542880715E+03  0.12699999809E+01 0. -1.
       -4    1    3    3    0  502  0.11526431688E+03  0.19336233365E+03  0.44745928656E+03  0.50089547897E+03  0.12699999809E+01 0.  1.
</event>
<event>
 5   0  0.2132540E-02  0.8110443E+03  0.7818609E-02  0.9544167E-01
       -1   -1    0    0    0  501  0.00000000000E+00  0.00000000000E+00  0.17383332101E+03  0.17383332108E+03  0.50400001928E-02 0.  1.
        1   -1    0    0  501    0  0.00000000000E+00  0.00000000000E+00 -0.94601077945E+03  0.94601077946E+03  0.50400001928E-02 0. -1.
    10030    2    1    2    0    0  0.00000000000E+00  0.00000000000E+00 -0.77217745844E+03  0.11198441005E+04  0.81104425415E+03 0.  0.
        4    1    3    3  502    0  0.32721898054E+03  0.12379110942E+03 -0.66922560880E+03  0.75515629400E+03  0.12699999809E+01 0. -1.
       -4    1    3    3    0  502 -0.32721898054E+03 -0.12379110942E+03 -0.10295184965E+03  0.36468780654E+03  0.12699999809E+01 0.  1.
</event>
<event>
 5   0  0.1989298E-02  0.8024870E+03  0.7818609E-02  0.9556424E-01
        1   -1    0    0  501    0  0.00000000000E+00  0.00000000000E+00  0.26020524889E+03  0.26020524894E+03  0.50400001928E-02 0.  1.
       -1   -1    0    0    0  501  0.00000000000E+00  0.00000000000E+00 -0.61872822221E+03  0.61872822223E+03  0.50400001928E-02 0. -1.
    10030    2    1    2    0    0  0.00000000000E+00  0.00000000000E+00 -0.35852297331E+03  0.87893347117E+03  0.80248696210E+03 0.  0.
        1    1    3    3  502    0 -0.22777110133E+03  0.31891505042E+03 -0.27354215243E+03  0.47792446387E+03  0.50400001928E-02 0.  1.
       -1    1    3    3    0  502  0.22777110133E+03 -0.31891505042E+03 -0.84980820889E+02  0.40100900730E+03  0.50400001928E-02 0. -1.
</event>
<event>
 5   0  0.1989298E-02  0.8437625E+03  0.7818609E-02  0.9498747E-01
        1   -1    0    0  501    0  0.00000000000E+00  0.00000000000E+00  0.72388795036E+03  0.72388795038E+03  0.50400001928E-02 0. -1.
       -1   -1    0    0    0  501  0.00000000000E+00  0.00000000000E+00 -0.24587199805E+03  0.24587199811E+03  0.50400001928E-02 0.  1.
    10030    2    1    2    0    0  0.00000000000E+00  0.00000000000E+00  0.47801595231E+03  0.96975994849E+03  0.84376247074E+03 0.  0.
        1    1    3    3  502    0 -0.15552899701E+03  0.64486435045E+02 -0.20558448576E+03  0.26573059671E+03  0.50400001928E-02 0.  1.
       -1    1    3    3    0  502  0.15552899701E+03 -0.64486435045E+02  0.68360043807E+03  0.70402935178E+03  0.50400001928E-02 0. -1.
</event>
<event>
 5   0  0.2063692E-02  0.7643408E+03  0.7818609E-02  0.9613117E-01
        1   -1    0    0  501    0  0.00000000000E+00  0.00000000000E+00  0.81513396582E+03  0.81513396584E+03  0.50400001928E-02 0.  1.
       -1   -1    0    0    0  501  0.00000000000E+00  0.00000000000E+00 -0.17917816804E+03  0.17917816811E+03  0.50400001928E-02 0. -1.
    10030    2    1    2    0    0  0.00000000000E+00  0.00000000000E+00  0.63595579778E+03  0.99431213395E+03  0.76434078982E+03 0.  0.
        2    1    3    3  502    0  0.19379402920E+03  0.99464177619E+02  0.72647134054E+03  0.75842590740E+03  0.25500000920E-02 0.  1.
       -2    1    3    3    0  502 -0.19379402920E+03 -0.99464177619E+02 -0.90515542762E+02  0.23588622654E+03  0.25500000920E-02 0. -1.
</event>
<event>
 5   0  0.2077795E-02  0.8079885E+03  0.7818609E-02  0.9548526E-01
        1   -1    0    0  501    0  0.00000000000E+00  0.00000000000E+00  0.78456752052E+03  0.78456752053E+03  0.50400001928E-02 0.  1.
       -1   -1    0    0    0  501  0.00000000000E+00  0.00000000000E+00 -0.20802713678E+03  0.20802713684E+03  0.50400001928E-02 0. -1.
    10030    2    1    2    0    0  0.00000000000E+00  0.00000000000E+00  0.57654038373E+03  0.99259465738E+03  0.80798845275E+03 0.  0.
        5    1    3    3  502    0  0.70402102956E+02  0.17710088365E+03  0.72583555688E+03  0.75045354601E+03  0.46999998093E+01 0.  1.
       -5    1    3    3    0  502 -0.70402102956E+02 -0.17710088365E+03 -0.14929517314E+03  0.24214111137E+03  0.46999998093E+01 0. -1.
</event>
<event>
 5   0  0.1358000E-02  0.7945297E+03  0.7818609E-02  0.9567969E-01
       -3   -1    0    0    0  501  0.00000000000E+00  0.00000000000E+00  0.32388821217E+03  0.32388822791E+03  0.10100000352E+00 0.  1.
        3   -1    0    0  501    0  0.00000000000E+00  0.00000000000E+00 -0.48726482386E+03  0.48726483433E+03  0.10100000352E+00 0. -1.
    10030    2    1    2    0    0  0.00000000000E+00  0.00000000000E+00 -0.16337661170E+03  0.81115306225E+03  0.79452965529E+03 0.  0.
        5    1    3    3  502    0 -0.16062928840E+03 -0.20579805682E+03 -0.38735634513E+03  0.46714198762E+03  0.46999998093E+01 0. -1.
       -5    1    3    3    0  502  0.16062928840E+03  0.20579805682E+03  0.22397973343E+03  0.34401107463E+03  0.46999998093E+01 0.  1.
</event>
<event>
 5   0  0.2063692E-02  0.8238430E+03  0.7818609E-02  0.9526132E-01
        1   -1    0    0  501    0  0.00000000000E+00  0.00000000000E+00  0.12102050843E+04  0.12102050843E+04  0.50400001928E-02 0.  1.
       -1   -1    0    0    0  501  0.00000000000E+00  0.00000000000E+00 -0.14020707832E+03  0.14020707841E+03  0.50400001928E-02 0. -1.
    10030    2    1    2    0    0  0.00000000000E+00  0.00000000000E+00  0.10699980060E+04  0.13504121627E+04  0.82384299256E+03 0.  0.
        2    1    3    3  502    0  0.38819102915E+03  0.11179150191E+03  0.40295024039E+03  0.57057734905E+03  0.25500000920E-02 0. -1.
       -2    1    3    3    0  502 -0.38819102915E+03 -0.11179150191E+03  0.66704776556E+03  0.77983481364E+03  0.25500000920E-02 0.  1.
</event>
<event>
 5   0  0.3416160E-02  0.8063471E+03  0.7818609E-02  0.9550875E-01
       -2   -1    0    0    0  501  0.00000000000E+00  0.00000000000E+00  0.18455446540E+03  0.18455446541E+03  0.25500000920E-02 0. -1.
        2   -1    0    0  501    0  0.00000000000E+00  0.00000000000E+00 -0.88076389484E+03  0.88076389485E+03  0.25500000920E-02 0.  1.
    10030    2    1    2    0    0  0.00000000000E+00  0.00000000000E+00 -0.69620942945E+03  0.10653183603E+04  0.80634709590E+03 0.  0.
        1    1    3    3  502    0  0.66569467923E+02 -0.39496815969E+03 -0.28730855866E+03  0.49292752929E+03  0.50400001928E-02 0. -1.
       -1    1    3    3    0  502 -0.66569467923E+02  0.39496815969E+03 -0.40890087079E+03  0.57239083097E+03  0.50400001928E-02 0.  1.
</event>
<event>
 5   0  0.3416160E-02  0.7992010E+03  0.7818609E-02  0.9561174E-01
        2   -1    0    0  501    0  0.00000000000E+00  0.00000000000E+00  0.29808194922E+03  0.29808194923E+03  0.25500000920E-02 0.  1.
       -2   -1    0    0    0  501  0.00000000000E+00  0.00000000000E+00 -0.53569342329E+03  0.53569342329E+03  0.25500000920E-02 0. -1.
    10030    2    1    2    0    0  0.00000000000E+00  0.00000000000E+00 -0.23761147407E+03  0.83377537253E+03  0.79920095047E+03 0.  0.
        1    1    3    3  502    0 -0.13864528879E+02  0.38195558506E+03  0.28505374354E+01  0.38221776477E+03  0.50400001928E-02 0.  1.
       -1    1    3    3    0  502  0.13864528879E+02 -0.38195558506E+03 -0.24046201150E+03  0.45155760775E+03  0.50400001928E-02 0. -1.
</event>
<event>
 5   0  0.3467240E-02  0.7878712E+03  0.7818609E-02  0.9577741E-01
        2   -1    0    0  501    0  0.00000000000E+00  0.00000000000E+00  0.12083539175E+04  0.12083539175E+04  0.25500000920E-02 0.  1.
       -2   -1    0    0    0  501  0.00000000000E+00  0.00000000000E+00 -0.12842699193E+03  0.12842699196E+03  0.25500000920E-02 0. -1.
    10030    2    1    2    0    0  0.00000000000E+00  0.00000000000E+00  0.10799269255E+04  0.13367809094E+04  0.78787120477E+03 0.  0.
        2    1    3    3  502    0  0.14083604202E+03 -0.59172833956E+02 -0.76125599959E+02  0.17067900277E+03  0.25500000920E-02 0. -1.
       -2    1    3    3    0  502 -0.14083604202E+03  0.59172833956E+02  0.11560525255E+04  0.11661019067E+04  0.25500000920E-02 0.  1.
</event>
<event>
 5   0  0.2132540E-02  0.7829832E+03  0.7818609E-02  0.9584980E-01
        1   -1    0    0  501    0  0.00000000000E+00  0.00000000000E+00  0.37426205545E+03  0.37426205549E+03  0.50400001928E-02 0.  1.
       -1   -1    0    0    0  501  0.00000000000E+00  0.00000000000E+00 -0.40951429665E+03  0.40951429668E+03  0.50400001928E-02 0. -1.
    10030    2    1    2    0    0  0.00000000000E+00  0.00000000000E+00 -0.35252241199E+02  0.78377635217E+03  0.78298317333E+03 0.  0.
        4    1    3    3  502    0  0.23053751055E+03  0.19131693757E+03 -0.26990192824E+03  0.40323489201E+03  0.12699999809E+01 0. -1.
       -4    1    3    3    0  502 -0.23053751055E+03 -0.19131693757E+03  0.23464968704E+03  0.38054146016E+03  0.12699999809E+01 0.  1.
</event>
<event>
 5   0  0.2132540E-02  0.8069225E+03  0.7818609E-02  0.9550051E-01
       -1   -1    0    0    0  501  0.00000000000E+00  0.00000000000E+00  0.12182934284E+03  0.12182934294E+03  0.50400001928E-02 0.  1.
        1   -1    0    0  501    0  0.00000000000E+00  0.00000000000E+00 -0.13361394517E+04  0.13361394517E+04  0.50400001928E-02 0. -1.
    10030    2    1    2    0    0  0.00000000000E+00  0.00000000000E+00 -0.12143101088E+04  0.14579687946E+04  0.80692252768E+03 0.  0.
        4    1    3    3  502    0  0.37261087168E+03  0.15243012579E+03 -0.65514912021E+03  0.76895759802E+03  0.12699999809E+01 0. -1.
       -4    1    3    3    0  502 -0.37261087168E+03 -0.15243012579E+03 -0.55916098860E+03  0.68901119659E+03  0.12699999809E+01 0.  1.
</event>
<event>
 5   0  0.1989298E-02  0.7861718E+03  0.7818609E-02  0.9580251E-01
        1   -1    0    0  501    0  0.00000000000E+00  0.00000000000E+00  0.56764386311E+03  0.56764386313E+03  0.50400001928E-02 0.  1.
       -1   -1    0    0    0  501  0.00000000000E+00  0.00000000000E+00 -0.27220683362E+03  0.27220683367E+03  0.50400001928E-02 0. -1.
    10030    2    1    2    0    0  0.00000000000E+00  0.00000000000E+00  0.29543702948E+03  0.83985069680E+03  0.78617183524E+03 0.  0.
        1    1    3    3  502    0  0.29414890799E+01 -0.97305162661E+02 -0.25912546118E+03  0.27680851088E+03  0.50400001928E-02 0. -1.
       -1    1    3    3    0  502 -0.29414890799E+01  0.97305162661E+02  0.55456249067E+03  0.56304218591E+03  0.50400001928E-02 0.  1.
</event>
<event>
 5   0  0.2063692E-02  0.7889637E+03  0.7818609E-02  0.9576130E-01
        1   -1    0    0  501    0  0.00000000000E+00  0.00000000000E+00  0.90303085348E+02  0.90303085488E+02  0.50400001928E-02 0.  1.
       -1   -1    0    0    0  501  0.00000000000E+00  0.00000000000E+00 -0.17232628202E+04  0.17232628202E+04  0.50400001928E-02 0. -1.
    10030    2    1    2    0    0  0.00000000000E+00  0.00000000000E+00 -0.16329597348E+04  0.18135659057E+04  0.78896374989E+03 0.  0.
        2    1    3    3  502    0 -0.23504318158E+03  0.31498303162E+03 -0.73831357942E+03  0.83640094989E+03  0.25500000920E-02 0.  1.
       -2    1    3    3    0  502  0.23504318158E+03 -0.31498303162E+03 -0.89464615540E+03  0.97716495577E+03  0.25500000920E-02 0. -1.
</event>
<event>
 5   0  0.1358000E-02  0.8021237E+03  0.7818609E-02  0.9556948E-01
       -4   -1    0    0    0  501  0.00000000000E+00  0.00000000000E+00  0.12288971928E+04  0.12288978490E+04  0.12699999809E+01 0. -1.
        4   -1    0    0  501    0  0.00000000000E+00  0.00000000000E+00 -0.13088644670E+03  0.13089260800E+03  0.12699999809E+01 0.  1.
    10030    2    1    2    0    0  0.00000000000E+00  0.00000000000E+00  0.10980107461E+04  0.13597904570E+04  0.80212373639E+03 0.  0.
        3    1    3    3  502    0  0.86175338459E+02  0.27731522772E+03  0.10179483675E+04  0.10585597827E+04  0.10100000352E+00 0. -1.
       -3    1    3    3    0  502 -0.86175338459E+02 -0.27731522772E+03  0.80062378602E+02  0.30123067432E+03  0.10100000352E+00 0.  1.
</event>
<event>
 5   0  0.3550586E-02  0.8630016E+03  0.7818609E-02  0.9473051E-01
       -2   -1    0    0    0  501  0.00000000000E+00  0.00000000000E+00  0.20766049994E+03  0.20766049996E+03  0.25500000920E-02 0.  1.
        2   -1    0    0  501    0  0.00000000000E+00  0.00000000000E+00 -0.89662180454E+03  0.89662180454E+03  0.25500000920E-02 0. -1.
    10030    2    1    2    0    0  0.00000000000E+00  0.00000000000E+00 -0.68896130460E+03  0.11042823045E+04  0.86300158099E+03 0.  0.
        3    1    3    3  502    0  0.41153678781E+03  0.12506013148E+03 -0.30033303382E+03  0.52459747008E+03  0.10100000352E+00 0.  1.
       -3    1    3    3    0  502 -0.41153678781E+03 -0.12506013148E+03 -0.38862827079E+03  0.57968483443E+03  0.10100000352E+00 0. -1.
</event>
<event>
 5   0  0.3416160E-02  0.7999949E+03  0.7818609E-02  0.9560025E-01
       -2   -1    0    0    0  501  0.00000000000E+00  0.00000000000E+00  0.74108863380E+02  0.74108863423E+02  0.25500000920E-02 0.  1.
        2   -1    0    0  501    0  0.00000000000E+00  0.00000000000E+00 -0.21589582728E+04  0.21589582728E+04  0.25500000920E-02 0. -1.
    10030    2    1    2    0    0  0.00000000000E+00  0.00000000000E+00 -0.20848494095E+04  0.22330671363E+04  0.79999485932E+03 0.  0.
        1    1    3    3  502    0 -0.37245801444E+03 -0.19600842159E+02 -0.14458574104E+04  0.14931888082E+04  0.50400001928E-02 0. -1.
       -1    1    3    3    0  502  0.37245801444E+03  0.19600842159E+02 -0.63899199904E+03  0.73987832810E+03  0.50400001928E-02 0.  1.
</event>
<event>
 5   0  0.3550586E-02  0.7357891E+03  0.7818609E-02  0.9657913E-01
       -2   -1    0    0    0  501  0.00000000000E+00  0.00000000000E+00  0.54156304390E+03  0.54156304390E+03  0.25500000920E-02 0. -1.
        2   -1    0    0  501    0  0.00000000000E+00  0.00000000000E+00 -0.24991810848E+03  0.24991810849E+03  0.25500000920E-02 0.  1.
    10030    2    1    2    0    0  0.00000000000E+00  0.00000000000E+00  0.29164493542E+03  0.79148115239E+03  0.73578913164E+03 0.  0.
        3    1    3    3  502    0  0.19862040427E+03  0.49452881187E+02 -0.18301296076E+03  0.27457131397E+03  0.10100000352E+00 0.  1.
       -3    1    3    3    0  502 -0.19862040427E+03 -0.49452881187E+02  0.47465789618E+03  0.51690983842E+03  0.10100000352E+00 0. -1.
</event>
<event>
 5   0  0.2132540E-02  0.7767737E+03  0.7818609E-02  0.9594258E-01
        1   -1    0    0  501    0  0.00000000000E+00  0.00000000000E+00  0.25663142211E+03  0.25663142216E+03  0.50400001928E-02 0.  1.
       -1   -1    0    0    0  501  0.00000000000E+00  0.00000000000E+00 -0.58778591432E+03  0.58778591434E+03  0.50400001928E-02 0. -1.
    10030    2    1    2    0    0  0.00000000000E+00  0.00000000000E+00 -0.33115449221E+03  0.84441733650E+03  0.77677367391E+03 0.  0.
        4    1    3    3  502    0  0.31840774607E+03  0.90924706941E+02  0.55054853634E+02  0.33568354874E+03  0.12699999809E+01 0. -1.
       -4    1    3    3    0  502 -0.31840774607E+03 -0.90924706941E+02 -0.38620934585E+03  0.50873378776E+03  0.12699999809E+01 0.  1.
</event>
<event>
 5   0  0.3467240E-02  0.8052374E+03  0.7818609E-02  0.9552467E-01
        2   -1    0    0  501    0  0.00000000000E+00  0.00000000000E+00  0.73541016567E+03  0.73541016568E+03  0.25500000920E-02 0.  1.
       -2   -1    0    0    0  501  0.00000000000E+00  0.00000000000E+00 -0.22042367982E+03  0.22042367984E+03  0.25500000920E-02 0. -1.
    10030    2    1    2    0    0  0.00000000000E+00  0.00000000000E+00  0.51498648585E+03  0.95583384551E+03  0.80523739334E+03 0.  0.
        2    1    3    3  502    0 -0.34181467529E+03 -0.62580135223E+02  0.49886538160E+03  0.60796399115E+03  0.25500000920E-02 0.  1.
       -2    1    3    3    0  502  0.34181467529E+03  0.62580135223E+02  0.16121104251E+02  0.34786985437E+03  0.25500000920E-02 0. -1.
</event>
<event>
 5   0  0.3467240E-02  0.8486575E+03  0.7818609E-02  0.9492141E-01
       -2   -1    0    0    0  501  0.00000000000E+00  0.00000000000E+00  0.10857553457E+03  0.10857553460E+03  0.25500000920E-02 0.  1.
        2   -1    0    0  501    0  0.00000000000E+00  0.00000000000E+00 -0.16583376434E+04  0.16583376434E+04  0.25500000920E-02 0. -1.
    10030    2    1    2    0    0  0.00000000000E+00  0.00000000000E+00 -0.15497621088E+04  0.17669131780E+04  0.84865751903E+03 0.  0.
        2    1    3    3  502    0 -0.36935303676E+03 -0.12266547193E+03 -0.42286491667E+03  0.57470272448E+03  0.25500000920E-02 0.  1.
       -2    1    3    3    0  502  0.36935303676E+03  0.12266547193E+03 -0.11268971921E+04  0.11922104535E+04  0.25500000920E-02 0. -1.
</event>
<event>
 5   0  0.2132540E-02  0.7993860E+03  0.7818609E-02  0.9560906E-01
       -1   -1    0    0    0  501  0.00000000000E+00  0.00000000000E+00  0.91696613354E+03  0.91696613355E+03  0.50400001928E-02 0. -1.
        1   -1    0    0  501    0  0.00000000000E+00  0.00000000000E+00 -0.17422069735E+03  0.17422069742E+03  0.50400001928E-02 0.  1.
    10030    2    1    2    0    0  0.00000000000E+00  0.00000000000E+00  0.74274543619E+03  0.10911868310E+04  0.79938596254E+03 0.  0.
        4    1    3    3  502    0  0.11362768809E+03 -0.22757989551E+03  0.79221211370E+03  0.83204898073E+03  0.12699999809E+01 0. -1.
       -4    1    3    3    0  502 -0.11362768809E+03  0.22757989551E+03 -0.49466677515E+02  0.25913785024E+03  0.12699999809E+01 0.  1.
</event>
<event>
 5   0  0.2063692E-02  0.7996582E+03  0.7818609E-02  0.9560512E-01
        1   -1    0    0  501    0  0.00000000000E+00  0.00000000000E+00  0.86097089623E+03  0.86097089625E+03  0.50400001928E-02 0. -1.
       -1   -1    0    0    0  501  0.00000000000E+00  0.00000000000E+00 -0.18567794114E+03  0.18567794120E+03  0.50400001928E-02 0.  1.
    10030    2    1    2    0    0  0.00000000000E+00  0.00000000000E+00  0.67529295510E+03  0.10466488375E+04  0.79965818556E+03 0.  0.
        2    1    3    3  502    0  0.38955884187E+03 -0.38368735922E+02  0.23103136204E+03  0.45453684276E+03  0.25500000920E-02 0.  1.
       -2    1    3    3    0  502 -0.38955884187E+03  0.38368735922E+02  0.44426159306E+03  0.59211199469E+03  0.25500000920E-02 0. -1.
</event>
<event>
 5   0  0.2077795E-02  0.7672438E+03  0.7818609E-02  0.9608679E-01
       -1   -1    0    0    0  501  0.00000000000E+00  0.00000000000E+00  0.69044128928E+03  0.69044128930E+03  0.50400001928E-02 0.  1.
        1   -1    0    0  501    0  0.00000000000E+00  0.00000000000E+00 -0.21314738496E+03  0.21314738502E+03  0.50400001928E-02 0. -1.
    10030    2    1    2    0    0  0.00000000000E+00  0.00000000000E+00  0.47729390432E+03  0.90358867432E+03  0.76724378216E+03 0.  0.
        5    1    3    3  502    0  0.11324276638E+02  0.18876326025E+03 -0.15440370688E+03  0.24417698982E+03  0.46999998093E+01 0. -1.
       -5    1    3    3    0  502 -0.11324276638E+02 -0.18876326025E+03  0.63169761120E+03  0.65941168450E+03  0.46999998093E+01 0.  1.
</event>
<event>
 5   0  0.3343036E-02  0.8587661E+03  0.7818609E-02  0.9478646E-01
       -2   -1    0    0    0  501  0.00000000000E+00  0.00000000000E+00  0.13852431549E+03  0.13852431551E+03  0.25500000920E-02 0.  1.
        2   -1    0    0  501    0  0.00000000000E+00  0.00000000000E+00 -0.13309564047E+04  0.13309564047E+04  0.25500000920E-02 0. -1.
    10030    2    1    2    0    0  0.00000000000E+00  0.00000000000E+00 -0.11924320892E+04  0.14694807203E+04  0.85876614962E+03 0.  0.
        4    1    3    3  502    0  0.16761769893E+03  0.96769768405E+02  0.59645083751E+02  0.20253204682E+03  0.12699999809E+01 0.  1.
       -4    1    3    3    0  502 -0.16761769893E+03 -0.96769768405E+02 -0.12520771730E+04  0.12669486734E+04  0.12699999809E+01 0. -1.
</event>
<event>
 5   0  0.2077795E-02  0.8049593E+03  0.7818609E-02  0.9552866E-01
       -1   -1    0    0    0  501  0.00000000000E+00  0.00000000000E+00  0.55312733605E+03  0.55312733608E+03  0.50400001928E-02 0.  1.
        1   -1    0    0  501    0  0.00000000000E+00  0.00000000000E+00 -0.29286179616E+03  0.29286179620E+03  0.50400001928E-02 0. -1.
    10030    2    1    2    0    0  0.00000000000E+00  0.00000000000E+00  0.26026553989E+03  0.84598913228E+03  0.80495929132E+03 0.  0.
        5    1    3    3  502    0  0.94085517554E+02  0.35349136198E+03  0.30649423699E+03  0.47725154260E+03  0.46999998093E+01 0. -1.
       -5    1    3    3    0  502 -0.94085517554E+02 -0.35349136198E+03 -0.46228697101E+02  0.36873758968E+03  0.46999998093E+01 0.  1.
</event>
<event>
 5   0  0.3416160E-02  0.8075943E+03  0.7818609E-02  0.9549089E-01
       -2   -1    0    0    0  501  0.00000000000E+00  0.00000000000E+00  0.10071314827E+03  0.10071314831E+03  0.25500000920E-02 0. -1.
        2   -1    0    0  501    0  0.00000000000E+00  0.00000000000E+00 -0.16189755773E+04  0.16189755773E+04  0.25500000920E-02 0.  1.
    10030    2    1    2    0    0  0.00000000000E+00  0.00000000000E+00 -0.15182624290E+04  0.17196887256E+04  0.80759427288E+03 0.  0.
        1    1    3    3  502    0  0.91036652195E+02  0.21539965659E+03 -0.14601118602E+04  0.14787194894E+04  0.50400001928E-02 0.  1.
       -1    1    3    3    0  502 -0.91036652195E+02 -0.21539965659E+03 -0.58150568824E+02  0.24096923618E+03  0.50400001928E-02 0. -1.
</event>
<event>
 5   0  0.2077795E-02  0.8012738E+03  0.7818609E-02  0.9558175E-01
       -1   -1    0    0    0  501  0.00000000000E+00  0.00000000000E+00  0.80986549113E+02  0.80986549270E+02  0.50400001928E-02 0. -1.
        1   -1    0    0  501    0  0.00000000000E+00  0.00000000000E+00 -0.19819333608E+04  0.19819333608E+04  0.50400001928E-02 0.  1.
    10030    2    1    2    0    0  0.00000000000E+00  0.00000000000E+00 -0.19009468117E+04  0.20629199101E+04  0.80127384491E+03 0.  0.
        5    1    3    3  502    0  0.20574956377E+03  0.32757597190E+03 -0.68231258886E+03  0.78435416699E+03  0.46999998093E+01 0. -1.
       -5    1    3    3    0  502 -0.20574956377E+03 -0.32757597190E+03 -0.12186342228E+04  0.12785657431E+04  0.46999998093E+01 0.  1.
</event>
<event>
 5   0  0.1989298E-02  0.8000968E+03  0.7818609E-02  0.9559877E-01
        1   -1    0    0  501    0  0.00000000000E+00  0.00000000000E+00  0.69427790608E+03  0.69427790609E+03  0.50400001928E-02 0.  1.
       -1   -1    0    0    0  501  0.00000000000E+00  0.00000000000E+00 -0.23051101479E+03  0.23051101485E+03  0.50400001928E-02 0. -1.
    10030    2    1    2    0    0  0.00000000000E+00  0.00000000000E+00  0.46376689128E+03  0.92478892094E+03  0.80009675593E+03 0.  0.
        1    1    3    3  502    0 -0.24484551591E+01  0.23946620852E+03 -0.13850831715E+03  0.27664890006E+03  0.50400001928E-02 0. -1.
       -1    1    3    3    0  502  0.24484551591E+01 -0.23946620852E+03  0.60227520843E+03  0.64814002089E+03  0.50400001928E-02 0.  1.
</event>
<event>
 5   0  0.2129257E-02  0.5271474E+03  0.7818609E-02  0.1006926E+00
       -1   -1    0    0    0  501  0.00000000000E+00  0.00000000000E+00  0.31458134073E+03  0.31458134077E+03  0.50400001928E-02 0. -1.
        1   -1    0    0  501    0  0.00000000000E+00  0.00000000000E+00 -0.22083669107E+03  0.22083669112E+03  0.50400001928E-02 0.  1.
    10030    2    1    2    0    0  0.00000000000E+00  0.00000000000E+00  0.93744649660E+02  0.53541803189E+03  0.52714742675E+03 0.  0.
        3    1    3    3  502    0  0.26285761067E+03  0.14131262723E+02  0.33348921253E+02  0.26534124599E+03  0.10100000352E+00 0.  1.
       -3    1    3    3    0  502 -0.26285761067E+03 -0.14131262723E+02  0.60395728406E+02  0.27007678590E+03  0.10100000352E+00 0. -1.
</event>
<event>
 5   0  0.2077795E-02  0.7823612E+03  0.7818609E-02  0.9585905E-01
        1   -1    0    0  501    0  0.00000000000E+00  0.00000000000E+00  0.61961706768E+03  0.61961706770E+03  0.50400001928E-02 0. -1.
       -1   -1    0    0    0  501  0.00000000000E+00  0.00000000000E+00 -0.24696263420E+03  0.24696263425E+03  0.50400001928E-02 0.  1.
    10030    2    1    2    0    0  0.00000000000E+00  0.00000000000E+00  0.37265443348E+03  0.86657970196E+03  0.78236120370E+03 0.  0.
        5    1    3    3  502    0 -0.55882305298E+02  0.16908941341E+03  0.57207793406E+03  0.59917385992E+03  0.46999998093E+01 0. -1.
       -5    1    3    3    0  502  0.55882305298E+02 -0.16908941341E+03 -0.19942350058E+03  0.26740584204E+03  0.46999998093E+01 0.  1.
</event>
<event>
 5   0  0.3343036E-02  0.7983025E+03  0.7818609E-02  0.9562477E-01
       -2   -1    0    0    0  501  0.00000000000E+00  0.00000000000E+00  0.51235108992E+03  0.51235108992E+03  0.25500000920E-02 0.  1.
        2   -1    0    0  501    0  0.00000000000E+00  0.00000000000E+00 -0.31096201386E+03  0.31096201387E+03  0.25500000920E-02 0. -1.
    10030    2    1    2    0    0  0.00000000000E+00  0.00000000000E+00  0.20138907605E+03  0.82331310379E+03  0.79830251592E+03 0.  0.
        4    1    3    3  502    0  0.21491178193E+02  0.11682315850E+03  0.49369827388E+03  0.50778845953E+03  0.12699999809E+01 0.  1.
       -4    1    3    3    0  502 -0.21491178193E+02 -0.11682315850E+03 -0.29230919783E+03  0.31552464426E+03  0.12699999809E+01 0. -1.
</event>
<event>
 5   0  0.3550586E-02  0.8192967E+03  0.7818609E-02  0.9532498E-01
       -2   -1    0    0    0  501  0.00000000000E+00  0.00000000000E+00  0.32358482645E+03  0.32358482646E+03  0.25500000920E-02 0. -1.
        2   -1    0    0  501    0  0.00000000000E+00  0.00000000000E+00 -0.51860205889E+03  0.51860205889E+03  0.25500000920E-02 0.  1.
    10030    2    1    2    0    0  0.00000000000E+00  0.00000000000E+00 -0.19501723243E+03  0.84218688536E+03  0.81929666722E+03 0.  0.
        3    1    3    3  502    0 -0.28303463155E+03 -0.16484553284E+02 -0.40145782133E+03  0.49147607842E+03  0.10100000352E+00 0.  1.
       -3    1    3    3    0  502  0.28303463155E+03  0.16484553284E+02  0.20644058890E+03  0.35071080693E+03  0.10100000352E+00 0. -1.
</event>
<event>
 5   0  0.3467240E-02  0.6294569E+03  0.7818609E-02  0.9846109E-01
        2   -1    0    0  501    0  0.00000000000E+00  0.00000000000E+00  0.22954334426E+03  0.22954334428E+03  0.25500000920E-02 0. -1.
       -2   -1    0    0    0  501  0.00000000000E+00  0.00000000000E+00 -0.43152639065E+03  0.43152639066E+03  0.25500000920E-02 0.  1.
    10030    2    1    2    0    0  0.00000000000E+00  0.00000000000E+00 -0.20198304639E+03  0.66106973493E+03  0.62945694326E+03 0.  0.
        2    1    3    3  502    0  0.51082007896E+02  0.96730855395E+02  0.20893579520E+03  0.23583976857E+03  0.25500000920E-02 0. -1.
       -2    1    3    3    0  502 -0.51082007896E+02 -0.96730855395E+02 -0.41091884159E+03  0.42522996636E+03  0.25500000920E-02 0.  1.
</event>
<event>
 5   0  0.3416160E-02  0.9061072E+03  0.7818609E-02  0.9417979E-01
        2   -1    0    0  501    0  0.00000000000E+00  0.00000000000E+00  0.31391935196E+03  0.31391935197E+03  0.25500000920E-02 0. -1.
       -2   -1    0    0    0  501  0.00000000000E+00  0.00000000000E+00 -0.65385449514E+03  0.65385449514E+03  0.25500000920E-02 0.  1.
    10030    2    1    2    0    0  0.00000000000E+00  0.00000000000E+00 -0.33993514317E+03  0.96777384711E+03  0.90610723294E+03 0.  0.
        1    1    3    3  502    0 -0.25904832140E+03 -0.25285705548E+03  0.12099673036E+03  0.38168433569E+03  0.50400001928E-02 0. -1.
       -1    1    3    3    0  502  0.25904832140E+03  0.25285705548E+03 -0.46093187353E+03  0.58608951142E+03  0.50400001928E-02 0.  1.
</event>
<event>
 5   0  0.3404132E-02  0.8163137E+03  0.7818609E-02  0.9536699E-01
       -2   -1    0    0    0  501  0.00000000000E+00  0.00000000000E+00  0.85001670095E+02  0.85001670133E+02  0.25500000920E-02 0. -1.
        2   -1    0    0  501    0  0.00000000000E+00  0.00000000000E+00 -0.19598673897E+04  0.19598673897E+04  0.25500000920E-02 0.  1.
    10030    2    1    2    0    0  0.00000000000E+00  0.00000000000E+00 -0.18748657196E+04  0.20448690598E+04  0.81631366846E+03 0.  0.
        5    1    3    3  502    0  0.25314036957E+03 -0.31878855423E+03 -0.10110528076E+04  0.10899339699E+04  0.46999998093E+01 0. -1.
       -5    1    3    3    0  502 -0.25314036957E+03  0.31878855423E+03 -0.86381291195E+03  0.95493508987E+03  0.46999998093E+01 0.  1.
</event>
<event>
 5   0  0.3550586E-02  0.7993574E+03  0.7818609E-02  0.9560948E-01
        2   -1    0    0  501    0  0.00000000000E+00  0.00000000000E+00  0.24071576679E+03  0.24071576680E+03  0.25500000920E-02 0.  1.
       -2   -1    0    0    0  501  0.00000000000E+00  0.00000000000E+00 -0.66361699122E+03  0.66361699122E+03  0.25500000920E-02 0. -1.
    10030    2    1    2    0    0  0.00000000000E+00  0.00000000000E+00 -0.42290122443E+03  0.90433275802E+03  0.79935742419E+03 0.  0.
        3    1    3    3  502    0  0.11316090612E+03  0.31104355496E+02 -0.64368502242E+03  0.65429602620E+03  0.10100000352E+00 0. -1.
       -3    1    3    3    0  502 -0.11316090612E+03 -0.31104355496E+02  0.22078379799E+03  0.25003673183E+03  0.10100000352E+00 0.  1.
</event>
<event>
 5   0  0.1989298E-02  0.8651762E+03  0.7818609E-02  0.9470191E-01
       -1   -1    0    0    0  501  0.00000000000E+00  0.00000000000E+00  0.19405835582E+03  0.19405835588E+03  0.50400001928E-02 0.  1.
        1   -1    0    0  501    0  0.00000000000E+00  0.00000000000E+00 -0.96431033257E+03  0.96431033258E+03  0.50400001928E-02 0. -1.
    10030    2    1    2    0    0  0.00000000000E+00  0.00000000000E+00 -0.77025197675E+03  0.11583686885E+04  0.86517623103E+03 0.  0.
        1    1    3    3  502    0 -0.40459226239E+03  0.69407015430E+02 -0.20242751154E+03  0.45769982524E+03  0.50400001928E-02 0.  1.
       -1    1    3    3    0  502  0.40459226239E+03 -0.69407015430E+02 -0.56782446521E+03  0.70066886322E+03  0.50400001928E-02 0. -1.
</event>
<event>
 5   0  0.2129257E-02  0.7925239E+03  0.7818609E-02  0.9570902E-01
        1   -1    0    0  501    0  0.00000000000E+00  0.00000000000E+00  0.38128202571E+03  0.38128202574E+03  0.50400001928E-02 0. -1.
       -1   -1    0    0    0  501  0.00000000000E+00  0.00000000000E+00 -0.41183038225E+03  0.41183038228E+03  0.50400001928E-02 0.  1.
    10030    2    1    2    0    0  0.00000000000E+00  0.00000000000E+00 -0.30548356540E+02  0.79311240802E+03  0.79252387325E+03 0.  0.
        3    1    3    3  502    0 -0.35364371032E+03  0.10904641565E+03  0.12649441755E+03  0.39109569480E+03  0.10100000352E+00 0. -1.
       -3    1    3    3    0  502  0.35364371032E+03 -0.10904641565E+03 -0.15704277409E+03  0.40201671322E+03  0.10100000352E+00 0.  1.
</event>
<event>
 5   0  0.2077795E-02  0.7789568E+03  0.7818609E-02  0.9590986E-01
       -1   -1    0    0    0  501  0.00000000000E+00  0.00000000000E+00  0.75894984698E+02  0.75894984865E+02  0.50400001928E-02 0.  1.
        1   -1    0    0  501    0  0.00000000000E+00  0.00000000000E+00 -0.19987277291E+04  0.19987277291E+04  0.50400001928E-02 0. -1.
    10030    2    1    2    0    0  0.00000000000E+00  0.00000000000E+00 -0.19228327444E+04  0.20746227139E+04  0.77895676541E+03 0.  0.
        5    1    3    3  502    0  0.25955137641E+03  0.54286027274E+01 -0.18824638902E+03  0.32071042968E+03  0.46999998093E+01 0.  1.
       -5    1    3    3    0  502 -0.25955137641E+03 -0.54286027274E+01 -0.17345863554E+04  0.17539122843E+04  0.46999998093E+01 0. -1.
</event>
<event>
 5   0  0.2129257E-02  0.8351185E+03  0.7818609E-02  0.9510531E-01
        1   -1    0    0  501    0  0.00000000000E+00  0.00000000000E+00  0.15007674272E+04  0.15007674272E+04  0.50400001928E-02 0. -1.
       -1   -1    0    0    0  501  0.00000000000E+00  0.00000000000E+00 -0.11617770258E+03  0.11617770269E+03  0.50400001928E-02 0.  1.
    10030    2    1    2    0    0  0.00000000000E+00  0.00000000000E+00  0.13845897246E+04  0.16169451299E+04  0.83511846321E+03 0.  0.
        3    1    3    3  502    0  0.60601198720E+02 -0.41307689555E+03  0.67851188321E+03  0.79667020327E+03  0.10100000352E+00 0. -1.
       -3    1    3    3    0  502 -0.60601198720E+02  0.41307689555E+03  0.70607784141E+03  0.82027492663E+03  0.10100000352E+00 0.  1.
</event>
<event>
 5   0  0.3467240E-02  0.7924185E+03  0.7818609E-02  0.9571056E-01
        2   -1    0    0  501    0  0.00000000000E+00  0.00000000000E+00  0.11133219000E+04  0.11133219000E+04  0.25500000920E-02 0.  1.
       -2   -1    0    0    0  501  0.00000000000E+00  0.00000000000E+00 -0.14100304612E+03  0.14100304614E+03  0.25500000920E-02 0. -1.
    10030    2    1    2    0    0  0.00000000000E+00  0.00000000000E+00  0.97231885383E+03  0.12543249461E+04  0.79241852382E+03 0.  0.
        2    1    3    3  502    0  0.33788775132E+03 -0.90075078173E+02  0.78102289732E+03  0.85573267926E+03  0.25500000920E-02 0.  1.
       -2    1    3    3    0  502 -0.33788775132E+03  0.90075078173E+02  0.19129595651E+03  0.39859226684E+03  0.25500000920E-02 0. -1.
</event>
<event>
 5   0  0.3550586E-02  0.7677115E+03  0.7818609E-02  0.9607966E-01
       -2   -1    0    0    0  501  0.00000000000E+00  0.00000000000E+00  0.72118160041E+02  0.72118160086E+02  0.25500000920E-02 0.  1.
        2   -1    0    0  501    0  0.00000000000E+00  0.00000000000E+00 -0.20431086109E+04  0.20431086109E+04  0.25500000920E-02 0. -1.
    10030    2    1    2    0    0  0.00000000000E+00  0.00000000000E+00 -0.19709904508E+04  0.21152267709E+04  0.76771149224E+03 0.  0.
        3    1    3    3  502    0 -0.38211496097E+03  0.57801107348E+01 -0.88615488365E+03  0.96504701496E+03  0.10100000352E+00 0.  1.
       -3    1    3    3    0  502  0.38211496097E+03 -0.57801107348E+01 -0.10848355672E+04  0.11501797560E+04  0.10100000352E+00 0. -1.
</event>
<event>
 5   0  0.2129257E-02  0.8912457E+03  0.7818609E-02  0.9436591E-01
       -1   -1    0    0    0  501  0.00000000000E+00  0.00000000000E+00  0.71060696291E+03  0.71060696292E+03  0.50400001928E-02 0.  1.
        1   -1    0    0  501    0  0.00000000000E+00  0.00000000000E+00 -0.27945084363E+03  0.27945084367E+03  0.50400001928E-02 0. -1.
    10030    2    1    2    0    0  0.00000000000E+00  0.00000000000E+00  0.43115611928E+03  0.99005780660E+03  0.89124567949E+03 0.  0.
        3    1    3    3  502    0  0.31489508750E+03  0.28085017322E+03  0.37480087265E+03  0.56436817794E+03  0.10100000352E+00 0.  1.
       -3    1    3    3    0  502 -0.31489508750E+03 -0.28085017322E+03  0.56355246630E+02  0.42568962866E+03  0.10100000352E+00 0. -1.
</event>
<event>
 5   0  0.2063692E-02  0.8058804E+03  0.7818609E-02  0.9551544E-01
        1   -1    0    0  501    0  0.00000000000E+00  0.00000000000E+00  0.90349317069E+03  0.90349317070E+03  0.50400001928E-02 0.  1.
       -1   -1    0    0    0  501  0.00000000000E+00  0.00000000000E+00 -0.17970339869E+03  0.17970339876E+03  0.50400001928E-02 0. -1.
    10030    2    1    2    0    0  0.00000000000E+00  0.00000000000E+00  0.72378977200E+03  0.10831965695E+04  0.80588037204E+03 0.  0.
        2    1    3    3  502    0 -0.56306904148E+02  0.27552013074E+03  0.74978115470E+03  0.80078311037E+03  0.25500000920E-02 0.  1.
       -2    1    3    3    0  502  0.56306904148E+02 -0.27552013074E+03 -0.25991382700E+02  0.28241345909E+03  0.25500000920E-02 0. -1.
</event>
<event>
 5   0  0.3467240E-02  0.8013649E+03  0.7818609E-02  0.9558044E-01
        2   -1    0    0  501    0  0.00000000000E+00  0.00000000000E+00  0.39602472427E+03  0.39602472428E+03  0.25500000920E-02 0. -1.
       -2   -1    0    0    0  501  0.00000000000E+00  0.00000000000E+00 -0.40539496077E+03  0.40539496078E+03  0.25500000920E-02 0.  1.
    10030    2    1    2    0    0  0.00000000000E+00  0.00000000000E+00 -0.93702364966E+01  0.80141968506E+03  0.80136490456E+03 0.  0.
        2    1    3    3  502    0 -0.18170563969E+02  0.23217954380E+03  0.32138765345E+03  0.39689738441E+03  0.25500000920E-02 0. -1.
       -2    1    3    3    0  502  0.18170563969E+02 -0.23217954380E+03 -0.33075788994E+03  0.40452230065E+03  0.25500000920E-02 0.  1.
</event>
<event>
 5   0  0.2063692E-02  0.7956975E+03  0.7818609E-02  0.9566266E-01
        1   -1    0    0  501    0  0.00000000000E+00  0.00000000000E+00  0.38199885484E+03  0.38199885488E+03  0.50400001928E-02 0. -1.
       -1   -1    0    0    0  501  0.00000000000E+00  0.00000000000E+00 -0.41435627921E+03  0.41435627924E+03  0.50400001928E-02 0.  1.
    10030    2    1    2    0    0  0.00000000000E+00  0.00000000000E+00 -0.32357424366E+02  0.79635513412E+03  0.79569749071E+03 0.  0.
        2    1    3    3  502    0  0.38323723092E+03 -0.93971965899E+02  0.34677837439E+02  0.39611116868E+03  0.25500000920E-02 0.  1.
       -2    1    3    3    0  502 -0.38323723092E+03  0.93971965899E+02 -0.67035261806E+02  0.40024396544E+03  0.25500000920E-02 0. -1.
</event>
<event>
 5   0  0.1358000E-02  0.7920132E+03  0.7818609E-02  0.9571650E-01
        3   -1    0    0  501    0  0.00000000000E+00  0.00000000000E+00  0.44677340356E+03  0.44677341497E+03  0.10100000352E+00 0.  1.
       -3   -1    0    0    0  501  0.00000000000E+00  0.00000000000E+00 -0.35100841197E+03  0.35100842650E+03  0.10100000352E+00 0. -1.
    10030    2    1    2    0    0  0.00000000000E+00  0.00000000000E+00  0.95764991583E+02  0.79778184148E+03  0.79201321515E+03 0.  0.
        4    1    3    3  502    0 -0.21186178355E+03  0.24431992428E+03  0.27811229334E+03  0.42652749189E+03  0.12699999809E+01 0.  1.
       -4    1    3    3    0  502  0.21186178355E+03 -0.24431992428E+03 -0.18234730176E+03  0.37125434959E+03  0.12699999809E+01 0. -1.
</event>
<event>
 5   0  0.3416160E-02  0.7796186E+03  0.7818609E-02  0.9589996E-01
       -2   -1    0    0    0  501  0.00000000000E+00  0.00000000000E+00  0.14204297866E+03  0.14204297868E+03  0.25500000920E-02 0.  1.
        2   -1    0    0  501    0  0.00000000000E+00  0.00000000000E+00 -0.10697555946E+04  0.10697555946E+04  0.25500000920E-02 0. -1.
    10030    2    1    2    0    0  0.00000000000E+00  0.00000000000E+00 -0.92771261592E+03  0.12117985733E+04  0.77961855060E+03 0.  0.
        1    1    3    3  502    0 -0.27911967743E+03  0.24768712200E+03 -0.63898496099E+03  0.73997194888E+03  0.50400001928E-02 0. -1.
       -1    1    3    3    0  502  0.27911967743E+03 -0.24768712200E+03 -0.28872765493E+03  0.47182662439E+03  0.50400001928E-02 0.  1.
</event>
<event>
 5   0  0.2132540E-02  0.8663663E+03  0.7818609E-02  0.9468630E-01
       -1   -1    0    0    0  501  0.00000000000E+00  0.00000000000E+00  0.29207156866E+03  0.29207156870E+03  0.50400001928E-02 0.  1.
        1   -1    0    0  501    0  0.00000000000E+00  0.00000000000E+00 -0.64247136979E+03  0.64247136981E+03  0.50400001928E-02 0. -1.
    10030    2    1    2    0    0  0.00000000000E+00  0.00000000000E+00 -0.35039980113E+03  0.93454293851E+03  0.86636625239E+03 0.  0.
        4    1    3    3  502    0 -0.57389874332E+01  0.17881184673E+03 -0.60075666768E+03  0.62683075800E+03  0.12699999809E+01 0. -1.
       -4    1    3    3    0  502  0.57389874332E+01 -0.17881184673E+03  0.25035686655E+03  0.30771218051E+03  0.12699999809E+01 0.  1.
</event>
<event>
 5   0  0.1989298E-02  0.8035994E+03  0.7818609E-02  0.9554822E-01
       -1   -1    0    0    0  501  0.00000000000E+00  0.00000000000E+00  0.89392563465E+03  0.89392563466E+03  0.50400001928E-02 0.  1.
        1   -1    0    0  501    0  0.00000000000E+00  0.00000000000E+00 -0.18060002869E+03  0.18060002876E+03  0.50400001928E-02 0. -1.
    10030    2    1    2    0    0  0.00000000000E+00  0.00000000000E+00  0.71332560596E+03  0.10745256634E+04  0.80359939102E+03 0.  0.
        1    1    3    3  502    0 -0.36692719243E+02  0.94339667486E+02  0.87659690332E+03  0.88242192824E+03  0.50400001928E-02 0.  1.
       -1    1    3    3    0  502  0.36692719243E+02 -0.94339667486E+02 -0.16327129736E+03  0.19210373519E+03  0.50400001928E-02 0. -1.
</event>
<event>
 5   0  0.2063692E-02  0.8052251E+03  0.7818609E-02  0.9552485E-01
       -1   -1    0    0    0  501  0.00000000000E+00  0.00000000000E+00  0.13291375807E+03  0.13291375817E+03  0.50400001928E-02 0.  1.
        1   -1    0    0  501    0  0.00000000000E+00  0.00000000000E+00 -0.12195643486E+04  0.12195643486E+04  0.50400001928E-02 0. -1.
    10030    2    1    2    0    0  0.00000000000E+00  0.00000000000E+00 -0.10866505905E+04  0.13524781068E+04  0.80522513835E+03 0.  0.
        2    1    3    3  502    0 -0.26465710075E+03 -0.11352722957E+03 -0.10159100567E+04  0.10559379983E+04  0.25500000920E-02 0. -1.
       -2    1    3    3    0  502  0.26465710075E+03  0.11352722957E+03 -0.70740533818E+02  0.29654010852E+03  0.25500000920E-02 0.  1.
</event>
<event>
 5   0  0.3416160E-02  0.7899498E+03  0.7818609E-02  0.9574679E-01
       -2   -1    0    0    0  501  0.00000000000E+00  0.00000000000E+00  0.20522738399E+03  0.20522738400E+03  0.25500000920E-02 0. -1.
        2   -1    0    0  501    0  0.00000000000E+00  0.00000000000E+00 -0.76015767655E+03  0.76015767656E+03  0.25500000920E-02 0.  1.
    10030    2    1    2    0    0  0.00000000000E+00  0.00000000000E+00 -0.55493029257E+03  0.96538506056E+03  0.78994979938E+03 0.  0.
        1    1    3    3  502    0  0.17424438273E+03  0.22177331674E+03  0.60459687451E+02  0.28844389882E+03  0.50400001928E-02 0. -1.
       -1    1    3    3    0  502 -0.17424438273E+03 -0.22177331674E+03 -0.61538998002E+03  0.67694116174E+03  0.50400001928E-02 0.  1.
</event>
<event>
 5   0  0.3404132E-02  0.7734318E+03  0.7818609E-02  0.9599290E-01
        2   -1    0    0  501    0  0.00000000000E+00  0.00000000000E+00  0.70719270672E+03  0.70719270672E+03  0.25500000920E-02 0.  1.
       -2   -1    0    0    0  501  0.00000000000E+00  0.00000000000E+00 -0.21146878108E+03  0.21146878110E+03  0.25500000920E-02 0. -1.
    10030    2    1    2    0    0  0.00000000000E+00  0.00000000000E+00  0.49572392564E+03  0.91866148782E+03  0.77343178029E+03 0.  0.
        5    1    3    3  502    0 -0.90171904332E+01  0.42944532739E+02 -0.20846796437E+03  0.21308806814E+03  0.46999998093E+01 0. -1.
       -5    1    3    3    0  502  0.90171904332E+01 -0.42944532739E+02  0.70419189001E+03  0.70557341969E+03  0.46999998093E+01 0.  1.
</event>
<event>
 5   0  0.2129257E-02  0.7970964E+03  0.7818609E-02  0.9564229E-01
        1   -1    0    0  501    0  0.00000000000E+00  0.00000000000E+00  0.80504534244E+03  0.80504534246E+03  0.50400001928E-02 0. -1.
       -1   -1    0    0    0  501  0.00000000000E+00  0.00000000000E+00 -0.19730649422E+03  0.19730649429E+03  0.50400001928E-02 0.  1.
    10030    2    1    2    0    0  0.00000000000E+00  0.00000000000E+00  0.60773884822E+03  0.10023518367E+04  0.79709641637E+03 0.  0.
        3    1    3    3  502    0 -0.18780310561E+03 -0.15620518364E+03 -0.92135695260E+02  0.26107290632E+03  0.10100000352E+00 0.  1.
       -3    1    3    3    0  502  0.18780310561E+03  0.15620518364E+03  0.69987454348E+03  0.74127893042E+03  0.10100000352E+00 0. -1.
</event>
<event>
 5   0  0.3343036E-02  0.8267124E+03  0.7818609E-02  0.9522137E-01
       -2   -1    0    0    0  501  0.00000000000E+00  0.00000000000E+00  0.24365137516E+03  0.24365137517E+03  0.25500000920E-02 0. -1.
        2   -1    0    0  501    0  0.00000000000E+00  0.00000000000E+00 -0.70126150120E+03  0.70126150120E+03  0.25500000920E-02 0.  1.
    10030    2    1    2    0    0  0.00000000000E+00  0.00000000000E+00 -0.45761012604E+03  0.94491287638E+03  0.82671235414E+03 0.  0.
        4    1    3    3  502    0 -0.13468902697E+03  0.11297166584E+03 -0.65640356995E+03  0.67953733585E+03  0.12699999809E+01 0.  1.
       -4    1    3    3    0  502  0.13468902697E+03 -0.11297166584E+03  0.19879344391E+03  0.26537554053E+03  0.12699999809E+01 0. -1.
</event>
<event>
 5   0  0.2132540E-02  0.7565553E+03  0.7818609E-02  0.9625122E-01
        1   -1    0    0  501    0  0.00000000000E+00  0.00000000000E+00  0.16752785785E+04  0.16752785785E+04  0.50400001928E-02 0.  1.
       -1   -1    0    0    0  501  0.00000000000E+00  0.00000000000E+00 -0.85415036680E+02  0.85415036829E+02  0.50400001928E-02 0. -1.
    10030    2    1    2    0    0  0.00000000000E+00  0.00000000000E+00  0.15898635418E+04  0.17606936154E+04  0.75655530233E+03 0.  0.
        4    1    3    3  502    0 -0.10434987766E+03  0.14402191541E+03  0.17960629976E+02  0.17876075132E+03  0.12699999809E+01 0. -1.
       -4    1    3    3    0  502  0.10434987766E+03 -0.14402191541E+03  0.15719029119E+04  0.15819328640E+04  0.12699999809E+01 0.  1.
</event>
<event>
 5   0  0.2077795E-02  0.7801727E+03  0.7818609E-02  0.9589168E-01
       -1   -1    0    0    0  501  0.00000000000E+00  0.00000000000E+00  0.76563041723E+03  0.76563041725E+03  0.50400001928E-02 0.  1.
        1   -1    0    0  501    0  0.00000000000E+00  0.00000000000E+00 -0.19874777409E+03  0.19874777416E+03  0.50400001928E-02 0. -1.
    10030    2    1    2    0    0  0.00000000000E+00  0.00000000000E+00  0.56688264314E+03  0.96437819140E+03  0.78017265074E+03 0.  0.
        5    1    3    3  502    0  0.29663269672E+03 -0.25087521450E+03  0.24033813489E+03  0.45685209761E+03  0.46999998093E+01 0.  1.
       -5    1    3    3    0  502 -0.29663269672E+03  0.25087521450E+03  0.32654450825E+03  0.50752609379E+03  0.46999998093E+01 0. -1.
</event>
<event>
 5   0  0.2063692E-02  0.8172204E+03  0.7818609E-02  0.9535420E-01
        1   -1    0    0  501    0  0.00000000000E+00  0.00000000000E+00  0.28953537692E+03  0.28953537696E+03  0.50400001928E-02 0. -1.
       -1   -1    0    0    0  501  0.00000000000E+00  0.00000000000E+00 -0.57665589206E+03  0.57665589208E+03  0.50400001928E-02 0.  1.
    10030    2    1    2    0    0  0.00000000000E+00  0.00000000000E+00 -0.28712051514E+03  0.86619126904E+03  0.81722036462E+03 0.  0.
        2    1    3    3  502    0 -0.18065411442E+03  0.35390972565E+03 -0.42592975814E+02  0.39962753228E+03  0.25500000920E-02 0. -1.
       -2    1    3    3    0  502  0.18065411442E+03 -0.35390972565E+03 -0.24452753933E+03  0.46656373676E+03  0.25500000920E-02 0.  1.
</event>
<event>
 5   0  0.2063692E-02  0.7971663E+03  0.7818609E-02  0.9564128E-01
       -1   -1    0    0    0  501  0.00000000000E+00  0.00000000000E+00  0.92203839224E+03  0.92203839226E+03  0.50400001928E-02 0.  1.
        1   -1    0    0  501    0  0.00000000000E+00  0.00000000000E+00 -0.17230143561E+03  0.17230143569E+03  0.50400001928E-02 0. -1.
    10030    2    1    2    0    0  0.00000000000E+00  0.00000000000E+00  0.74973695663E+03  0.10943398279E+04  0.79716632825E+03 0.  0.
        2    1    3    3  502    0 -0.10411887565E+03 -0.46961575436E+02 -0.14935370324E+03  0.18802302655E+03  0.25500000920E-02 0. -1.
       -2    1    3    3    0  502  0.10411887565E+03  0.46961575436E+02  0.89909065986E+03  0.90631680140E+03  0.25500000920E-02 0.  1.
</event>
<event>
 5   0  0.2077795E-02  0.7862620E+03  0.7818609E-02  0.9580118E-01
        1   -1    0    0  501    0  0.00000000000E+00  0.00000000000E+00  0.81506195161E+03  0.81506195162E+03  0.50400001928E-02 0.  1.
       -1   -1    0    0    0  501  0.00000000000E+00  0.00000000000E+00 -0.18961989847E+03  0.18961989854E+03  0.50400001928E-02 0. -1.
    10030    2    1    2    0    0  0.00000000000E+00  0.00000000000E+00  0.62544205314E+03  0.10046818502E+04  0.78626195266E+03 0.  0.
        5    1    3    3  502    0 -0.11694886630E+03 -0.65115447641E+02  0.78500914219E+03  0.79635325213E+03  0.46999998093E+01 0.  1.
       -5    1    3    3    0  502  0.11694886630E+03  0.65115447641E+02 -0.15956708905E+03  0.20832859803E+03  0.46999998093E+01 0. -1.
</event>
<event>
 5   0  0.2077795E-02  0.8151420E+03  0.7818609E-02  0.9538355E-01
        1   -1    0    0  501    0  0.00000000000E+00  0.00000000000E+00  0.10438868949E+03  0.10438868961E+03  0.50400001928E-02 0. -1.
       -1   -1    0    0    0  501  0.00000000000E+00  0.00000000000E+00 -0.15913038184E+04  0.15913038184E+04  0.50400001928E-02 0.  1.
    10030    2    1    2    0    0  0.00000000000E+00  0.00000000000E+00 -0.14869151289E+04  0.16956925080E+04  0.81514200061E+03 0.  0.
        5    1    3    3  502    0 -0.15469678687E+03 -0.25341347342E+03 -0.13242234852E+04  0.13571070014E+04  0.46999998093E+01 0.  1.
       -5    1    3    3    0  502  0.15469678687E+03  0.25341347342E+03 -0.16269164368E+03  0.33858550663E+03  0.46999998093E+01 0. -1.
</event>
<event>
 5   0  0.2063692E-02  0.7914780E+03  0.7818609E-02  0.9572435E-01
       -1   -1    0    0    0  501  0.00000000000E+00  0.00000000000E+00  0.16148879796E+03  0.16148879804E+03  0.50400001928E-02 0.  1.
        1   -1    0    0  501    0  0.00000000000E+00  0.00000000000E+00 -0.96978470076E+03  0.96978470077E+03  0.50400001928E-02 0. -1.
    10030    2    1    2    0    0  0.00000000000E+00  0.00000000000E+00 -0.80829590279E+03  0.11312734988E+04  0.79147802410E+03 0.  0.
        2    1    3    3  502    0 -0.25189188101E+03 -0.21194625231E+03 -0.90222704535E+02  0.34133688638E+03  0.25500000920E-02 0.  1.
       -2    1    3    3    0  502  0.25189188101E+03  0.21194625231E+03 -0.71807319826E+03  0.78993661243E+03  0.25500000920E-02 0. -1.
</event>
<event>
 5   0  0.1358000E-02  0.7985788E+03  0.7818609E-02  0.9562077E-01
        4   -1    0    0  501    0  0.00000000000E+00  0.00000000000E+00  0.12554575844E+04  0.12554582267E+04  0.12699999809E+01 0. -1.
       -4   -1    0    0    0  501  0.00000000000E+00  0.00000000000E+00 -0.12698730286E+03  0.12699365334E+03  0.12699999809E+01 0.  1.
    10030    2    1    2    0    0  0.00000000000E+00  0.00000000000E+00  0.11284702815E+04  0.13824518801E+04  0.79857875282E+03 0.  0.
        5    1    3    3  502    0 -0.22862354851E+03  0.16212933709E+03  0.10564859410E+04  0.10930412995E+04  0.46999998093E+01 0. -1.
       -5    1    3    3    0  502  0.22862354851E+03 -0.16212933709E+03  0.71984340525E+02  0.28941058059E+03  0.46999998093E+01 0.  1.
</event>
<event>
 5   0  0.1358000E-02  0.6174120E+03  0.7818609E-02  0.9869926E-01
       -4   -1    0    0    0  501  0.00000000000E+00  0.00000000000E+00  0.10638923622E+04  0.10638931202E+04  0.12699999809E+01 0.  1.
        4   -1    0    0  501    0  0.00000000000E+00  0.00000000000E+00 -0.89570858837E+02  0.89579861871E+02  0.12699999809E+01 0. -1.
    10030    2    1    2    0    0  0.00000000000E+00  0.00000000000E+00  0.97432150335E+03  0.11534729821E+04  0.61741196011E+03 0.  0.
        4    1    3    3  502    0  0.23874741685E+03 -0.19315781949E+03  0.54586915481E+03  0.62632660757E+03  0.12699999809E+01 0. -1.
       -4    1    3    3    0  502 -0.23874741685E+03  0.19315781949E+03  0.42845234854E+03  0.52714637451E+03  0.12699999809E+01 0.  1.
</event>
<event>
 5   0  0.3416160E-02  0.8080688E+03  0.7818609E-02  0.9548411E-01
       -2   -1    0    0    0  501  0.00000000000E+00  0.00000000000E+00  0.14399764184E+03  0.14399764186E+03  0.25500000920E-02 0.  1.
        2   -1    0    0  501    0  0.00000000000E+00  0.00000000000E+00 -0.11336561182E+04  0.11336561182E+04  0.25500000920E-02 0. -1.
    10030    2    1    2    0    0  0.00000000000E+00  0.00000000000E+00 -0.98965847633E+03  0.12776537600E+04  0.80806882799E+03 0.  0.
        1    1    3    3  502    0  0.28381889338E+03  0.69717385914E+02 -0.93593090636E+03  0.98050004571E+03  0.50400001928E-02 0. -1.
       -1    1    3    3    0  502 -0.28381889338E+03 -0.69717385914E+02 -0.53727569974E+02  0.29715371433E+03  0.50400001928E-02 0.  1.
</event>
<event>
 5   0  0.2077795E-02  0.7788879E+03  0.7818609E-02  0.9591089E-01
        1   -1    0    0  501    0  0.00000000000E+00  0.00000000000E+00  0.35880841953E+03  0.35880841957E+03  0.50400001928E-02 0.  1.
       -1   -1    0    0    0  501  0.00000000000E+00  0.00000000000E+00 -0.42269519435E+03  0.42269519438E+03  0.50400001928E-02 0. -1.
    10030    2    1    2    0    0  0.00000000000E+00  0.00000000000E+00 -0.63886774823E+02  0.78150361395E+03  0.77888791146E+03 0.  0.
        5    1    3    3  502    0  0.29529214783E+02 -0.15301765746E+02 -0.42123913071E+03  0.42257616332E+03  0.46999998093E+01 0. -1.
       -5    1    3    3    0  502 -0.29529214783E+02  0.15301765746E+02  0.35735235589E+03  0.35892745064E+03  0.46999998093E+01 0.  1.
</event>
<event>
 5   0  0.2063692E-02  0.7962131E+03  0.7818609E-02  0.9565515E-01
       -1   -1    0    0    0  501  0.00000000000E+00  0.00000000000E+00  0.19868044620E+03  0.19868044626E+03  0.50400001928E-02 0. -1.
        1   -1    0    0  501    0  0.00000000000E+00  0.00000000000E+00 -0.79770714109E+03  0.79770714111E+03  0.50400001928E-02 0.  1.
    10030    2    1    2    0    0  0.00000000000E+00  0.00000000000E+00 -0.59902669490E+03  0.99638758737E+03  0.79621306386E+03 0.  0.
        2    1    3    3  502    0 -0.12794476473E+03  0.14483747832E+03  0.13604333527E+03  0.23633778163E+03  0.25500000920E-02 0. -1.
       -2    1    3    3    0  502  0.12794476473E+03 -0.14483747832E+03 -0.73507003017E+03  0.76004980574E+03  0.25500000920E-02 0.  1.
</event>
<event>
 5   0  0.1989298E-02  0.8047768E+03  0.7818609E-02  0.9553129E-01
        1   -1    0    0  501    0  0.00000000000E+00  0.00000000000E+00  0.17669018373E+03  0.17669018380E+03  0.50400001928E-02 0. -1.
       -1   -1    0    0    0  501  0.00000000000E+00  0.00000000000E+00 -0.91638596520E+03  0.91638596522E+03  0.50400001928E-02 0.  1.
    10030    2    1    2    0    0  0.00000000000E+00  0.00000000000E+00 -0.73969578147E+03  0.10930761490E+04  0.80477675068E+03 0.  0.
        1    1    3    3  502    0  0.26114558494E+03  0.98392941233E+02  0.23895622302E+02  0.28008782231E+03  0.50400001928E-02 0. -1.
       -1    1    3    3    0  502 -0.26114558494E+03 -0.98392941233E+02 -0.76359140377E+03  0.81298832671E+03  0.50400001928E-02 0.  1.
</event>
<event>
 5   0  0.3404132E-02  0.7825607E+03  0.7818609E-02  0.9585608E-01
       -2   -1    0    0    0  501  0.00000000000E+00  0.00000000000E+00  0.12844090281E+03  0.12844090284E+03  0.25500000920E-02 0.  1.
        2   -1    0    0  501    0  0.00000000000E+00  0.00000000000E+00 -0.11919904066E+04  0.11919904066E+04  0.25500000920E-02 0. -1.
    10030    2    1    2    0    0  0.00000000000E+00  0.00000000000E+00 -0.10635495037E+04  0.13204313094E+04  0.78256072986E+03 0.  0.
        5    1    3    3  502    0 -0.36990912766E+02  0.33615535412E+03 -0.86375057434E+03  0.92760761877E+03  0.46999998093E+01 0. -1.
       -5    1    3    3    0  502  0.36990912766E+02 -0.33615535412E+03 -0.19979892941E+03  0.39282369063E+03  0.46999998093E+01 0.  1.
</event>
<event>
 5   0  0.3404132E-02  0.7995727E+03  0.7818609E-02  0.9560636E-01
        2   -1    0    0  501    0  0.00000000000E+00  0.00000000000E+00  0.57226549637E+03  0.57226549638E+03  0.25500000920E-02 0.  1.
       -2   -1    0    0    0  501  0.00000000000E+00  0.00000000000E+00 -0.27929191236E+03  0.27929191237E+03  0.25500000920E-02 0. -1.
    10030    2    1    2    0    0  0.00000000000E+00  0.00000000000E+00  0.29297358401E+03  0.85155740875E+03  0.79957269805E+03 0.  0.
        5    1    3    3  502    0  0.18512610421E+03  0.35427988333E+03  0.15138177264E+03  0.42746279520E+03  0.46999998093E+01 0. -1.
       -5    1    3    3    0  502 -0.18512610421E+03 -0.35427988333E+03  0.14159181137E+03  0.42409461355E+03  0.46999998093E+01 0.  1.
</event>
<event>
 5   0  0.3343036E-02  0.7883891E+03  0.7818609E-02  0.9576977E-01
       -2   -1    0    0    0  501  0.00000000000E+00  0.00000000000E+00  0.70005991274E+03  0.70005991275E+03  0.25500000920E-02 0. -1.
        2   -1    0    0  501    0  0.00000000000E+00  0.00000000000E+00 -0.22196577000E+03  0.22196577001E+03  0.25500000920E-02 0.  1.
    10030    2    1    2    0    0  0.00000000000E+00  0.00000000000E+00  0.47809414274E+03  0.92202568276E+03  0.78838908563E+03 0.  0.
        4    1    3    3  502    0 -0.21602477180E+03  0.24942026728E+03  0.49126628441E+03  0.59179502098E+03  0.12699999809E+01 0. -1.
       -4    1    3    3    0  502  0.21602477180E+03 -0.24942026728E+03 -0.13172141670E+02  0.33023066178E+03  0.12699999809E+01 0.  1.
</event>
<event>
 5   0  0.2077795E-02  0.7971848E+03  0.7818609E-02  0.9564101E-01
        1   -1    0    0  501    0  0.00000000000E+00  0.00000000000E+00  0.54378441907E+03  0.54378441909E+03  0.50400001928E-02 0. -1.
       -1   -1    0    0    0  501  0.00000000000E+00  0.00000000000E+00 -0.29216710777E+03  0.29216710781E+03  0.50400001928E-02 0.  1.
    10030    2    1    2    0    0  0.00000000000E+00  0.00000000000E+00  0.25161731130E+03  0.83595152691E+03  0.79718484932E+03 0.  0.
        5    1    3    3  502    0  0.21338288219E+02 -0.38616986977E+03  0.22677887884E+03  0.44836730562E+03  0.46999998093E+01 0. -1.
       -5    1    3    3    0  502 -0.21338288219E+02  0.38616986977E+03  0.24838432459E+02  0.38758422129E+03  0.46999998093E+01 0.  1.
</event>
<event>
 5   0  0.3467240E-02  0.8101474E+03  0.7818609E-02  0.9545444E-01
       -2   -1    0    0    0  501  0.00000000000E+00  0.00000000000E+00  0.29162042742E+03  0.29162042743E+03  0.25500000920E-02 0. -1.
        2   -1    0    0  501    0  0.00000000000E+00  0.00000000000E+00 -0.56266536825E+03  0.56266536826E+03  0.25500000920E-02 0.  1.
    10030    2    1    2    0    0  0.00000000000E+00  0.00000000000E+00 -0.27104494083E+03  0.85428579569E+03  0.81014743150E+03 0.  0.
        2    1    3    3  502    0 -0.21674539221E+03  0.26443837139E+03 -0.36456238893E+03  0.49981191736E+03  0.25500000920E-02 0.  1.
       -2    1    3    3    0  502  0.21674539221E+03 -0.26443837139E+03  0.93517448096E+02  0.35447387832E+03  0.25500000920E-02 0. -1.
</event>
<event>
 5   0  0.2063692E-02  0.8028234E+03  0.7818609E-02  0.9555939E-01
        1   -1    0    0  501    0  0.00000000000E+00  0.00000000000E+00  0.20517714755E+03  0.20517714761E+03  0.50400001928E-02 0. -1.
       -1   -1    0    0    0  501  0.00000000000E+00  0.00000000000E+00 -0.78532795134E+03  0.78532795135E+03  0.50400001928E-02 0.  1.
    10030    2    1    2    0    0  0.00000000000E+00  0.00000000000E+00 -0.58015080379E+03  0.99050509896E+03  0.80282339025E+03 0.  0.
        2    1    3    3  502    0 -0.23443365080E+03  0.76246192797E+02  0.10077834330E+03  0.26632478861E+03  0.25500000920E-02 0. -1.
       -2    1    3    3    0  502  0.23443365080E+03 -0.76246192797E+02 -0.68092914709E+03  0.72418031035E+03  0.25500000920E-02 0.  1.
</event>
<event>
 5   0  0.3467240E-02  0.7961942E+03  0.7818609E-02  0.9565542E-01
       -2   -1    0    0    0  501  0.00000000000E+00  0.00000000000E+00  0.54818240609E+02  0.54818240669E+02  0.25500000920E-02 0.  1.
        2   -1    0    0  501    0  0.00000000000E+00  0.00000000000E+00 -0.28910323815E+04  0.28910323815E+04  0.25500000920E-02 0. -1.
    10030    2    1    2    0    0  0.00000000000E+00  0.00000000000E+00 -0.28362141409E+04  0.29458506222E+04  0.79619421949E+03 0.  0.
        2    1    3    3  502    0  0.49077186991E+02  0.38672957168E+03 -0.17167013403E+04  0.17604067211E+04  0.25500000920E-02 0. -1.
       -2    1    3    3    0  502 -0.49077186991E+02 -0.38672957168E+03 -0.11195128006E+04  0.11854439011E+04  0.25500000920E-02 0.  1.
</event>
<event>
 5   0  0.2077795E-02  0.7842219E+03  0.7818609E-02  0.9583140E-01
        1   -1    0    0  501    0  0.00000000000E+00  0.00000000000E+00  0.40442745109E+03  0.40442745113E+03  0.50400001928E-02 0.  1.
       -1   -1    0    0    0  501  0.00000000000E+00  0.00000000000E+00 -0.38016956684E+03  0.38016956688E+03  0.50400001928E-02 0. -1.
    10030    2    1    2    0    0  0.00000000000E+00  0.00000000000E+00  0.24257884253E+02  0.78459701800E+03  0.78422193014E+03 0.  0.
        5    1    3    3  502    0 -0.68940996755E+02  0.21143888542E+03 -0.31093362515E+03  0.38231017845E+03  0.46999998093E+01 0. -1.
       -5    1    3    3    0  502  0.68940996755E+02 -0.21143888542E+03  0.33519150940E+03  0.40228683955E+03  0.46999998093E+01 0.  1.
</event>
<event>
 5   0  0.3343036E-02  0.7435654E+03  0.7818609E-02  0.9645500E-01
        2   -1    0    0  501    0  0.00000000000E+00  0.00000000000E+00  0.41935796900E+03  0.41935796900E+03  0.25500000920E-02 0. -1.
       -2   -1    0    0    0  501  0.00000000000E+00  0.00000000000E+00 -0.32960476719E+03  0.32960476720E+03  0.25500000920E-02 0.  1.
    10030    2    1    2    0    0  0.00000000000E+00  0.00000000000E+00  0.89753201809E+02  0.74896273620E+03  0.74356542616E+03 0.  0.
        4    1    3    3  502    0 -0.25148938422E+03  0.38014998133E+02  0.31800668116E+03  0.40721236796E+03  0.12699999809E+01 0. -1.
       -4    1    3    3    0  502  0.25148938422E+03 -0.38014998133E+02 -0.22825347935E+03  0.34175036824E+03  0.12699999809E+01 0.  1.
</event>
<event>
 5   0  0.1989298E-02  0.7956958E+03  0.7818609E-02  0.9566268E-01
       -1   -1    0    0    0  501  0.00000000000E+00  0.00000000000E+00  0.15170002567E+03  0.15170002575E+03  0.50400001928E-02 0. -1.
        1   -1    0    0  501    0  0.00000000000E+00  0.00000000000E+00 -0.10433943085E+04  0.10433943085E+04  0.50400001928E-02 0.  1.
    10030    2    1    2    0    0  0.00000000000E+00  0.00000000000E+00 -0.89169428279E+03  0.11950943342E+04  0.79569577964E+03 0.  0.
        1    1    3    3  502    0 -0.33573351883E+02  0.36775945460E+03 -0.66815970265E+03  0.76342096819E+03  0.50400001928E-02 0.  1.
       -1    1    3    3    0  502  0.33573351883E+02 -0.36775945460E+03 -0.22353458014E+03  0.43167336603E+03  0.50400001928E-02 0. -1.
</event>
<event>
 5   0  0.2077795E-02  0.7767587E+03  0.7818609E-02  0.9594281E-01
       -1   -1    0    0    0  501  0.00000000000E+00  0.00000000000E+00  0.17880970197E+03  0.17880970205E+03  0.50400001928E-02 0. -1.
        1   -1    0    0  501    0  0.00000000000E+00  0.00000000000E+00 -0.84357020837E+03  0.84357020838E+03  0.50400001928E-02 0.  1.
    10030    2    1    2    0    0  0.00000000000E+00  0.00000000000E+00 -0.66476050639E+03  0.10223799104E+04  0.77675874658E+03 0.  0.
        5    1    3    3  502    0  0.18531490017E+03 -0.23363217153E+03 -0.49345041599E+01  0.29828181830E+03  0.46999998093E+01 0. -1.
       -5    1    3    3    0  502 -0.18531490017E+03  0.23363217153E+03 -0.65982600223E+03  0.72409809213E+03  0.46999998093E+01 0.  1.
</event>
<event>
 5   0  0.2132540E-02  0.7937033E+03  0.7818609E-02  0.9569176E-01
        1   -1    0    0  501    0  0.00000000000E+00  0.00000000000E+00  0.42286938536E+03  0.42286938539E+03  0.50400001928E-02 0.  1.
       -1   -1    0    0    0  501  0.00000000000E+00  0.00000000000E+00 -0.37243466763E+03  0.37243466766E+03  0.50400001928E-02 0. -1.
    10030    2    1    2    0    0  0.00000000000E+00  0.00000000000E+00  0.50434717732E+02  0.79530405305E+03  0.79370326700E+03 0.  0.
        4    1    3    3  502    0  0.18185747156E+03  0.21419567935E+03 -0.25559360087E+03  0.37984421901E+03  0.12699999809E+01 0. -1.
       -4    1    3    3    0  502 -0.18185747156E+03 -0.21419567935E+03  0.30602831860E+03  0.41545983404E+03  0.12699999809E+01 0.  1.
</event>
<event>
 5   0  0.3467240E-02  0.7973296E+03  0.7818609E-02  0.9563890E-01
       -2   -1    0    0    0  501  0.00000000000E+00  0.00000000000E+00  0.85177168387E+02  0.85177168425E+02  0.25500000920E-02 0.  1.
        2   -1    0    0  501    0  0.00000000000E+00  0.00000000000E+00 -0.18659182189E+04  0.18659182189E+04  0.25500000920E-02 0. -1.
    10030    2    1    2    0    0  0.00000000000E+00  0.00000000000E+00 -0.17807410505E+04  0.19510953873E+04  0.79732961908E+03 0.  0.
        2    1    3    3  502    0 -0.10320076728E+02 -0.39015261027E+03 -0.10892902392E+04  0.11570992993E+04  0.25500000920E-02 0. -1.
       -2    1    3    3    0  502  0.10320076728E+02  0.39015261027E+03 -0.69145081132E+03  0.79399608801E+03  0.25500000920E-02 0.  1.
</event>
<event>
 5   0  0.3550586E-02  0.7945222E+03  0.7818609E-02  0.9567980E-01
       -2   -1    0    0    0  501  0.00000000000E+00  0.00000000000E+00  0.56742788707E+03  0.56742788707E+03  0.25500000920E-02 0. -1.
        2   -1    0    0  501    0  0.00000000000E+00  0.00000000000E+00 -0.27812587855E+03  0.27812587856E+03  0.25500000920E-02 0.  1.
    10030    2    1    2    0    0  0.00000000000E+00  0.00000000000E+00  0.28930200852E+03  0.84555376563E+03  0.79452219506E+03 0.  0.
        3    1    3    3  502    0  0.18816476631E+03  0.88749203351E+02 -0.21551469474E+03  0.29954798318E+03  0.10100000352E+00 0.  1.
       -3    1    3    3    0  502 -0.18816476631E+03 -0.88749203351E+02  0.50481670326E+03  0.54600578245E+03  0.10100000352E+00 0. -1.
</event>
<event>
 5   0  0.2077795E-02  0.7980433E+03  0.7818609E-02  0.9562854E-01
        1   -1    0    0  501    0  0.00000000000E+00  0.00000000000E+00  0.57433190426E+03  0.57433190428E+03  0.50400001928E-02 0. -1.
       -1   -1    0    0    0  501  0.00000000000E+00  0.00000000000E+00 -0.27722343072E+03  0.27722343076E+03  0.50400001928E-02 0.  1.
    10030    2    1    2    0    0  0.00000000000E+00  0.00000000000E+00  0.29710847354E+03  0.85155533504E+03  0.79804325922E+03 0.  0.
        5    1    3    3  502    0 -0.32852333647E+03  0.22434323762E+03  0.18124686648E+03  0.43718415740E+03  0.46999998093E+01 0. -1.
       -5    1    3    3    0  502  0.32852333647E+03 -0.22434323762E+03  0.11586160706E+03  0.41437117764E+03  0.46999998093E+01 0.  1.
</event>
<event>
 5   0  0.3404132E-02  0.7766476E+03  0.7818609E-02  0.9594448E-01
        2   -1    0    0  501    0  0.00000000000E+00  0.00000000000E+00  0.33304404830E+03  0.33304404831E+03  0.25500000920E-02 0.  1.
       -2   -1    0    0    0  501  0.00000000000E+00  0.00000000000E+00 -0.45277903631E+03  0.45277903632E+03  0.25500000920E-02 0. -1.
    10030    2    1    2    0    0  0.00000000000E+00  0.00000000000E+00 -0.11973498801E+03  0.78582308462E+03  0.77664757321E+03 0.  0.
        5    1    3    3  502    0  0.14401060425E+03 -0.27434945317E+03  0.17691995016E+03  0.35683250322E+03  0.46999998093E+01 0.  1.
       -5    1    3    3    0  502 -0.14401060425E+03  0.27434945317E+03 -0.29665493817E+03  0.42899058140E+03  0.46999998093E+01 0. -1.
</event>
<event>
 5   0  0.3404132E-02  0.8585522E+03  0.7818609E-02  0.9478930E-01
       -2   -1    0    0    0  501  0.00000000000E+00  0.00000000000E+00  0.23336414523E+03  0.23336414524E+03  0.25500000920E-02 0. -1.
        2   -1    0    0  501    0  0.00000000000E+00  0.00000000000E+00 -0.78965850152E+03  0.78965850153E+03  0.25500000920E-02 0.  1.
    10030    2    1    2    0    0  0.00000000000E+00  0.00000000000E+00 -0.55629435629E+03  0.10230226468E+04  0.85855222611E+03 0.  0.
        5    1    3    3  502    0  0.13280198154E+03  0.39615323437E+03 -0.39539484373E+03  0.57526769756E+03  0.46999998093E+01 0.  1.
       -5    1    3    3    0  502 -0.13280198154E+03 -0.39615323437E+03 -0.16089951256E+03  0.44775494921E+03  0.46999998093E+01 0. -1.
</event>
<event>
 5   0  0.3404132E-02  0.8079539E+03  0.7818609E-02  0.9548575E-01
       -2   -1    0    0    0  501  0.00000000000E+00  0.00000000000E+00  0.33800046212E+03  0.33800046213E+03  0.25500000920E-02 0. -1.
        2   -1    0    0  501    0  0.00000000000E+00  0.00000000000E+00 -0.48283182205E+03  0.48283182205E+03  0.25500000920E-02 0.  1.
    10030    2    1    2    0    0  0.00000000000E+00  0.00000000000E+00 -0.14483135992E+03  0.82083228418E+03  0.80795390707E+03 0.  0.
        5    1    3    3  502    0 -0.15854813725E+03  0.29470233385E+03  0.15743894480E+03  0.36985955273E+03  0.46999998093E+01 0. -1.
       -5    1    3    3    0  502  0.15854813725E+03 -0.29470233385E+03 -0.30227030472E+03  0.45097273146E+03  0.46999998093E+01 0.  1.
</event>
<event>
 5   0  0.2132540E-02  0.7949482E+03  0.7818609E-02  0.9567358E-01
        1   -1    0    0  501    0  0.00000000000E+00  0.00000000000E+00  0.22406512292E+03  0.22406512298E+03  0.50400001928E-02 0. -1.
       -1   -1    0    0    0  501  0.00000000000E+00  0.00000000000E+00 -0.70508814956E+03  0.70508814958E+03  0.50400001928E-02 0.  1.
    10030    2    1    2    0    0  0.00000000000E+00  0.00000000000E+00 -0.48102302664E+03  0.92915327256E+03  0.79494820696E+03 0.  0.
        4    1    3    3  502    0 -0.16157389172E+03  0.22049039386E+03 -0.57777686045E+03  0.63917904349E+03  0.12699999809E+01 0.  1.
       -4    1    3    3    0  502  0.16157389172E+03 -0.22049039386E+03  0.96753833807E+02  0.28997422907E+03  0.12699999809E+01 0. -1.
</event>
<event>
 5   0  0.3343036E-02  0.8004695E+03  0.7818609E-02  0.9559338E-01
       -2   -1    0    0    0  501  0.00000000000E+00  0.00000000000E+00  0.14089644746E+03  0.14089644749E+03  0.25500000920E-02 0. -1.
        2   -1    0    0  501    0  0.00000000000E+00  0.00000000000E+00 -0.11369189813E+04  0.11369189813E+04  0.25500000920E-02 0.  1.
    10030    2    1    2    0    0  0.00000000000E+00  0.00000000000E+00 -0.99602253386E+03  0.12778154288E+04  0.80046947609E+03 0.  0.
        4    1    3    3  502    0  0.10558662120E+03 -0.29694616843E+03 -0.89182578308E+03  0.94587546844E+03  0.12699999809E+01 0.  1.
       -4    1    3    3    0  502 -0.10558662120E+03  0.29694616843E+03 -0.10419675078E+03  0.33193996037E+03  0.12699999809E+01 0. -1.
</event>
<event>
 5   0  0.1989298E-02  0.8170290E+03  0.7818609E-02  0.9535690E-01
       -1   -1    0    0    0  501  0.00000000000E+00  0.00000000000E+00  0.17855686185E+03  0.17855686192E+03  0.50400001928E-02 0. -1.
        1   -1    0    0  501    0  0.00000000000E+00  0.00000000000E+00 -0.93462709880E+03  0.93462709881E+03  0.50400001928E-02 0.  1.
    10030    2    1    2    0    0  0.00000000000E+00  0.00000000000E+00 -0.75607023695E+03  0.11131839607E+04  0.81702896351E+03 0.  0.
        1    1    3    3  502    0 -0.21937629838E+03  0.41575172008E+02  0.88063051027E+02  0.24001990792E+03  0.50400001928E-02 0. -1.
       -1    1    3    3    0  502  0.21937629838E+03 -0.41575172008E+02 -0.84413328798E+03  0.87316405281E+03  0.50400001928E-02 0.  1.
</event>
<event>
 5   0  0.1358000E-02  0.7556363E+03  0.7818609E-02  0.9626549E-01
        3   -1    0    0  501    0  0.00000000000E+00  0.00000000000E+00  0.24284351814E+04  0.24284351835E+04  0.10100000352E+00 0. -1.
       -3   -1    0    0    0  501  0.00000000000E+00  0.00000000000E+00 -0.58781247462E+02  0.58781334233E+02  0.10100000352E+00 0.  1.
    10030    2    1    2    0    0  0.00000000000E+00  0.00000000000E+00  0.23696539340E+04  0.24872165178E+04  0.75563631428E+03 0.  0.
        3    1    3    3  502    0 -0.20610125961E+03 -0.23460625600E+03  0.48481100146E+03  0.57667975680E+03  0.10100000352E+00 0. -1.
       -3    1    3    3    0  502  0.20610125961E+03  0.23460625600E+03  0.18848429325E+04  0.19105367610E+04  0.10100000352E+00 0.  1.
</event>
<event>
 5   0  0.1989298E-02  0.9554653E+03  0.7818609E-02  0.9358785E-01
       -1   -1    0    0    0  501  0.00000000000E+00  0.00000000000E+00  0.27372053261E+03  0.27372053266E+03  0.50400001928E-02 0. -1.
        1   -1    0    0  501    0  0.00000000000E+00  0.00000000000E+00 -0.83380113203E+03  0.83380113204E+03  0.50400001928E-02 0.  1.
    10030    2    1    2    0    0  0.00000000000E+00  0.00000000000E+00 -0.56008059942E+03  0.11075216647E+04  0.95546531069E+03 0.  0.
        1    1    3    3  502    0 -0.20369508699E+03  0.18689572465E+03 -0.73167042615E+03  0.78215299838E+03  0.50400001928E-02 0.  1.
       -1    1    3    3    0  502  0.20369508699E+03 -0.18689572465E+03  0.17158982673E+03  0.32536866631E+03  0.50400001928E-02 0. -1.
</event>
<event>
 5   0  0.2063692E-02  0.7976110E+03  0.7818609E-02  0.9563482E-01
        1   -1    0    0  501    0  0.00000000000E+00  0.00000000000E+00  0.55939496357E+03  0.55939496359E+03  0.50400001928E-02 0.  1.
       -1   -1    0    0    0  501  0.00000000000E+00  0.00000000000E+00 -0.28431757445E+03  0.28431757450E+03  0.50400001928E-02 0. -1.
    10030    2    1    2    0    0  0.00000000000E+00  0.00000000000E+00  0.27507738912E+03  0.84371253809E+03  0.79761098095E+03 0.  0.
        2    1    3    3  502    0  0.79477174969E+02 -0.37747649802E+03  0.24458409633E+03  0.45675650853E+03  0.25500000920E-02 0.  1.
       -2    1    3    3    0  502 -0.79477174969E+02  0.37747649802E+03  0.30493292788E+02  0.38695602956E+03  0.25500000920E-02 0. -1.
</event>
<event>
 5   0  0.3343036E-02  0.8220071E+03  0.7818609E-02  0.9528698E-01
        2   -1    0    0  501    0  0.00000000000E+00  0.00000000000E+00  0.10539486003E+04  0.10539486003E+04  0.25500000920E-02 0. -1.
       -2   -1    0    0    0  501  0.00000000000E+00  0.00000000000E+00 -0.16027717821E+03  0.16027717823E+03  0.25500000920E-02 0.  1.
    10030    2    1    2    0    0  0.00000000000E+00  0.00000000000E+00  0.89367142207E+03  0.12142257785E+04  0.82200707452E+03 0.  0.
        4    1    3    3  502    0 -0.13476356511E+03 -0.13989175274E+03 -0.88192316883E+02  0.21333171031E+03  0.12699999809E+01 0.  1.
       -4    1    3    3    0  502  0.13476356511E+03  0.13989175274E+03  0.98186373896E+03  0.10008940682E+04  0.12699999809E+01 0. -1.
</event>
<event>
 5   0  0.2132540E-02  0.8613588E+03  0.7818609E-02  0.9475217E-01
        1   -1    0    0  501    0  0.00000000000E+00  0.00000000000E+00  0.66086393801E+03  0.66086393803E+03  0.50400001928E-02 0.  1.
       -1   -1    0    0    0  501  0.00000000000E+00  0.00000000000E+00 -0.28067009165E+03  0.28067009169E+03  0.50400001928E-02 0. -1.
    10030    2    1    2    0    0  0.00000000000E+00  0.00000000000E+00  0.38019384637E+03  0.94153402973E+03  0.86135879186E+03 0.  0.
        4    1    3    3  502    0  0.11767579948E+03  0.40911968453E+03  0.11878135830E+03  0.44196960759E+03  0.12699999809E+01 0. -1.
       -4    1    3    3    0  502 -0.11767579948E+03 -0.40911968453E+03  0.26141248807E+03  0.49956442214E+03  0.12699999809E+01 0.  1.
</event>
<event>
 5   0  0.1989298E-02  0.7853392E+03  0.7818609E-02  0.9581484E-01
        1   -1    0    0  501    0  0.00000000000E+00  0.00000000000E+00  0.67191568291E+03  0.67191568293E+03  0.50400001928E-02 0. -1.
       -1   -1    0    0    0  501  0.00000000000E+00  0.00000000000E+00 -0.22947732598E+03  0.22947732603E+03  0.50400001928E-02 0.  1.
    10030    2    1    2    0    0  0.00000000000E+00  0.00000000000E+00  0.44243835694E+03  0.90139300897E+03  0.78533919864E+03 0.  0.
        1    1    3    3  502    0 -0.27564248316E+03  0.10572433610E+02 -0.99540120713E+02  0.29325550384E+03  0.50400001928E-02 0.  1.
       -1    1    3    3    0  502  0.27564248316E+03 -0.10572433610E+02  0.54197847765E+03  0.60813750512E+03  0.50400001928E-02 0. -1.
</event>
<event>
 5   0  0.3416160E-02  0.8067256E+03  0.7818609E-02  0.9550333E-01
        2   -1    0    0  501    0  0.00000000000E+00  0.00000000000E+00  0.67654929993E+03  0.67654929993E+03  0.25500000920E-02 0. -1.
       -2   -1    0    0    0  501  0.00000000000E+00  0.00000000000E+00 -0.24048733137E+03  0.24048733139E+03  0.25500000920E-02 0.  1.
    10030    2    1    2    0    0  0.00000000000E+00  0.00000000000E+00  0.43606196856E+03  0.91703663132E+03  0.80672556843E+03 0.  0.
        1    1    3    3  502    0 -0.17978351355E+03  0.15614789918E+03 -0.15205971986E+03  0.28253572622E+03  0.50400001928E-02 0.  1.
       -1    1    3    3    0  502  0.17978351355E+03 -0.15614789918E+03  0.58812168842E+03  0.63450090510E+03  0.50400001928E-02 0. -1.
</event>
<event>
 5   0  0.3404132E-02  0.8025332E+03  0.7818609E-02  0.9556358E-01
       -2   -1    0    0    0  501  0.00000000000E+00  0.00000000000E+00  0.99706259220E+02  0.99706259253E+02  0.25500000920E-02 0. -1.
        2   -1    0    0  501    0  0.00000000000E+00  0.00000000000E+00 -0.16148924037E+04  0.16148924037E+04  0.25500000920E-02 0.  1.
    10030    2    1    2    0    0  0.00000000000E+00  0.00000000000E+00 -0.15151861445E+04  0.17145986630E+04  0.80253319096E+03 0.  0.
        5    1    3    3  502    0 -0.35522235530E+03 -0.15742661899E+03 -0.54365941909E+03  0.66824674786E+03  0.46999998093E+01 0. -1.
       -5    1    3    3    0  502  0.35522235530E+03  0.15742661899E+03 -0.97152672543E+03  0.10463519151E+04  0.46999998093E+01 0.  1.
</event>
<event>
 5   0  0.2132540E-02  0.7938582E+03  0.7818609E-02  0.9568950E-01
        1   -1    0    0  501    0  0.00000000000E+00  0.00000000000E+00  0.54077700284E+03  0.54077700286E+03  0.50400001928E-02 0.  1.
       -1   -1    0    0    0  501  0.00000000000E+00  0.00000000000E+00 -0.29134505631E+03  0.29134505635E+03  0.50400001928E-02 0. -1.
    10030    2    1    2    0    0  0.00000000000E+00  0.00000000000E+00  0.24943194653E+03  0.83212205922E+03  0.79385818978E+03 0.  0.
        4    1    3    3  502    0  0.67417558745E+02  0.43753539478E+02  0.53215653052E+03  0.53819298148E+03  0.12699999809E+01 0.  1.
       -4    1    3    3    0  502 -0.67417558745E+02 -0.43753539478E+02 -0.28272458399E+03  0.29392907773E+03  0.12699999809E+01 0. -1.
</event>
<event>
 5   0  0.3343036E-02  0.8347184E+03  0.7818609E-02  0.9511080E-01
       -2   -1    0    0    0  501  0.00000000000E+00  0.00000000000E+00  0.56280325621E+03  0.56280325621E+03  0.25500000920E-02 0. -1.
        2   -1    0    0  501    0  0.00000000000E+00  0.00000000000E+00 -0.30950196408E+03  0.30950196409E+03  0.25500000920E-02 0.  1.
    10030    2    1    2    0    0  0.00000000000E+00  0.00000000000E+00  0.25330129213E+03  0.87230522030E+03  0.83471842724E+03 0.  0.
        4    1    3    3  502    0  0.98035135253E+02  0.37780705543E+03  0.28108194100E+03  0.48099660012E+03  0.12699999809E+01 0. -1.
       -4    1    3    3    0  502 -0.98035135253E+02 -0.37780705543E+03 -0.27780648869E+02  0.39130862018E+03  0.12699999809E+01 0.  1.
</event>
<event>
 5   0  0.3467240E-02  0.7330830E+03  0.7818609E-02  0.9662271E-01
        2   -1    0    0  501    0  0.00000000000E+00  0.00000000000E+00  0.13938930539E+04  0.13938930539E+04  0.25500000920E-02 0. -1.
       -2   -1    0    0    0  501  0.00000000000E+00  0.00000000000E+00 -0.96386638226E+02  0.96386638259E+02  0.25500000920E-02 0.  1.
    10030    2    1    2    0    0  0.00000000000E+00  0.00000000000E+00  0.12975064157E+04  0.14902796922E+04  0.73308298450E+03 0.  0.
        2    1    3    3  502    0  0.32245747461E+03 -0.12095114048E+03  0.90383610780E+03  0.96722681470E+03  0.25500000920E-02 0.  1.
       -2    1    3    3    0  502 -0.32245747461E+03  0.12095114048E+03  0.39367030792E+03  0.52305287750E+03  0.25500000920E-02 0. -1.
</event>
<event>
 5   0  0.1989298E-02  0.7585080E+03  0.7818609E-02  0.9622096E-01
        1   -1    0    0  501    0  0.00000000000E+00  0.00000000000E+00  0.20617162635E+03  0.20617162641E+03  0.50400001928E-02 0. -1.
       -1   -1    0    0    0  501  0.00000000000E+00  0.00000000000E+00 -0.69764006957E+03  0.69764006958E+03  0.50400001928E-02 0.  1.
    10030    2    1    2    0    0  0.00000000000E+00  0.00000000000E+00 -0.49146844322E+03  0.90381169599E+03  0.75850797698E+03 0.  0.
        1    1    3    3  502    0 -0.23114623216E+03  0.17216025017E+03  0.47995309821E+02  0.29218364460E+03  0.50400001928E-02 0. -1.
       -1    1    3    3    0  502  0.23114623216E+03 -0.17216025017E+03 -0.53946375304E+03  0.61162805139E+03  0.50400001928E-02 0.  1.
</event>
<event>
 5   0  0.3467240E-02  0.7636887E+03  0.7818609E-02  0.9614116E-01
       -2   -1    0    0    0  501  0.00000000000E+00  0.00000000000E+00  0.79666963432E+02  0.79666963473E+02  0.25500000920E-02 0.  1.
        2   -1    0    0  501    0  0.00000000000E+00  0.00000000000E+00 -0.18301829215E+04  0.18301829215E+04  0.25500000920E-02 0. -1.
    10030    2    1    2    0    0  0.00000000000E+00  0.00000000000E+00 -0.17505159581E+04  0.19098498850E+04  0.76368872172E+03 0.  0.
        2    1    3    3  502    0 -0.68573877396E+02 -0.37480485607E+03 -0.81278449532E+03  0.89766346290E+03  0.25500000920E-02 0. -1.
       -2    1    3    3    0  502  0.68573877396E+02  0.37480485607E+03 -0.93773146274E+03  0.10121864221E+04  0.25500000920E-02 0.  1.
</event>
<event>
 5   0  0.2063692E-02  0.7839523E+03  0.7818609E-02  0.9583540E-01
        1   -1    0    0  501    0  0.00000000000E+00  0.00000000000E+00  0.88537753573E+03  0.88537753574E+03  0.50400001928E-02 0. -1.
       -1   -1    0    0    0  501  0.00000000000E+00  0.00000000000E+00 -0.17353649293E+03  0.17353649300E+03  0.50400001928E-02 0.  1.
    10030    2    1    2    0    0  0.00000000000E+00  0.00000000000E+00  0.71184104280E+03  0.10589140287E+04  0.78395232639E+03 0.  0.
        2    1    3    3  502    0  0.19471567224E+03 -0.33044449265E+03  0.24670640277E+03  0.45603925808E+03  0.25500000920E-02 0.  1.
       -2    1    3    3    0  502 -0.19471567224E+03  0.33044449265E+03  0.46513464004E+03  0.60287477067E+03  0.25500000920E-02 0. -1.
</event>
<event>
 5   0  0.2132540E-02  0.8377143E+03  0.7818609E-02  0.9506976E-01
        1   -1    0    0  501    0  0.00000000000E+00  0.00000000000E+00  0.15002692200E+03  0.15002692208E+03  0.50400001928E-02 0.  1.
       -1   -1    0    0    0  501  0.00000000000E+00  0.00000000000E+00 -0.11693988404E+04  0.11693988404E+04  0.50400001928E-02 0. -1.
    10030    2    1    2    0    0  0.00000000000E+00  0.00000000000E+00 -0.10193719184E+04  0.13194257625E+04  0.83771429179E+03 0.  0.
        4    1    3    3  502    0 -0.12401410768E+03  0.82128315885E+02 -0.11263967564E+04  0.11361759657E+04  0.12699999809E+01 0. -1.
       -4    1    3    3    0  502  0.12401410768E+03 -0.82128315885E+02  0.10702483804E+03  0.18324979681E+03  0.12699999809E+01 0.  1.
</event>
<event>
 5   0  0.3416160E-02  0.7872645E+03  0.7818609E-02  0.9578636E-01
        2   -1    0    0  501    0  0.00000000000E+00  0.00000000000E+00  0.15022856296E+04  0.15022856296E+04  0.25500000920E-02 0.  1.
       -2   -1    0    0    0  501  0.00000000000E+00  0.00000000000E+00 -0.10314040043E+03  0.10314040046E+03  0.25500000920E-02 0. -1.
    10030    2    1    2    0    0  0.00000000000E+00  0.00000000000E+00  0.13991452292E+04  0.16054260301E+04  0.78726448270E+03 0.  0.
        1    1    3    3  502    0 -0.23728793568E+03 -0.21320545563E+03  0.11698574778E+04  0.12125710903E+04  0.50400001928E-02 0.  1.
       -1    1    3    3    0  502  0.23728793568E+03  0.21320545563E+03  0.22928775142E+03  0.39285493978E+03  0.50400001928E-02 0. -1.
</event>
<event>
 5   0  0.3467240E-02  0.8091366E+03  0.7818609E-02  0.9546886E-01
       -2   -1    0    0    0  501  0.00000000000E+00  0.00000000000E+00  0.13555376880E+03  0.13555376882E+03  0.25500000920E-02 0. -1.
        2   -1    0    0  501    0  0.00000000000E+00  0.00000000000E+00 -0.12074582886E+04  0.12074582886E+04  0.25500000920E-02 0.  1.
    10030    2    1    2    0    0  0.00000000000E+00  0.00000000000E+00 -0.10719045198E+04  0.13430120574E+04  0.80913663048E+03 0.  0.
        2    1    3    3  502    0 -0.23943353815E+03  0.29369210703E+03 -0.77122421468E+03  0.85928473874E+03  0.25500000920E-02 0.  1.
       -2    1    3    3    0  502  0.23943353815E+03 -0.29369210703E+03 -0.30068030508E+03  0.48372731864E+03  0.25500000920E-02 0. -1.
</event>
<event>
 5   0  0.1989298E-02  0.8008781E+03  0.7818609E-02  0.9558747E-01
       -1   -1    0    0    0  501  0.00000000000E+00  0.00000000000E+00  0.67301151716E+03  0.67301151717E+03  0.50400001928E-02 0.  1.
        1   -1    0    0  501    0  0.00000000000E+00  0.00000000000E+00 -0.23825957686E+03  0.23825957691E+03  0.50400001928E-02 0. -1.
    10030    2    1    2    0    0  0.00000000000E+00  0.00000000000E+00  0.43475194029E+03  0.91127109409E+03  0.80087811640E+03 0.  0.
        1    1    3    3  502    0 -0.76644949662E+02  0.25975601230E+03 -0.11824592925E+03  0.29551604702E+03  0.50400001928E-02 0. -1.
       -1    1    3    3    0  502  0.76644949662E+02 -0.25975601230E+03  0.55299786955E+03  0.61575504707E+03  0.50400001928E-02 0.  1.
</event>
<event>
 5   0  0.2063692E-02  0.8347658E+03  0.7818609E-02  0.9511015E-01
       -1   -1    0    0    0  501  0.00000000000E+00  0.00000000000E+00  0.40515384143E+03  0.40515384146E+03  0.50400001928E-02 0.  1.
        1   -1    0    0  501    0  0.00000000000E+00  0.00000000000E+00 -0.42998111140E+03  0.42998111143E+03  0.50400001928E-02 0. -1.
    10030    2    1    2    0    0  0.00000000000E+00  0.00000000000E+00 -0.24827269966E+02  0.83513495289E+03  0.83476583315E+03 0.  0.
        2    1    3    3  502    0  0.20875730699E+03  0.12814909833E+03 -0.35050787835E+03  0.42761849517E+03  0.25500000920E-02 0. -1.
       -2    1    3    3    0  502 -0.20875730699E+03 -0.12814909833E+03  0.32568060838E+03  0.40751645771E+03  0.25500000920E-02 0.  1.
</event>
<event>
 5   0  0.3416160E-02  0.8117447E+03  0.7818609E-02  0.9543171E-01
        2   -1    0    0  501    0  0.00000000000E+00  0.00000000000E+00  0.10268920938E+04  0.10268920938E+04  0.25500000920E-02 0. -1.
       -2   -1    0    0    0  501  0.00000000000E+00  0.00000000000E+00 -0.16041836650E+03  0.16041836652E+03  0.25500000920E-02 0.  1.
    10030    2    1    2    0    0  0.00000000000E+00  0.00000000000E+00  0.86647372728E+03  0.11873104603E+04  0.81174466987E+03 0.  0.
        1    1    3    3  502    0  0.34183261684E+03  0.10083079097E+03  0.14917857544E+03  0.38635557941E+03  0.50400001928E-02 0. -1.
       -1    1    3    3    0  502 -0.34183261684E+03 -0.10083079097E+03  0.71729515184E+03  0.80095488089E+03  0.50400001928E-02 0.  1.
</event>
<event>
 5   0  0.2063692E-02  0.8167528E+03  0.7818609E-02  0.9536080E-01
       -1   -1    0    0    0  501  0.00000000000E+00  0.00000000000E+00  0.29338531298E+03  0.29338531302E+03  0.50400001928E-02 0.  1.
        1   -1    0    0  501    0  0.00000000000E+00  0.00000000000E+00 -0.56843774400E+03  0.56843774403E+03  0.50400001928E-02 0. -1.
    10030    2    1    2    0    0  0.00000000000E+00  0.00000000000E+00 -0.27505243103E+03  0.86182305705E+03  0.81675280339E+03 0.  0.
        2    1    3    3  502    0  0.88300913741E+02 -0.20072016269E+03 -0.50104476948E+03  0.54692915090E+03  0.25500000920E-02 0. -1.
       -2    1    3    3    0  502 -0.88300913741E+02  0.20072016269E+03  0.22599233846E+03  0.31489390614E+03  0.25500000920E-02 0.  1.
</event>
<event>
 5   0  0.1989298E-02  0.8088596E+03  0.7818609E-02  0.9547281E-01
       -1   -1    0    0    0  501  0.00000000000E+00  0.00000000000E+00  0.26413162220E+03  0.26413162225E+03  0.50400001928E-02 0. -1.
        1   -1    0    0  501    0  0.00000000000E+00  0.00000000000E+00 -0.61924982402E+03  0.61924982404E+03  0.50400001928E-02 0.  1.
    10030    2    1    2    0    0  0.00000000000E+00  0.00000000000E+00 -0.35511820182E+03  0.88338144629E+03  0.80885959374E+03 0.  0.
        1    1    3    3  502    0 -0.14568352347E+03  0.37518640105E+03 -0.13421733602E+03  0.42426738957E+03  0.50400001928E-02 0.  1.
       -1    1    3    3    0  502  0.14568352347E+03 -0.37518640105E+03 -0.22090086580E+03  0.45911405672E+03  0.50400001928E-02 0. -1.
</event>
<event>
 5   0  0.3343036E-02  0.8321339E+03  0.7818609E-02  0.9514635E-01
        2   -1    0    0  501    0  0.00000000000E+00  0.00000000000E+00  0.17189413424E+03  0.17189413426E+03  0.25500000920E-02 0. -1.
       -2   -1    0    0    0  501  0.00000000000E+00  0.00000000000E+00 -0.10070832343E+04  0.10070832343E+04  0.25500000920E-02 0.  1.
    10030    2    1    2    0    0  0.00000000000E+00  0.00000000000E+00 -0.83518910002E+03  0.11789773685E+04  0.83213388507E+03 0.  0.
        4    1    3    3  502    0  0.37237903358E+03  0.13833861673E+03 -0.24230809075E+03  0.46531552872E+03  0.12699999809E+01 0. -1.
       -4    1    3    3    0  502 -0.37237903358E+03 -0.13833861673E+03 -0.59288100927E+03  0.71366183979E+03  0.12699999809E+01 0.  1.
</event>
<event>
 5   0  0.3343036E-02  0.7857540E+03  0.7818609E-02  0.9580870E-01
        2   -1    0    0  501    0  0.00000000000E+00  0.00000000000E+00  0.11752431399E+04  0.11752431399E+04  0.25500000920E-02 0. -1.
       -2   -1    0    0    0  501  0.00000000000E+00  0.00000000000E+00 -0.13133652533E+03  0.13133652536E+03  0.25500000920E-02 0.  1.
    10030    2    1    2    0    0  0.00000000000E+00  0.00000000000E+00  0.10439066146E+04  0.13065796653E+04  0.78575403386E+03 0.  0.
        4    1    3    3  502    0  0.35830772802E+02  0.19651786713E+03 -0.40585723540E+02  0.20384290578E+03  0.12699999809E+01 0.  1.
       -4    1    3    3    0  502 -0.35830772802E+02 -0.19651786713E+03  0.10844923381E+04  0.11027367595E+04  0.12699999809E+01 0. -1.
</event>
<event>
 5   0  0.3343036E-02  0.8087046E+03  0.7818609E-02  0.9547502E-01
        2   -1    0    0  501    0  0.00000000000E+00  0.00000000000E+00  0.10197463483E+04  0.10197463483E+04  0.25500000920E-02 0. -1.
       -2   -1    0    0    0  501  0.00000000000E+00  0.00000000000E+00 -0.16033476775E+03  0.16033476777E+03  0.25500000920E-02 0.  1.
    10030    2    1    2    0    0  0.00000000000E+00  0.00000000000E+00  0.85941158056E+03  0.11800811161E+04  0.80870462825E+03 0.  0.
        4    1    3    3  502    0 -0.17830943810E+03 -0.20559752522E+03 -0.66840943258E+01  0.27223315027E+03  0.12699999809E+01 0.  1.
       -4    1    3    3    0  502  0.17830943810E+03  0.20559752522E+03  0.86609567488E+03  0.90784796582E+03  0.12699999809E+01 0. -1.
</event>
<event>
 5   0  0.3550586E-02  0.7894661E+03  0.7818609E-02  0.9575391E-01
       -2   -1    0    0    0  501  0.00000000000E+00  0.00000000000E+00  0.16171960278E+03  0.16171960280E+03  0.25500000920E-02 0. -1.
        2   -1    0    0  501    0  0.00000000000E+00  0.00000000000E+00 -0.96348351114E+03  0.96348351114E+03  0.25500000920E-02 0.  1.
    10030    2    1    2    0    0  0.00000000000E+00  0.00000000000E+00 -0.80176390835E+03  0.11252031139E+04  0.78946607456E+03 0.  0.
        3    1    3    3  502    0  0.15503205165E+03  0.24169354697E+03 -0.78692642356E+03  0.83767769099E+03  0.10100000352E+00 0.  1.
       -3    1    3    3    0  502 -0.15503205165E+03 -0.24169354697E+03 -0.14837484798E+02  0.28752542295E+03  0.10100000352E+00 0. -1.
</event>
<event>
 5   0  0.1989298E-02  0.8204465E+03  0.7818609E-02  0.9530884E-01
       -1   -1    0    0    0  501  0.00000000000E+00  0.00000000000E+00  0.19660001846E+03  0.19660001852E+03  0.50400001928E-02 0.  1.
        1   -1    0    0  501    0  0.00000000000E+00  0.00000000000E+00 -0.85596688193E+03  0.85596688195E+03  0.50400001928E-02 0. -1.
    10030    2    1    2    0    0  0.00000000000E+00  0.00000000000E+00 -0.65936686347E+03  0.10525669005E+04  0.82044647560E+03 0.  0.
        1    1    3    3  502    0 -0.14573151718E+03  0.10041031279E+03  0.14510639011E+03  0.22885753317E+03  0.50400001928E-02 0.  1.
       -1    1    3    3    0  502  0.14573151718E+03 -0.10041031279E+03 -0.80447325359E+03  0.82370936730E+03  0.50400001928E-02 0. -1.
</event>
<event>
 5   0  0.3467240E-02  0.8390926E+03  0.7818609E-02  0.9505095E-01
        2   -1    0    0  501    0  0.00000000000E+00  0.00000000000E+00  0.75704154916E+03  0.75704154917E+03  0.25500000920E-02 0.  1.
       -2   -1    0    0    0  501  0.00000000000E+00  0.00000000000E+00 -0.23250915280E+03  0.23250915282E+03  0.25500000920E-02 0. -1.
    10030    2    1    2    0    0  0.00000000000E+00  0.00000000000E+00  0.52453239636E+03  0.98955070199E+03  0.83909257950E+03 0.  0.
        2    1    3    3  502    0  0.33045589443E+03 -0.15046692280E+03  0.14392924243E+02  0.36338485012E+03  0.25500000920E-02 0. -1.
       -2    1    3    3    0  502 -0.33045589443E+03  0.15046692280E+03  0.51013947212E+03  0.62616585186E+03  0.25500000920E-02 0.  1.
</event>
<event>
 5   0  0.3416160E-02  0.8067415E+03  0.7818609E-02  0.9550310E-01
        2   -1    0    0  501    0  0.00000000000E+00  0.00000000000E+00  0.11136209042E+04  0.11136209042E+04  0.25500000920E-02 0.  1.
       -2   -1    0    0    0  501  0.00000000000E+00  0.00000000000E+00 -0.14610712975E+03  0.14610712977E+03  0.25500000920E-02 0. -1.
    10030    2    1    2    0    0  0.00000000000E+00  0.00000000000E+00  0.96751377446E+03  0.12597280340E+04  0.80674148018E+03 0.  0.
        1    1    3    3  502    0 -0.31580031452E+03  0.12412869461E+02  0.87514292003E+03  0.93046173940E+03  0.50400001928E-02 0.  1.
       -1    1    3    3    0  502  0.31580031452E+03 -0.12412869461E+02  0.92370854436E+02  0.32926629459E+03  0.50400001928E-02 0. -1.
</event>
<event>
 5   0  0.2063692E-02  0.8102803E+03  0.7818609E-02  0.9545255E-01
       -1   -1    0    0    0  501  0.00000000000E+00  0.00000000000E+00  0.19387656593E+03  0.19387656599E+03  0.50400001928E-02 0.  1.
        1   -1    0    0  501    0  0.00000000000E+00  0.00000000000E+00 -0.84661354353E+03  0.84661354355E+03  0.50400001928E-02 0. -1.
    10030    2    1    2    0    0  0.00000000000E+00  0.00000000000E+00 -0.65273697760E+03  0.10404901095E+04  0.81028026393E+03 0.  0.
        2    1    3    3  502    0 -0.16797107019E+03  0.52644367136E+02 -0.79494215153E+03  0.81419821549E+03  0.25500000920E-02 0. -1.
       -2    1    3    3    0  502  0.16797107019E+03 -0.52644367136E+02  0.14220517393E+03  0.22629189405E+03  0.25500000920E-02 0.  1.
</event>
<event>
 5   0  0.2063692E-02  0.7954201E+03  0.7818609E-02  0.9566670E-01
        1   -1    0    0  501    0  0.00000000000E+00  0.00000000000E+00  0.13032045790E+03  0.13032045800E+03  0.50400001928E-02 0. -1.
       -1   -1    0    0    0  501  0.00000000000E+00  0.00000000000E+00 -0.12137258080E+04  0.12137258080E+04  0.50400001928E-02 0.  1.
    10030    2    1    2    0    0  0.00000000000E+00  0.00000000000E+00 -0.10834053501E+04  0.13440462660E+04  0.79542014844E+03 0.  0.
        2    1    3    3  502    0  0.28375663758E+01  0.34887448426E+03 -0.21909299693E+03  0.41197475513E+03  0.25500000920E-02 0. -1.
       -2    1    3    3    0  502 -0.28375663758E+01 -0.34887448426E+03 -0.86431235318E+03  0.93207151089E+03  0.25500000920E-02 0.  1.
</event>
<event>
 5   0  0.3343036E-02  0.8008285E+03  0.7818609E-02  0.9558819E-01
        2   -1    0    0  501    0  0.00000000000E+00  0.00000000000E+00  0.30312104693E+03  0.30312104694E+03  0.25500000920E-02 0.  1.
       -2   -1    0    0    0  501  0.00000000000E+00  0.00000000000E+00 -0.52893576889E+03  0.52893576890E+03  0.25500000920E-02 0. -1.
    10030    2    1    2    0    0  0.00000000000E+00  0.00000000000E+00 -0.22581472197E+03  0.83205681584E+03  0.80082848109E+03 0.  0.
        4    1    3    3  502    0 -0.26409544261E+03 -0.23260689212E+03  0.85531394120E+02  0.36217344098E+03  0.12699999809E+01 0.  1.
       -4    1    3    3    0  502  0.26409544261E+03  0.23260689212E+03 -0.31134611609E+03  0.46988337486E+03  0.12699999809E+01 0. -1.
</event>
<event>
 5   0  0.3343036E-02  0.8028213E+03  0.7818609E-02  0.9555942E-01
        2   -1    0    0  501    0  0.00000000000E+00  0.00000000000E+00  0.10045573209E+04  0.10045573209E+04  0.25500000920E-02 0. -1.
       -2   -1    0    0    0  501  0.00000000000E+00  0.00000000000E+00 -0.16039952134E+03  0.16039952136E+03  0.25500000920E-02 0.  1.
    10030    2    1    2    0    0  0.00000000000E+00  0.00000000000E+00  0.84415779955E+03  0.11649568423E+04  0.80282130874E+03 0.  0.
        4    1    3    3  502    0  0.17533835450E+03 -0.28282926533E+03  0.96335280755E+02  0.34643618619E+03  0.12699999809E+01 0.  1.
       -4    1    3    3    0  502 -0.17533835450E+03  0.28282926533E+03  0.74782251879E+03  0.81852065606E+03  0.12699999809E+01 0. -1.
</event>
<event>
 5   0  0.3343036E-02  0.7795437E+03  0.7818609E-02  0.9590108E-01
        2   -1    0    0  501    0  0.00000000000E+00  0.00000000000E+00  0.10208813857E+04  0.10208813857E+04  0.25500000920E-02 0. -1.
       -2   -1    0    0    0  501  0.00000000000E+00  0.00000000000E+00 -0.14881464884E+03  0.14881464886E+03  0.25500000920E-02 0.  1.
    10030    2    1    2    0    0  0.00000000000E+00  0.00000000000E+00  0.87206673683E+03  0.11696960345E+04  0.77954372533E+03 0.  0.
        4    1    3    3  502    0 -0.19624165512E+03 -0.32127831487E+03  0.28456618584E+03  0.47192167765E+03  0.12699999809E+01 0.  1.
       -4    1    3    3    0  502  0.19624165512E+03  0.32127831487E+03  0.58750055099E+03  0.69777435688E+03  0.12699999809E+01 0. -1.
</event>
<event>
 5   0  0.2129257E-02  0.7884283E+03  0.7818609E-02  0.9576919E-01
        1   -1    0    0  501    0  0.00000000000E+00  0.00000000000E+00  0.67935283668E+03  0.67935283670E+03  0.50400001928E-02 0. -1.
       -1   -1    0    0    0  501  0.00000000000E+00  0.00000000000E+00 -0.22875416964E+03  0.22875416970E+03  0.50400001928E-02 0.  1.
    10030    2    1    2    0    0  0.00000000000E+00  0.00000000000E+00  0.45059866704E+03  0.90810700640E+03  0.78842829498E+03 0.  0.
        3    1    3    3  502    0 -0.33657618779E+03 -0.10107110321E+03  0.43103530316E+03  0.55613877843E+03  0.10100000352E+00 0. -1.
       -3    1    3    3    0  502  0.33657618779E+03  0.10107110321E+03  0.19563363875E+02  0.35196822797E+03  0.10100000352E+00 0.  1.
</event>
<event>
 5   0  0.1358000E-02  0.7936260E+03  0.7818609E-02  0.9569289E-01
        3   -1    0    0  501    0  0.00000000000E+00  0.00000000000E+00  0.19194566073E+03  0.19194568730E+03  0.10100000352E+00 0. -1.
       -3   -1    0    0    0  501  0.00000000000E+00  0.00000000000E+00 -0.82033924252E+03  0.82033924873E+03  0.10100000352E+00 0.  1.
    10030    2    1    2    0    0  0.00000000000E+00  0.00000000000E+00 -0.62839358179E+03  0.10122849360E+04  0.79362604424E+03 0.  0.
        1    1    3    3  502    0 -0.35897105951E+03 -0.15610896452E+03 -0.23123565083E+03  0.45464288909E+03  0.50400001928E-02 0. -1.
       -1    1    3    3    0  502  0.35897105951E+03  0.15610896452E+03 -0.39715793096E+03  0.55764204694E+03  0.50400001928E-02 0.  1.
</event>
<event>
 5   0  0.2129257E-02  0.7713888E+03  0.7818609E-02  0.9602380E-01
        1   -1    0    0  501    0  0.00000000000E+00  0.00000000000E+00  0.48970714552E+03  0.48970714554E+03  0.50400001928E-02 0. -1.
       -1   -1    0    0    0  501  0.00000000000E+00  0.00000000000E+00 -0.30377375244E+03  0.30377375248E+03  0.50400001928E-02 0.  1.
    10030    2    1    2    0    0  0.00000000000E+00  0.00000000000E+00  0.18593339308E+03  0.79348089802E+03  0.77138881822E+03 0.  0.
        3    1    3    3  502    0 -0.40126931740E+02 -0.16574651692E+03 -0.26288616211E+03  0.31335478767E+03  0.10100000352E+00 0.  1.
       -3    1    3    3    0  502  0.40126931740E+02  0.16574651692E+03  0.44881955519E+03  0.48012611036E+03  0.10100000352E+00 0. -1.
</event>
<event>
 5   0  0.3467240E-02  0.8107744E+03  0.7818609E-02  0.9544551E-01
       -2   -1    0    0    0  501  0.00000000000E+00  0.00000000000E+00  0.31750636311E+03  0.31750636312E+03  0.25500000920E-02 0. -1.
        2   -1    0    0  501    0  0.00000000000E+00  0.00000000000E+00 -0.51759214695E+03  0.51759214695E+03  0.25500000920E-02 0.  1.
    10030    2    1    2    0    0  0.00000000000E+00  0.00000000000E+00 -0.20008578384E+03  0.83509851007E+03  0.81077444498E+03 0.  0.
        2    1    3    3  502    0  0.66486523825E+02  0.30299091265E+03  0.16877523882E+03  0.35314166030E+03  0.25500000920E-02 0. -1.
       -2    1    3    3    0  502 -0.66486523825E+02 -0.30299091265E+03 -0.36886102266E+03  0.48195684977E+03  0.25500000920E-02 0.  1.
</event>
<event>
 5   0  0.2063692E-02  0.8004753E+03  0.7818609E-02  0.9559329E-01
       -1   -1    0    0    0  501  0.00000000000E+00  0.00000000000E+00  0.21647481457E+03  0.21647481463E+03  0.50400001928E-02 0.  1.
        1   -1    0    0  501    0  0.00000000000E+00  0.00000000000E+00 -0.73999449992E+03  0.73999449994E+03  0.50400001928E-02 0. -1.
    10030    2    1    2    0    0  0.00000000000E+00  0.00000000000E+00 -0.52351968535E+03  0.95646931456E+03  0.80047528928E+03 0.  0.
        2    1    3    3  502    0  0.14236255201E+03  0.16383299715E+03 -0.66356870952E+03  0.69816314672E+03  0.25500000920E-02 0. -1.
       -2    1    3    3    0  502 -0.14236255201E+03 -0.16383299715E+03  0.14004902417E+03  0.25830616784E+03  0.25500000920E-02 0.  1.
</event>
<event>
 5   0  0.2063692E-02  0.8145404E+03  0.7818609E-02  0.9539206E-01
       -1   -1    0    0    0  501  0.00000000000E+00  0.00000000000E+00  0.79248920023E+02  0.79248920184E+02  0.50400001928E-02 0. -1.
        1   -1    0    0  501    0  0.00000000000E+00  0.00000000000E+00 -0.20930130061E+04  0.20930130061E+04  0.50400001928E-02 0.  1.
    10030    2    1    2    0    0  0.00000000000E+00  0.00000000000E+00 -0.20137640860E+04  0.21722619262E+04  0.81454041153E+03 0.  0.
        2    1    3    3  502    0  0.97090946177E+01  0.14827792509E+03 -0.20181389401E+04  0.20236020832E+04  0.25500000920E-02 0.  1.
       -2    1    3    3    0  502 -0.97090946177E+01 -0.14827792509E+03  0.43748540417E+01  0.14865984307E+03  0.25500000920E-02 0. -1.
</event>
<event>
 5   0  0.1989298E-02  0.7585917E+03  0.7818609E-02  0.9621967E-01
        1   -1    0    0  501    0  0.00000000000E+00  0.00000000000E+00  0.20786752253E+03  0.20786752259E+03  0.50400001928E-02 0.  1.
       -1   -1    0    0    0  501  0.00000000000E+00  0.00000000000E+00 -0.69210111452E+03  0.69210111453E+03  0.50400001928E-02 0. -1.
    10030    2    1    2    0    0  0.00000000000E+00  0.00000000000E+00 -0.48423359199E+03  0.89996863712E+03  0.75859170585E+03 0.  0.
        1    1    3    3  502    0 -0.35953228779E+03 -0.97179542758E+02 -0.15691268184E+03  0.40413972737E+03  0.50400001928E-02 0.  1.
       -1    1    3    3    0  502  0.35953228779E+03  0.97179542758E+02 -0.32732091015E+03  0.49582890974E+03  0.50400001928E-02 0. -1.
</event>
<event>
 5   0  0.3467240E-02  0.8139908E+03  0.7818609E-02  0.9539984E-01
       -2   -1    0    0    0  501  0.00000000000E+00  0.00000000000E+00  0.29482564068E+03  0.29482564069E+03  0.25500000920E-02 0.  1.
        2   -1    0    0  501    0  0.00000000000E+00  0.00000000000E+00 -0.56184136329E+03  0.56184136330E+03  0.25500000920E-02 0. -1.
    10030    2    1    2    0    0  0.00000000000E+00  0.00000000000E+00 -0.26701572261E+03  0.85666700399E+03  0.81399076137E+03 0.  0.
        2    1    3    3  502    0  0.39895411881E+03  0.50110671701E+02 -0.19981729545E+03  0.44900158118E+03  0.25500000920E-02 0. -1.
       -2    1    3    3    0  502 -0.39895411881E+03 -0.50110671701E+02 -0.67198427162E+02  0.40766542281E+03  0.25500000920E-02 0.  1.
</event>
<event>
 5   0  0.3343036E-02  0.7184076E+03  0.7818609E-02  0.9686261E-01
       -2   -1    0    0    0  501  0.00000000000E+00  0.00000000000E+00  0.14764905491E+03  0.14764905493E+03  0.25500000920E-02 0.  1.
        2   -1    0    0  501    0  0.00000000000E+00  0.00000000000E+00 -0.87387866303E+03  0.87387866303E+03  0.25500000920E-02 0. -1.
    10030    2    1    2    0    0  0.00000000000E+00  0.00000000000E+00 -0.72622960812E+03  0.10215277180E+04  0.71840756876E+03 0.  0.
        4    1    3    3  502    0  0.95935980373E+02 -0.54497928259E+02 -0.84918315977E+03  0.85632201201E+03  0.12699999809E+01 0. -1.
       -4    1    3    3    0  502 -0.95935980373E+02  0.54497928259E+02  0.12295355165E+03  0.16520570595E+03  0.12699999809E+01 0.  1.
</event>
<event>
 5   0  0.1989298E-02  0.7513761E+03  0.7818609E-02  0.9633194E-01
       -1   -1    0    0    0  501  0.00000000000E+00  0.00000000000E+00  0.74809543790E+02  0.74809543960E+02  0.50400001928E-02 0.  1.
        1   -1    0    0  501    0  0.00000000000E+00  0.00000000000E+00 -0.18866781104E+04  0.18866781104E+04  0.50400001928E-02 0. -1.
    10030    2    1    2    0    0  0.00000000000E+00  0.00000000000E+00 -0.18118685666E+04  0.19614876544E+04  0.75137614786E+03 0.  0.
        1    1    3    3  502    0 -0.25450818786E+03  0.31113647223E+02 -0.16227559399E+04  0.16428874938E+04  0.50400001928E-02 0. -1.
       -1    1    3    3    0  502  0.25450818786E+03 -0.31113647223E+02 -0.18911262676E+03  0.31860016063E+03  0.50400001928E-02 0.  1.
</event>
<event>
 5   0  0.3416160E-02  0.7652100E+03  0.7818609E-02  0.9611786E-01
        2   -1    0    0  501    0  0.00000000000E+00  0.00000000000E+00  0.14901068080E+04  0.14901068080E+04  0.25500000920E-02 0.  1.
       -2   -1    0    0    0  501  0.00000000000E+00  0.00000000000E+00 -0.98238976895E+02  0.98238976928E+02  0.25500000920E-02 0. -1.
    10030    2    1    2    0    0  0.00000000000E+00  0.00000000000E+00  0.13918678311E+04  0.15883457850E+04  0.76520995371E+03 0.  0.
        1    1    3    3  502    0 -0.36339484942E+03  0.10641261325E+03  0.58210858579E+03  0.69442772592E+03  0.50400001928E-02 0. -1.
       -1    1    3    3    0  502  0.36339484942E+03 -0.10641261325E+03  0.80975924536E+03  0.89391805906E+03  0.50400001928E-02 0.  1.
</event>
<event>
 5   0  0.2063692E-02  0.8003938E+03  0.7818609E-02  0.9559447E-01
       -1   -1    0    0    0  501  0.00000000000E+00  0.00000000000E+00  0.48519859177E+03  0.48519859179E+03  0.50400001928E-02 0. -1.
        1   -1    0    0  501    0  0.00000000000E+00  0.00000000000E+00 -0.33008662697E+03  0.33008662700E+03  0.50400001928E-02 0.  1.
    10030    2    1    2    0    0  0.00000000000E+00  0.00000000000E+00  0.15511196480E+03  0.81528521880E+03  0.80039381954E+03 0.  0.
        2    1    3    3  502    0  0.99468329041E+02 -0.12265450788E+03  0.45211951181E+03  0.47890513649E+03  0.25500000920E-02 0. -1.
       -2    1    3    3    0  502 -0.99468329041E+02  0.12265450788E+03 -0.29700754701E+03  0.33638008231E+03  0.25500000920E-02 0.  1.
</event>
<event>
 5   0  0.2132540E-02  0.7993655E+03  0.7818609E-02  0.9560936E-01
       -1   -1    0    0    0  501  0.00000000000E+00  0.00000000000E+00  0.33274020554E+03  0.33274020558E+03  0.50400001928E-02 0. -1.
        1   -1    0    0  501    0  0.00000000000E+00  0.00000000000E+00 -0.48009319008E+03  0.48009319010E+03  0.50400001928E-02 0.  1.
    10030    2    1    2    0    0  0.00000000000E+00  0.00000000000E+00 -0.14735298453E+03  0.81283339568E+03  0.79936551532E+03 0.  0.
        4    1    3    3  502    0 -0.35621200395E+03 -0.84157306445E+02  0.89575154884E+02  0.37682192779E+03  0.12699999809E+01 0. -1.
       -4    1    3    3    0  502  0.35621200395E+03  0.84157306445E+02 -0.23692813942E+03  0.43601146790E+03  0.12699999809E+01 0.  1.
</event>
<event>
 5   0  0.1989298E-02  0.7757967E+03  0.7818609E-02  0.9595727E-01
       -1   -1    0    0    0  501  0.00000000000E+00  0.00000000000E+00  0.49822115449E+03  0.49822115452E+03  0.50400001928E-02 0.  1.
        1   -1    0    0  501    0  0.00000000000E+00  0.00000000000E+00 -0.30200469233E+03  0.30200469237E+03  0.50400001928E-02 0. -1.
    10030    2    1    2    0    0  0.00000000000E+00  0.00000000000E+00  0.19621646216E+03  0.80022584689E+03  0.77579669115E+03 0.  0.
        1    1    3    3  502    0  0.20943952533E+03  0.21261833349E+03 -0.15747149475E+03  0.33744442830E+03  0.50400001928E-02 0. -1.
       -1    1    3    3    0  502 -0.20943952533E+03 -0.21261833349E+03  0.35368795691E+03  0.46278141859E+03  0.50400001928E-02 0.  1.
</event>
<event>
 5   0  0.1989298E-02  0.7835057E+03  0.7818609E-02  0.9584204E-01
        1   -1    0    0  501    0  0.00000000000E+00  0.00000000000E+00  0.57864098417E+03  0.57864098420E+03  0.50400001928E-02 0.  1.
       -1   -1    0    0    0  501  0.00000000000E+00  0.00000000000E+00 -0.26522542097E+03  0.26522542102E+03  0.50400001928E-02 0. -1.
    10030    2    1    2    0    0  0.00000000000E+00  0.00000000000E+00  0.31341556321E+03  0.84386640521E+03  0.78350570807E+03 0.  0.
        1    1    3    3  502    0 -0.32562542798E+02  0.77935924595E+01  0.57709710529E+03  0.57806758103E+03  0.50400001928E-02 0.  1.
       -1    1    3    3    0  502  0.32562542798E+02 -0.77935924595E+01 -0.26368154208E+03  0.26579882418E+03  0.50400001928E-02 0. -1.
</event>
<event>
 5   0  0.1989298E-02  0.7982673E+03  0.7818609E-02  0.9562528E-01
       -1   -1    0    0    0  501  0.00000000000E+00  0.00000000000E+00  0.19498262996E+03  0.19498263003E+03  0.50400001928E-02 0. -1.
        1   -1    0    0  501    0  0.00000000000E+00  0.00000000000E+00 -0.81703529093E+03  0.81703529095E+03  0.50400001928E-02 0.  1.
    10030    2    1    2    0    0  0.00000000000E+00  0.00000000000E+00 -0.62205266097E+03  0.10120179210E+04  0.79826734830E+03 0.  0.
        1    1    3    3  502    0  0.66524450523E+02 -0.23625074724E+03  0.88004116728E+02  0.26073864822E+03  0.50400001928E-02 0. -1.
       -1    1    3    3    0  502 -0.66524450523E+02  0.23625074724E+03 -0.71005677770E+03  0.75127927275E+03  0.50400001928E-02 0.  1.
</event>
<event>
 5   0  0.2063692E-02  0.8098721E+03  0.7818609E-02  0.9545837E-01
       -1   -1    0    0    0  501  0.00000000000E+00  0.00000000000E+00  0.12068430108E+03  0.12068430119E+03  0.50400001928E-02 0.  1.
        1   -1    0    0  501    0  0.00000000000E+00  0.00000000000E+00 -0.13586954074E+04  0.13586954074E+04  0.50400001928E-02 0. -1.
    10030    2    1    2    0    0  0.00000000000E+00  0.00000000000E+00 -0.12380111063E+04  0.14793797086E+04  0.80987210278E+03 0.  0.
        2    1    3    3  502    0  0.51235797971E+02 -0.10632932118E+02 -0.13524934168E+04  0.13535053043E+04  0.25500000920E-02 0. -1.
       -2    1    3    3    0  502 -0.51235797971E+02  0.10632932118E+02  0.11448231049E+03  0.12587440431E+03  0.25500000920E-02 0.  1.
</event>
<event>
 5   0  0.2132540E-02  0.8068710E+03  0.7818609E-02  0.9550125E-01
       -1   -1    0    0    0  501  0.00000000000E+00  0.00000000000E+00  0.25152968415E+03  0.25152968420E+03  0.50400001928E-02 0.  1.
        1   -1    0    0  501    0  0.00000000000E+00  0.00000000000E+00 -0.64708142790E+03  0.64708142792E+03  0.50400001928E-02 0. -1.
    10030    2    1    2    0    0  0.00000000000E+00  0.00000000000E+00 -0.39555174376E+03  0.89861111212E+03  0.80687096170E+03 0.  0.
        4    1    3    3  502    0 -0.12549905189E+03 -0.48240119367E+02 -0.62139360294E+03  0.63577412956E+03  0.12699999809E+01 0. -1.
       -4    1    3    3    0  502  0.12549905189E+03  0.48240119367E+02  0.22584185918E+03  0.26283698256E+03  0.12699999809E+01 0.  1.
</event>
<event>
 5   0  0.3467240E-02  0.7961676E+03  0.7818609E-02  0.9565581E-01
        2   -1    0    0  501    0  0.00000000000E+00  0.00000000000E+00  0.15908075456E+04  0.15908075456E+04  0.25500000920E-02 0.  1.
       -2   -1    0    0    0  501  0.00000000000E+00  0.00000000000E+00 -0.99616530495E+02  0.99616530528E+02  0.25500000920E-02 0. -1.
    10030    2    1    2    0    0  0.00000000000E+00  0.00000000000E+00  0.14911910151E+04  0.16904240761E+04  0.79616764165E+03 0.  0.
        2    1    3    3  502    0 -0.26973362953E+02 -0.18239704749E+03  0.14946808732E+04  0.15060103446E+04  0.25500000920E-02 0.  1.
       -2    1    3    3    0  502  0.26973362953E+02  0.18239704749E+03 -0.34898581693E+01  0.18441373148E+03  0.25500000920E-02 0. -1.
</event>
<event>
 5   0  0.2063692E-02  0.8056189E+03  0.7818609E-02  0.9551919E-01
        1   -1    0    0  501    0  0.00000000000E+00  0.00000000000E+00  0.40703633556E+03  0.40703633559E+03  0.50400001928E-02 0. -1.
       -1   -1    0    0    0  501  0.00000000000E+00  0.00000000000E+00 -0.39862647472E+03  0.39862647475E+03  0.50400001928E-02 0.  1.
    10030    2    1    2    0    0  0.00000000000E+00  0.00000000000E+00  0.84098608441E+01  0.80566281034E+03  0.80561891624E+03 0.  0.
        2    1    3    3  502    0  0.26304313823E+03  0.24608888499E+03  0.18450348759E+03  0.40471344038E+03  0.25500000920E-02 0. -1.
       -2    1    3    3    0  502 -0.26304313823E+03 -0.24608888499E+03 -0.17609362675E+03  0.40094936996E+03  0.25500000920E-02 0.  1.
</event>
<event>
 5   0  0.2077795E-02  0.8063312E+03  0.7818609E-02  0.9550898E-01
        1   -1    0    0  501    0  0.00000000000E+00  0.00000000000E+00  0.23304393624E+03  0.23304393629E+03  0.50400001928E-02 0. -1.
       -1   -1    0    0    0  501  0.00000000000E+00  0.00000000000E+00 -0.69747585750E+03  0.69747585752E+03  0.50400001928E-02 0.  1.
    10030    2    1    2    0    0  0.00000000000E+00  0.00000000000E+00 -0.46443192126E+03  0.93051979381E+03  0.80633124532E+03 0.  0.
        5    1    3    3  502    0 -0.92422097782E+02  0.34093311060E+03 -0.80180910012E+01  0.35336045314E+03  0.46999998093E+01 0. -1.
       -5    1    3    3    0  502  0.92422097782E+02 -0.34093311060E+03 -0.45641383026E+03  0.57715934066E+03  0.46999998093E+01 0.  1.
</event>
<event>
 5   0  0.3416160E-02  0.6607048E+03  0.7818609E-02  0.9786897E-01
       -2   -1    0    0    0  501  0.00000000000E+00  0.00000000000E+00  0.87009533682E+02  0.87009533719E+02  0.25500000920E-02 0.  1.
        2   -1    0    0  501    0  0.00000000000E+00  0.00000000000E+00 -0.12542615626E+04  0.12542615626E+04  0.25500000920E-02 0. -1.
    10030    2    1    2    0    0  0.00000000000E+00  0.00000000000E+00 -0.11672520289E+04  0.13412710963E+04  0.66070481670E+03 0.  0.
        1    1    3    3  502    0  0.17836094319E+03 -0.21581620643E+03 -0.22767895234E+03  0.36086973602E+03  0.50400001928E-02 0.  1.
       -1    1    3    3    0  502 -0.17836094319E+03  0.21581620643E+03 -0.93957307657E+03  0.98040136029E+03  0.50400001928E-02 0. -1.
</event>
<event>
 5   0  0.3416160E-02  0.8208891E+03  0.7818609E-02  0.9530264E-01
        2   -1    0    0  501    0  0.00000000000E+00  0.00000000000E+00  0.69100709542E+03  0.69100709542E+03  0.25500000920E-02 0. -1.
       -2   -1    0    0    0  501  0.00000000000E+00  0.00000000000E+00 -0.24379594444E+03  0.24379594445E+03  0.25500000920E-02 0.  1.
    10030    2    1    2    0    0  0.00000000000E+00  0.00000000000E+00  0.44721115098E+03  0.93480303988E+03  0.82088909714E+03 0.  0.
        1    1    3    3  502    0  0.26901641895E+03 -0.19354287499E+02 -0.12871472369E+03  0.29885096994E+03  0.50400001928E-02 0.  1.
       -1    1    3    3    0  502 -0.26901641895E+03  0.19354287499E+02  0.57592587468E+03  0.63595206994E+03  0.50400001928E-02 0. -1.
</event>
<event>
 5   0  0.3467240E-02  0.8124103E+03  0.7818609E-02  0.9542225E-01
       -2   -1    0    0    0  501  0.00000000000E+00  0.00000000000E+00  0.92466150425E+02  0.92466150460E+02  0.25500000920E-02 0.  1.
        2   -1    0    0  501    0  0.00000000000E+00  0.00000000000E+00 -0.17844651951E+04  0.17844651951E+04  0.25500000920E-02 0. -1.
    10030    2    1    2    0    0  0.00000000000E+00  0.00000000000E+00 -0.16919990447E+04  0.18769313456E+04  0.81241030815E+03 0.  0.
        2    1    3    3  502    0  0.13739858107E+03  0.35496271794E+03 -0.11737540801E+04  0.12339268786E+04  0.25500000920E-02 0. -1.
       -2    1    3    3    0  502 -0.13739858107E+03 -0.35496271794E+03 -0.51824496461E+03  0.64300446699E+03  0.25500000920E-02 0.  1.
</event>
<event>
 5   0  0.3404132E-02  0.7752141E+03  0.7818609E-02  0.9596603E-01
        2   -1    0    0  501    0  0.00000000000E+00  0.00000000000E+00  0.46701820395E+03  0.46701820396E+03  0.25500000920E-02 0. -1.
       -2   -1    0    0    0  501  0.00000000000E+00  0.00000000000E+00 -0.32169888625E+03  0.32169888626E+03  0.25500000920E-02 0.  1.
    10030    2    1    2    0    0  0.00000000000E+00  0.00000000000E+00  0.14531931770E+03  0.78871709022E+03  0.77521412803E+03 0.  0.
        5    1    3    3  502    0  0.83303059191E+02 -0.33612252180E+03  0.24975884414E+03  0.42698866444E+03  0.46999998093E+01 0. -1.
       -5    1    3    3    0  502 -0.83303059191E+02  0.33612252180E+03 -0.10443952644E+03  0.36172842578E+03  0.46999998093E+01 0.  1.
</event>
<event>
 5   0  0.2063692E-02  0.7974147E+03  0.7818609E-02  0.9563767E-01
       -1   -1    0    0    0  501  0.00000000000E+00  0.00000000000E+00  0.49565288341E+03  0.49565288344E+03  0.50400001928E-02 0. -1.
        1   -1    0    0  501    0  0.00000000000E+00  0.00000000000E+00 -0.32072353938E+03  0.32072353942E+03  0.50400001928E-02 0.  1.
    10030    2    1    2    0    0  0.00000000000E+00  0.00000000000E+00  0.17492934404E+03  0.81637642286E+03  0.79741469036E+03 0.  0.
        2    1    3    3  502    0 -0.34865324130E+02 -0.21929738882E+02  0.49346894540E+03  0.49518491936E+03  0.25500000920E-02 0. -1.
       -2    1    3    3    0  502  0.34865324130E+02  0.21929738882E+02 -0.31853960137E+03  0.32119150350E+03  0.25500000920E-02 0.  1.
</event>
<event>
 5   0  0.3416160E-02  0.7681735E+03  0.7818609E-02  0.9607263E-01
        2   -1    0    0  501    0  0.00000000000E+00  0.00000000000E+00  0.52219432325E+03  0.52219432326E+03  0.25500000920E-02 0. -1.
       -2   -1    0    0    0  501  0.00000000000E+00  0.00000000000E+00 -0.28250520993E+03  0.28250520995E+03  0.25500000920E-02 0.  1.
    10030    2    1    2    0    0  0.00000000000E+00  0.00000000000E+00  0.23968911332E+03  0.80469953321E+03  0.76817346199E+03 0.  0.
        1    1    3    3  502    0 -0.46907242621E+02 -0.34240417700E+03  0.29538864237E+03  0.45463761382E+03  0.50400001928E-02 0. -1.
       -1    1    3    3    0  502  0.46907242621E+02  0.34240417700E+03 -0.55699529045E+02  0.35006191938E+03  0.50400001928E-02 0.  1.
</event>
<event>
 5   0  0.1989298E-02  0.7991037E+03  0.7818609E-02  0.9561315E-01
       -1   -1    0    0    0  501  0.00000000000E+00  0.00000000000E+00  0.71083554629E+03  0.71083554631E+03  0.50400001928E-02 0.  1.
        1   -1    0    0  501    0  0.00000000000E+00  0.00000000000E+00 -0.22458312566E+03  0.22458312571E+03  0.50400001928E-02 0. -1.
    10030    2    1    2    0    0  0.00000000000E+00  0.00000000000E+00  0.48625242064E+03  0.93541867202E+03  0.79910366999E+03 0.  0.
        1    1    3    3  502    0  0.13343785874E+03  0.14510577122E+03 -0.16369257683E+03  0.25623545172E+03  0.50400001928E-02 0. -1.
       -1    1    3    3    0  502 -0.13343785874E+03 -0.14510577122E+03  0.64994499746E+03  0.67918322030E+03  0.50400001928E-02 0.  1.
</event>
<event>
 5   0  0.1358000E-02  0.6986490E+03  0.7818609E-02  0.9719545E-01
       -4   -1    0    0    0  501  0.00000000000E+00  0.00000000000E+00  0.97115974515E+03  0.97116057555E+03  0.12699999809E+01 0. -1.
        4   -1    0    0  501    0  0.00000000000E+00  0.00000000000E+00 -0.12564731799E+03  0.12565373619E+03  0.12699999809E+01 0.  1.
    10030    2    1    2    0    0  0.00000000000E+00  0.00000000000E+00  0.84551242716E+03  0.10968143117E+04  0.69864896046E+03 0.  0.
        1    1    3    3  502    0  0.25653647572E+03 -0.95531691320E+02  0.82081471652E+02  0.28578774542E+03  0.50400001928E-02 0.  1.
       -1    1    3    3    0  502 -0.25653647572E+03  0.95531691320E+02  0.76343095550E+03  0.81102656631E+03  0.50400001928E-02 0. -1.
</event>
<event>
 5   0  0.1989298E-02  0.8026084E+03  0.7818609E-02  0.9556249E-01
        1   -1    0    0  501    0  0.00000000000E+00  0.00000000000E+00  0.51195349556E+03  0.51195349558E+03  0.50400001928E-02 0.  1.
       -1   -1    0    0    0  501  0.00000000000E+00  0.00000000000E+00 -0.31456967802E+03  0.31456967806E+03  0.50400001928E-02 0. -1.
    10030    2    1    2    0    0  0.00000000000E+00  0.00000000000E+00  0.19738381754E+03  0.82652317364E+03  0.80260836349E+03 0.  0.
        1    1    3    3  502    0  0.38206988569E+03 -0.85053932690E+01  0.22479595867E+03  0.44337677242E+03  0.50400001928E-02 0.  1.
       -1    1    3    3    0  502 -0.38206988569E+03  0.85053932690E+01 -0.27412141133E+02  0.38314640122E+03  0.50400001928E-02 0. -1.
</event>
<event>
 5   0  0.2077795E-02  0.7989542E+03  0.7818609E-02  0.9561532E-01
        1   -1    0    0  501    0  0.00000000000E+00  0.00000000000E+00  0.76874404529E+03  0.76874404531E+03  0.50400001928E-02 0.  1.
       -1   -1    0    0    0  501  0.00000000000E+00  0.00000000000E+00 -0.20758788982E+03  0.20758788988E+03  0.50400001928E-02 0. -1.
    10030    2    1    2    0    0  0.00000000000E+00  0.00000000000E+00  0.56115615547E+03  0.97633193518E+03  0.79895420196E+03 0.  0.
        5    1    3    3  502    0  0.10641106088E+03 -0.21968633037E+03  0.66696298831E+03  0.71024440540E+03  0.46999998093E+01 0.  1.
       -5    1    3    3    0  502 -0.10641106088E+03  0.21968633037E+03 -0.10580683284E+03  0.26608752978E+03  0.46999998093E+01 0. -1.
</event>
<event>
 5   0  0.1358000E-02  0.7664537E+03  0.7818609E-02  0.9609885E-01
        4   -1    0    0  501    0  0.00000000000E+00  0.00000000000E+00  0.25996538550E+03  0.25996848762E+03  0.12699999809E+01 0.  1.
       -4   -1    0    0    0  501  0.00000000000E+00  0.00000000000E+00 -0.56492496209E+03  0.56492638962E+03  0.12699999809E+01 0. -1.
    10030    2    1    2    0    0  0.00000000000E+00  0.00000000000E+00 -0.30495957659E+03  0.82489487725E+03  0.76645366145E+03 0.  0.
        3    1    3    3  502    0  0.20575837759E+03 -0.23894489237E+03 -0.38687389692E+03  0.49910178707E+03  0.10100000352E+00 0. -1.
       -3    1    3    3    0  502 -0.20575837759E+03  0.23894489237E+03  0.81914320324E+02  0.32579309018E+03  0.10100000352E+00 0.  1.
</event>
<event>
 5   0  0.3416160E-02  0.8307374E+03  0.7818609E-02  0.9516562E-01
       -2   -1    0    0    0  501  0.00000000000E+00  0.00000000000E+00  0.66581631188E+03  0.66581631188E+03  0.25500000920E-02 0. -1.
        2   -1    0    0  501    0  0.00000000000E+00  0.00000000000E+00 -0.25912727265E+03  0.25912727266E+03  0.25500000920E-02 0.  1.
    10030    2    1    2    0    0  0.00000000000E+00  0.00000000000E+00  0.40668903923E+03  0.92494358455E+03  0.83073741939E+03 0.  0.
        1    1    3    3  502    0  0.78630684081E+02 -0.97193388129E+02  0.64437181604E+03  0.65638736772E+03  0.50400001928E-02 0. -1.
       -1    1    3    3    0  502 -0.78630684081E+02  0.97193388129E+02 -0.23768277681E+03  0.26855621682E+03  0.50400001928E-02 0.  1.
</event>
<event>
 5   0  0.3550586E-02  0.7850550E+03  0.7818609E-02  0.9581905E-01
        2   -1    0    0  501    0  0.00000000000E+00  0.00000000000E+00  0.92503628139E+03  0.92503628139E+03  0.25500000920E-02 0. -1.
       -2   -1    0    0    0  501  0.00000000000E+00  0.00000000000E+00 -0.16656410671E+03  0.16656410673E+03  0.25500000920E-02 0.  1.
    10030    2    1    2    0    0  0.00000000000E+00  0.00000000000E+00  0.75847217468E+03  0.10916003881E+04  0.78505500926E+03 0.  0.
        3    1    3    3  502    0  0.30203913546E+02  0.36595963502E+03  0.57210222249E+03  0.67980857161E+03  0.10100000352E+00 0.  1.
       -3    1    3    3    0  502 -0.30203913546E+02 -0.36595963502E+03  0.18636995219E+03  0.41179181651E+03  0.10100000352E+00 0. -1.
</event>
<event>
 5   0  0.1989298E-02  0.7831714E+03  0.7818609E-02  0.9584700E-01
       -1   -1    0    0    0  501  0.00000000000E+00  0.00000000000E+00  0.83656513225E+02  0.83656513377E+02  0.50400001928E-02 0.  1.
        1   -1    0    0  501    0  0.00000000000E+00  0.00000000000E+00 -0.18329636588E+04  0.18329636588E+04  0.50400001928E-02 0. -1.
    10030    2    1    2    0    0  0.00000000000E+00  0.00000000000E+00 -0.17493071456E+04  0.19166201722E+04  0.78317137005E+03 0.  0.
        1    1    3    3  502    0  0.12180247739E+03 -0.26764827232E+03 -0.24182202927E+03  0.38072212313E+03  0.50400001928E-02 0.  1.
       -1    1    3    3    0  502 -0.12180247739E+03  0.26764827232E+03 -0.15074851163E+04  0.15358980491E+04  0.50400001928E-02 0. -1.
</event>
<event>
 5   0  0.2063692E-02  0.7916020E+03  0.7818609E-02  0.9572253E-01
        1   -1    0    0  501    0  0.00000000000E+00  0.00000000000E+00  0.83614080833E+03  0.83614080835E+03  0.50400001928E-02 0.  1.
       -1   -1    0    0    0  501  0.00000000000E+00  0.00000000000E+00 -0.18735890543E+03  0.18735890550E+03  0.50400001928E-02 0. -1.
    10030    2    1    2    0    0  0.00000000000E+00  0.00000000000E+00  0.64878190290E+03  0.10234997138E+04  0.79160198756E+03 0.  0.
        2    1    3    3  502    0 -0.32795610000E+03 -0.47456089646E+02  0.44530878174E+02  0.33435053924E+03  0.25500000920E-02 0. -1.
       -2    1    3    3    0  502  0.32795610000E+03  0.47456089646E+02  0.60425102472E+03  0.68914917461E+03  0.25500000920E-02 0.  1.
</event>
<event>
 5   0  0.1358000E-02  0.8069079E+03  0.7818609E-02  0.9550072E-01
       -3   -1    0    0    0  501  0.00000000000E+00  0.00000000000E+00  0.17282449632E+04  0.17282449661E+04  0.10100000352E+00 0.  1.
        3   -1    0    0  501    0  0.00000000000E+00  0.00000000000E+00 -0.94185171867E+02  0.94185226021E+02  0.10100000352E+00 0. -1.
    10030    2    1    2    0    0  0.00000000000E+00  0.00000000000E+00  0.16340597913E+04  0.18224301921E+04  0.80690792763E+03 0.  0.
        4    1    3    3  502    0 -0.38635817459E+03 -0.39070237511E+02  0.56988412990E+03  0.68961486132E+03  0.12699999809E+01 0. -1.
       -4    1    3    3    0  502  0.38635817459E+03  0.39070237511E+02  0.10641756614E+04  0.11328153308E+04  0.12699999809E+01 0.  1.
</event>
<event>
 5   0  0.2132540E-02  0.8040413E+03  0.7818609E-02  0.9554186E-01
       -1   -1    0    0    0  501  0.00000000000E+00  0.00000000000E+00  0.29316019165E+03  0.29316019169E+03  0.50400001928E-02 0. -1.
        1   -1    0    0  501    0  0.00000000000E+00  0.00000000000E+00 -0.55130478747E+03  0.55130478750E+03  0.50400001928E-02 0.  1.
    10030    2    1    2    0    0  0.00000000000E+00  0.00000000000E+00 -0.25814459583E+03  0.84446497919E+03  0.80404133521E+03 0.  0.
        4    1    3    3  502    0 -0.37714009991E+03 -0.84193781125E+02 -0.24553339993E+03  0.45783349716E+03  0.12699999809E+01 0. -1.
       -4    1    3    3    0  502  0.37714009991E+03  0.84193781125E+02 -0.12611195897E+02  0.38663148203E+03  0.12699999809E+01 0.  1.
</event>
<event>
 5   0  0.2063692E-02  0.8016472E+03  0.7818609E-02  0.9557636E-01
        1   -1    0    0  501    0  0.00000000000E+00  0.00000000000E+00  0.14441469519E+04  0.14441469519E+04  0.50400001928E-02 0.  1.
       -1   -1    0    0    0  501  0.00000000000E+00  0.00000000000E+00 -0.11124877031E+03  0.11124877042E+03  0.50400001928E-02 0. -1.
    10030    2    1    2    0    0  0.00000000000E+00  0.00000000000E+00  0.13328981816E+04  0.15553957224E+04  0.80164723573E+03 0.  0.
        2    1    3    3  502    0  0.29984363168E+03  0.56217497778E+02  0.11708877240E+04  0.12099771373E+04  0.25500000920E-02 0.  1.
       -2    1    3    3    0  502 -0.29984363168E+03 -0.56217497778E+02  0.16201045758E+03  0.34541858504E+03  0.25500000920E-02 0. -1.
</event>
<event>
 5   0  0.2129257E-02  0.8009013E+03  0.7818609E-02  0.9558713E-01
       -1   -1    0    0    0  501  0.00000000000E+00  0.00000000000E+00  0.27954965076E+03  0.27954965081E+03  0.50400001928E-02 0.  1.
        1   -1    0    0  501    0  0.00000000000E+00  0.00000000000E+00 -0.57363957397E+03  0.57363957400E+03  0.50400001928E-02 0. -1.
    10030    2    1    2    0    0  0.00000000000E+00  0.00000000000E+00 -0.29408992321E+03  0.85318922480E+03  0.80090134872E+03 0.  0.
        3    1    3    3  502    0  0.29228111783E+03  0.45010191879E+02 -0.43468520660E+03  0.52574272059E+03  0.10100000352E+00 0. -1.
       -3    1    3    3    0  502 -0.29228111783E+03 -0.45010191879E+02  0.14059528338E+03  0.32744650422E+03  0.10100000352E+00 0.  1.
</event>
<event>
 5   0  0.3416160E-02  0.7830928E+03  0.7818609E-02  0.9584817E-01
        2   -1    0    0  501    0  0.00000000000E+00  0.00000000000E+00  0.12996255493E+04  0.12996255494E+04  0.25500000920E-02 0. -1.
       -2   -1    0    0    0  501  0.00000000000E+00  0.00000000000E+00 -0.11796365776E+03  0.11796365779E+03  0.25500000920E-02 0.  1.
    10030    2    1    2    0    0  0.00000000000E+00  0.00000000000E+00  0.11816618916E+04  0.14175892071E+04  0.78309280047E+03 0.  0.
        1    1    3    3  502    0 -0.14359823460E+03  0.18435013769E+03  0.22105461410E+02  0.23472127662E+03  0.50400001928E-02 0.  1.
       -1    1    3    3    0  502  0.14359823460E+03 -0.18435013769E+03  0.11595564302E+04  0.11828679305E+04  0.50400001928E-02 0. -1.
</event>
<event>
 5   0  0.2077795E-02  0.8259527E+03  0.7818609E-02  0.9523193E-01
       -1   -1    0    0    0  501  0.00000000000E+00  0.00000000000E+00  0.17943917279E+03  0.17943917286E+03  0.50400001928E-02 0. -1.
        1   -1    0    0  501    0  0.00000000000E+00  0.00000000000E+00 -0.95045840364E+03  0.95045840366E+03  0.50400001928E-02 0.  1.
    10030    2    1    2    0    0  0.00000000000E+00  0.00000000000E+00 -0.77101923085E+03  0.11298975765E+04  0.82595270996E+03 0.  0.
        5    1    3    3  502    0 -0.56085951585E+01  0.34635142349E+03 -0.69303924752E+03  0.77480078311E+03  0.46999998093E+01 0.  1.
       -5    1    3    3    0  502  0.56085951585E+01 -0.34635142349E+03 -0.77979983326E+02  0.35509679341E+03  0.46999998093E+01 0. -1.
</event>
<event>
 5   0  0.3467240E-02  0.8200940E+03  0.7818609E-02  0.9531379E-01
        2   -1    0    0  501    0  0.00000000000E+00  0.00000000000E+00  0.72828035275E+03  0.72828035275E+03  0.25500000920E-02 0.  1.
       -2   -1    0    0    0  501  0.00000000000E+00  0.00000000000E+00 -0.23087063648E+03  0.23087063649E+03  0.25500000920E-02 0. -1.
    10030    2    1    2    0    0  0.00000000000E+00  0.00000000000E+00  0.49740971627E+03  0.95915098925E+03  0.82009401554E+03 0.  0.
        2    1    3    3  502    0 -0.33556668222E+03 -0.79872678778E+02 -0.10595043255E+02  0.34510418424E+03  0.25500000920E-02 0. -1.
       -2    1    3    3    0  502  0.33556668222E+03  0.79872678778E+02  0.50800475953E+03  0.61404680501E+03  0.25500000920E-02 0.  1.
</event>
<event>
 5   0  0.2063692E-02  0.8029935E+03  0.7818609E-02  0.9555694E-01
        1   -1    0    0  501    0  0.00000000000E+00  0.00000000000E+00  0.34777519061E+03  0.34777519065E+03  0.50400001928E-02 0.  1.
       -1   -1    0    0    0  501  0.00000000000E+00  0.00000000000E+00 -0.46351681493E+03  0.46351681496E+03  0.50400001928E-02 0. -1.
    10030    2    1    2    0    0  0.00000000000E+00  0.00000000000E+00 -0.11574162432E+03  0.81129200561E+03  0.80299352100E+03 0.  0.
        2    1    3    3  502    0  0.31998644922E+03 -0.84772786599E+02 -0.28742336646E+03  0.43839473608E+03  0.25500000920E-02 0. -1.
       -2    1    3    3    0  502 -0.31998644922E+03  0.84772786599E+02  0.17168174214E+03  0.37289726953E+03  0.25500000920E-02 0.  1.
</event>
<event>
 5   0  0.3550586E-02  0.8179228E+03  0.7818609E-02  0.9534431E-01
        2   -1    0    0  501    0  0.00000000000E+00  0.00000000000E+00  0.22031793405E+04  0.22031793405E+04  0.25500000920E-02 0. -1.
       -2   -1    0    0    0  501  0.00000000000E+00  0.00000000000E+00 -0.75912752047E+02  0.75912752090E+02  0.25500000920E-02 0.  1.
    10030    2    1    2    0    0  0.00000000000E+00  0.00000000000E+00  0.21272665885E+04  0.22790920926E+04  0.81792275195E+03 0.  0.
        3    1    3    3  502    0  0.30958927204E+03  0.23779105141E+03  0.72396994101E+03  0.82250993135E+03  0.10100000352E+00 0.  1.
       -3    1    3    3    0  502 -0.30958927204E+03 -0.23779105141E+03  0.14032966475E+04  0.14565821612E+04  0.10100000352E+00 0. -1.
</event>
<event>
 5   0  0.1989298E-02  0.7684692E+03  0.7818609E-02  0.9606812E-01
       -1   -1    0    0    0  501  0.00000000000E+00  0.00000000000E+00  0.47335955198E+03  0.47335955201E+03  0.50400001928E-02 0.  1.
        1   -1    0    0  501    0  0.00000000000E+00  0.00000000000E+00 -0.31189025295E+03  0.31189025299E+03  0.50400001928E-02 0. -1.
    10030    2    1    2    0    0  0.00000000000E+00  0.00000000000E+00  0.16146929903E+03  0.78524980499E+03  0.76846920674E+03 0.  0.
        1    1    3    3  502    0  0.25997770621E+03  0.13115725905E+02 -0.20805989117E+03  0.33324067629E+03  0.50400001928E-02 0. -1.
       -1    1    3    3    0  502 -0.25997770621E+03 -0.13115725905E+02  0.36952919020E+03  0.45200912870E+03  0.50400001928E-02 0.  1.
</event>
<event>
 5   0  0.3550586E-02  0.7987017E+03  0.7818609E-02  0.9561898E-01
        2   -1    0    0  501    0  0.00000000000E+00  0.00000000000E+00  0.11532382035E+04  0.11532382035E+04  0.25500000920E-02 0.  1.
       -2   -1    0    0    0  501  0.00000000000E+00  0.00000000000E+00 -0.13828982393E+03  0.13828982396E+03  0.25500000920E-02 0. -1.
    10030    2    1    2    0    0  0.00000000000E+00  0.00000000000E+00  0.10149483796E+04  0.12915280275E+04  0.79870171687E+03 0.  0.
        3    1    3    3  502    0 -0.17470233279E+03  0.27127184810E+03  0.88798188920E+03  0.94478630727E+03  0.10100000352E+00 0.  1.
       -3    1    3    3    0  502  0.17470233279E+03 -0.27127184810E+03  0.12696649038E+03  0.34674172021E+03  0.10100000352E+00 0. -1.
</event>
<event>
 5   0  0.2129257E-02  0.7916944E+03  0.7818609E-02  0.9572117E-01
       -1   -1    0    0    0  501  0.00000000000E+00  0.00000000000E+00  0.18104311847E+03  0.18104311854E+03  0.50400001928E-02 0. -1.
        1   -1    0    0  501    0  0.00000000000E+00  0.00000000000E+00 -0.86551216559E+03  0.86551216561E+03  0.50400001928E-02 0.  1.
    10030    2    1    2    0    0  0.00000000000E+00  0.00000000000E+00 -0.68446904712E+03  0.10465552842E+04  0.79169444000E+03 0.  0.
        3    1    3    3  502    0 -0.21501565434E+03  0.28107829603E+02  0.95544447655E+02  0.23696103768E+03  0.10100000352E+00 0. -1.
       -3    1    3    3    0  502  0.21501565434E+03 -0.28107829603E+02 -0.78001349477E+03  0.80959424648E+03  0.10100000352E+00 0.  1.
</event>
<event>
 5   0  0.2077795E-02  0.8116841E+03  0.7818609E-02  0.9543257E-01
       -1   -1    0    0    0  501  0.00000000000E+00  0.00000000000E+00  0.27403311753E+03  0.27403311758E+03  0.50400001928E-02 0.  1.
        1   -1    0    0  501    0  0.00000000000E+00  0.00000000000E+00 -0.60105067108E+03  0.60105067110E+03  0.50400001928E-02 0. -1.
    10030    2    1    2    0    0  0.00000000000E+00  0.00000000000E+00 -0.32701755355E+03  0.87508378868E+03  0.81168414847E+03 0.  0.
        5    1    3    3  502    0  0.38997629564E+03 -0.77053836658E+02 -0.25153749114E+03  0.47043809832E+03  0.46999998093E+01 0. -1.
       -5    1    3    3    0  502 -0.38997629564E+03  0.77053836658E+02 -0.75480062412E+02  0.40464569036E+03  0.46999998093E+01 0.  1.
</event>
<event>
 5   0  0.2129257E-02  0.7989055E+03  0.7818609E-02  0.9561603E-01
       -1   -1    0    0    0  501  0.00000000000E+00  0.00000000000E+00  0.11598934043E+03  0.11598934054E+03  0.50400001928E-02 0. -1.
        1   -1    0    0  501    0  0.00000000000E+00  0.00000000000E+00 -0.13756653471E+04  0.13756653471E+04  0.50400001928E-02 0.  1.
    10030    2    1    2    0    0  0.00000000000E+00  0.00000000000E+00 -0.12596760067E+04  0.14916546876E+04  0.79890554223E+03 0.  0.
        3    1    3    3  502    0 -0.69631694459E+02  0.28403305458E+03 -0.11378846585E+04  0.11748637603E+04  0.10100000352E+00 0.  1.
       -3    1    3    3    0  502  0.69631694459E+02 -0.28403305458E+03 -0.12179134816E+03  0.31679092736E+03  0.10100000352E+00 0. -1.
</event>
<event>
 5   0  0.3404132E-02  0.8116095E+03  0.7818609E-02  0.9543363E-01
        2   -1    0    0  501    0  0.00000000000E+00  0.00000000000E+00  0.19379377641E+04  0.19379377641E+04  0.25500000920E-02 0.  1.
       -2   -1    0    0    0  501  0.00000000000E+00  0.00000000000E+00 -0.84975628408E+02  0.84975628446E+02  0.25500000920E-02 0. -1.
    10030    2    1    2    0    0  0.00000000000E+00  0.00000000000E+00  0.18529621357E+04  0.20229133926E+04  0.81160946116E+03 0.  0.
        5    1    3    3  502    0  0.12338511974E+03  0.37198043952E+03  0.66433214375E+03  0.77133172007E+03  0.46999998093E+01 0. -1.
       -5    1    3    3    0  502 -0.12338511974E+03 -0.37198043952E+03  0.11886299920E+04  0.12515816725E+04  0.46999998093E+01 0.  1.
</event>
<event>
 5   0  0.3416160E-02  0.8499753E+03  0.7818609E-02  0.9490370E-01
        2   -1    0    0  501    0  0.00000000000E+00  0.00000000000E+00  0.33104355769E+03  0.33104355770E+03  0.25500000920E-02 0.  1.
       -2   -1    0    0    0  501  0.00000000000E+00  0.00000000000E+00 -0.54559133740E+03  0.54559133741E+03  0.25500000920E-02 0. -1.
    10030    2    1    2    0    0  0.00000000000E+00  0.00000000000E+00 -0.21454777971E+03  0.87663489511E+03  0.84997528761E+03 0.  0.
        1    1    3    3  502    0  0.38195412812E+03  0.11236976053E+03  0.46044631476E+02  0.40079424545E+03  0.50400001928E-02 0. -1.
       -1    1    3    3    0  502 -0.38195412812E+03 -0.11236976053E+03 -0.26059241119E+03  0.47584064966E+03  0.50400001928E-02 0.  1.
</event>
<event>
 5   0  0.3416160E-02  0.6010901E+03  0.7818609E-02  0.9903147E-01
       -2   -1    0    0    0  501  0.00000000000E+00  0.00000000000E+00  0.14272634922E+03  0.14272634924E+03  0.25500000920E-02 0.  1.
        2   -1    0    0  501    0  0.00000000000E+00  0.00000000000E+00 -0.63287080352E+03  0.63287080352E+03  0.25500000920E-02 0. -1.
    10030    2    1    2    0    0  0.00000000000E+00  0.00000000000E+00 -0.49014445430E+03  0.77559715277E+03  0.60109014074E+03 0.  0.
        1    1    3    3  502    0  0.61092413113E+01  0.29924530896E+03 -0.20991820037E+03  0.36558272475E+03  0.50400001928E-02 0.  1.
       -1    1    3    3    0  502 -0.61092413113E+01 -0.29924530896E+03 -0.28022625393E+03  0.41001442801E+03  0.50400001928E-02 0. -1.
</event>
<event>
 5   0  0.2063692E-02  0.8012071E+03  0.7818609E-02  0.9558272E-01
       -1   -1    0    0    0  501  0.00000000000E+00  0.00000000000E+00  0.41847937301E+03  0.41847937304E+03  0.50400001928E-02 0. -1.
        1   -1    0    0  501    0  0.00000000000E+00  0.00000000000E+00 -0.38349131121E+03  0.38349131124E+03  0.50400001928E-02 0.  1.
    10030    2    1    2    0    0  0.00000000000E+00  0.00000000000E+00  0.34988061804E+02  0.80197068428E+03  0.80120709806E+03 0.  0.
        2    1    3    3  502    0 -0.15311940471E+03  0.66393327742E+02 -0.34703649146E+03  0.38508174779E+03  0.25500000920E-02 0.  1.
       -2    1    3    3    0  502  0.15311940471E+03 -0.66393327742E+02  0.38202455327E+03  0.41688893649E+03  0.25500000920E-02 0. -1.
</event>
<event>
 5   0  0.1358000E-02  0.7937739E+03  0.7818609E-02  0.9569073E-01
        4   -1    0    0  501    0  0.00000000000E+00  0.00000000000E+00  0.41817936521E+03  0.41818129368E+03  0.12699999809E+01 0. -1.
       -4   -1    0    0    0  501  0.00000000000E+00  0.00000000000E+00 -0.37667478011E+03  0.37667692107E+03  0.12699999809E+01 0.  1.
    10030    2    1    2    0    0  0.00000000000E+00  0.00000000000E+00  0.41504585100E+02  0.79485821475E+03  0.79377386640E+03 0.  0.
        2    1    3    3  502    0 -0.27142014636E+03 -0.14939567918E+03  0.26914613194E+03  0.41039932402E+03  0.25500000920E-02 0. -1.
       -2    1    3    3    0  502  0.27142014636E+03  0.14939567918E+03 -0.22764154684E+03  0.38445889073E+03  0.25500000920E-02 0.  1.
</event>
<event>
 5   0  0.3467240E-02  0.7973520E+03  0.7818609E-02  0.9563858E-01
        2   -1    0    0  501    0  0.00000000000E+00  0.00000000000E+00  0.13338778972E+04  0.13338778973E+04  0.25500000920E-02 0.  1.
       -2   -1    0    0    0  501  0.00000000000E+00  0.00000000000E+00 -0.11915825676E+03  0.11915825679E+03  0.25500000920E-02 0. -1.
    10030    2    1    2    0    0  0.00000000000E+00  0.00000000000E+00  0.12147196405E+04  0.14530361540E+04  0.79735203014E+03 0.  0.
        2    1    3    3  502    0 -0.32660954625E+03 -0.22655190862E+03  0.66332045329E+03  0.77330045051E+03  0.25500000920E-02 0. -1.
       -2    1    3    3    0  502  0.32660954625E+03  0.22655190862E+03  0.55139918720E+03  0.67973570353E+03  0.25500000920E-02 0.  1.
</event>
<event>
 5   0  0.2077795E-02  0.7961806E+03  0.7818609E-02  0.9565562E-01
        1   -1    0    0  501    0  0.00000000000E+00  0.00000000000E+00  0.21997634986E+04  0.21997634986E+04  0.50400001928E-02 0. -1.
       -1   -1    0    0    0  501  0.00000000000E+00  0.00000000000E+00 -0.72042231898E+02  0.72042232074E+02  0.50400001928E-02 0.  1.
    10030    2    1    2    0    0  0.00000000000E+00  0.00000000000E+00  0.21277212667E+04  0.22718057307E+04  0.79618056318E+03 0.  0.
        5    1    3    3  502    0 -0.20106156433E+03  0.20656446548E+03  0.18471597176E+04  0.18695228652E+04  0.46999998093E+01 0. -1.
       -5    1    3    3    0  502  0.20106156433E+03 -0.20656446548E+03  0.28056154908E+03  0.40228286550E+03  0.46999998093E+01 0.  1.
</event>
<event>
 5   0  0.2132540E-02  0.8179998E+03  0.7818609E-02  0.9534322E-01
       -1   -1    0    0    0  501  0.00000000000E+00  0.00000000000E+00  0.49137533435E+03  0.49137533437E+03  0.50400001928E-02 0.  1.
        1   -1    0    0  501    0  0.00000000000E+00  0.00000000000E+00 -0.34043410636E+03  0.34043410640E+03  0.50400001928E-02 0. -1.
    10030    2    1    2    0    0  0.00000000000E+00  0.00000000000E+00  0.15094122798E+03  0.83180944077E+03  0.81799981140E+03 0.  0.
        4    1    3    3  502    0  0.22118590887E+02  0.34646382913E+03 -0.14440389691E+03  0.37600600435E+03  0.12699999809E+01 0.  1.
       -4    1    3    3    0  502 -0.22118590887E+02 -0.34646382913E+03  0.29534512489E+03  0.45580343643E+03  0.12699999809E+01 0. -1.
</event>
<event>
 5   0  0.2129257E-02  0.7923495E+03  0.7818609E-02  0.9571157E-01
       -1   -1    0    0    0  501  0.00000000000E+00  0.00000000000E+00  0.41037911237E+03  0.41037911241E+03  0.50400001928E-02 0.  1.
        1   -1    0    0  501    0  0.00000000000E+00  0.00000000000E+00 -0.38246203087E+03  0.38246203090E+03  0.50400001928E-02 0. -1.
    10030    2    1    2    0    0  0.00000000000E+00  0.00000000000E+00  0.27917081508E+02  0.79284114331E+03  0.79234949049E+03 0.  0.
        3    1    3    3  502    0  0.91511146415E+02  0.97236863270E+02  0.38718478434E+03  0.40956240662E+03  0.10100000352E+00 0.  1.
       -3    1    3    3    0  502 -0.91511146415E+02 -0.97236863270E+02 -0.35926770283E+03  0.38327873668E+03  0.10100000352E+00 0. -1.
</event>
<event>
 5   0  0.2129257E-02  0.8021696E+03  0.7818609E-02  0.9556882E-01
       -1   -1    0    0    0  501  0.00000000000E+00  0.00000000000E+00  0.19056043330E+03  0.19056043337E+03  0.50400001928E-02 0.  1.
        1   -1    0    0  501    0  0.00000000000E+00  0.00000000000E+00 -0.84418897586E+03  0.84418897588E+03  0.50400001928E-02 0. -1.
    10030    2    1    2    0    0  0.00000000000E+00  0.00000000000E+00 -0.65362854256E+03  0.10347494092E+04  0.80216960069E+03 0.  0.
        3    1    3    3  502    0  0.10170839404E+03  0.67627516760E+02 -0.81961622207E+03  0.82866690541E+03  0.10100000352E+00 0. -1.
       -3    1    3    3    0  502 -0.10170839404E+03 -0.67627516760E+02  0.16598767950E+03  0.20608250384E+03  0.10100000352E+00 0.  1.
</event>
<event>
 5   0  0.3467240E-02  0.8975178E+03  0.7818609E-02  0.9428690E-01
       -2   -1    0    0    0  501  0.00000000000E+00  0.00000000000E+00  0.60423828324E+03  0.60423828324E+03  0.25500000920E-02 0.  1.
        2   -1    0    0  501    0  0.00000000000E+00  0.00000000000E+00 -0.33328661390E+03  0.33328661391E+03  0.25500000920E-02 0. -1.
    10030    2    1    2    0    0  0.00000000000E+00  0.00000000000E+00  0.27095166933E+03  0.93752489716E+03  0.89751775786E+03 0.  0.
        2    1    3    3  502    0  0.11650586109E+02 -0.20531687232E+03  0.55212100908E+03  0.58917600332E+03  0.25500000920E-02 0.  1.
       -2    1    3    3    0  502 -0.11650586109E+02  0.20531687232E+03 -0.28116933975E+03  0.34834889383E+03  0.25500000920E-02 0. -1.
</event>
<event>
 5   0  0.3467240E-02  0.8189624E+03  0.7818609E-02  0.9532968E-01
        2   -1    0    0  501    0  0.00000000000E+00  0.00000000000E+00  0.54564485014E+03  0.54564485015E+03  0.25500000920E-02 0.  1.
       -2   -1    0    0    0  501  0.00000000000E+00  0.00000000000E+00 -0.30729666569E+03  0.30729666570E+03  0.25500000920E-02 0. -1.
    10030    2    1    2    0    0  0.00000000000E+00  0.00000000000E+00  0.23834818445E+03  0.85294151585E+03  0.81896237547E+03 0.  0.
        2    1    3    3  502    0 -0.33246097540E+03  0.17968731386E+03 -0.45028408221E+02  0.38058558627E+03  0.25500000920E-02 0. -1.
       -2    1    3    3    0  502  0.33246097540E+03 -0.17968731386E+03  0.28337659267E+03  0.47235592957E+03  0.25500000920E-02 0.  1.
</event>
<event>
 5   0  0.2132540E-02  0.8069264E+03  0.7818609E-02  0.9550045E-01
        1   -1    0    0  501    0  0.00000000000E+00  0.00000000000E+00  0.72141257509E+03  0.72141257510E+03  0.50400001928E-02 0. -1.
       -1   -1    0    0    0  501  0.00000000000E+00  0.00000000000E+00 -0.22564418897E+03  0.22564418902E+03  0.50400001928E-02 0.  1.
    10030    2    1    2    0    0  0.00000000000E+00  0.00000000000E+00  0.49576838612E+03  0.94705676413E+03  0.80692640421E+03 0.  0.
        4    1    3    3  502    0  0.15029084060E+03  0.27846545602E+03  0.54165232769E+03  0.62731109026E+03  0.12699999809E+01 0. -1.
       -4    1    3    3    0  502 -0.15029084060E+03 -0.27846545602E+03 -0.45883941575E+02  0.31974567387E+03  0.12699999809E+01 0.  1.
</event>
<event>
 5   0  0.1989298E-02  0.7986490E+03  0.7818609E-02  0.9561975E-01
        1   -1    0    0  501    0  0.00000000000E+00  0.00000000000E+00  0.17890521384E+04  0.17890521384E+04  0.50400001928E-02 0.  1.
       -1   -1    0    0    0  501  0.00000000000E+00  0.00000000000E+00 -0.89131021117E+02  0.89131021260E+02  0.50400001928E-02 0. -1.
    10030    2    1    2    0    0  0.00000000000E+00  0.00000000000E+00  0.16999211173E+04  0.18781831597E+04  0.79864896937E+03 0.  0.
        1    1    3    3  502    0 -0.25730332928E+03 -0.14069741789E+03  0.14873506864E+04  0.15159857622E+04  0.50400001928E-02 0.  1.
       -1    1    3    3    0  502  0.25730332928E+03  0.14069741789E+03  0.21257043086E+03  0.36219739750E+03  0.50400001928E-02 0. -1.
</event>
<event>
 5   0  0.1989298E-02  0.7730286E+03  0.7818609E-02  0.9599899E-01
       -1   -1    0    0    0  501  0.00000000000E+00  0.00000000000E+00  0.40414463172E+03  0.40414463176E+03  0.50400001928E-02 0.  1.
        1   -1    0    0  501    0  0.00000000000E+00  0.00000000000E+00 -0.36965305577E+03  0.36965305581E+03  0.50400001928E-02 0. -1.
    10030    2    1    2    0    0  0.00000000000E+00  0.00000000000E+00  0.34491575951E+02  0.77379768756E+03  0.77302858451E+03 0.  0.
        1    1    3    3  502    0 -0.26948696897E+03  0.95877363552E+02  0.27746134971E+03  0.39849779911E+03  0.50400001928E-02 0.  1.
       -1    1    3    3    0  502  0.26948696897E+03 -0.95877363552E+02 -0.24296977376E+03  0.37529988845E+03  0.50400001928E-02 0. -1.
</event>
<event>
 5   0  0.1358000E-02  0.7554340E+03  0.7818609E-02  0.9626864E-01
        3   -1    0    0  501    0  0.00000000000E+00  0.00000000000E+00  0.46648964558E+03  0.46648965652E+03  0.10100000352E+00 0.  1.
       -3   -1    0    0    0  501  0.00000000000E+00  0.00000000000E+00 -0.30583771812E+03  0.30583773480E+03  0.10100000352E+00 0. -1.
    10030    2    1    2    0    0  0.00000000000E+00  0.00000000000E+00  0.16065192746E+03  0.77232739132E+03  0.75543401934E+03 0.  0.
        1    1    3    3  502    0 -0.50013215541E+02  0.10796126182E+02 -0.30227843791E+03  0.30657810117E+03  0.50400001928E-02 0. -1.
       -1    1    3    3    0  502  0.50013215541E+02 -0.10796126182E+02  0.46293036536E+03  0.46574929015E+03  0.50400001928E-02 0.  1.
</event>
<event>
 5   0  0.2077795E-02  0.8522805E+03  0.7818609E-02  0.9487281E-01
       -1   -1    0    0    0  501  0.00000000000E+00  0.00000000000E+00  0.75787296231E+03  0.75787296233E+03  0.50400001928E-02 0.  1.
        1   -1    0    0  501    0  0.00000000000E+00  0.00000000000E+00 -0.23961208184E+03  0.23961208189E+03  0.50400001928E-02 0. -1.
    10030    2    1    2    0    0  0.00000000000E+00  0.00000000000E+00  0.51826088048E+03  0.99748504422E+03  0.85228051322E+03 0.  0.
        5    1    3    3  502    0 -0.13677707904E+03  0.13927412145E+03  0.70243441535E+03  0.72906889120E+03  0.46999998093E+01 0.  1.
       -5    1    3    3    0  502  0.13677707904E+03 -0.13927412145E+03 -0.18417353487E+03  0.26841615302E+03  0.46999998093E+01 0. -1.
</event>
<event>
 5   0  0.3343036E-02  0.8058666E+03  0.7818609E-02  0.9551564E-01
        2   -1    0    0  501    0  0.00000000000E+00  0.00000000000E+00  0.37806731977E+03  0.37806731978E+03  0.25500000920E-02 0.  1.
       -2   -1    0    0    0  501  0.00000000000E+00  0.00000000000E+00 -0.42943476385E+03  0.42943476386E+03  0.25500000920E-02 0. -1.
    10030    2    1    2    0    0  0.00000000000E+00  0.00000000000E+00 -0.51367444079E+02  0.80750208364E+03  0.80586661475E+03 0.  0.
        4    1    3    3  502    0 -0.31843235651E+03  0.24680835979E+03 -0.19338006809E+02  0.40334737330E+03  0.12699999809E+01 0.  1.
       -4    1    3    3    0  502  0.31843235651E+03 -0.24680835979E+03 -0.32029437270E+02  0.40415471034E+03  0.12699999809E+01 0. -1.
</event>
<event>
 5   0  0.3550586E-02  0.8022580E+03  0.7818609E-02  0.9556755E-01
       -2   -1    0    0    0  501  0.00000000000E+00  0.00000000000E+00  0.27750615872E+03  0.27750615873E+03  0.25500000920E-02 0.  1.
        2   -1    0    0  501    0  0.00000000000E+00  0.00000000000E+00 -0.57982300939E+03  0.57982300939E+03  0.25500000920E-02 0. -1.
    10030    2    1    2    0    0  0.00000000000E+00  0.00000000000E+00 -0.30231685067E+03  0.85732916813E+03  0.80225795373E+03 0.  0.
        3    1    3    3  502    0 -0.36690210819E+03 -0.98650888129E+02 -0.28865819786E+03  0.47715062623E+03  0.10100000352E+00 0. -1.
       -3    1    3    3    0  502  0.36690210819E+03  0.98650888129E+02 -0.13658652801E+02  0.38017854190E+03  0.10100000352E+00 0.  1.
</event>
<event>
 5   0  0.3416160E-02  0.8009188E+03  0.7818609E-02  0.9558688E-01
        2   -1    0    0  501    0  0.00000000000E+00  0.00000000000E+00  0.84581912735E+03  0.84581912735E+03  0.25500000920E-02 0.  1.
       -2   -1    0    0    0  501  0.00000000000E+00  0.00000000000E+00 -0.18960049479E+03  0.18960049480E+03  0.25500000920E-02 0. -1.
    10030    2    1    2    0    0  0.00000000000E+00  0.00000000000E+00  0.65621863256E+03  0.10354196222E+04  0.80091878504E+03 0.  0.
        1    1    3    3  502    0 -0.28619779695E+03 -0.13005731083E+03  0.64882448979E+03  0.72096969538E+03  0.50400001928E-02 0.  1.
       -1    1    3    3    0  502  0.28619779695E+03  0.13005731083E+03  0.73941427730E+01  0.31444992678E+03  0.50400001928E-02 0. -1.
</event>
<event>
 5   0  0.1358000E-02  0.8102436E+03  0.7818609E-02  0.9545307E-01
        3   -1    0    0  501    0  0.00000000000E+00  0.00000000000E+00  0.23280514452E+03  0.23280516643E+03  0.10100000352E+00 0.  1.
       -3   -1    0    0    0  501  0.00000000000E+00  0.00000000000E+00 -0.70498288094E+03  0.70498288817E+03  0.10100000352E+00 0. -1.
    10030    2    1    2    0    0  0.00000000000E+00  0.00000000000E+00 -0.47217773641E+03  0.93778805460E+03  0.81024355634E+03 0.  0.
        5    1    3    3  502    0 -0.81569722689E+02 -0.23510338445E+03 -0.60605335676E+03  0.65517171969E+03  0.46999998093E+01 0. -1.
       -5    1    3    3    0  502  0.81569722689E+02  0.23510338445E+03  0.13387562035E+03  0.28261633491E+03  0.46999998093E+01 0.  1.
</event>
<event>
 5   0  0.3550586E-02  0.7873835E+03  0.7818609E-02  0.9578461E-01
        2   -1    0    0  501    0  0.00000000000E+00  0.00000000000E+00  0.76673172330E+03  0.76673172331E+03  0.25500000920E-02 0. -1.
       -2   -1    0    0    0  501  0.00000000000E+00  0.00000000000E+00 -0.20214786224E+03  0.20214786226E+03  0.25500000920E-02 0.  1.
    10030    2    1    2    0    0  0.00000000000E+00  0.00000000000E+00  0.56458386106E+03  0.96887958557E+03  0.78738346132E+03 0.  0.
        3    1    3    3  502    0 -0.31862785602E+02 -0.42910202087E+02 -0.19766297606E+03  0.20476128749E+03  0.10100000352E+00 0.  1.
       -3    1    3    3    0  502  0.31862785602E+02  0.42910202087E+02  0.76224683712E+03  0.76411829807E+03  0.10100000352E+00 0. -1.
</event>
<event>
 5   0  0.3404132E-02  0.7868442E+03  0.7818609E-02  0.9579257E-01
        2   -1    0    0  501    0  0.00000000000E+00  0.00000000000E+00  0.12067436336E+04  0.12067436336E+04  0.25500000920E-02 0.  1.
       -2   -1    0    0    0  501  0.00000000000E+00  0.00000000000E+00 -0.12826330805E+03  0.12826330807E+03  0.25500000920E-02 0. -1.
    10030    2    1    2    0    0  0.00000000000E+00  0.00000000000E+00  0.10784803255E+04  0.13350069417E+04  0.78684415338E+03 0.  0.
        5    1    3    3  502    0 -0.39188058341E+03 -0.25046846618E+02  0.49905029460E+03  0.63503623733E+03  0.46999998093E+01 0. -1.
       -5    1    3    3    0  502  0.39188058341E+03  0.25046846618E+02  0.57943003093E+03  0.69997070433E+03  0.46999998093E+01 0.  1.
</event>
<event>
 5   0  0.1358000E-02  0.8040669E+03  0.7818609E-02  0.9554149E-01
        4   -1    0    0  501    0  0.00000000000E+00  0.00000000000E+00  0.82766197402E+03  0.82766294839E+03  0.12699999809E+01 0. -1.
       -4   -1    0    0    0  501  0.00000000000E+00  0.00000000000E+00 -0.19528294299E+03  0.19528707259E+03  0.12699999809E+01 0.  1.
    10030    2    1    2    0    0  0.00000000000E+00  0.00000000000E+00  0.63237903103E+03  0.10229500210E+04  0.80406685452E+03 0.  0.
        2    1    3    3  502    0 -0.29564404973E+01 -0.33566207395E+03  0.59767265851E+03  0.68548550325E+03  0.25500000920E-02 0. -1.
       -2    1    3    3    0  502  0.29564404973E+01  0.33566207395E+03  0.34706372520E+02  0.33746451773E+03  0.25500000920E-02 0.  1.
</event>
<event>
 5   0  0.1989298E-02  0.8236808E+03  0.7818609E-02  0.9526359E-01
       -1   -1    0    0    0  501  0.00000000000E+00  0.00000000000E+00  0.13993943983E+03  0.13993943992E+03  0.50400001928E-02 0. -1.
        1   -1    0    0  501    0  0.00000000000E+00  0.00000000000E+00 -0.12120421238E+04  0.12120421238E+04  0.50400001928E-02 0.  1.
    10030    2    1    2    0    0  0.00000000000E+00  0.00000000000E+00 -0.10721026840E+04  0.13519815638E+04  0.82368075352E+03 0.  0.
        1    1    3    3  502    0 -0.18167722252E+03  0.54319295020E+02  0.64022835772E+02  0.20014025712E+03  0.50400001928E-02 0. -1.
       -1    1    3    3    0  502  0.18167722252E+03 -0.54319295020E+02 -0.11361255198E+04  0.11518413066E+04  0.50400001928E-02 0.  1.
</event>
<event>
 5   0  0.3416160E-02  0.7976421E+03  0.7818609E-02  0.9563436E-01
        2   -1    0    0  501    0  0.00000000000E+00  0.00000000000E+00  0.39513249298E+03  0.39513249299E+03  0.25500000920E-02 0. -1.
       -2   -1    0    0    0  501  0.00000000000E+00  0.00000000000E+00 -0.40254400871E+03  0.40254400871E+03  0.25500000920E-02 0.  1.
    10030    2    1    2    0    0  0.00000000000E+00  0.00000000000E+00 -0.74115157265E+01  0.79767650170E+03  0.79764206935E+03 0.  0.
        1    1    3    3  502    0 -0.18227015779E+03 -0.35164736619E+03  0.42986054221E+02  0.39840441947E+03  0.50400001928E-02 0.  1.
       -1    1    3    3    0  502  0.18227015779E+03  0.35164736619E+03 -0.50397569948E+02  0.39927208223E+03  0.50400001928E-02 0. -1.
</event>
<event>
 5   0  0.2129257E-02  0.8014494E+03  0.7818609E-02  0.9557922E-01
       -1   -1    0    0    0  501  0.00000000000E+00  0.00000000000E+00  0.52724110662E+03  0.52724110664E+03  0.50400001928E-02 0. -1.
        1   -1    0    0  501    0  0.00000000000E+00  0.00000000000E+00 -0.30456706765E+03  0.30456706769E+03  0.50400001928E-02 0.  1.
    10030    2    1    2    0    0  0.00000000000E+00  0.00000000000E+00  0.22267403897E+03  0.83180817434E+03  0.80144938160E+03 0.  0.
        3    1    3    3  502    0 -0.16386204574E+03 -0.39312272760E+02 -0.26600624389E+03  0.31488975343E+03  0.10100000352E+00 0.  1.
       -3    1    3    3    0  502  0.16386204574E+03  0.39312272760E+02  0.48868028286E+03  0.51691842091E+03  0.10100000352E+00 0. -1.
</event>
<event>
 5   0  0.2063692E-02  0.7312023E+03  0.7818609E-02  0.9665311E-01
       -1   -1    0    0    0  501  0.00000000000E+00  0.00000000000E+00  0.46124664339E+03  0.46124664342E+03  0.50400001928E-02 0.  1.
        1   -1    0    0  501    0  0.00000000000E+00  0.00000000000E+00 -0.28978901285E+03  0.28978901290E+03  0.50400001928E-02 0. -1.
    10030    2    1    2    0    0  0.00000000000E+00  0.00000000000E+00  0.17145763054E+03  0.75103565631E+03  0.73120232356E+03 0.  0.
        2    1    3    3  502    0 -0.15560082975E+03  0.27100943515E+03  0.28062947564E+03  0.42001266024E+03  0.25500000920E-02 0.  1.
       -2    1    3    3    0  502  0.15560082975E+03 -0.27100943515E+03 -0.10917184510E+03  0.33102299607E+03  0.25500000920E-02 0. -1.
</event>
<event>
 5   0  0.2132540E-02  0.8291234E+03  0.7818609E-02  0.9518793E-01
        1   -1    0    0  501    0  0.00000000000E+00  0.00000000000E+00  0.93886433107E+03  0.93886433109E+03  0.50400001928E-02 0.  1.
       -1   -1    0    0    0  501  0.00000000000E+00  0.00000000000E+00 -0.18305244515E+03  0.18305244522E+03  0.50400001928E-02 0. -1.
    10030    2    1    2    0    0  0.00000000000E+00  0.00000000000E+00  0.75581188593E+03  0.11219167763E+04  0.82912342027E+03 0.  0.
        4    1    3    3  502    0  0.25584049396E+03 -0.32596214193E+03  0.36110730065E+03  0.54964149389E+03  0.12699999809E+01 0. -1.
       -4    1    3    3    0  502 -0.25584049396E+03  0.32596214193E+03  0.39470458528E+03  0.57227528242E+03  0.12699999809E+01 0.  1.
</event>
<event>
 5   0  0.3343036E-02  0.8071696E+03  0.7818609E-02  0.9549697E-01
       -2   -1    0    0    0  501  0.00000000000E+00  0.00000000000E+00  0.11633504389E+03  0.11633504391E+03  0.25500000920E-02 0.  1.
        2   -1    0    0  501    0  0.00000000000E+00  0.00000000000E+00 -0.14001000762E+04  0.14001000762E+04  0.25500000920E-02 0. -1.
    10030    2    1    2    0    0  0.00000000000E+00  0.00000000000E+00 -0.12837650323E+04  0.15164351201E+04  0.80716963231E+03 0.  0.
        4    1    3    3  502    0  0.32077240204E+03 -0.73210297731E+02 -0.20279367871E+03  0.38649912112E+03  0.12699999809E+01 0.  1.
       -4    1    3    3    0  502 -0.32077240204E+03  0.73210297731E+02 -0.10809713536E+04  0.11299359990E+04  0.12699999809E+01 0. -1.
</event>
<event>
 5   0  0.2077795E-02  0.5846972E+03  0.7818609E-02  0.9937673E-01
        1   -1    0    0  501    0  0.00000000000E+00  0.00000000000E+00  0.18798440115E+04  0.18798440115E+04  0.50400001928E-02 0.  1.
       -1   -1    0    0    0  501  0.00000000000E+00  0.00000000000E+00 -0.45465321663E+02  0.45465321942E+02  0.50400001928E-02 0. -1.
    10030    2    1    2    0    0  0.00000000000E+00  0.00000000000E+00  0.18343786899E+04  0.19253093335E+04  0.58469723083E+03 0.  0.
        5    1    3    3  502    0 -0.12254543340E+03  0.19126762602E+03  0.15229712838E+04  0.15398260647E+04  0.46999998093E+01 0.  1.
       -5    1    3    3    0  502  0.12254543340E+03 -0.19126762602E+03  0.31140740601E+03  0.38548326880E+03  0.46999998093E+01 0. -1.
</event>
<event>
 5   0  0.2129257E-02  0.8293768E+03  0.7818609E-02  0.9518443E-01
       -1   -1    0    0    0  501  0.00000000000E+00  0.00000000000E+00  0.41981418724E+03  0.41981418727E+03  0.50400001928E-02 0.  1.
        1   -1    0    0  501    0  0.00000000000E+00  0.00000000000E+00 -0.40962519640E+03  0.40962519643E+03  0.50400001928E-02 0. -1.
    10030    2    1    2    0    0  0.00000000000E+00  0.00000000000E+00  0.10188990834E+02  0.82943938370E+03  0.82937679959E+03 0.  0.
        3    1    3    3  502    0 -0.83954211636E+01  0.19182172662E+03  0.37268229544E+03  0.41923521016E+03  0.10100000352E+00 0.  1.
       -3    1    3    3    0  502  0.83954211636E+01 -0.19182172662E+03 -0.36249330461E+03  0.41020417354E+03  0.10100000352E+00 0. -1.
</event>
<event>
 5   0  0.2077795E-02  0.8067416E+03  0.7818609E-02  0.9550310E-01
        1   -1    0    0  501    0  0.00000000000E+00  0.00000000000E+00  0.69769849457E+03  0.69769849459E+03  0.50400001928E-02 0. -1.
       -1   -1    0    0    0  501  0.00000000000E+00  0.00000000000E+00 -0.23320676823E+03  0.23320676828E+03  0.50400001928E-02 0.  1.
    10030    2    1    2    0    0  0.00000000000E+00  0.00000000000E+00  0.46449172634E+03  0.93090526288E+03  0.80674162196E+03 0.  0.
        5    1    3    3  502    0 -0.16500539814E+03  0.65977763819E+02  0.65005932492E+03  0.67392808418E+03  0.46999998093E+01 0. -1.
       -5    1    3    3    0  502  0.16500539814E+03 -0.65977763819E+02 -0.18556759858E+03  0.25697717870E+03  0.46999998093E+01 0.  1.
</event>
<event>
 5   0  0.3404132E-02  0.7494652E+03  0.7818609E-02  0.9636190E-01
        2   -1    0    0  501    0  0.00000000000E+00  0.00000000000E+00  0.16027348965E+03  0.16027348967E+03  0.25500000920E-02 0.  1.
       -2   -1    0    0    0  501  0.00000000000E+00  0.00000000000E+00 -0.87615568781E+03  0.87615568782E+03  0.25500000920E-02 0. -1.
    10030    2    1    2    0    0  0.00000000000E+00  0.00000000000E+00 -0.71588219816E+03  0.10364291775E+04  0.74946522154E+03 0.  0.
        5    1    3    3  502    0  0.11313474182E+03  0.10586404715E+03  0.11385761320E+03  0.19233385653E+03  0.46999998093E+01 0.  1.
       -5    1    3    3    0  502 -0.11313474182E+03 -0.10586404715E+03 -0.82973981137E+03  0.84409532095E+03  0.46999998093E+01 0. -1.
</event>
<event>
 5   0  0.3416160E-02  0.7999773E+03  0.7818609E-02  0.9560050E-01
        2   -1    0    0  501    0  0.00000000000E+00  0.00000000000E+00  0.10810927881E+04  0.10810927881E+04  0.25500000920E-02 0. -1.
       -2   -1    0    0    0  501  0.00000000000E+00  0.00000000000E+00 -0.14799001326E+03  0.14799001329E+03  0.25500000920E-02 0.  1.
    10030    2    1    2    0    0  0.00000000000E+00  0.00000000000E+00  0.93310277479E+03  0.12290828013E+04  0.79997733983E+03 0.  0.
        1    1    3    3  502    0 -0.34243192235E+03  0.40787291331E+02  0.15519791954E+03  0.37816612597E+03  0.50400001928E-02 0.  1.
       -1    1    3    3    0  502  0.34243192235E+03 -0.40787291331E+02  0.77790485525E+03  0.85091667537E+03  0.50400001928E-02 0. -1.
</event>
<event>
 5   0  0.2063692E-02  0.8206302E+03  0.7818609E-02  0.9530627E-01
       -1   -1    0    0    0  501  0.00000000000E+00  0.00000000000E+00  0.35983573962E+03  0.35983573966E+03  0.50400001928E-02 0.  1.
        1   -1    0    0  501    0  0.00000000000E+00  0.00000000000E+00 -0.46787591081E+03  0.46787591084E+03  0.50400001928E-02 0. -1.
    10030    2    1    2    0    0  0.00000000000E+00  0.00000000000E+00 -0.10804017119E+03  0.82771165050E+03  0.82063018332E+03 0.  0.
        2    1    3    3  502    0 -0.45300076397E+02  0.23122716346E+03 -0.39283603390E+03  0.45808104913E+03  0.25500000920E-02 0. -1.
       -2    1    3    3    0  502  0.45300076397E+02 -0.23122716346E+03  0.28479586271E+03  0.36963060136E+03  0.25500000920E-02 0.  1.
</event>
<event>
 5   0  0.1358000E-02  0.7997866E+03  0.7818609E-02  0.9560326E-01
        4   -1    0    0  501    0  0.00000000000E+00  0.00000000000E+00  0.25960053153E+03  0.25960363802E+03  0.12699999809E+01 0. -1.
       -4   -1    0    0    0  501  0.00000000000E+00  0.00000000000E+00 -0.61599533759E+03  0.61599664677E+03  0.12699999809E+01 0.  1.
    10030    2    1    2    0    0  0.00000000000E+00  0.00000000000E+00 -0.35639480606E+03  0.87560028479E+03  0.79978659712E+03 0.  0.
        2    1    3    3  502    0 -0.27212657698E+03 -0.12885852683E+03 -0.46631143739E+03  0.55507094185E+03  0.25500000920E-02 0.  1.
       -2    1    3    3    0  502  0.27212657698E+03  0.12885852683E+03  0.10991663133E+03  0.32052934294E+03  0.25500000920E-02 0. -1.
</event>
<event>
 5   0  0.3416160E-02  0.8120379E+03  0.7818609E-02  0.9542754E-01
       -2   -1    0    0    0  501  0.00000000000E+00  0.00000000000E+00  0.13002974373E+03  0.13002974376E+03  0.25500000920E-02 0.  1.
        2   -1    0    0  501    0  0.00000000000E+00  0.00000000000E+00 -0.12677974806E+04  0.12677974806E+04  0.25500000920E-02 0. -1.
    10030    2    1    2    0    0  0.00000000000E+00  0.00000000000E+00 -0.11377677369E+04  0.13978272244E+04  0.81203788466E+03 0.  0.
        1    1    3    3  502    0 -0.60249140495E+02 -0.20855138489E+03  0.21747639801E+02  0.21816644777E+03  0.50400001928E-02 0.  1.
       -1    1    3    3    0  502  0.60249140495E+02  0.20855138489E+03 -0.11595153767E+04  0.11796607766E+04  0.50400001928E-02 0. -1.
</event>
<event>
 5   0  0.1358000E-02  0.7878039E+03  0.7818609E-02  0.9577840E-01
       -3   -1    0    0    0  501  0.00000000000E+00  0.00000000000E+00  0.12703407289E+03  0.12703411304E+03  0.10100000352E+00 0. -1.
        3   -1    0    0  501    0  0.00000000000E+00  0.00000000000E+00 -0.12213944764E+04  0.12213944806E+04  0.10100000352E+00 0.  1.
    10030    2    1    2    0    0  0.00000000000E+00  0.00000000000E+00 -0.10943604035E+04  0.13484285936E+04  0.78780389648E+03 0.  0.
        4    1    3    3  502    0  0.37462629552E+03 -0.49452381217E+02 -0.73752337897E+03  0.82869339730E+03  0.12699999809E+01 0.  1.
       -4    1    3    3    0  502 -0.37462629552E+03  0.49452381217E+02 -0.35683702455E+03  0.51973519632E+03  0.12699999809E+01 0. -1.
</event>
<event>
 5   0  0.3416160E-02  0.7848645E+03  0.7818609E-02  0.9582187E-01
       -2   -1    0    0    0  501  0.00000000000E+00  0.00000000000E+00  0.32404115496E+03  0.32404115497E+03  0.25500000920E-02 0.  1.
        2   -1    0    0  501    0  0.00000000000E+00  0.00000000000E+00 -0.47525770873E+03  0.47525770874E+03  0.25500000920E-02 0. -1.
    10030    2    1    2    0    0  0.00000000000E+00  0.00000000000E+00 -0.15121655377E+03  0.79929886371E+03  0.78486446435E+03 0.  0.
        1    1    3    3  502    0 -0.33921711244E+03 -0.19568791503E+03 -0.10139282870E+03  0.40452752094E+03  0.50400001928E-02 0. -1.
       -1    1    3    3    0  502  0.33921711244E+03  0.19568791503E+03 -0.49823725067E+02  0.39477134276E+03  0.50400001928E-02 0.  1.
</event>
<event>
 5   0  0.3550586E-02  0.7969132E+03  0.7818609E-02  0.9564496E-01
        2   -1    0    0  501    0  0.00000000000E+00  0.00000000000E+00  0.54693885224E+03  0.54693885224E+03  0.25500000920E-02 0.  1.
       -2   -1    0    0    0  501  0.00000000000E+00  0.00000000000E+00 -0.29028412274E+03  0.29028412275E+03  0.25500000920E-02 0. -1.
    10030    2    1    2    0    0  0.00000000000E+00  0.00000000000E+00  0.25665472949E+03  0.83722297500E+03  0.79691320713E+03 0.  0.
        3    1    3    3  502    0 -0.96445800535E+02  0.25873217135E+03  0.43012720162E+03  0.51112967896E+03  0.10100000352E+00 0.  1.
       -3    1    3    3    0  502  0.96445800535E+02 -0.25873217135E+03 -0.17347247213E+03  0.32609329604E+03  0.10100000352E+00 0. -1.
</event>
<event>
 5   0  0.2132540E-02  0.7912999E+03  0.7818609E-02  0.9572696E-01
       -1   -1    0    0    0  501  0.00000000000E+00  0.00000000000E+00  0.37130748238E+03  0.37130748242E+03  0.50400001928E-02 0.  1.
        1   -1    0    0  501    0  0.00000000000E+00  0.00000000000E+00 -0.42158830722E+03  0.42158830725E+03  0.50400001928E-02 0. -1.
    10030    2    1    2    0    0  0.00000000000E+00  0.00000000000E+00 -0.50280824835E+02  0.79289578967E+03  0.79129992539E+03 0.  0.
        4    1    3    3  502    0 -0.12544711349E+03  0.24185614074E+03 -0.31260906592E+03  0.41467747960E+03  0.12699999809E+01 0. -1.
       -4    1    3    3    0  502  0.12544711349E+03 -0.24185614074E+03  0.26232824108E+03  0.37821831006E+03  0.12699999809E+01 0.  1.
</event>
<event>
 5   0  0.2132540E-02  0.8057379E+03  0.7818609E-02  0.9551749E-01
        1   -1    0    0  501    0  0.00000000000E+00  0.00000000000E+00  0.11988101925E+04  0.11988101925E+04  0.50400001928E-02 0. -1.
       -1   -1    0    0    0  501  0.00000000000E+00  0.00000000000E+00 -0.13538706449E+03  0.13538706459E+03  0.50400001928E-02 0.  1.
    10030    2    1    2    0    0  0.00000000000E+00  0.00000000000E+00  0.10634231280E+04  0.13341972571E+04  0.80573790507E+03 0.  0.
        4    1    3    3  502    0 -0.30362340990E+03  0.87610325628E+02  0.11794600077E+03  0.33730641291E+03  0.12699999809E+01 0.  1.
       -4    1    3    3    0  502  0.30362340990E+03 -0.87610325628E+02  0.94547712725E+03  0.99689084420E+03  0.12699999809E+01 0. -1.
</event>
<event>
 5   0  0.1989298E-02  0.8044952E+03  0.7818609E-02  0.9553533E-01
        1   -1    0    0  501    0  0.00000000000E+00  0.00000000000E+00  0.67984417880E+03  0.67984417882E+03  0.50400001928E-02 0. -1.
       -1   -1    0    0    0  501  0.00000000000E+00  0.00000000000E+00 -0.23800034350E+03  0.23800034355E+03  0.50400001928E-02 0.  1.
    10030    2    1    2    0    0  0.00000000000E+00  0.00000000000E+00  0.44184383530E+03  0.91784452237E+03  0.80449524078E+03 0.  0.
        1    1    3    3  502    0  0.33593438541E+03 -0.20067656152E+03  0.32721606864E+03  0.51009151066E+03  0.50400001928E-02 0. -1.
       -1    1    3    3    0  502 -0.33593438541E+03  0.20067656152E+03  0.11462776667E+03  0.40775301171E+03  0.50400001928E-02 0.  1.
</event>
<event>
 5   0  0.3404132E-02  0.7927707E+03  0.7818609E-02  0.9570541E-01
        2   -1    0    0  501    0  0.00000000000E+00  0.00000000000E+00  0.55263510356E+03  0.55263510357E+03  0.25500000920E-02 0. -1.
       -2   -1    0    0    0  501  0.00000000000E+00  0.00000000000E+00 -0.28431299958E+03  0.28431299959E+03  0.25500000920E-02 0.  1.
    10030    2    1    2    0    0  0.00000000000E+00  0.00000000000E+00  0.26832210398E+03  0.83694810316E+03  0.79277069566E+03 0.  0.
        5    1    3    3  502    0 -0.30818424388E+03  0.97799741931E+02 -0.10786714278E+03  0.34088081229E+03  0.46999998093E+01 0.  1.
       -5    1    3    3    0  502  0.30818424388E+03 -0.97799741931E+02  0.37618924676E+03  0.49606729087E+03  0.46999998093E+01 0. -1.
</event>
<event>
 5   0  0.1989298E-02  0.8100866E+03  0.7818609E-02  0.9545531E-01
        1   -1    0    0  501    0  0.00000000000E+00  0.00000000000E+00  0.11943892823E+04  0.11943892823E+04  0.50400001928E-02 0. -1.
       -1   -1    0    0    0  501  0.00000000000E+00  0.00000000000E+00 -0.13735895634E+03  0.13735895643E+03  0.50400001928E-02 0.  1.
    10030    2    1    2    0    0  0.00000000000E+00  0.00000000000E+00  0.10570303260E+04  0.13317482388E+04  0.81008657648E+03 0.  0.
        1    1    3    3  502    0  0.34854378295E+03 -0.17012397340E+02  0.19045139596E+03  0.39754738654E+03  0.50400001928E-02 0.  1.
       -1    1    3    3    0  502 -0.34854378295E+03  0.17012397340E+02  0.86657893004E+03  0.93420085223E+03  0.50400001928E-02 0. -1.
</event>
<event>
 5   0  0.1358000E-02  0.8185814E+03  0.7818609E-02  0.9533504E-01
       -3   -1    0    0    0  501  0.00000000000E+00  0.00000000000E+00  0.46510249584E+03  0.46510250681E+03  0.10100000352E+00 0.  1.
        3   -1    0    0  501    0  0.00000000000E+00  0.00000000000E+00 -0.36017627665E+03  0.36017629081E+03  0.10100000352E+00 0. -1.
    10030    2    1    2    0    0  0.00000000000E+00  0.00000000000E+00  0.10492621920E+03  0.82527879762E+03  0.81858144514E+03 0.  0.
        4    1    3    3  502    0 -0.33203879627E+03 -0.16868792901E+03 -0.11866634409E+03  0.39088194348E+03  0.12699999809E+01 0. -1.
       -4    1    3    3    0  502  0.33203879627E+03  0.16868792901E+03  0.22359256329E+03  0.43439685413E+03  0.12699999809E+01 0.  1.
</event>
<event>
 5   0  0.3404132E-02  0.7776879E+03  0.7818609E-02  0.9592886E-01
       -2   -1    0    0    0  501  0.00000000000E+00  0.00000000000E+00  0.97881000934E+03  0.97881000934E+03  0.25500000920E-02 0.  1.
        2   -1    0    0  501    0  0.00000000000E+00  0.00000000000E+00 -0.15447291601E+03  0.15447291603E+03  0.25500000920E-02 0. -1.
    10030    2    1    2    0    0  0.00000000000E+00  0.00000000000E+00  0.82433709333E+03  0.11332829254E+04  0.77768794867E+03 0.  0.
        5    1    3    3  502    0  0.21271276619E+03  0.26839803125E+03  0.14388746589E+03  0.37149685990E+03  0.46999998093E+01 0. -1.
       -5    1    3    3    0  502 -0.21271276619E+03 -0.26839803125E+03  0.68044962743E+03  0.76178606547E+03  0.46999998093E+01 0.  1.
</event>
<event>
 5   0  0.3416160E-02  0.8126849E+03  0.7818609E-02  0.9541836E-01
       -2   -1    0    0    0  501  0.00000000000E+00  0.00000000000E+00  0.51607585545E+03  0.51607585545E+03  0.25500000920E-02 0. -1.
        2   -1    0    0  501    0  0.00000000000E+00  0.00000000000E+00 -0.31994168204E+03  0.31994168205E+03  0.25500000920E-02 0.  1.
    10030    2    1    2    0    0  0.00000000000E+00  0.00000000000E+00  0.19613417341E+03  0.83601753750E+03  0.81268487683E+03 0.  0.
        1    1    3    3  502    0 -0.18716637853E+02 -0.39018153868E+03 -0.17048485161E+02  0.39100204159E+03  0.50400001928E-02 0. -1.
       -1    1    3    3    0  502  0.18716637853E+02  0.39018153868E+03  0.21318265857E+03  0.44501549591E+03  0.50400001928E-02 0.  1.
</event>
<event>
 5   0  0.3343036E-02  0.8285704E+03  0.7818609E-02  0.9519559E-01
       -2   -1    0    0    0  501  0.00000000000E+00  0.00000000000E+00  0.24536808634E+03  0.24536808636E+03  0.25500000920E-02 0. -1.
        2   -1    0    0  501    0  0.00000000000E+00  0.00000000000E+00 -0.69948882943E+03  0.69948882943E+03  0.25500000920E-02 0.  1.
    10030    2    1    2    0    0  0.00000000000E+00  0.00000000000E+00 -0.45412074309E+03  0.94485691579E+03  0.82857042068E+03 0.  0.
        4    1    3    3  502    0  0.31749024137E+03  0.65427187584E+02  0.67117613602E+02  0.33103951002E+03  0.12699999809E+01 0. -1.
       -4    1    3    3    0  502 -0.31749024137E+03 -0.65427187584E+02 -0.52123835669E+03  0.61381740577E+03  0.12699999809E+01 0.  1.
</event>
<event>
 5   0  0.3404132E-02  0.7770562E+03  0.7818609E-02  0.9593834E-01
        2   -1    0    0  501    0  0.00000000000E+00  0.00000000000E+00  0.87460476366E+03  0.87460476366E+03  0.25500000920E-02 0. -1.
       -2   -1    0    0    0  501  0.00000000000E+00  0.00000000000E+00 -0.17259691296E+03  0.17259691297E+03  0.25500000920E-02 0.  1.
    10030    2    1    2    0    0  0.00000000000E+00  0.00000000000E+00  0.70200785071E+03  0.10472016766E+04  0.77705619430E+03 0.  0.
        5    1    3    3  502    0 -0.13271517070E+03 -0.17045418077E+03  0.78616014296E+03  0.81531454339E+03  0.46999998093E+01 0. -1.
       -5    1    3    3    0  502  0.13271517070E+03  0.17045418077E+03 -0.84152292259E+02  0.23188713325E+03  0.46999998093E+01 0.  1.
</event>
<event>
 5   0  0.2132540E-02  0.7986939E+03  0.7818609E-02  0.9561910E-01
        1   -1    0    0  501    0  0.00000000000E+00  0.00000000000E+00  0.76571442366E+03  0.76571442368E+03  0.50400001928E-02 0. -1.
       -1   -1    0    0    0  501  0.00000000000E+00  0.00000000000E+00 -0.20827344936E+03  0.20827344942E+03  0.50400001928E-02 0.  1.
    10030    2    1    2    0    0  0.00000000000E+00  0.00000000000E+00  0.55744097430E+03  0.97398787310E+03  0.79869389451E+03 0.  0.
        4    1    3    3  502    0 -0.24691588114E+03 -0.24794025769E+03  0.44040147982E+02  0.35267970069E+03  0.12699999809E+01 0.  1.
       -4    1    3    3    0  502  0.24691588114E+03  0.24794025769E+03  0.51340082632E+03  0.62130817241E+03  0.12699999809E+01 0. -1.
</event>
<event>
 5   0  0.3416160E-02  0.8033590E+03  0.7818609E-02  0.9555168E-01
        2   -1    0    0  501    0  0.00000000000E+00  0.00000000000E+00  0.10215938414E+04  0.10215938414E+04  0.25500000920E-02 0.  1.
       -2   -1    0    0    0  501  0.00000000000E+00  0.00000000000E+00 -0.15793598679E+03  0.15793598681E+03  0.25500000920E-02 0. -1.
    10030    2    1    2    0    0  0.00000000000E+00  0.00000000000E+00  0.86365785462E+03  0.11795298282E+04  0.80335902672E+03 0.  0.
        1    1    3    3  502    0  0.23801688999E+03 -0.30789973724E+03  0.57785972241E+03  0.69668941927E+03  0.50400001928E-02 0.  1.
       -1    1    3    3    0  502 -0.23801688999E+03  0.30789973724E+03  0.28579813221E+03  0.48284040895E+03  0.50400001928E-02 0. -1.
</event>
<event>
 5   0  0.2132540E-02  0.8638345E+03  0.7818609E-02  0.9471955E-01
       -1   -1    0    0    0  501  0.00000000000E+00  0.00000000000E+00  0.31953465236E+03  0.31953465240E+03  0.50400001928E-02 0.  1.
        1   -1    0    0  501    0  0.00000000000E+00  0.00000000000E+00 -0.58382554100E+03  0.58382554102E+03  0.50400001928E-02 0. -1.
    10030    2    1    2    0    0  0.00000000000E+00  0.00000000000E+00 -0.26429088863E+03  0.90336019342E+03  0.86383445477E+03 0.  0.
        4    1    3    3  502    0 -0.23885665894E+03  0.31891452541E+03 -0.30648243669E+03  0.50268486643E+03  0.12699999809E+01 0. -1.
       -4    1    3    3    0  502  0.23885665894E+03 -0.31891452541E+03  0.42191548056E+02  0.40067532700E+03  0.12699999809E+01 0.  1.
</event>
<event>
 5   0  0.2063692E-02  0.8087304E+03  0.7818609E-02  0.9547465E-01
       -1   -1    0    0    0  501  0.00000000000E+00  0.00000000000E+00  0.21923139147E+03  0.21923139152E+03  0.50400001928E-02 0.  1.
        1   -1    0    0  501    0  0.00000000000E+00  0.00000000000E+00 -0.74583857940E+03  0.74583857942E+03  0.50400001928E-02 0. -1.
    10030    2    1    2    0    0  0.00000000000E+00  0.00000000000E+00 -0.52660718794E+03  0.96506997094E+03  0.80873043620E+03 0.  0.
        2    1    3    3  502    0  0.37405766204E+03 -0.14861742946E+03 -0.30959674390E+03  0.50779564660E+03  0.25500000920E-02 0.  1.
       -2    1    3    3    0  502 -0.37405766204E+03  0.14861742946E+03 -0.21701044404E+03  0.45727432434E+03  0.25500000920E-02 0. -1.
</event>
<event>
 5   0  0.1358000E-02  0.8044684E+03  0.7818609E-02  0.9553572E-01
       -4   -1    0    0    0  501  0.00000000000E+00  0.00000000000E+00  0.40910044746E+03  0.40910241874E+03  0.12699999809E+01 0.  1.
        4   -1    0    0  501    0  0.00000000000E+00  0.00000000000E+00 -0.39547920331E+03  0.39548124248E+03  0.12699999809E+01 0. -1.
    10030    2    1    2    0    0  0.00000000000E+00  0.00000000000E+00  0.13621244154E+02  0.80458366121E+03  0.80446835214E+03 0.  0.
        1    1    3    3  502    0  0.21124612468E+03  0.27946360203E+03  0.20449396144E+03  0.40563852177E+03  0.50400001928E-02 0.  1.
       -1    1    3    3    0  502 -0.21124612468E+03 -0.27946360203E+03 -0.19087271729E+03  0.39894513944E+03  0.50400001928E-02 0. -1.
</event>
<event>
 5   0  0.1989298E-02  0.8064348E+03  0.7818609E-02  0.9550749E-01
       -1   -1    0    0    0  501  0.00000000000E+00  0.00000000000E+00  0.36141546078E+03  0.36141546081E+03  0.50400001928E-02 0.  1.
        1   -1    0    0  501    0  0.00000000000E+00  0.00000000000E+00 -0.44985417522E+03  0.44985417525E+03  0.50400001928E-02 0. -1.
    10030    2    1    2    0    0  0.00000000000E+00  0.00000000000E+00 -0.88438714443E+02  0.81126963606E+03  0.80643475631E+03 0.  0.
        1    1    3    3  502    0  0.89963369734E+02 -0.38712251893E+03  0.24210526637E+02  0.39817508986E+03  0.50400001928E-02 0.  1.
       -1    1    3    3    0  502 -0.89963369734E+02  0.38712251893E+03 -0.11264924108E+03  0.41309454620E+03  0.50400001928E-02 0. -1.
</event>
<event>
 5   0  0.2132540E-02  0.8281987E+03  0.7818609E-02  0.9520074E-01
        1   -1    0    0  501    0  0.00000000000E+00  0.00000000000E+00  0.82930533621E+03  0.82930533622E+03  0.50400001928E-02 0. -1.
       -1   -1    0    0    0  501  0.00000000000E+00  0.00000000000E+00 -0.20677338844E+03  0.20677338851E+03  0.50400001928E-02 0.  1.
    10030    2    1    2    0    0  0.00000000000E+00  0.00000000000E+00  0.62253194776E+03  0.10360787247E+04  0.82819870674E+03 0.  0.
        4    1    3    3  502    0 -0.23408151032E+03  0.24042200603E+03  0.61482367106E+03  0.70043319014E+03  0.12699999809E+01 0. -1.
       -4    1    3    3    0  502  0.23408151032E+03 -0.24042200603E+03  0.77082767000E+01  0.33564553458E+03  0.12699999809E+01 0.  1.
</event>
<event>
 5   0  0.3343036E-02  0.8034455E+03  0.7818609E-02  0.9555043E-01
        2   -1    0    0  501    0  0.00000000000E+00  0.00000000000E+00  0.50318959755E+03  0.50318959756E+03  0.25500000920E-02 0. -1.
       -2   -1    0    0    0  501  0.00000000000E+00  0.00000000000E+00 -0.32071639310E+03  0.32071639311E+03  0.25500000920E-02 0.  1.
    10030    2    1    2    0    0  0.00000000000E+00  0.00000000000E+00  0.18247320445E+03  0.82390599066E+03  0.80344546244E+03 0.  0.
        4    1    3    3  502    0  0.62414875267E+02  0.73155007829E+02  0.49121075603E+03  0.50053660362E+03  0.12699999809E+01 0. -1.
       -4    1    3    3    0  502 -0.62414875267E+02 -0.73155007829E+02 -0.30873755158E+03  0.32336938705E+03  0.12699999809E+01 0.  1.
</event>
<event>
 5   0  0.3343036E-02  0.7925327E+03  0.7818609E-02  0.9570889E-01
        2   -1    0    0  501    0  0.00000000000E+00  0.00000000000E+00  0.12233951643E+04  0.12233951643E+04  0.25500000920E-02 0. -1.
       -2   -1    0    0    0  501  0.00000000000E+00  0.00000000000E+00 -0.12835346528E+03  0.12835346531E+03  0.25500000920E-02 0.  1.
    10030    2    1    2    0    0  0.00000000000E+00  0.00000000000E+00  0.10950416991E+04  0.13517486296E+04  0.79253267130E+03 0.  0.
        4    1    3    3  502    0  0.36919214018E+02 -0.26674938237E+03  0.10433424596E+04  0.10775357824E+04  0.12699999809E+01 0. -1.
       -4    1    3    3    0  502 -0.36919214018E+02  0.26674938237E+03  0.51699239456E+02  0.27421284729E+03  0.12699999809E+01 0.  1.
</event>
<event>
 5   0  0.2129257E-02  0.7713214E+03  0.7818609E-02  0.9602482E-01
        1   -1    0    0  501    0  0.00000000000E+00  0.00000000000E+00  0.38145196394E+03  0.38145196397E+03  0.50400001928E-02 0. -1.
       -1   -1    0    0    0  501  0.00000000000E+00  0.00000000000E+00 -0.38991591575E+03  0.38991591578E+03  0.50400001928E-02 0.  1.
    10030    2    1    2    0    0  0.00000000000E+00  0.00000000000E+00 -0.84639518090E+01  0.77136787976E+03  0.77132144236E+03 0.  0.
        3    1    3    3  502    0 -0.19807856733E+03  0.17719578239E+02 -0.33468352566E+03  0.38930986995E+03  0.10100000352E+00 0.  1.
       -3    1    3    3    0  502  0.19807856733E+03 -0.17719578239E+02  0.32621957385E+03  0.38205800981E+03  0.10100000352E+00 0. -1.
</event>
<event>
 5   0  0.3467240E-02  0.7910458E+03  0.7818609E-02  0.9573069E-01
       -2   -1    0    0    0  501  0.00000000000E+00  0.00000000000E+00  0.76191208147E+02  0.76191208190E+02  0.25500000920E-02 0.  1.
        2   -1    0    0  501    0  0.00000000000E+00  0.00000000000E+00 -0.20532340126E+04  0.20532340126E+04  0.25500000920E-02 0. -1.
    10030    2    1    2    0    0  0.00000000000E+00  0.00000000000E+00 -0.19770428045E+04  0.21294252208E+04  0.79104583958E+03 0.  0.
        2    1    3    3  502    0 -0.30615117689E+03  0.97002208987E+02 -0.16099997625E+04  0.16417177610E+04  0.25500000920E-02 0. -1.
       -2    1    3    3    0  502  0.30615117689E+03 -0.97002208987E+02 -0.36704304202E+03  0.48770745981E+03  0.25500000920E-02 0.  1.
</event>
<event>
 5   0  0.2077795E-02  0.7710288E+03  0.7818609E-02  0.9602925E-01
       -1   -1    0    0    0  501  0.00000000000E+00  0.00000000000E+00  0.29738654133E+03  0.29738654138E+03  0.50400001928E-02 0. -1.
        1   -1    0    0  501    0  0.00000000000E+00  0.00000000000E+00 -0.49975815125E+03  0.49975815127E+03  0.50400001928E-02 0.  1.
    10030    2    1    2    0    0  0.00000000000E+00  0.00000000000E+00 -0.20237160991E+03  0.79714469265E+03  0.77102878839E+03 0.  0.
        5    1    3    3  502    0 -0.67587339096E+02 -0.26044420811E+03  0.18420772268E+03  0.32611931718E+03  0.46999998093E+01 0. -1.
       -5    1    3    3    0  502  0.67587339096E+02  0.26044420811E+03 -0.38657933260E+03  0.47102537547E+03  0.46999998093E+01 0.  1.
</event>
<event>
 5   0  0.3416160E-02  0.8019713E+03  0.7818609E-02  0.9557168E-01
       -2   -1    0    0    0  501  0.00000000000E+00  0.00000000000E+00  0.11241488416E+03  0.11241488418E+03  0.25500000920E-02 0. -1.
        2   -1    0    0  501    0  0.00000000000E+00  0.00000000000E+00 -0.14303222145E+04  0.14303222145E+04  0.25500000920E-02 0.  1.
    10030    2    1    2    0    0  0.00000000000E+00  0.00000000000E+00 -0.13179073303E+04  0.15427370986E+04  0.80197133632E+03 0.  0.
        1    1    3    3  502    0 -0.13128934727E+03 -0.37806761891E+03 -0.70675583863E+03  0.81220430474E+03  0.50400001928E-02 0.  1.
       -1    1    3    3    0  502  0.13128934727E+03  0.37806761891E+03 -0.61115149167E+03  0.73053279391E+03  0.50400001928E-02 0. -1.
</event>
<event>
 5   0  0.3343036E-02  0.8045396E+03  0.7818609E-02  0.9553469E-01
       -2   -1    0    0    0  501  0.00000000000E+00  0.00000000000E+00  0.24783217333E+03  0.24783217335E+03  0.25500000920E-02 0.  1.
        2   -1    0    0  501    0  0.00000000000E+00  0.00000000000E+00 -0.65294592275E+03  0.65294592276E+03  0.25500000920E-02 0. -1.
    10030    2    1    2    0    0  0.00000000000E+00  0.00000000000E+00 -0.40511374942E+03  0.90077809611E+03  0.80453963759E+03 0.  0.
        4    1    3    3  502    0 -0.28713841867E+03 -0.25260123553E+03 -0.62879988653E+02  0.38757110514E+03  0.12699999809E+01 0.  1.
       -4    1    3    3    0  502  0.28713841867E+03  0.25260123553E+03 -0.34223376077E+03  0.51320699096E+03  0.12699999809E+01 0. -1.
</event>
<event>
 5   0  0.2129257E-02  0.8004675E+03  0.7818609E-02  0.9559341E-01
        1   -1    0    0  501    0  0.00000000000E+00  0.00000000000E+00  0.17252407375E+03  0.17252407382E+03  0.50400001928E-02 0.  1.
       -1   -1    0    0    0  501  0.00000000000E+00  0.00000000000E+00 -0.92849109231E+03  0.92849109233E+03  0.50400001928E-02 0. -1.
    10030    2    1    2    0    0  0.00000000000E+00  0.00000000000E+00 -0.75596701856E+03  0.11010151661E+04  0.80046752772E+03 0.  0.
        3    1    3    3  502    0  0.28793379199E+03  0.11866628672E+03 -0.72376870967E+03  0.78792684399E+03  0.10100000352E+00 0. -1.
       -3    1    3    3    0  502 -0.28793379199E+03 -0.11866628672E+03 -0.32198308890E+02  0.31308832216E+03  0.10100000352E+00 0.  1.
</event>
<event>
 5   0  0.3343036E-02  0.8020034E+03  0.7818609E-02  0.9557122E-01
       -2   -1    0    0    0  501  0.00000000000E+00  0.00000000000E+00  0.11341840067E+03  0.11341840070E+03  0.25500000920E-02 0.  1.
        2   -1    0    0  501    0  0.00000000000E+00  0.00000000000E+00 -0.14177801964E+04  0.14177801965E+04  0.25500000920E-02 0. -1.
    10030    2    1    2    0    0  0.00000000000E+00  0.00000000000E+00 -0.13043617958E+04  0.15311985971E+04  0.80200339751E+03 0.  0.
        4    1    3    3  502    0 -0.12565412699E+03 -0.34817370351E+03 -0.94663925962E+03  0.10164356291E+04  0.12699999809E+01 0.  1.
       -4    1    3    3    0  502  0.12565412699E+03  0.34817370351E+03 -0.35772253616E+03  0.51476296800E+03  0.12699999809E+01 0. -1.
</event>
<event>
 5   0  0.3404132E-02  0.7919895E+03  0.7818609E-02  0.9571685E-01
        2   -1    0    0  501    0  0.00000000000E+00  0.00000000000E+00  0.83042003979E+03  0.83042003979E+03  0.25500000920E-02 0.  1.
       -2   -1    0    0    0  501  0.00000000000E+00  0.00000000000E+00 -0.18883438968E+03  0.18883438969E+03  0.25500000920E-02 0. -1.
    10030    2    1    2    0    0  0.00000000000E+00  0.00000000000E+00  0.64158565011E+03  0.10192544295E+04  0.79198954892E+03 0.  0.
        5    1    3    3  502    0  0.36066749464E+03 -0.16019954852E+03  0.36239220723E+03  0.53581259680E+03  0.46999998093E+01 0. -1.
       -5    1    3    3    0  502 -0.36066749464E+03  0.16019954852E+03  0.27919344289E+03  0.48344183268E+03  0.46999998093E+01 0.  1.
</event>
<event>
 5   0  0.3416160E-02  0.8018932E+03  0.7818609E-02  0.9557281E-01
        2   -1    0    0  501    0  0.00000000000E+00  0.00000000000E+00  0.19678930281E+03  0.19678930282E+03  0.25500000920E-02 0.  1.
       -2   -1    0    0    0  501  0.00000000000E+00  0.00000000000E+00 -0.81690507378E+03  0.81690507379E+03  0.25500000920E-02 0. -1.
    10030    2    1    2    0    0  0.00000000000E+00  0.00000000000E+00 -0.62011577098E+03  0.10136943766E+04  0.80189320970E+03 0.  0.
        1    1    3    3  502    0  0.31300945168E+03  0.15025543946E+03 -0.56353513869E+03  0.66190895635E+03  0.50400001928E-02 0. -1.
       -1    1    3    3    0  502 -0.31300945168E+03 -0.15025543946E+03 -0.56580632282E+02  0.35178542026E+03  0.50400001928E-02 0.  1.
</event>
<event>
 5   0  0.2132540E-02  0.7615323E+03  0.7818609E-02  0.9617430E-01
        1   -1    0    0  501    0  0.00000000000E+00  0.00000000000E+00  0.79035830508E+03  0.79035830510E+03  0.50400001928E-02 0. -1.
       -1   -1    0    0    0  501  0.00000000000E+00  0.00000000000E+00 -0.18343942462E+03  0.18343942468E+03  0.50400001928E-02 0.  1.
    10030    2    1    2    0    0  0.00000000000E+00  0.00000000000E+00  0.60691888047E+03  0.97379772978E+03  0.76153233094E+03 0.  0.
        4    1    3    3  502    0  0.24155668858E+03 -0.11273939634E+03  0.65112819628E+03  0.70358321909E+03  0.12699999809E+01 0. -1.
       -4    1    3    3    0  502 -0.24155668858E+03  0.11273939634E+03 -0.44209315813E+02  0.27021451070E+03  0.12699999809E+01 0.  1.
</event>
<event>
 5   0  0.3416160E-02  0.7974880E+03  0.7818609E-02  0.9563660E-01
        2   -1    0    0  501    0  0.00000000000E+00  0.00000000000E+00  0.39293755453E+03  0.39293755453E+03  0.25500000920E-02 0. -1.
       -2   -1    0    0    0  501  0.00000000000E+00  0.00000000000E+00 -0.40463629223E+03  0.40463629224E+03  0.25500000920E-02 0.  1.
    10030    2    1    2    0    0  0.00000000000E+00  0.00000000000E+00 -0.11698737707E+02  0.79757384678E+03  0.79748804417E+03 0.  0.
        1    1    3    3  502    0  0.23646685496E+03  0.15498239323E+03 -0.28705693060E+03  0.40291164929E+03  0.50400001928E-02 0.  1.
       -1    1    3    3    0  502 -0.23646685496E+03 -0.15498239323E+03  0.27535819289E+03  0.39466219748E+03  0.50400001928E-02 0. -1.
</event>
<event>
 5   0  0.2063692E-02  0.7119775E+03  0.7818609E-02  0.9696966E-01
       -1   -1    0    0    0  501  0.00000000000E+00  0.00000000000E+00  0.75143558153E+02  0.75143558322E+02  0.50400001928E-02 0. -1.
        1   -1    0    0  501    0  0.00000000000E+00  0.00000000000E+00 -0.16864783301E+04  0.16864783301E+04  0.50400001928E-02 0.  1.
    10030    2    1    2    0    0  0.00000000000E+00  0.00000000000E+00 -0.16113347720E+04  0.17616218885E+04  0.71197747894E+03 0.  0.
        2    1    3    3  502    0  0.33011746819E+03 -0.69597769720E+02 -0.52457297989E+03  0.62369720506E+03  0.25500000920E-02 0.  1.
       -2    1    3    3    0  502 -0.33011746819E+03  0.69597769720E+02 -0.10867617921E+04  0.11379246834E+04  0.25500000920E-02 0. -1.
</event>
<event>
 5   0  0.3550586E-02  0.8023847E+03  0.7818609E-02  0.9556572E-01
       -2   -1    0    0    0  501  0.00000000000E+00  0.00000000000E+00  0.22370365489E+03  0.22370365490E+03  0.25500000920E-02 0.  1.
        2   -1    0    0  501    0  0.00000000000E+00  0.00000000000E+00 -0.71950229885E+03  0.71950229885E+03  0.25500000920E-02 0. -1.
    10030    2    1    2    0    0  0.00000000000E+00  0.00000000000E+00 -0.49579864396E+03  0.94320595375E+03  0.80238468071E+03 0.  0.
        3    1    3    3  502    0 -0.31005946342E+03 -0.23580386171E+03 -0.13505740987E+03  0.41228733453E+03  0.10100000352E+00 0.  1.
       -3    1    3    3    0  502  0.31005946342E+03  0.23580386171E+03 -0.36074123410E+03  0.53091861922E+03  0.10100000352E+00 0. -1.
</event>
<event>
 5   0  0.2132540E-02  0.8032970E+03  0.7818609E-02  0.9555257E-01
        1   -1    0    0  501    0  0.00000000000E+00  0.00000000000E+00  0.48031713541E+03  0.48031713543E+03  0.50400001928E-02 0. -1.
       -1   -1    0    0    0  501  0.00000000000E+00  0.00000000000E+00 -0.33586455358E+03  0.33586455362E+03  0.50400001928E-02 0.  1.
    10030    2    1    2    0    0  0.00000000000E+00  0.00000000000E+00  0.14445258182E+03  0.81618168905E+03  0.80329695702E+03 0.  0.
        4    1    3    3  502    0  0.11876116571E+01 -0.36224790020E+03  0.24848778039E+03  0.43928662798E+03  0.12699999809E+01 0. -1.
       -4    1    3    3    0  502 -0.11876116571E+01  0.36224790020E+03 -0.10403519857E+03  0.37689506107E+03  0.12699999809E+01 0.  1.
</event>
<event>
 5   0  0.2132540E-02  0.9215956E+03  0.7818609E-02  0.9398981E-01
       -1   -1    0    0    0  501  0.00000000000E+00  0.00000000000E+00  0.39948646368E+03  0.39948646372E+03  0.50400001928E-02 0. -1.
        1   -1    0    0  501    0  0.00000000000E+00  0.00000000000E+00 -0.53151892854E+03  0.53151892856E+03  0.50400001928E-02 0.  1.
    10030    2    1    2    0    0  0.00000000000E+00  0.00000000000E+00 -0.13203246485E+03  0.93100539228E+03  0.92159561016E+03 0.  0.
        4    1    3    3  502    0 -0.36896004031E+03 -0.21682322470E+03 -0.23860906735E+03  0.48997930777E+03  0.12699999809E+01 0.  1.
       -4    1    3    3    0  502  0.36896004031E+03  0.21682322470E+03  0.10657660250E+03  0.44102608451E+03  0.12699999809E+01 0. -1.
</event>
<event>
 5   0  0.3416160E-02  0.8023466E+03  0.7818609E-02  0.9556627E-01
        2   -1    0    0  501    0  0.00000000000E+00  0.00000000000E+00  0.91149207649E+03  0.91149207649E+03  0.25500000920E-02 0. -1.
       -2   -1    0    0    0  501  0.00000000000E+00  0.00000000000E+00 -0.17656765084E+03  0.17656765086E+03  0.25500000920E-02 0.  1.
    10030    2    1    2    0    0  0.00000000000E+00  0.00000000000E+00  0.73492442564E+03  0.10880597274E+04  0.80234659523E+03 0.  0.
        1    1    3    3  502    0  0.28468616826E+03  0.33092248791E+02 -0.13209194372E+02  0.28690729195E+03  0.50400001928E-02 0.  1.
       -1    1    3    3    0  502 -0.28468616826E+03 -0.33092248791E+02  0.74813362002E+03  0.80115243540E+03  0.50400001928E-02 0. -1.
</event>
<event>
 5   0  0.3343036E-02  0.8085752E+03  0.7818609E-02  0.9547687E-01
        2   -1    0    0  501    0  0.00000000000E+00  0.00000000000E+00  0.19186925681E+04  0.19186925681E+04  0.25500000920E-02 0. -1.
       -2   -1    0    0    0  501  0.00000000000E+00  0.00000000000E+00 -0.85187406417E+02  0.85187406455E+02  0.25500000920E-02 0.  1.
    10030    2    1    2    0    0  0.00000000000E+00  0.00000000000E+00  0.18335051617E+04  0.20038799745E+04  0.80857515081E+03 0.  0.
        4    1    3    3  502    0  0.38836934550E+03  0.71415323421E+02  0.70189890538E+03  0.80535370069E+03  0.12699999809E+01 0. -1.
       -4    1    3    3    0  502 -0.38836934550E+03 -0.71415323421E+02  0.11316062563E+04  0.11985262739E+04  0.12699999809E+01 0.  1.
</event>
<event>
 5   0  0.2077795E-02  0.6625286E+03  0.7818609E-02  0.9783550E-01
        1   -1    0    0  501    0  0.00000000000E+00  0.00000000000E+00  0.98613878000E+03  0.98613878001E+03  0.50400001928E-02 0. -1.
       -1   -1    0    0    0  501  0.00000000000E+00  0.00000000000E+00 -0.11127848687E+03  0.11127848699E+03  0.50400001928E-02 0.  1.
    10030    2    1    2    0    0  0.00000000000E+00  0.00000000000E+00  0.87486029312E+03  0.10974172670E+04  0.66252858460E+03 0.  0.
        5    1    3    3  502    0  0.24087480856E+03  0.16989837343E+03  0.68769467551E+03  0.74821934445E+03  0.46999998093E+01 0. -1.
       -5    1    3    3    0  502 -0.24087480856E+03 -0.16989837343E+03  0.18716561761E+03  0.34919792254E+03  0.46999998093E+01 0.  1.
</event>
<event>
 5   0  0.3416160E-02  0.7768758E+03  0.7818609E-02  0.9594105E-01
        2   -1    0    0  501    0  0.00000000000E+00  0.00000000000E+00  0.47450497348E+03  0.47450497349E+03  0.25500000920E-02 0.  1.
       -2   -1    0    0    0  501  0.00000000000E+00  0.00000000000E+00 -0.31798192953E+03  0.31798192954E+03  0.25500000920E-02 0. -1.
    10030    2    1    2    0    0  0.00000000000E+00  0.00000000000E+00  0.15652304395E+03  0.79248690303E+03  0.77687581259E+03 0.  0.
        1    1    3    3  502    0 -0.63989294418E+02  0.90193675344E+02  0.45810742252E+03  0.47126631480E+03  0.50400001928E-02 0.  1.
       -1    1    3    3    0  502  0.63989294418E+02 -0.90193675344E+02 -0.30158437857E+03  0.32122058822E+03  0.50400001928E-02 0. -1.
</event>
<event>
 5   0  0.3550586E-02  0.7764223E+03  0.7818609E-02  0.9594786E-01
        2   -1    0    0  501    0  0.00000000000E+00  0.00000000000E+00  0.29080101169E+03  0.29080101170E+03  0.25500000920E-02 0. -1.
       -2   -1    0    0    0  501  0.00000000000E+00  0.00000000000E+00 -0.51825094220E+03  0.51825094221E+03  0.25500000920E-02 0.  1.
    10030    2    1    2    0    0  0.00000000000E+00  0.00000000000E+00 -0.22744993051E+03  0.80905195391E+03  0.77642230342E+03 0.  0.
        3    1    3    3  502    0 -0.26819988238E+02  0.25359680283E+03  0.19128296928E+03  0.31877866100E+03  0.10100000352E+00 0. -1.
       -3    1    3    3    0  502  0.26819988238E+02 -0.25359680283E+03 -0.41873289979E+03  0.49027329291E+03  0.10100000352E+00 0.  1.
</event>
<event>
 5   0  0.1989298E-02  0.7917017E+03  0.7818609E-02  0.9572107E-01
       -1   -1    0    0    0  501  0.00000000000E+00  0.00000000000E+00  0.51307094981E+03  0.51307094983E+03  0.50400001928E-02 0.  1.
        1   -1    0    0  501    0  0.00000000000E+00  0.00000000000E+00 -0.30541177720E+03  0.30541177725E+03  0.50400001928E-02 0. -1.
    10030    2    1    2    0    0  0.00000000000E+00  0.00000000000E+00  0.20765917260E+03  0.81848272708E+03  0.79170173838E+03 0.  0.
        1    1    3    3  502    0  0.30619428529E+03  0.13299222728E+03 -0.11610127960E+03  0.35344218766E+03  0.50400001928E-02 0. -1.
       -1    1    3    3    0  502 -0.30619428529E+03 -0.13299222728E+03  0.32376045221E+03  0.46504053942E+03  0.50400001928E-02 0.  1.
</event>
<event>
 5   0  0.2132540E-02  0.8073472E+03  0.7818609E-02  0.9549443E-01
        1   -1    0    0  501    0  0.00000000000E+00  0.00000000000E+00  0.21337120838E+04  0.21337120838E+04  0.50400001928E-02 0. -1.
       -1   -1    0    0    0  501  0.00000000000E+00  0.00000000000E+00 -0.76370360303E+02  0.76370360469E+02  0.50400001928E-02 0.  1.
    10030    2    1    2    0    0  0.00000000000E+00  0.00000000000E+00  0.20573417235E+04  0.22100824443E+04  0.80734716401E+03 0.  0.
        4    1    3    3  502    0 -0.16088402841E+03  0.33017544518E+03  0.57018675966E+03  0.67824335528E+03  0.12699999809E+01 0. -1.
       -4    1    3    3    0  502  0.16088402841E+03 -0.33017544518E+03  0.14871549638E+04  0.15318390890E+04  0.12699999809E+01 0.  1.
</event>
<event>
 5   0  0.2129257E-02  0.8136124E+03  0.7818609E-02  0.9540520E-01
       -1   -1    0    0    0  501  0.00000000000E+00  0.00000000000E+00  0.22070550201E+03  0.22070550207E+03  0.50400001928E-02 0.  1.
        1   -1    0    0  501    0  0.00000000000E+00  0.00000000000E+00 -0.74982852037E+03  0.74982852038E+03  0.50400001928E-02 0. -1.
    10030    2    1    2    0    0  0.00000000000E+00  0.00000000000E+00 -0.52912301836E+03  0.97053402245E+03  0.81361238940E+03 0.  0.
        3    1    3    3  502    0  0.30408836860E+03 -0.14840188973E+02  0.57295363005E+02  0.30979466740E+03  0.10100000352E+00 0.  1.
       -3    1    3    3    0  502 -0.30408836860E+03  0.14840188973E+02 -0.58641838136E+03  0.66073935506E+03  0.10100000352E+00 0. -1.
</event>
<event>
 5   0  0.2077795E-02  0.8562534E+03  0.7818609E-02  0.9481982E-01
        1   -1    0    0  501    0  0.00000000000E+00  0.00000000000E+00  0.14291542839E+04  0.14291542839E+04  0.50400001928E-02 0. -1.
       -1   -1    0    0    0  501  0.00000000000E+00  0.00000000000E+00 -0.12825239933E+03  0.12825239943E+03  0.50400001928E-02 0.  1.
    10030    2    1    2    0    0  0.00000000000E+00  0.00000000000E+00  0.13009018845E+04  0.15574066833E+04  0.85625338773E+03 0.  0.
        5    1    3    3  502    0 -0.30088217515E+03  0.66652967357E+02  0.11909243919E+04  0.12301608426E+04  0.46999998093E+01 0. -1.
       -5    1    3    3    0  502  0.30088217515E+03 -0.66652967357E+02  0.10997749262E+03  0.32724584071E+03  0.46999998093E+01 0.  1.
</event>
<event>
 5   0  0.1358000E-02  0.6565553E+03  0.7818609E-02  0.9794556E-01
        3   -1    0    0  501    0  0.00000000000E+00  0.00000000000E+00  0.16365507893E+03  0.16365511009E+03  0.10100000352E+00 0.  1.
       -3   -1    0    0    0  501  0.00000000000E+00  0.00000000000E+00 -0.65849597150E+03  0.65849597925E+03  0.10100000352E+00 0. -1.
    10030    2    1    2    0    0  0.00000000000E+00  0.00000000000E+00 -0.49484089258E+03  0.82215108934E+03  0.65655533258E+03 0.  0.
        1    1    3    3  502    0 -0.17991801414E+03  0.24556532917E+03 -0.93578808725E+02  0.31848048005E+03  0.50400001928E-02 0.  1.
       -1    1    3    3    0  502  0.17991801414E+03 -0.24556532917E+03 -0.40126208385E+03  0.50367060929E+03  0.50400001928E-02 0. -1.
</event>
<event>
 5   0  0.2129257E-02  0.8038486E+03  0.7818609E-02  0.9554463E-01
       -1   -1    0    0    0  501  0.00000000000E+00  0.00000000000E+00  0.28239481334E+03  0.28239481338E+03  0.50400001928E-02 0.  1.
        1   -1    0    0  501    0  0.00000000000E+00  0.00000000000E+00 -0.57204714680E+03  0.57204714682E+03  0.50400001928E-02 0. -1.
    10030    2    1    2    0    0  0.00000000000E+00  0.00000000000E+00 -0.28965233346E+03  0.85444196020E+03  0.80384861079E+03 0.  0.
        3    1    3    3  502    0  0.26106518738E+01  0.20703129528E+03 -0.51099953859E+03  0.55135225706E+03  0.10100000352E+00 0. -1.
       -3    1    3    3    0  502 -0.26106518738E+01 -0.20703129528E+03  0.22134720513E+03  0.30308970314E+03  0.10100000352E+00 0.  1.
</event>
<event>
 5   0  0.3343036E-02  0.8187508E+03  0.7818609E-02  0.9533266E-01
        2   -1    0    0  501    0  0.00000000000E+00  0.00000000000E+00  0.68448395096E+03  0.68448395096E+03  0.25500000920E-02 0.  1.
       -2   -1    0    0    0  501  0.00000000000E+00  0.00000000000E+00 -0.24483880512E+03  0.24483880513E+03  0.25500000920E-02 0. -1.
    10030    2    1    2    0    0  0.00000000000E+00  0.00000000000E+00  0.43964514584E+03  0.92932275609E+03  0.81875083556E+03 0.  0.
        4    1    3    3  502    0 -0.26122822499E+03 -0.21657266066E+03  0.47975317162E+03  0.58762966352E+03  0.12699999809E+01 0.  1.
       -4    1    3    3    0  502  0.26122822499E+03  0.21657266066E+03 -0.40108025779E+02  0.34169309257E+03  0.12699999809E+01 0. -1.
</event>
<event>
 5   0  0.3416160E-02  0.7982531E+03  0.7818609E-02  0.9562549E-01
        2   -1    0    0  501    0  0.00000000000E+00  0.00000000000E+00  0.21101818586E+04  0.21101818586E+04  0.25500000920E-02 0.  1.
       -2   -1    0    0    0  501  0.00000000000E+00  0.00000000000E+00 -0.75492079157E+02  0.75492079200E+02  0.25500000920E-02 0. -1.
    10030    2    1    2    0    0  0.00000000000E+00  0.00000000000E+00  0.20346897794E+04  0.21856739378E+04  0.79825313267E+03 0.  0.
        1    1    3    3  502    0 -0.17096418007E+03  0.31394240885E+03  0.53128187869E+03  0.64035070203E+03  0.50400001928E-02 0. -1.
       -1    1    3    3    0  502  0.17096418007E+03 -0.31394240885E+03  0.15034079007E+04  0.15453232358E+04  0.50400001928E-02 0.  1.
</event>
<event>
 5   0  0.2063692E-02  0.7904750E+03  0.7818609E-02  0.9573907E-01
        1   -1    0    0  501    0  0.00000000000E+00  0.00000000000E+00  0.92956767437E+03  0.92956767439E+03  0.50400001928E-02 0.  1.
       -1   -1    0    0    0  501  0.00000000000E+00  0.00000000000E+00 -0.16804873433E+03  0.16804873441E+03  0.50400001928E-02 0. -1.
    10030    2    1    2    0    0  0.00000000000E+00  0.00000000000E+00  0.76151894004E+03  0.10976164088E+04  0.79047497419E+03 0.  0.
        2    1    3    3  502    0 -0.73020481964E+02 -0.38834586326E+03  0.39222415125E+03  0.55676232373E+03  0.25500000920E-02 0. -1.
       -2    1    3    3    0  502  0.73020481964E+02  0.38834586326E+03  0.36929478879E+03  0.54085408506E+03  0.25500000920E-02 0.  1.
</event>
<event>
 5   0  0.3404132E-02  0.8036600E+03  0.7818609E-02  0.9554735E-01
        2   -1    0    0  501    0  0.00000000000E+00  0.00000000000E+00  0.13283781476E+04  0.13283781476E+04  0.25500000920E-02 0. -1.
       -2   -1    0    0    0  501  0.00000000000E+00  0.00000000000E+00 -0.12155223700E+03  0.12155223703E+03  0.25500000920E-02 0.  1.
    10030    2    1    2    0    0  0.00000000000E+00  0.00000000000E+00  0.12068259106E+04  0.14499303846E+04  0.80365996652E+03 0.  0.
        5    1    3    3  502    0  0.33171440142E+03  0.18258595592E+03  0.84595776382E+03  0.92684340834E+03  0.46999998093E+01 0. -1.
       -5    1    3    3    0  502 -0.33171440142E+03 -0.18258595592E+03  0.36086814675E+03  0.52308697628E+03  0.46999998093E+01 0.  1.
</event>
<event>
 5   0  0.2063692E-02  0.7972643E+03  0.7818609E-02  0.9563985E-01
        1   -1    0    0  501    0  0.00000000000E+00  0.00000000000E+00  0.15549819090E+04  0.15549819090E+04  0.50400001928E-02 0.  1.
       -1   -1    0    0    0  501  0.00000000000E+00  0.00000000000E+00 -0.10219257612E+03  0.10219257625E+03  0.50400001928E-02 0. -1.
    10030    2    1    2    0    0  0.00000000000E+00  0.00000000000E+00  0.14527893328E+04  0.16571744852E+04  0.79726434063E+03 0.  0.
        2    1    3    3  502    0 -0.23933786547E+03  0.19204983223E+03  0.19751305346E+03  0.36493445740E+03  0.25500000920E-02 0. -1.
       -2    1    3    3    0  502  0.23933786547E+03 -0.19204983223E+03  0.12552762794E+04  0.12922400278E+04  0.25500000920E-02 0.  1.
</event>
<event>
 5   0  0.3467240E-02  0.7810786E+03  0.7818609E-02  0.9587816E-01
        2   -1    0    0  501    0  0.00000000000E+00  0.00000000000E+00  0.48649499614E+03  0.48649499614E+03  0.25500000920E-02 0.  1.
       -2   -1    0    0    0  501  0.00000000000E+00  0.00000000000E+00 -0.31350982413E+03  0.31350982414E+03  0.25500000920E-02 0. -1.
    10030    2    1    2    0    0  0.00000000000E+00  0.00000000000E+00  0.17298517200E+03  0.80000482028E+03  0.78107864056E+03 0.  0.
        2    1    3    3  502    0 -0.14853259183E+03  0.35431386298E+03  0.14645028712E+02  0.38446680118E+03  0.25500000920E-02 0.  1.
       -2    1    3    3    0  502  0.14853259183E+03 -0.35431386298E+03  0.15834014329E+03  0.41553801910E+03  0.25500000920E-02 0. -1.
</event>
<event>
 5   0  0.3550586E-02  0.7156107E+03  0.7818609E-02  0.9690902E-01
        2   -1    0    0  501    0  0.00000000000E+00  0.00000000000E+00  0.10140868529E+04  0.10140868529E+04  0.25500000920E-02 0.  1.
       -2   -1    0    0    0  501  0.00000000000E+00  0.00000000000E+00 -0.12624625241E+03  0.12624625244E+03  0.25500000920E-02 0. -1.
    10030    2    1    2    0    0  0.00000000000E+00  0.00000000000E+00  0.88784060046E+03  0.11403331053E+04  0.71561068973E+03 0.  0.
        3    1    3    3  502    0  0.31066200872E+03 -0.88042809852E+02  0.19828060339E+03  0.37891638644E+03  0.10100000352E+00 0. -1.
       -3    1    3    3    0  502 -0.31066200872E+03  0.88042809852E+02  0.68955999707E+03  0.76141671888E+03  0.10100000352E+00 0.  1.
</event>
<event>
 5   0  0.1358000E-02  0.8286623E+03  0.7818609E-02  0.9519432E-01
        3   -1    0    0  501    0  0.00000000000E+00  0.00000000000E+00  0.65102115379E+03  0.65102116162E+03  0.10100000352E+00 0.  1.
       -3   -1    0    0    0  501  0.00000000000E+00  0.00000000000E+00 -0.26369385717E+03  0.26369387652E+03  0.10100000352E+00 0. -1.
    10030    2    1    2    0    0  0.00000000000E+00  0.00000000000E+00  0.38732729661E+03  0.91471503814E+03  0.82866227517E+03 0.  0.
        4    1    3    3  502    0  0.29819516283E+03 -0.64881124635E+02 -0.11568646538E+03  0.32636618489E+03  0.12699999809E+01 0. -1.
       -4    1    3    3    0  502 -0.29819516283E+03  0.64881124635E+02  0.50301376199E+03  0.58834885325E+03  0.12699999809E+01 0.  1.
</event>
<event>
 5   0  0.3416160E-02  0.7649420E+03  0.7818609E-02  0.9612196E-01
        2   -1    0    0  501    0  0.00000000000E+00  0.00000000000E+00  0.13664474800E+04  0.13664474800E+04  0.25500000920E-02 0. -1.
       -2   -1    0    0    0  501  0.00000000000E+00  0.00000000000E+00 -0.10705427717E+03  0.10705427720E+03  0.25500000920E-02 0.  1.
    10030    2    1    2    0    0  0.00000000000E+00  0.00000000000E+00  0.12593932028E+04  0.14735017572E+04  0.76494195146E+03 0.  0.
        1    1    3    3  502    0 -0.15412223151E+03  0.11110438792E+03  0.12691159614E+04  0.12832588090E+04  0.50400001928E-02 0. -1.
       -1    1    3    3    0  502  0.15412223151E+03 -0.11110438792E+03 -0.97227586548E+01  0.19024294815E+03  0.50400001928E-02 0.  1.
</event>
<event>
 5   0  0.3343036E-02  0.6142458E+03  0.7818609E-02  0.9876284E-01
        2   -1    0    0  501    0  0.00000000000E+00  0.00000000000E+00  0.54583597209E+03  0.54583597210E+03  0.25500000920E-02 0.  1.
       -2   -1    0    0    0  501  0.00000000000E+00  0.00000000000E+00 -0.17280735650E+03  0.17280735652E+03  0.25500000920E-02 0. -1.
    10030    2    1    2    0    0  0.00000000000E+00  0.00000000000E+00  0.37302861559E+03  0.71864332862E+03  0.61424578609E+03 0.  0.
        4    1    3    3  502    0  0.28645919106E+03 -0.10013262643E+02  0.57480204467E+02  0.29234349724E+03  0.12699999809E+01 0. -1.
       -4    1    3    3    0  502 -0.28645919106E+03  0.10013262643E+02  0.31554841112E+03  0.42629983138E+03  0.12699999809E+01 0.  1.
</event>
<event>
 5   0  0.2077795E-02  0.7915862E+03  0.7818609E-02  0.9572276E-01
        1   -1    0    0  501    0  0.00000000000E+00  0.00000000000E+00  0.14264314155E+04  0.14264314155E+04  0.50400001928E-02 0.  1.
       -1   -1    0    0    0  501  0.00000000000E+00  0.00000000000E+00 -0.10982105104E+03  0.10982105116E+03  0.50400001928E-02 0. -1.
    10030    2    1    2    0    0  0.00000000000E+00  0.00000000000E+00  0.13166103644E+04  0.15362524666E+04  0.79158624894E+03 0.  0.
        5    1    3    3  502    0  0.21805184891E+02 -0.94551377301E+02 -0.86323754514E+02  0.12995887668E+03  0.46999998093E+01 0. -1.
       -5    1    3    3    0  502 -0.21805184891E+02  0.94551377301E+02  0.14029341189E+04  0.14062935899E+04  0.46999998093E+01 0.  1.
</event>
<event>
 5   0  0.2063692E-02  0.7950508E+03  0.7818609E-02  0.9567209E-01
       -1   -1    0    0    0  501  0.00000000000E+00  0.00000000000E+00  0.19626628609E+03  0.19626628616E+03  0.50400001928E-02 0.  1.
        1   -1    0    0  501    0  0.00000000000E+00  0.00000000000E+00 -0.80516337365E+03  0.80516337367E+03  0.50400001928E-02 0. -1.
    10030    2    1    2    0    0  0.00000000000E+00  0.00000000000E+00 -0.60889708756E+03  0.10014296598E+04  0.79505075331E+03 0.  0.
        2    1    3    3  502    0  0.12305403502E+03 -0.34962401036E+03 -0.12345796108E+03  0.39066752145E+03  0.25500000920E-02 0.  1.
       -2    1    3    3    0  502 -0.12305403502E+03  0.34962401036E+03 -0.48543912648E+03  0.61076213838E+03  0.25500000920E-02 0. -1.
</event>
<event>
 5   0  0.2077795E-02  0.7956596E+03  0.7818609E-02  0.9566321E-01
       -1   -1    0    0    0  501  0.00000000000E+00  0.00000000000E+00  0.13521716674E+03  0.13521716684E+03  0.50400001928E-02 0.  1.
        1   -1    0    0  501    0  0.00000000000E+00  0.00000000000E+00 -0.11704768903E+04  0.11704768903E+04  0.50400001928E-02 0. -1.
    10030    2    1    2    0    0  0.00000000000E+00  0.00000000000E+00 -0.10352597236E+04  0.13056940572E+04  0.79565964813E+03 0.  0.
        5    1    3    3  502    0  0.10961694658E+03  0.20844470783E+03 -0.10437335845E+04  0.10699845590E+04  0.46999998093E+01 0. -1.
       -5    1    3    3    0  502 -0.10961694658E+03 -0.20844470783E+03  0.84738608831E+01  0.23570949815E+03  0.46999998093E+01 0.  1.
</event>
<event>
 5   0  0.3550586E-02  0.7738328E+03  0.7818609E-02  0.9598685E-01
        2   -1    0    0  501    0  0.00000000000E+00  0.00000000000E+00  0.25113144125E+04  0.25113144125E+04  0.25500000920E-02 0.  1.
       -2   -1    0    0    0  501  0.00000000000E+00  0.00000000000E+00 -0.59611933806E+02  0.59611933861E+02  0.25500000920E-02 0. -1.
    10030    2    1    2    0    0  0.00000000000E+00  0.00000000000E+00  0.24517024787E+04  0.25709263463E+04  0.77383282069E+03 0.  0.
        3    1    3    3  502    0 -0.17023833936E+03 -0.34306419630E+03  0.10429673223E+04  0.11110602956E+04  0.10100000352E+00 0. -1.
       -3    1    3    3    0  502  0.17023833936E+03  0.34306419630E+03  0.14087351564E+04  0.14598660507E+04  0.10100000352E+00 0.  1.
</event>
<event>
 5   0  0.3467240E-02  0.7912479E+03  0.7818609E-02  0.9572773E-01
       -2   -1    0    0    0  501  0.00000000000E+00  0.00000000000E+00  0.10411364446E+03  0.10411364449E+03  0.25500000920E-02 0.  1.
        2   -1    0    0  501    0  0.00000000000E+00  0.00000000000E+00 -0.15033409443E+04  0.15033409443E+04  0.25500000920E-02 0. -1.
    10030    2    1    2    0    0  0.00000000000E+00  0.00000000000E+00 -0.13992272998E+04  0.16074545888E+04  0.79124788684E+03 0.  0.
        2    1    3    3  502    0  0.57939985105E+01 -0.36589711890E+03 -0.10050488680E+04  0.10695968863E+04  0.25500000920E-02 0. -1.
       -2    1    3    3    0  502 -0.57939985105E+01  0.36589711890E+03 -0.39417843182E+03  0.53785770251E+03  0.25500000920E-02 0.  1.
</event>
<event>
 5   0  0.3404132E-02  0.6610998E+03  0.7818609E-02  0.9786171E-01
        2   -1    0    0  501    0  0.00000000000E+00  0.00000000000E+00  0.55469340242E+03  0.55469340242E+03  0.25500000920E-02 0. -1.
       -2   -1    0    0    0  501  0.00000000000E+00  0.00000000000E+00 -0.19697953821E+03  0.19697953823E+03  0.25500000920E-02 0.  1.
    10030    2    1    2    0    0  0.00000000000E+00  0.00000000000E+00  0.35771386421E+03  0.75167294065E+03  0.66109984197E+03 0.  0.
        5    1    3    3  502    0  0.21659448282E+03  0.54358732477E+02 -0.98192199462E+02  0.24399147489E+03  0.46999998093E+01 0.  1.
       -5    1    3    3    0  502 -0.21659448282E+03 -0.54358732477E+02  0.45590606367E+03  0.50768146576E+03  0.46999998093E+01 0. -1.
</event>
<event>
 5   0  0.2132540E-02  0.8022780E+03  0.7818609E-02  0.9556726E-01
        1   -1    0    0  501    0  0.00000000000E+00  0.00000000000E+00  0.36576830002E+03  0.36576830006E+03  0.50400001928E-02 0. -1.
       -1   -1    0    0    0  501  0.00000000000E+00  0.00000000000E+00 -0.43993012368E+03  0.43993012371E+03  0.50400001928E-02 0.  1.
    10030    2    1    2    0    0  0.00000000000E+00  0.00000000000E+00 -0.74161823658E+02  0.80569842377E+03  0.80227799046E+03 0.  0.
        4    1    3    3  502    0 -0.14876716631E+03  0.28591441123E+03 -0.27691314264E+03  0.42492496018E+03  0.12699999809E+01 0.  1.
       -4    1    3    3    0  502  0.14876716631E+03 -0.28591441123E+03  0.20275131898E+03  0.38077346358E+03  0.12699999809E+01 0. -1.
</event>
<event>
 5   0  0.1989298E-02  0.7960839E+03  0.7818609E-02  0.9565703E-01
       -1   -1    0    0    0  501  0.00000000000E+00  0.00000000000E+00  0.71818767000E+03  0.71818767001E+03  0.50400001928E-02 0. -1.
        1   -1    0    0  501    0  0.00000000000E+00  0.00000000000E+00 -0.22060725937E+03  0.22060725943E+03  0.50400001928E-02 0.  1.
    10030    2    1    2    0    0  0.00000000000E+00  0.00000000000E+00  0.49758041062E+03  0.93879492945E+03  0.79608394942E+03 0.  0.
        1    1    3    3  502    0  0.13137050245E+03  0.30855301096E+03  0.50164381985E+03  0.60341502426E+03  0.50400001928E-02 0. -1.
       -1    1    3    3    0  502 -0.13137050245E+03 -0.30855301096E+03 -0.40634092297E+01  0.33537990519E+03  0.50400001928E-02 0.  1.
</event>
<event>
 5   0  0.3467240E-02  0.8022647E+03  0.7818609E-02  0.9556745E-01
       -2   -1    0    0    0  501  0.00000000000E+00  0.00000000000E+00  0.69344360888E+02  0.69344360935E+02  0.25500000920E-02 0. -1.
        2   -1    0    0  501    0  0.00000000000E+00  0.00000000000E+00 -0.23204075162E+04  0.23204075162E+04  0.25500000920E-02 0.  1.
    10030    2    1    2    0    0  0.00000000000E+00  0.00000000000E+00 -0.22510631553E+04  0.23897518771E+04  0.80226473502E+03 0.  0.
        2    1    3    3  502    0  0.37133311703E+03  0.13578238476E+03 -0.13271658621E+04  0.13848084219E+04  0.25500000920E-02 0.  1.
       -2    1    3    3    0  502 -0.37133311703E+03 -0.13578238476E+03 -0.92389729319E+03  0.10049434552E+04  0.25500000920E-02 0. -1.
</event>
<event>
 5   0  0.1358000E-02  0.5957092E+03  0.7818609E-02  0.9914348E-01
        3   -1    0    0  501    0  0.00000000000E+00  0.00000000000E+00  0.11505021452E+03  0.11505025886E+03  0.10100000352E+00 0. -1.
       -3   -1    0    0    0  501  0.00000000000E+00  0.00000000000E+00 -0.77111838787E+03  0.77111839448E+03  0.10100000352E+00 0.  1.
    10030    2    1    2    0    0  0.00000000000E+00  0.00000000000E+00 -0.65606817335E+03  0.88616865334E+03  0.59570918583E+03 0.  0.
        2    1    3    3  502    0 -0.32829112361E+02  0.53553835530E+02 -0.76115311375E+03  0.76374068013E+03  0.25500000920E-02 0.  1.
       -2    1    3    3    0  502  0.32829112361E+02 -0.53553835530E+02  0.10508494040E+03  0.12242797321E+03  0.25500000920E-02 0. -1.
</event>
<event>
 5   0  0.2132540E-02  0.8823690E+03  0.7818609E-02  0.9447893E-01
       -1   -1    0    0    0  501  0.00000000000E+00  0.00000000000E+00  0.20826458811E+03  0.20826458817E+03  0.50400001928E-02 0.  1.
        1   -1    0    0  501    0  0.00000000000E+00  0.00000000000E+00 -0.93459852367E+03  0.93459852368E+03  0.50400001928E-02 0. -1.
    10030    2    1    2    0    0  0.00000000000E+00  0.00000000000E+00 -0.72633393555E+03  0.11428631119E+04  0.88236903079E+03 0.  0.
        4    1    3    3  502    0 -0.64154874762E+02 -0.23202959762E+03  0.11569470333E+03  0.26709634854E+03  0.12699999809E+01 0.  1.
       -4    1    3    3    0  502  0.64154874762E+02  0.23202959762E+03 -0.84202863888E+03  0.87576676331E+03  0.12699999809E+01 0. -1.
</event>
<event>
 5   0  0.3343036E-02  0.7962773E+03  0.7818609E-02  0.9565421E-01
        2   -1    0    0  501    0  0.00000000000E+00  0.00000000000E+00  0.82453978148E+03  0.82453978149E+03  0.25500000920E-02 0.  1.
       -2   -1    0    0    0  501  0.00000000000E+00  0.00000000000E+00 -0.19224590252E+03  0.19224590253E+03  0.25500000920E-02 0. -1.
    10030    2    1    2    0    0  0.00000000000E+00  0.00000000000E+00  0.63229387897E+03  0.10167856840E+04  0.79627732471E+03 0.  0.
        4    1    3    3  502    0  0.16225690308E+03  0.87748686229E+02  0.76667797636E+03  0.78855809353E+03  0.12699999809E+01 0.  1.
       -4    1    3    3    0  502 -0.16225690308E+03 -0.87748686229E+02 -0.13438409739E+03  0.22822759050E+03  0.12699999809E+01 0. -1.
</event>
<event>
 5   0  0.2077795E-02  0.8041137E+03  0.7818609E-02  0.9554082E-01
       -1   -1    0    0    0  501  0.00000000000E+00  0.00000000000E+00  0.45618987070E+03  0.45618987073E+03  0.50400001928E-02 0.  1.
        1   -1    0    0  501    0  0.00000000000E+00  0.00000000000E+00 -0.35434742350E+03  0.35434742354E+03  0.50400001928E-02 0. -1.
    10030    2    1    2    0    0  0.00000000000E+00  0.00000000000E+00  0.10184244720E+03  0.81053729427E+03  0.80411368683E+03 0.  0.
        5    1    3    3  502    0 -0.37506813332E+03 -0.11734697819E+03 -0.34497677698E+02  0.39453592699E+03  0.46999998093E+01 0. -1.
       -5    1    3    3    0  502  0.37506813332E+03  0.11734697819E+03  0.13634012490E+03  0.41600136728E+03  0.46999998093E+01 0.  1.
</event>
<event>
 5   0  0.3404132E-02  0.7950556E+03  0.7818609E-02  0.9567202E-01
       -2   -1    0    0    0  501  0.00000000000E+00  0.00000000000E+00  0.10253374561E+04  0.10253374561E+04  0.25500000920E-02 0.  1.
        2   -1    0    0  501    0  0.00000000000E+00  0.00000000000E+00 -0.15412325515E+03  0.15412325517E+03  0.25500000920E-02 0. -1.
    10030    2    1    2    0    0  0.00000000000E+00  0.00000000000E+00  0.87121420097E+03  0.11794607113E+04  0.79505558642E+03 0.  0.
        5    1    3    3  502    0  0.77867526469E+02 -0.38979299601E+03  0.43252194449E+03  0.58745149066E+03  0.46999998093E+01 0.  1.
       -5    1    3    3    0  502 -0.77867526469E+02  0.38979299601E+03  0.43869225648E+03  0.59200922063E+03  0.46999998093E+01 0. -1.
</event>
<event>
 5   0  0.3416160E-02  0.7914360E+03  0.7818609E-02  0.9572497E-01
        2   -1    0    0  501    0  0.00000000000E+00  0.00000000000E+00  0.87685993665E+03  0.87685993665E+03  0.25500000920E-02 0.  1.
       -2   -1    0    0    0  501  0.00000000000E+00  0.00000000000E+00 -0.17858351121E+03  0.17858351123E+03  0.25500000920E-02 0. -1.
    10030    2    1    2    0    0  0.00000000000E+00  0.00000000000E+00  0.69827642544E+03  0.10554434479E+04  0.79143597678E+03 0.  0.
        1    1    3    3  502    0  0.12063173458E+03  0.20227698081E+03 -0.74941869903E+02  0.24715233409E+03  0.50400001928E-02 0. -1.
       -1    1    3    3    0  502 -0.12063173458E+03 -0.20227698081E+03  0.77321829534E+03  0.80829111379E+03  0.50400001928E-02 0.  1.
</event>
<event>
 5   0  0.1989298E-02  0.8019281E+03  0.7818609E-02  0.9557231E-01
       -1   -1    0    0    0  501  0.00000000000E+00  0.00000000000E+00  0.60602736673E+03  0.60602736675E+03  0.50400001928E-02 0.  1.
        1   -1    0    0  501    0  0.00000000000E+00  0.00000000000E+00 -0.26528860505E+03  0.26528860510E+03  0.50400001928E-02 0. -1.
    10030    2    1    2    0    0  0.00000000000E+00  0.00000000000E+00  0.34073876168E+03  0.87131597185E+03  0.80192806354E+03 0.  0.
        1    1    3    3  502    0  0.23032358807E+02  0.11894890009E+02  0.60511595546E+03  0.60567094823E+03  0.50400001928E-02 0.  1.
       -1    1    3    3    0  502 -0.23032358807E+02 -0.11894890009E+02 -0.26437719377E+03  0.26564502362E+03  0.50400001928E-02 0. -1.
</event>
<event>
 5   0  0.1358000E-02  0.7984716E+03  0.7818609E-02  0.9562232E-01
       -3   -1    0    0    0  501  0.00000000000E+00  0.00000000000E+00  0.22197363223E+03  0.22197365520E+03  0.10100000352E+00 0. -1.
        3   -1    0    0  501    0  0.00000000000E+00  0.00000000000E+00 -0.71805466560E+03  0.71805467271E+03  0.10100000352E+00 0.  1.
    10030    2    1    2    0    0  0.00000000000E+00  0.00000000000E+00 -0.49608103338E+03  0.94002832791E+03  0.79847158096E+03 0.  0.
        3    1    3    3  502    0 -0.13786368018E+03 -0.24041119187E+03 -0.58636449288E+03  0.64855783412E+03  0.10100000352E+00 0.  1.
       -3    1    3    3    0  502  0.13786368018E+03  0.24041119187E+03  0.90283459502E+02  0.29147049379E+03  0.10100000352E+00 0. -1.
</event>
<event>
 5   0  0.2063692E-02  0.7768802E+03  0.7818609E-02  0.9594098E-01
        1   -1    0    0  501    0  0.00000000000E+00  0.00000000000E+00  0.36373357429E+03  0.36373357433E+03  0.50400001928E-02 0.  1.
       -1   -1    0    0    0  501  0.00000000000E+00  0.00000000000E+00 -0.41482479322E+03  0.41482479325E+03  0.50400001928E-02 0. -1.
    10030    2    1    2    0    0  0.00000000000E+00  0.00000000000E+00 -0.51091218930E+02  0.77855836758E+03  0.77688018321E+03 0.  0.
        2    1    3    3  502    0 -0.25302658443E+02 -0.38756021731E+03 -0.32083365800E+02  0.38970820999E+03  0.25500000920E-02 0. -1.
       -2    1    3    3    0  502  0.25302658443E+02  0.38756021731E+03 -0.19007853130E+02  0.38885015759E+03  0.25500000920E-02 0.  1.
</event>
<event>
 5   0  0.2132540E-02  0.8398305E+03  0.7818609E-02  0.9504089E-01
        1   -1    0    0  501    0  0.00000000000E+00  0.00000000000E+00  0.67143856109E+03  0.67143856111E+03  0.50400001928E-02 0. -1.
       -1   -1    0    0    0  501  0.00000000000E+00  0.00000000000E+00 -0.26261346661E+03  0.26261346666E+03  0.50400001928E-02 0.  1.
    10030    2    1    2    0    0  0.00000000000E+00  0.00000000000E+00  0.40882509448E+03  0.93405202777E+03  0.83983047856E+03 0.  0.
        4    1    3    3  502    0  0.13978149095E+03 -0.16439487968E+03  0.60505253596E+03  0.64238207155E+03  0.12699999809E+01 0. -1.
       -4    1    3    3    0  502 -0.13978149095E+03  0.16439487968E+03 -0.19622744148E+03  0.29166995623E+03  0.12699999809E+01 0.  1.
</event>
<event>
 5   0  0.2132540E-02  0.7928869E+03  0.7818609E-02  0.9570370E-01
       -1   -1    0    0    0  501  0.00000000000E+00  0.00000000000E+00  0.33764201260E+03  0.33764201264E+03  0.50400001928E-02 0. -1.
        1   -1    0    0  501    0  0.00000000000E+00  0.00000000000E+00 -0.46548539975E+03  0.46548539977E+03  0.50400001928E-02 0.  1.
    10030    2    1    2    0    0  0.00000000000E+00  0.00000000000E+00 -0.12784338715E+03  0.80312741241E+03  0.79288694587E+03 0.  0.
        4    1    3    3  502    0 -0.38023294390E+03  0.15642324616E+02  0.48616994709E+02  0.38364957842E+03  0.12699999809E+01 0. -1.
       -4    1    3    3    0  502  0.38023294390E+03 -0.15642324616E+02 -0.17646038185E+03  0.41947783399E+03  0.12699999809E+01 0.  1.
</event>
<event>
 5   0  0.1989298E-02  0.8057596E+03  0.7818609E-02  0.9551718E-01
       -1   -1    0    0    0  501  0.00000000000E+00  0.00000000000E+00  0.17906726047E+03  0.17906726054E+03  0.50400001928E-02 0.  1.
        1   -1    0    0  501    0  0.00000000000E+00  0.00000000000E+00 -0.90643110841E+03  0.90643110842E+03  0.50400001928E-02 0. -1.
    10030    2    1    2    0    0  0.00000000000E+00  0.00000000000E+00 -0.72736384794E+03  0.10854983690E+04  0.80575960543E+03 0.  0.
        1    1    3    3  502    0  0.12489879535E+03 -0.23485688025E+03  0.43946011805E+02  0.26960844805E+03  0.50400001928E-02 0.  1.
       -1    1    3    3    0  502 -0.12489879535E+03  0.23485688025E+03 -0.77130985974E+03  0.81588992091E+03  0.50400001928E-02 0. -1.
</event>
<event>
 5   0  0.3404132E-02  0.8021559E+03  0.7818609E-02  0.9556902E-01
        2   -1    0    0  501    0  0.00000000000E+00  0.00000000000E+00  0.12805215137E+03  0.12805215140E+03  0.25500000920E-02 0. -1.
       -2   -1    0    0    0  501  0.00000000000E+00  0.00000000000E+00 -0.12562345023E+04  0.12562345023E+04  0.25500000920E-02 0.  1.
    10030    2    1    2    0    0  0.00000000000E+00  0.00000000000E+00 -0.11281823510E+04  0.13842866537E+04  0.80215592168E+03 0.  0.
        5    1    3    3  502    0  0.29887431541E+03  0.19373851865E+03 -0.88220689345E+03  0.95140504669E+03  0.46999998093E+01 0.  1.
       -5    1    3    3    0  502 -0.29887431541E+03 -0.19373851865E+03 -0.24597545753E+03  0.43288160705E+03  0.46999998093E+01 0. -1.
</event>
<event>
 5   0  0.3467240E-02  0.8081645E+03  0.7818609E-02  0.9548274E-01
       -2   -1    0    0    0  501  0.00000000000E+00  0.00000000000E+00  0.16736740375E+03  0.16736740377E+03  0.25500000920E-02 0.  1.
        2   -1    0    0  501    0  0.00000000000E+00  0.00000000000E+00 -0.97559295356E+03  0.97559295357E+03  0.25500000920E-02 0. -1.
    10030    2    1    2    0    0  0.00000000000E+00  0.00000000000E+00 -0.80822554981E+03  0.11429603573E+04  0.80816448764E+03 0.  0.
        2    1    3    3  502    0 -0.24683544668E+03  0.24738258405E+03 -0.11719923773E+03  0.36859400695E+03  0.25500000920E-02 0. -1.
       -2    1    3    3    0  502  0.24683544668E+03 -0.24738258405E+03 -0.69102631208E+03  0.77436635039E+03  0.25500000920E-02 0.  1.
</event>
<event>
 5   0  0.2063692E-02  0.5135669E+03  0.7818609E-02  0.1010297E+00
        1   -1    0    0  501    0  0.00000000000E+00  0.00000000000E+00  0.14560828772E+04  0.14560828772E+04  0.50400001928E-02 0.  1.
       -1   -1    0    0    0  501  0.00000000000E+00  0.00000000000E+00 -0.45284330490E+02  0.45284330770E+02  0.50400001928E-02 0. -1.
    10030    2    1    2    0    0  0.00000000000E+00  0.00000000000E+00  0.14107985467E+04  0.15013672079E+04  0.51356689320E+03 0.  0.
        2    1    3    3  502    0  0.46368973581E+02 -0.20394621346E+03  0.11409149291E+04  0.11599271594E+04  0.25500000920E-02 0.  1.
       -2    1    3    3    0  502 -0.46368973581E+02  0.20394621346E+03  0.26988361757E+03  0.34144004853E+03  0.25500000920E-02 0. -1.
</event>
<event>
 5   0  0.2132540E-02  0.7990790E+03  0.7818609E-02  0.9561351E-01
        1   -1    0    0  501    0  0.00000000000E+00  0.00000000000E+00  0.45859166681E+03  0.45859166683E+03  0.50400001928E-02 0.  1.
       -1   -1    0    0    0  501  0.00000000000E+00  0.00000000000E+00 -0.34809138946E+03  0.34809138949E+03  0.50400001928E-02 0. -1.
    10030    2    1    2    0    0  0.00000000000E+00  0.00000000000E+00  0.11050027735E+03  0.80668305633E+03  0.79907899614E+03 0.  0.
        4    1    3    3  502    0  0.23578098413E+03  0.29105089395E+03  0.19559429852E+03  0.42256601598E+03  0.12699999809E+01 0.  1.
       -4    1    3    3    0  502 -0.23578098413E+03 -0.29105089395E+03 -0.85094021166E+02  0.38411704035E+03  0.12699999809E+01 0. -1.
</event>
<event>
 5   0  0.2129257E-02  0.8191736E+03  0.7818609E-02  0.9532671E-01
       -1   -1    0    0    0  501  0.00000000000E+00  0.00000000000E+00  0.10954299021E+03  0.10954299033E+03  0.50400001928E-02 0. -1.
        1   -1    0    0  501    0  0.00000000000E+00  0.00000000000E+00 -0.15314660050E+04  0.15314660050E+04  0.50400001928E-02 0.  1.
    10030    2    1    2    0    0  0.00000000000E+00  0.00000000000E+00 -0.14219230148E+04  0.16410089953E+04  0.81917364629E+03 0.  0.
        3    1    3    3  502    0 -0.18680860277E+03  0.30567507863E+02 -0.14385837983E+04  0.14509842114E+04  0.10100000352E+00 0.  1.
       -3    1    3    3    0  502  0.18680860277E+03 -0.30567507863E+02  0.16660783566E+02  0.19002478395E+03  0.10100000352E+00 0. -1.
</event>
<event>
 5   0  0.1989298E-02  0.7990968E+03  0.7818609E-02  0.9561325E-01
       -1   -1    0    0    0  501  0.00000000000E+00  0.00000000000E+00  0.54553526329E+03  0.54553526331E+03  0.50400001928E-02 0. -1.
        1   -1    0    0  501    0  0.00000000000E+00  0.00000000000E+00 -0.29262804529E+03  0.29262804533E+03  0.50400001928E-02 0.  1.
    10030    2    1    2    0    0  0.00000000000E+00  0.00000000000E+00  0.25290721800E+03  0.83816330864E+03  0.79909678453E+03 0.  0.
        1    1    3    3  502    0  0.38474913075E+03  0.10684473931E+03  0.11194911741E+03  0.41470507212E+03  0.50400001928E-02 0.  1.
       -1    1    3    3    0  502 -0.38474913075E+03 -0.10684473931E+03  0.14095810059E+03  0.42345823652E+03  0.50400001928E-02 0. -1.
</event>
<event>
 5   0  0.2063692E-02  0.8051633E+03  0.7818609E-02  0.9552573E-01
        1   -1    0    0  501    0  0.00000000000E+00  0.00000000000E+00  0.82967714639E+03  0.82967714640E+03  0.50400001928E-02 0. -1.
       -1   -1    0    0    0  501  0.00000000000E+00  0.00000000000E+00 -0.19534345543E+03  0.19534345550E+03  0.50400001928E-02 0.  1.
    10030    2    1    2    0    0  0.00000000000E+00  0.00000000000E+00  0.63433369096E+03  0.10250206019E+04  0.80516333923E+03 0.  0.
        2    1    3    3  502    0 -0.30153842443E+03 -0.99704100845E+01  0.65649664026E+03  0.72250444231E+03  0.25500000920E-02 0.  1.
       -2    1    3    3    0  502  0.30153842443E+03  0.99704100845E+01 -0.22162949302E+02  0.30251615959E+03  0.25500000920E-02 0. -1.
</event>
<event>
 5   0  0.2132540E-02  0.7754534E+03  0.7818609E-02  0.9596243E-01
        1   -1    0    0  501    0  0.00000000000E+00  0.00000000000E+00  0.99388122663E+03  0.99388122665E+03  0.50400001928E-02 0. -1.
       -1   -1    0    0    0  501  0.00000000000E+00  0.00000000000E+00 -0.15125749951E+03  0.15125749960E+03  0.50400001928E-02 0.  1.
    10030    2    1    2    0    0  0.00000000000E+00  0.00000000000E+00  0.84262372712E+03  0.11451387262E+04  0.77545338792E+03 0.  0.
        4    1    3    3  502    0  0.13713500950E+03  0.27668175375E+02 -0.11268404518E+03  0.17964087981E+03  0.12699999809E+01 0.  1.
       -4    1    3    3    0  502 -0.13713500950E+03 -0.27668175375E+02  0.95530777230E+03  0.96549784644E+03  0.12699999809E+01 0. -1.
</event>
<event>
 5   0  0.2129257E-02  0.8231252E+03  0.7818609E-02  0.9527135E-01
        1   -1    0    0  501    0  0.00000000000E+00  0.00000000000E+00  0.10112489793E+04  0.10112489793E+04  0.50400001928E-02 0. -1.
       -1   -1    0    0    0  501  0.00000000000E+00  0.00000000000E+00 -0.16749958752E+03  0.16749958760E+03  0.50400001928E-02 0.  1.
    10030    2    1    2    0    0  0.00000000000E+00  0.00000000000E+00  0.84374939179E+03  0.11787485669E+04  0.82312523219E+03 0.  0.
        3    1    3    3  502    0 -0.17118413377E+03 -0.17999375835E+03 -0.48048466624E+02  0.25300281826E+03  0.10100000352E+00 0.  1.
       -3    1    3    3    0  502  0.17118413377E+03  0.17999375835E+03  0.89179785841E+03  0.92574574867E+03  0.10100000352E+00 0. -1.
</event>
<event>
 5   0  0.3467240E-02  0.7978146E+03  0.7818609E-02  0.9563186E-01
        2   -1    0    0  501    0  0.00000000000E+00  0.00000000000E+00  0.17949430854E+03  0.17949430856E+03  0.25500000920E-02 0.  1.
       -2   -1    0    0    0  501  0.00000000000E+00  0.00000000000E+00 -0.88652976907E+03  0.88652976908E+03  0.25500000920E-02 0. -1.
    10030    2    1    2    0    0  0.00000000000E+00  0.00000000000E+00 -0.70703546053E+03  0.10660240776E+04  0.79781463490E+03 0.  0.
        2    1    3    3  502    0  0.20153391612E+02 -0.16069886543E+03  0.13358685455E+03  0.20994221171E+03  0.25500000920E-02 0.  1.
       -2    1    3    3    0  502 -0.20153391612E+02  0.16069886543E+03 -0.84062231508E+03  0.85608186592E+03  0.25500000920E-02 0. -1.
</event>
<event>
 5   0  0.2077795E-02  0.8185849E+03  0.7818609E-02  0.9533499E-01
       -1   -1    0    0    0  501  0.00000000000E+00  0.00000000000E+00  0.36788678759E+03  0.36788678762E+03  0.50400001928E-02 0.  1.
        1   -1    0    0  501    0  0.00000000000E+00  0.00000000000E+00 -0.45535833173E+03  0.45535833176E+03  0.50400001928E-02 0. -1.
    10030    2    1    2    0    0  0.00000000000E+00  0.00000000000E+00 -0.87471544146E+02  0.82324511938E+03  0.81858491041E+03 0.  0.
        5    1    3    3  502    0  0.25689689181E+03 -0.12127957266E+03 -0.34002029870E+03  0.44310342054E+03  0.46999998093E+01 0. -1.
       -5    1    3    3    0  502 -0.25689689181E+03  0.12127957266E+03  0.25254875456E+03  0.38014169884E+03  0.46999998093E+01 0.  1.
</event>
<event>
 5   0  0.3416160E-02  0.7917088E+03  0.7818609E-02  0.9572096E-01
        2   -1    0    0  501    0  0.00000000000E+00  0.00000000000E+00  0.17144358083E+04  0.17144358083E+04  0.25500000920E-02 0.  1.
       -2   -1    0    0    0  501  0.00000000000E+00  0.00000000000E+00 -0.91400751178E+02  0.91400751214E+02  0.25500000920E-02 0. -1.
    10030    2    1    2    0    0  0.00000000000E+00  0.00000000000E+00  0.16230350571E+04  0.18058365595E+04  0.79170883728E+03 0.  0.
        1    1    3    3  502    0 -0.33065261023E+03 -0.11690766245E+03  0.39278000099E+03  0.52656877936E+03  0.50400001928E-02 0. -1.
       -1    1    3    3    0  502  0.33065261023E+03  0.11690766245E+03  0.12302550561E+04  0.12792677801E+04  0.50400001928E-02 0.  1.
</event>
<event>
 5   0  0.2129257E-02  0.7914677E+03  0.7818609E-02  0.9572450E-01
       -1   -1    0    0    0  501  0.00000000000E+00  0.00000000000E+00  0.19736946791E+03  0.19736946797E+03  0.50400001928E-02 0. -1.
        1   -1    0    0  501    0  0.00000000000E+00  0.00000000000E+00 -0.79346251269E+03  0.79346251270E+03  0.50400001928E-02 0.  1.
    10030    2    1    2    0    0  0.00000000000E+00  0.00000000000E+00 -0.59609304478E+03  0.99083198068E+03  0.79146768468E+03 0.  0.
        3    1    3    3  502    0  0.18835401586E+03 -0.23565571782E+03  0.22580592420E+02  0.30252395937E+03  0.10100000352E+00 0. -1.
       -3    1    3    3    0  502 -0.18835401586E+03  0.23565571782E+03 -0.61867363720E+03  0.68830802131E+03  0.10100000352E+00 0.  1.
</event>
<event>
 5   0  0.3416160E-02  0.8055583E+03  0.7818609E-02  0.9552006E-01
        2   -1    0    0  501    0  0.00000000000E+00  0.00000000000E+00  0.11511896578E+04  0.11511896578E+04  0.25500000920E-02 0. -1.
       -2   -1    0    0    0  501  0.00000000000E+00  0.00000000000E+00 -0.14092469881E+03  0.14092469883E+03  0.25500000920E-02 0.  1.
    10030    2    1    2    0    0  0.00000000000E+00  0.00000000000E+00  0.10102649590E+04  0.12921143566E+04  0.80555833013E+03 0.  0.
        1    1    3    3  502    0 -0.16422311300E+03 -0.17297345020E+02  0.10943975795E+04  0.11067856572E+04  0.50400001928E-02 0. -1.
       -1    1    3    3    0  502  0.16422311300E+03  0.17297345020E+02 -0.84132620469E+02  0.18532869945E+03  0.50400001928E-02 0.  1.
</event>
<event>
 5   0  0.1989298E-02  0.7943696E+03  0.7818609E-02  0.9568203E-01
        1   -1    0    0  501    0  0.00000000000E+00  0.00000000000E+00  0.16213343772E+04  0.16213343772E+04  0.50400001928E-02 0. -1.
       -1   -1    0    0    0  501  0.00000000000E+00  0.00000000000E+00 -0.97299958280E+02  0.97299958411E+02  0.50400001928E-02 0.  1.
    10030    2    1    2    0    0  0.00000000000E+00  0.00000000000E+00  0.15240344189E+04  0.17186343356E+04  0.79436960511E+03 0.  0.
        1    1    3    3  502    0  0.17898661020E+03 -0.63910724694E+02  0.15165708341E+04  0.15284331461E+04  0.50400001928E-02 0. -1.
       -1    1    3    3    0  502 -0.17898661020E+03  0.63910724694E+02  0.74635848460E+01  0.19020118950E+03  0.50400001928E-02 0.  1.
</event>
<event>
 5   0  0.3404132E-02  0.8055980E+03  0.7818609E-02  0.9551949E-01
       -2   -1    0    0    0  501  0.00000000000E+00  0.00000000000E+00  0.27525914298E+03  0.27525914300E+03  0.25500000920E-02 0. -1.
        2   -1    0    0  501    0  0.00000000000E+00  0.00000000000E+00 -0.58943376054E+03  0.58943376055E+03  0.25500000920E-02 0.  1.
    10030    2    1    2    0    0  0.00000000000E+00  0.00000000000E+00 -0.31417461756E+03  0.86469290354E+03  0.80559799349E+03 0.  0.
        5    1    3    3  502    0 -0.34313947940E+03  0.12986220589E+01  0.69282677317E+02  0.35009794075E+03  0.46999998093E+01 0. -1.
       -5    1    3    3    0  502  0.34313947940E+03 -0.12986220589E+01 -0.38345729487E+03  0.51459496279E+03  0.46999998093E+01 0.  1.
</event>
<event>
 5   0  0.2063692E-02  0.7903130E+03  0.7818609E-02  0.9574145E-01
        1   -1    0    0  501    0  0.00000000000E+00  0.00000000000E+00  0.94780844036E+03  0.94780844037E+03  0.50400001928E-02 0.  1.
       -1   -1    0    0    0  501  0.00000000000E+00  0.00000000000E+00 -0.16474706679E+03  0.16474706687E+03  0.50400001928E-02 0. -1.
    10030    2    1    2    0    0  0.00000000000E+00  0.00000000000E+00  0.78306137356E+03  0.11125555072E+04  0.79031300250E+03 0.  0.
        2    1    3    3  502    0  0.39738085528E+02  0.29517043285E+03  0.25940867111E+02  0.29896091460E+03  0.25500000920E-02 0. -1.
       -2    1    3    3    0  502 -0.39738085528E+02 -0.29517043285E+03  0.75712050645E+03  0.81359459264E+03  0.25500000920E-02 0.  1.
</event>
<event>
 5   0  0.3550586E-02  0.7830725E+03  0.7818609E-02  0.9584847E-01
       -2   -1    0    0    0  501  0.00000000000E+00  0.00000000000E+00  0.20849137105E+03  0.20849137107E+03  0.25500000920E-02 0.  1.
        2   -1    0    0  501    0  0.00000000000E+00  0.00000000000E+00 -0.73528519382E+03  0.73528519382E+03  0.25500000920E-02 0. -1.
    10030    2    1    2    0    0  0.00000000000E+00  0.00000000000E+00 -0.52679382277E+03  0.94377656489E+03  0.78307245688E+03 0.  0.
        3    1    3    3  502    0  0.74411074743E+02 -0.33605781749E+03 -0.38472733293E+02  0.34634091030E+03  0.10100000352E+00 0. -1.
       -3    1    3    3    0  502 -0.74411074743E+02  0.33605781749E+03 -0.48832108948E+03  0.59743565459E+03  0.10100000352E+00 0.  1.
</event>
<event>
 5   0  0.3467240E-02  0.8258800E+03  0.7818609E-02  0.9523294E-01
       -2   -1    0    0    0  501  0.00000000000E+00  0.00000000000E+00  0.37287024554E+03  0.37287024554E+03  0.25500000920E-02 0.  1.
        2   -1    0    0  501    0  0.00000000000E+00  0.00000000000E+00 -0.45731582231E+03  0.45731582231E+03  0.25500000920E-02 0. -1.
    10030    2    1    2    0    0  0.00000000000E+00  0.00000000000E+00 -0.84445576772E+02  0.83018606786E+03  0.82588004688E+03 0.  0.
        2    1    3    3  502    0  0.14560658340E+03 -0.23956708102E+02  0.34546183638E+03  0.37565819756E+03  0.25500000920E-02 0.  1.
       -2    1    3    3    0  502 -0.14560658340E+03  0.23956708102E+02 -0.42990741315E+03  0.45452787030E+03  0.25500000920E-02 0. -1.
</event>
<event>
 5   0  0.1358000E-02  0.7929416E+03  0.7818609E-02  0.9570290E-01
       -4   -1    0    0    0  501  0.00000000000E+00  0.00000000000E+00  0.33676706291E+03  0.33676945758E+03  0.12699999809E+01 0. -1.
        4   -1    0    0  501    0  0.00000000000E+00  0.00000000000E+00 -0.46675424383E+03  0.46675597161E+03  0.12699999809E+01 0.  1.
    10030    2    1    2    0    0  0.00000000000E+00  0.00000000000E+00 -0.12998718093E+03  0.80352542920E+03  0.79294164234E+03 0.  0.
        1    1    3    3  502    0  0.37600510292E+03  0.85260138257E+02 -0.15863909053E+03  0.41691184880E+03  0.50400001928E-02 0.  1.
       -1    1    3    3    0  502 -0.37600510292E+03 -0.85260138257E+02  0.28651909606E+02  0.38661358040E+03  0.50400001928E-02 0. -1.
</event>
<event>
 5   0  0.3404132E-02  0.8022670E+03  0.7818609E-02  0.9556741E-01
        2   -1    0    0  501    0  0.00000000000E+00  0.00000000000E+00  0.10232704798E+04  0.10232704798E+04  0.25500000920E-02 0. -1.
       -2   -1    0    0    0  501  0.00000000000E+00  0.00000000000E+00 -0.15724883646E+03  0.15724883648E+03  0.25500000920E-02 0.  1.
    10030    2    1    2    0    0  0.00000000000E+00  0.00000000000E+00  0.86602164339E+03  0.11805193163E+04  0.80226701877E+03 0.  0.
        5    1    3    3  502    0  0.29367967875E+03  0.92154514247E+02  0.81145800429E+03  0.86788616243E+03  0.46999998093E+01 0. -1.
       -5    1    3    3    0  502 -0.29367967875E+03 -0.92154514247E+02  0.54563639099E+02  0.31263315390E+03  0.46999998093E+01 0.  1.
</event>
<event>
 5   0  0.3404132E-02  0.5888271E+03  0.7818609E-02  0.9928861E-01
       -2   -1    0    0    0  501  0.00000000000E+00  0.00000000000E+00  0.28313463012E+03  0.28313463013E+03  0.25500000920E-02 0. -1.
        2   -1    0    0  501    0  0.00000000000E+00  0.00000000000E+00 -0.30614177162E+03  0.30614177163E+03  0.25500000920E-02 0.  1.
    10030    2    1    2    0    0  0.00000000000E+00  0.00000000000E+00 -0.23007141497E+02  0.58927640176E+03  0.58882709611E+03 0.  0.
        5    1    3    3  502    0 -0.26961149205E+03  0.47316374670E+01 -0.12968051910E+03  0.29925218808E+03  0.46999998093E+01 0.  1.
       -5    1    3    3    0  502  0.26961149205E+03 -0.47316374670E+01  0.10667337760E+03  0.29002421369E+03  0.46999998093E+01 0. -1.
</event>
<event>
 5   0  0.3550586E-02  0.7471285E+03  0.7818609E-02  0.9639866E-01
        2   -1    0    0  501    0  0.00000000000E+00  0.00000000000E+00  0.63416089233E+03  0.63416089233E+03  0.25500000920E-02 0.  1.
       -2   -1    0    0    0  501  0.00000000000E+00  0.00000000000E+00 -0.22005496895E+03  0.22005496897E+03  0.25500000920E-02 0. -1.
    10030    2    1    2    0    0  0.00000000000E+00  0.00000000000E+00  0.41410592337E+03  0.85421586130E+03  0.74712851768E+03 0.  0.
        3    1    3    3  502    0 -0.45426331558E+02  0.15170763568E+03  0.59388370276E+03  0.61463535607E+03  0.10100000352E+00 0.  1.
       -3    1    3    3    0  502  0.45426331558E+02 -0.15170763568E+03 -0.17977777939E+03  0.23958050523E+03  0.10100000352E+00 0. -1.
</event>
<event>
 5   0  0.3416160E-02  0.7856107E+03  0.7818609E-02  0.9581082E-01
        2   -1    0    0  501    0  0.00000000000E+00  0.00000000000E+00  0.13956383316E+04  0.13956383316E+04  0.25500000920E-02 0. -1.
       -2   -1    0    0    0  501  0.00000000000E+00  0.00000000000E+00 -0.11055588636E+03  0.11055588639E+03  0.25500000920E-02 0.  1.
    10030    2    1    2    0    0  0.00000000000E+00  0.00000000000E+00  0.12850824452E+04  0.15061942180E+04  0.78561067409E+03 0.  0.
        1    1    3    3  502    0  0.13276222108E+03  0.31565865400E+03  0.27360651297E+03  0.43832261767E+03  0.50400001928E-02 0.  1.
       -1    1    3    3    0  502 -0.13276222108E+03 -0.31565865400E+03  0.10114759323E+04  0.10678716003E+04  0.50400001928E-02 0. -1.
</event>
<event>
 5   0  0.2077795E-02  0.8013281E+03  0.7818609E-02  0.9558097E-01
       -1   -1    0    0    0  501  0.00000000000E+00  0.00000000000E+00  0.15495731621E+04  0.15495731621E+04  0.50400001928E-02 0. -1.
        1   -1    0    0  501    0  0.00000000000E+00  0.00000000000E+00 -0.10359734419E+03  0.10359734431E+03  0.50400001928E-02 0.  1.
    10030    2    1    2    0    0  0.00000000000E+00  0.00000000000E+00  0.14459758179E+04  0.16531705064E+04  0.80132805848E+03 0.  0.
        5    1    3    3  502    0 -0.20844331803E+03  0.60796540331E+02  0.14176063251E+04  0.14341459546E+04  0.46999998093E+01 0. -1.
       -5    1    3    3    0  502  0.20844331803E+03 -0.60796540331E+02  0.28369492720E+02  0.21902455173E+03  0.46999998093E+01 0.  1.
</event>
<event>
 5   0  0.1989298E-02  0.7951736E+03  0.7818609E-02  0.9567029E-01
       -1   -1    0    0    0  501  0.00000000000E+00  0.00000000000E+00  0.24421454519E+03  0.24421454524E+03  0.50400001928E-02 0. -1.
        1   -1    0    0  501    0  0.00000000000E+00  0.00000000000E+00 -0.64728037177E+03  0.64728037178E+03  0.50400001928E-02 0.  1.
    10030    2    1    2    0    0  0.00000000000E+00  0.00000000000E+00 -0.40306582658E+03  0.89149491702E+03  0.79517364551E+03 0.  0.
        1    1    3    3  502    0  0.18590262433E+02  0.38786404999E+03 -0.10580132121E+03  0.40246495341E+03  0.50400001928E-02 0. -1.
       -1    1    3    3    0  502 -0.18590262433E+02 -0.38786404999E+03 -0.29726450537E+03  0.48902996361E+03  0.50400001928E-02 0.  1.
</event>
<event>
 5   0  0.1358000E-02  0.8068113E+03  0.7818609E-02  0.9550210E-01
       -3   -1    0    0    0  501  0.00000000000E+00  0.00000000000E+00  0.75564560485E+03  0.75564561160E+03  0.10100000352E+00 0. -1.
        3   -1    0    0  501    0  0.00000000000E+00  0.00000000000E+00 -0.21536035694E+03  0.21536038062E+03  0.10100000352E+00 0.  1.
    10030    2    1    2    0    0  0.00000000000E+00  0.00000000000E+00  0.54028524792E+03  0.97100599222E+03  0.80681130868E+03 0.  0.
        1    1    3    3  502    0  0.25051396187E+03  0.11507598643E+03  0.62458906087E+03  0.68272338669E+03  0.50400001928E-02 0. -1.
       -1    1    3    3    0  502 -0.25051396187E+03 -0.11507598643E+03 -0.84303812957E+02  0.28828260553E+03  0.50400001928E-02 0.  1.
</event>
<event>
 5   0  0.3467240E-02  0.8101389E+03  0.7818609E-02  0.9545456E-01
        2   -1    0    0  501    0  0.00000000000E+00  0.00000000000E+00  0.71011150928E+03  0.71011150928E+03  0.25500000920E-02 0.  1.
       -2   -1    0    0    0  501  0.00000000000E+00  0.00000000000E+00 -0.23106406670E+03  0.23106406672E+03  0.25500000920E-02 0. -1.
    10030    2    1    2    0    0  0.00000000000E+00  0.00000000000E+00  0.47904744257E+03  0.94117557600E+03  0.81013888477E+03 0.  0.
        2    1    3    3  502    0 -0.13804460648E+03 -0.76132405885E+02  0.67301034949E+03  0.69122744964E+03  0.25500000920E-02 0.  1.
       -2    1    3    3    0  502  0.13804460648E+03  0.76132405885E+02 -0.19396290692E+03  0.24994812636E+03  0.25500000920E-02 0. -1.
</event>
<event>
 5   0  0.2063692E-02  0.7526659E+03  0.7818609E-02  0.9631177E-01
       -1   -1    0    0    0  501  0.00000000000E+00  0.00000000000E+00  0.44783167276E+03  0.44783167278E+03  0.50400001928E-02 0. -1.
        1   -1    0    0  501    0  0.00000000000E+00  0.00000000000E+00 -0.31624941239E+03  0.31624941243E+03  0.50400001928E-02 0.  1.
    10030    2    1    2    0    0  0.00000000000E+00  0.00000000000E+00  0.13158226036E+03  0.76408108522E+03  0.75266593755E+03 0.  0.
        2    1    3    3  502    0 -0.25137053294E+03 -0.14914713910E+03  0.30644012479E+03  0.42348266083E+03  0.25500000920E-02 0. -1.
       -2    1    3    3    0  502  0.25137053294E+03  0.14914713910E+03 -0.17485786443E+03  0.34059842439E+03  0.25500000920E-02 0.  1.
</event>
<event>
 5   0  0.3416160E-02  0.8023415E+03  0.7818609E-02  0.9556634E-01
        2   -1    0    0  501    0  0.00000000000E+00  0.00000000000E+00  0.12054453626E+04  0.12054453626E+04  0.25500000920E-02 0. -1.
       -2   -1    0    0    0  501  0.00000000000E+00  0.00000000000E+00 -0.13350914060E+03  0.13350914063E+03  0.25500000920E-02 0.  1.
    10030    2    1    2    0    0  0.00000000000E+00  0.00000000000E+00  0.10719362220E+04  0.13389545032E+04  0.80234150937E+03 0.  0.
        1    1    3    3  502    0  0.38048883866E+02 -0.39724131321E+03  0.60456398328E+03  0.72439353144E+03  0.50400001928E-02 0.  1.
       -1    1    3    3    0  502 -0.38048883866E+02  0.39724131321E+03  0.46737223869E+03  0.61456097176E+03  0.50400001928E-02 0. -1.
</event>
<event>
 5   0  0.3404132E-02  0.8025918E+03  0.7818609E-02  0.9556273E-01
        2   -1    0    0  501    0  0.00000000000E+00  0.00000000000E+00  0.28884880383E+03  0.28884880384E+03  0.25500000920E-02 0. -1.
       -2   -1    0    0    0  501  0.00000000000E+00  0.00000000000E+00 -0.55751797697E+03  0.55751797697E+03  0.25500000920E-02 0.  1.
    10030    2    1    2    0    0  0.00000000000E+00  0.00000000000E+00 -0.26866917314E+03  0.84636678081E+03  0.80259180351E+03 0.  0.
        5    1    3    3  502    0 -0.35838460661E+03 -0.14193498934E+03 -0.25191126106E+03  0.46050672189E+03  0.46999998093E+01 0.  1.
       -5    1    3    3    0  502  0.35838460661E+03  0.14193498934E+03 -0.16757912075E+02  0.38586005892E+03  0.46999998093E+01 0. -1.
</event>
<event>
 5   0  0.1358000E-02  0.8108893E+03  0.7818609E-02  0.9544388E-01
       -3   -1    0    0    0  501  0.00000000000E+00  0.00000000000E+00  0.91037165262E+03  0.91037165822E+03  0.10100000352E+00 0.  1.
        3   -1    0    0  501    0  0.00000000000E+00  0.00000000000E+00 -0.18056950422E+03  0.18056953246E+03  0.10100000352E+00 0. -1.
    10030    2    1    2    0    0  0.00000000000E+00  0.00000000000E+00  0.72980214840E+03  0.10909411907E+04  0.81088933013E+03 0.  0.
        1    1    3    3  502    0  0.39477165327E+03  0.18217978825E+02  0.48679447974E+03  0.62701309277E+03  0.50400001928E-02 0. -1.
       -1    1    3    3    0  502 -0.39477165327E+03 -0.18217978825E+02  0.24300766866E+03  0.46392809791E+03  0.50400001928E-02 0.  1.
</event>
<event>
 5   0  0.2129257E-02  0.8101128E+03  0.7818609E-02  0.9545494E-01
       -1   -1    0    0    0  501  0.00000000000E+00  0.00000000000E+00  0.31548631031E+03  0.31548631035E+03  0.50400001928E-02 0.  1.
        1   -1    0    0  501    0  0.00000000000E+00  0.00000000000E+00 -0.52005638470E+03  0.52005638472E+03  0.50400001928E-02 0. -1.
    10030    2    1    2    0    0  0.00000000000E+00  0.00000000000E+00 -0.20457007438E+03  0.83554269507E+03  0.81011275756E+03 0.  0.
        3    1    3    3  502    0  0.23761639953E+03 -0.24041341154E+03 -0.33247353415E+03  0.47412954230E+03  0.10100000352E+00 0. -1.
       -3    1    3    3    0  502 -0.23761639953E+03  0.24041341154E+03  0.12790345976E+03  0.36141315277E+03  0.10100000352E+00 0.  1.
</event>
<event>
 5   0  0.2077795E-02  0.8066507E+03  0.7818609E-02  0.9550440E-01
       -1   -1    0    0    0  501  0.00000000000E+00  0.00000000000E+00  0.52849886912E+03  0.52849886914E+03  0.50400001928E-02 0. -1.
        1   -1    0    0  501    0  0.00000000000E+00  0.00000000000E+00 -0.30779884476E+03  0.30779884480E+03  0.50400001928E-02 0.  1.
    10030    2    1    2    0    0  0.00000000000E+00  0.00000000000E+00  0.22070002436E+03  0.83629771394E+03  0.80665070854E+03 0.  0.
        5    1    3    3  502    0 -0.76755389769E+02 -0.33749475920E+03 -0.10427330105E+03  0.36150949318E+03  0.46999998093E+01 0.  1.
       -5    1    3    3    0  502  0.76755389769E+02  0.33749475920E+03  0.32497332541E+03  0.47478822076E+03  0.46999998093E+01 0. -1.
</event>
<event>
 5   0  0.3416160E-02  0.8176106E+03  0.7818609E-02  0.9534871E-01
       -2   -1    0    0    0  501  0.00000000000E+00  0.00000000000E+00  0.67113713431E+03  0.67113713432E+03  0.25500000920E-02 0.  1.
        2   -1    0    0  501    0  0.00000000000E+00  0.00000000000E+00 -0.24901287152E+03  0.24901287154E+03  0.25500000920E-02 0. -1.
    10030    2    1    2    0    0  0.00000000000E+00  0.00000000000E+00  0.42212426279E+03  0.92015000585E+03  0.81761062862E+03 0.  0.
        1    1    3    3  502    0 -0.19911584979E+02 -0.36725500260E+03  0.41190690222E+03  0.55221373061E+03  0.50400001928E-02 0. -1.
       -1    1    3    3    0  502  0.19911584979E+02  0.36725500260E+03  0.10217360564E+02  0.36793627524E+03  0.50400001928E-02 0.  1.
</event>
<event>
 5   0  0.3343036E-02  0.7951681E+03  0.7818609E-02  0.9567038E-01
        2   -1    0    0  501    0  0.00000000000E+00  0.00000000000E+00  0.16588179786E+04  0.16588179786E+04  0.25500000920E-02 0.  1.
       -2   -1    0    0    0  501  0.00000000000E+00  0.00000000000E+00 -0.95292592699E+02  0.95292592733E+02  0.25500000920E-02 0. -1.
    10030    2    1    2    0    0  0.00000000000E+00  0.00000000000E+00  0.15635253859E+04  0.17541105714E+04  0.79516807288E+03 0.  0.
        4    1    3    3  502    0  0.62186749812E+02  0.32971571422E+03  0.12522681183E+04  0.12964400091E+04  0.12699999809E+01 0.  1.
       -4    1    3    3    0  502 -0.62186749812E+02 -0.32971571422E+03  0.31125726762E+03  0.45767056230E+03  0.12699999809E+01 0. -1.
</event>
<event>
 5   0  0.1358000E-02  0.8087337E+03  0.7818609E-02  0.9547461E-01
       -4   -1    0    0    0  501  0.00000000000E+00  0.00000000000E+00  0.44878897756E+03  0.44879077450E+03  0.12699999809E+01 0. -1.
        4   -1    0    0  501    0  0.00000000000E+00  0.00000000000E+00 -0.36433812936E+03  0.36434034282E+03  0.12699999809E+01 0.  1.
    10030    2    1    2    0    0  0.00000000000E+00  0.00000000000E+00  0.84450848197E+02  0.81313111732E+03  0.80873374370E+03 0.  0.
        4    1    3    3  502    0 -0.15837664552E+03  0.53890225260E+02 -0.32791160902E+03  0.36812355868E+03  0.12699999809E+01 0.  1.
       -4    1    3    3    0  502  0.15837664552E+03 -0.53890225260E+02  0.41236245722E+03  0.44500755864E+03  0.12699999809E+01 0. -1.
</event>
<event>
 5   0  0.2063692E-02  0.8019411E+03  0.7818609E-02  0.9557212E-01
       -1   -1    0    0    0  501  0.00000000000E+00  0.00000000000E+00  0.31955153488E+03  0.31955153492E+03  0.50400001928E-02 0.  1.
        1   -1    0    0  501    0  0.00000000000E+00  0.00000000000E+00 -0.50313446785E+03  0.50313446788E+03  0.50400001928E-02 0. -1.
    10030    2    1    2    0    0  0.00000000000E+00  0.00000000000E+00 -0.18358293298E+03  0.82268600280E+03  0.80194112372E+03 0.  0.
        2    1    3    3  502    0  0.21336356576E+02 -0.39817014549E+03 -0.13510554944E+03  0.42100856804E+03  0.25500000920E-02 0.  1.
       -2    1    3    3    0  502 -0.21336356576E+02  0.39817014549E+03 -0.48477383537E+02  0.40167743475E+03  0.25500000920E-02 0. -1.
</event>
<event>
 5   0  0.3550586E-02  0.9303686E+03  0.7818609E-02  0.9388396E-01
       -2   -1    0    0    0  501  0.00000000000E+00  0.00000000000E+00  0.30402428912E+03  0.30402428913E+03  0.25500000920E-02 0. -1.
        2   -1    0    0  501    0  0.00000000000E+00  0.00000000000E+00 -0.71177345892E+03  0.71177345893E+03  0.25500000920E-02 0.  1.
    10030    2    1    2    0    0  0.00000000000E+00  0.00000000000E+00 -0.40774916980E+03  0.10157977481E+04  0.93036857185E+03 0.  0.
        3    1    3    3  502    0 -0.17955335947E+03  0.96450477179E+02 -0.66042672251E+03  0.69116247689E+03  0.10100000352E+00 0.  1.
       -3    1    3    3    0  502  0.17955335947E+03 -0.96450477179E+02  0.25267755271E+03  0.32463527117E+03  0.10100000352E+00 0. -1.
</event>
<event>
 5   0  0.1989298E-02  0.7968655E+03  0.7818609E-02  0.9564565E-01
       -1   -1    0    0    0  501  0.00000000000E+00  0.00000000000E+00  0.25799567696E+03  0.25799567701E+03  0.50400001928E-02 0. -1.
        1   -1    0    0  501    0  0.00000000000E+00  0.00000000000E+00 -0.61531523644E+03  0.61531523646E+03  0.50400001928E-02 0.  1.
    10030    2    1    2    0    0  0.00000000000E+00  0.00000000000E+00 -0.35731955948E+03  0.87331091347E+03  0.79686553697E+03 0.  0.
        1    1    3    3  502    0  0.16397419905E+03  0.10792118655E+03 -0.55864056735E+03  0.59212651011E+03  0.50400001928E-02 0.  1.
       -1    1    3    3    0  502 -0.16397419905E+03 -0.10792118655E+03  0.20132100787E+03  0.28118440336E+03  0.50400001928E-02 0. -1.
</event>
<event>
 5   0  0.3404132E-02  0.7804998E+03  0.7818609E-02  0.9588680E-01
       -2   -1    0    0    0  501  0.00000000000E+00  0.00000000000E+00  0.10597146337E+03  0.10597146340E+03  0.25500000920E-02 0. -1.
        2   -1    0    0  501    0  0.00000000000E+00  0.00000000000E+00 -0.14371318543E+04  0.14371318543E+04  0.25500000920E-02 0.  1.
    10030    2    1    2    0    0  0.00000000000E+00  0.00000000000E+00 -0.13311603910E+04  0.15431033177E+04  0.78049975193E+03 0.  0.
        5    1    3    3  502    0 -0.27192401403E+03  0.31568895489E+01 -0.11228201583E+03  0.29424815452E+03  0.46999998093E+01 0. -1.
       -5    1    3    3    0  502  0.27192401403E+03 -0.31568895489E+01 -0.12188783751E+04  0.12488551632E+04  0.46999998093E+01 0.  1.
</event>
<event>
 5   0  0.2063692E-02  0.7968988E+03  0.7818609E-02  0.9564517E-01
       -1   -1    0    0    0  501  0.00000000000E+00  0.00000000000E+00  0.25544884774E+03  0.25544884779E+03  0.50400001928E-02 0.  1.
        1   -1    0    0  501    0  0.00000000000E+00  0.00000000000E+00 -0.62150180120E+03  0.62150180122E+03  0.50400001928E-02 0. -1.
    10030    2    1    2    0    0  0.00000000000E+00  0.00000000000E+00 -0.36605295345E+03  0.87695064901E+03  0.79689878659E+03 0.  0.
        2    1    3    3  502    0  0.28920004117E+03 -0.26335969541E+03 -0.26659527922E+03  0.47335825321E+03  0.25500000920E-02 0.  1.
       -2    1    3    3    0  502 -0.28920004117E+03  0.26335969541E+03 -0.99457674237E+02  0.40359239580E+03  0.25500000920E-02 0. -1.
</event>
<event>
 5   0  0.3416160E-02  0.7881136E+03  0.7818609E-02  0.9577383E-01
        2   -1    0    0  501    0  0.00000000000E+00  0.00000000000E+00  0.13930595799E+04  0.13930595799E+04  0.25500000920E-02 0.  1.
       -2   -1    0    0    0  501  0.00000000000E+00  0.00000000000E+00 -0.11146741621E+03  0.11146741624E+03  0.25500000920E-02 0. -1.
    10030    2    1    2    0    0  0.00000000000E+00  0.00000000000E+00  0.12815921637E+04  0.15045269961E+04  0.78811357564E+03 0.  0.
        1    1    3    3  502    0  0.19419131156E+03 -0.27422890282E+03  0.10337442418E+04  0.10869861610E+04  0.50400001928E-02 0.  1.
       -1    1    3    3    0  502 -0.19419131156E+03  0.27422890282E+03  0.24784792183E+03  0.41754083514E+03  0.50400001928E-02 0. -1.
</event>
<event>
 5   0  0.3467240E-02  0.8033428E+03  0.7818609E-02  0.9555191E-01
       -2   -1    0    0    0  501  0.00000000000E+00  0.00000000000E+00  0.69468280165E+03  0.69468280165E+03  0.25500000920E-02 0. -1.
        2   -1    0    0  501    0  0.00000000000E+00  0.00000000000E+00 -0.23224973523E+03  0.23224973525E+03  0.25500000920E-02 0.  1.
    10030    2    1    2    0    0  0.00000000000E+00  0.00000000000E+00  0.46243306642E+03  0.92693253690E+03  0.80334275814E+03 0.  0.
        2    1    3    3  502    0  0.37020413142E+02 -0.73754065507E+02  0.68479586592E+03  0.68975035423E+03  0.25500000920E-02 0. -1.
       -2    1    3    3    0  502 -0.37020413142E+02  0.73754065507E+02 -0.22236279950E+03  0.23718218267E+03  0.25500000920E-02 0.  1.
</event>
<event>
 5   0  0.2077795E-02  0.8081272E+03  0.7818609E-02  0.9548327E-01
        1   -1    0    0  501    0  0.00000000000E+00  0.00000000000E+00  0.47175892856E+03  0.47175892859E+03  0.50400001928E-02 0.  1.
       -1   -1    0    0    0  501  0.00000000000E+00  0.00000000000E+00 -0.34608223665E+03  0.34608223669E+03  0.50400001928E-02 0. -1.
    10030    2    1    2    0    0  0.00000000000E+00  0.00000000000E+00  0.12567669191E+03  0.81784116528E+03  0.80812718104E+03 0.  0.
        5    1    3    3  502    0  0.85097454510E+02 -0.14012697393E+03  0.43655781745E+03  0.46634961516E+03  0.46999998093E+01 0.  1.
       -5    1    3    3    0  502 -0.85097454510E+02  0.14012697393E+03 -0.31088112554E+03  0.35149155012E+03  0.46999998093E+01 0. -1.
</event>
<event>
 5   0  0.2132540E-02  0.8168187E+03  0.7818609E-02  0.9535987E-01
       -1   -1    0    0    0  501  0.00000000000E+00  0.00000000000E+00  0.43798423735E+03  0.43798423738E+03  0.50400001928E-02 0. -1.
        1   -1    0    0  501    0  0.00000000000E+00  0.00000000000E+00 -0.38083147969E+03  0.38083147972E+03  0.50400001928E-02 0.  1.
    10030    2    1    2    0    0  0.00000000000E+00  0.00000000000E+00  0.57152757660E+02  0.81881571710E+03  0.81681867074E+03 0.  0.
        4    1    3    3  502    0 -0.92196594171E+02  0.36646067458E+03 -0.12673121188E+03  0.39856749861E+03  0.12699999809E+01 0.  1.
       -4    1    3    3    0  502  0.92196594171E+02 -0.36646067458E+03  0.18388396954E+03  0.42024821849E+03  0.12699999809E+01 0. -1.
</event>
<event>
 5   0  0.1358000E-02  0.7990327E+03  0.7818609E-02  0.9561418E-01
        3   -1    0    0  501    0  0.00000000000E+00  0.00000000000E+00  0.50952506479E+03  0.50952507480E+03  0.10100000352E+00 0.  1.
       -3   -1    0    0    0  501  0.00000000000E+00  0.00000000000E+00 -0.31325896898E+03  0.31325898526E+03  0.10100000352E+00 0. -1.
    10030    2    1    2    0    0  0.00000000000E+00  0.00000000000E+00  0.19626609580E+03  0.82278406006E+03  0.79903268339E+03 0.  0.
        4    1    3    3  502    0  0.39288063015E+03 -0.34939607555E+02  0.16354879490E+03  0.42699623761E+03  0.12699999809E+01 0.  1.
       -4    1    3    3    0  502 -0.39288063015E+03  0.34939607555E+02  0.32717300903E+02  0.39578782245E+03  0.12699999809E+01 0. -1.
</event>
<event>
 5   0  0.3343036E-02  0.7912070E+03  0.7818609E-02  0.9572833E-01
       -2   -1    0    0    0  501  0.00000000000E+00  0.00000000000E+00  0.31157333984E+03  0.31157333985E+03  0.25500000920E-02 0.  1.
        2   -1    0    0  501    0  0.00000000000E+00  0.00000000000E+00 -0.50229621977E+03  0.50229621977E+03  0.25500000920E-02 0. -1.
    10030    2    1    2    0    0  0.00000000000E+00  0.00000000000E+00 -0.19072287993E+03  0.81386955962E+03  0.79120695343E+03 0.  0.
        4    1    3    3  502    0  0.29180584747E+03  0.18300546555E+03 -0.29550811938E+03  0.45383732169E+03  0.12699999809E+01 0.  1.
       -4    1    3    3    0  502 -0.29180584747E+03 -0.18300546555E+03  0.10478523945E+03  0.36003223793E+03  0.12699999809E+01 0. -1.
</event>
<event>
 5   0  0.3404132E-02  0.8016697E+03  0.7818609E-02  0.9557603E-01
        2   -1    0    0  501    0  0.00000000000E+00  0.00000000000E+00  0.12632822277E+04  0.12632822277E+04  0.25500000920E-02 0. -1.
       -2   -1    0    0    0  501  0.00000000000E+00  0.00000000000E+00 -0.12718343737E+03  0.12718343739E+03  0.25500000920E-02 0.  1.
    10030    2    1    2    0    0  0.00000000000E+00  0.00000000000E+00  0.11360987903E+04  0.13904656651E+04  0.80166969782E+03 0.  0.
        5    1    3    3  502    0  0.32279981795E+03  0.14317508369E+03  0.23919768245E+03  0.42654008996E+03  0.46999998093E+01 0.  1.
       -5    1    3    3    0  502 -0.32279981795E+03 -0.14317508369E+03  0.89690110790E+03  0.96392557514E+03  0.46999998093E+01 0. -1.
</event>
<event>
 5   0  0.2132540E-02  0.7384621E+03  0.7818609E-02  0.9653627E-01
        1   -1    0    0  501    0  0.00000000000E+00  0.00000000000E+00  0.12539353947E+04  0.12539353947E+04  0.50400001928E-02 0.  1.
       -1   -1    0    0    0  501  0.00000000000E+00  0.00000000000E+00 -0.10872296231E+03  0.10872296242E+03  0.50400001928E-02 0. -1.
    10030    2    1    2    0    0  0.00000000000E+00  0.00000000000E+00  0.11452124324E+04  0.13626583572E+04  0.73846210665E+03 0.  0.
        4    1    3    3  502    0 -0.32058964044E+03  0.13988960065E+03  0.79080941894E+03  0.86471265049E+03  0.12699999809E+01 0.  1.
       -4    1    3    3    0  502  0.32058964044E+03 -0.13988960065E+03  0.35440301347E+03  0.49794570666E+03  0.12699999809E+01 0. -1.
</event>
<event>
 5   0  0.3343036E-02  0.7988680E+03  0.7818609E-02  0.9561657E-01
       -2   -1    0    0    0  501  0.00000000000E+00  0.00000000000E+00  0.20120508843E+03  0.20120508844E+03  0.25500000920E-02 0.  1.
        2   -1    0    0  501    0  0.00000000000E+00  0.00000000000E+00 -0.79295958472E+03  0.79295958472E+03  0.25500000920E-02 0. -1.
    10030    2    1    2    0    0  0.00000000000E+00  0.00000000000E+00 -0.59175449629E+03  0.99416467317E+03  0.79886795748E+03 0.  0.
        4    1    3    3  502    0  0.11044050563E+03  0.29421091046E+03 -0.60270514505E+03  0.67971484454E+03  0.12699999809E+01 0. -1.
       -4    1    3    3    0  502 -0.11044050563E+03 -0.29421091046E+03  0.10950648754E+02  0.31444982863E+03  0.12699999809E+01 0.  1.
</event>
<event>
 5   0  0.1358000E-02  0.8258599E+03  0.7818609E-02  0.9523322E-01
       -3   -1    0    0    0  501  0.00000000000E+00  0.00000000000E+00  0.23126693772E+03  0.23126695977E+03  0.10100000352E+00 0.  1.
        3   -1    0    0  501    0  0.00000000000E+00  0.00000000000E+00 -0.73729138066E+03  0.73729138758E+03  0.10100000352E+00 0. -1.
    10030    2    1    2    0    0  0.00000000000E+00  0.00000000000E+00 -0.50602444294E+03  0.96855834735E+03  0.82585987635E+03 0.  0.
        4    1    3    3  502    0 -0.25965502765E+03  0.10783443075E+03 -0.60769186396E+03  0.66958196829E+03  0.12699999809E+01 0. -1.
       -4    1    3    3    0  502  0.25965502765E+03 -0.10783443075E+03  0.10166742102E+03  0.29897637906E+03  0.12699999809E+01 0.  1.
</event>
<event>
 5   0  0.2129257E-02  0.8127053E+03  0.7818609E-02  0.9541807E-01
        1   -1    0    0  501    0  0.00000000000E+00  0.00000000000E+00  0.26107877395E+03  0.26107877400E+03  0.50400001928E-02 0.  1.
       -1   -1    0    0    0  501  0.00000000000E+00  0.00000000000E+00 -0.63246223696E+03  0.63246223698E+03  0.50400001928E-02 0. -1.
    10030    2    1    2    0    0  0.00000000000E+00  0.00000000000E+00 -0.37138346301E+03  0.89354101098E+03  0.81270527359E+03 0.  0.
        3    1    3    3  502    0  0.21504353543E+03  0.23430125532E+03  0.92413492385E+02  0.33118131612E+03  0.10100000352E+00 0. -1.
       -3    1    3    3    0  502 -0.21504353543E+03 -0.23430125532E+03 -0.46379695539E+03  0.56235969486E+03  0.10100000352E+00 0.  1.
</event>
<event>
 5   0  0.2063692E-02  0.7938785E+03  0.7818609E-02  0.9568920E-01
       -1   -1    0    0    0  501  0.00000000000E+00  0.00000000000E+00  0.77472712811E+02  0.77472712975E+02  0.50400001928E-02 0. -1.
        1   -1    0    0  501    0  0.00000000000E+00  0.00000000000E+00 -0.20337584694E+04  0.20337584694E+04  0.50400001928E-02 0.  1.
    10030    2    1    2    0    0  0.00000000000E+00  0.00000000000E+00 -0.19562857566E+04  0.21112311824E+04  0.79387854488E+03 0.  0.
        2    1    3    3  502    0 -0.34830739360E+03 -0.95745218083E+02 -0.14157362767E+04  0.14610935605E+04  0.25500000920E-02 0.  1.
       -2    1    3    3    0  502  0.34830739360E+03  0.95745218083E+02 -0.54054947982E+03  0.65013762186E+03  0.25500000920E-02 0. -1.
</event>
<event>
 5   0  0.2063692E-02  0.7979649E+03  0.7818609E-02  0.9562968E-01
       -1   -1    0    0    0  501  0.00000000000E+00  0.00000000000E+00  0.10854057678E+03  0.10854057690E+03  0.50400001928E-02 0. -1.
        1   -1    0    0  501    0  0.00000000000E+00  0.00000000000E+00 -0.14666126177E+04  0.14666126177E+04  0.50400001928E-02 0.  1.
    10030    2    1    2    0    0  0.00000000000E+00  0.00000000000E+00 -0.13580720409E+04  0.15751531946E+04  0.79796486022E+03 0.  0.
        2    1    3    3  502    0  0.32484293987E+03  0.19884924442E+01 -0.22177442300E+03  0.39333291801E+03  0.25500000920E-02 0. -1.
       -2    1    3    3    0  502 -0.32484293987E+03 -0.19884924442E+01 -0.11362976179E+04  0.11818202766E+04  0.25500000920E-02 0.  1.
</event>
<event>
 5   0  0.1989298E-02  0.8001281E+03  0.7818609E-02  0.9559832E-01
        1   -1    0    0  501    0  0.00000000000E+00  0.00000000000E+00  0.16095189233E+04  0.16095189233E+04  0.50400001928E-02 0. -1.
       -1   -1    0    0    0  501  0.00000000000E+00  0.00000000000E+00 -0.99440434717E+02  0.99440434845E+02  0.50400001928E-02 0.  1.
    10030    2    1    2    0    0  0.00000000000E+00  0.00000000000E+00  0.15100784886E+04  0.17089593581E+04  0.80012814357E+03 0.  0.
        1    1    3    3  502    0 -0.24822264976E+03 -0.27077155575E+03  0.41652414210E+03  0.55535941536E+03  0.50400001928E-02 0.  1.
       -1    1    3    3    0  502  0.24822264976E+03  0.27077155575E+03  0.10935543465E+04  0.11535999428E+04  0.50400001928E-02 0. -1.
</event>
<event>
 5   0  0.2077795E-02  0.8207288E+03  0.7818609E-02  0.9530488E-01
       -1   -1    0    0    0  501  0.00000000000E+00  0.00000000000E+00  0.13639713255E+03  0.13639713265E+03  0.50400001928E-02 0.  1.
        1   -1    0    0  501    0  0.00000000000E+00  0.00000000000E+00 -0.12346223252E+04  0.12346223252E+04  0.50400001928E-02 0. -1.
    10030    2    1    2    0    0  0.00000000000E+00  0.00000000000E+00 -0.10982251926E+04  0.13710194579E+04  0.82072881030E+03 0.  0.
        5    1    3    3  502    0  0.17098166389E+03 -0.29545993657E+03 -0.92947684420E+03  0.99019220226E+03  0.46999998093E+01 0. -1.
       -5    1    3    3    0  502 -0.17098166389E+03  0.29545993657E+03 -0.16874834844E+03  0.38082725560E+03  0.46999998093E+01 0.  1.
</event>
<event>
 5   0  0.2063692E-02  0.7650413E+03  0.7818609E-02  0.9612044E-01
       -1   -1    0    0    0  501  0.00000000000E+00  0.00000000000E+00  0.48622832704E+03  0.48622832707E+03  0.50400001928E-02 0.  1.
        1   -1    0    0  501    0  0.00000000000E+00  0.00000000000E+00 -0.30093281727E+03  0.30093281731E+03  0.50400001928E-02 0. -1.
    10030    2    1    2    0    0  0.00000000000E+00  0.00000000000E+00  0.18529550978E+03  0.78716114438E+03  0.76504133305E+03 0.  0.
        2    1    3    3  502    0  0.27511836500E+03 -0.16736667001E+01 -0.18079770783E+03  0.32921228271E+03  0.25500000920E-02 0. -1.
       -2    1    3    3    0  502 -0.27511836500E+03  0.16736667001E+01  0.36609321761E+03  0.45794886167E+03  0.25500000920E-02 0.  1.
</event>
<event>
 5   0  0.3343036E-02  0.7959123E+03  0.7818609E-02  0.9565953E-01
        2   -1    0    0  501    0  0.00000000000E+00  0.00000000000E+00  0.62924983985E+03  0.62924983985E+03  0.25500000920E-02 0. -1.
       -2   -1    0    0    0  501  0.00000000000E+00  0.00000000000E+00 -0.25167917607E+03  0.25167917608E+03  0.25500000920E-02 0.  1.
    10030    2    1    2    0    0  0.00000000000E+00  0.00000000000E+00  0.37757066378E+03  0.88092901593E+03  0.79591225959E+03 0.  0.
        4    1    3    3  502    0 -0.33229656928E+03 -0.70632029454E+02 -0.40615822058E+02  0.34214200479E+03  0.12699999809E+01 0.  1.
       -4    1    3    3    0  502  0.33229656928E+03  0.70632029454E+02  0.41818648584E+03  0.53878701114E+03  0.12699999809E+01 0. -1.
</event>
<event>
 5   0  0.3343036E-02  0.8000043E+03  0.7818609E-02  0.9560011E-01
       -2   -1    0    0    0  501  0.00000000000E+00  0.00000000000E+00  0.48714462256E+03  0.48714462256E+03  0.25500000920E-02 0. -1.
        2   -1    0    0  501    0  0.00000000000E+00  0.00000000000E+00 -0.32844808482E+03  0.32844808483E+03  0.25500000920E-02 0.  1.
    10030    2    1    2    0    0  0.00000000000E+00  0.00000000000E+00  0.15869653773E+03  0.81559270740E+03  0.80000429578E+03 0.  0.
        4    1    3    3  502    0  0.70158477582E+02  0.35489815973E+03 -0.94638168733E+02  0.37394239080E+03  0.12699999809E+01 0.  1.
       -4    1    3    3    0  502 -0.70158477582E+02 -0.35489815973E+03  0.25333470646E+03  0.44165031660E+03  0.12699999809E+01 0. -1.
</event>
<event>
 5   0  0.3416160E-02  0.7955914E+03  0.7818609E-02  0.9566420E-01
       -2   -1    0    0    0  501  0.00000000000E+00  0.00000000000E+00  0.10296813395E+03  0.10296813399E+03  0.25500000920E-02 0. -1.
        2   -1    0    0  501    0  0.00000000000E+00  0.00000000000E+00 -0.15367997389E+04  0.15367997389E+04  0.25500000920E-02 0.  1.
    10030    2    1    2    0    0  0.00000000000E+00  0.00000000000E+00 -0.14338316049E+04  0.16397678729E+04  0.79559135592E+03 0.  0.
        1    1    3    3  502    0  0.57363140856E+01  0.19619647684E+03 -0.14300436531E+04  0.14434510080E+04  0.50400001928E-02 0.  1.
       -1    1    3    3    0  502 -0.57363140856E+01 -0.19619647684E+03 -0.37879518598E+01  0.19631686486E+03  0.50400001928E-02 0. -1.
</event>
<event>
 5   0  0.2132540E-02  0.8178834E+03  0.7818609E-02  0.9534486E-01
        1   -1    0    0  501    0  0.00000000000E+00  0.00000000000E+00  0.46139240380E+03  0.46139240383E+03  0.50400001928E-02 0.  1.
       -1   -1    0    0    0  501  0.00000000000E+00  0.00000000000E+00 -0.36245357158E+03  0.36245357162E+03  0.50400001928E-02 0. -1.
    10030    2    1    2    0    0  0.00000000000E+00  0.00000000000E+00  0.98938832221E+02  0.82384597545E+03  0.81788342613E+03 0.  0.
        4    1    3    3  502    0 -0.39213294583E+02 -0.85399951591E+02  0.45036697203E+03  0.46006831732E+03  0.12699999809E+01 0.  1.
       -4    1    3    3    0  502  0.39213294583E+02  0.85399951591E+02 -0.35142813981E+03  0.36377765813E+03  0.12699999809E+01 0. -1.
</event>
<event>
 5   0  0.2132540E-02  0.8071431E+03  0.7818609E-02  0.9549735E-01
        1   -1    0    0  501    0  0.00000000000E+00  0.00000000000E+00  0.64493446574E+03  0.64493446576E+03  0.50400001928E-02 0. -1.
       -1   -1    0    0    0  501  0.00000000000E+00  0.00000000000E+00 -0.25253728748E+03  0.25253728753E+03  0.50400001928E-02 0.  1.
    10030    2    1    2    0    0  0.00000000000E+00  0.00000000000E+00  0.39239717827E+03  0.89747175329E+03  0.80714311150E+03 0.  0.
        4    1    3    3  502    0  0.25645452910E+03  0.43717459243E+02  0.53925212980E+03  0.59872749572E+03  0.12699999809E+01 0. -1.
       -4    1    3    3    0  502 -0.25645452910E+03 -0.43717459243E+02 -0.14685495154E+03  0.29874425757E+03  0.12699999809E+01 0.  1.
</event>
<event>
 5   0  0.3404132E-02  0.8023820E+03  0.7818609E-02  0.9556576E-01
        2   -1    0    0  501    0  0.00000000000E+00  0.00000000000E+00  0.96052633709E+03  0.96052633709E+03  0.25500000920E-02 0.  1.
       -2   -1    0    0    0  501  0.00000000000E+00  0.00000000000E+00 -0.16756877673E+03  0.16756877675E+03  0.25500000920E-02 0. -1.
    10030    2    1    2    0    0  0.00000000000E+00  0.00000000000E+00  0.79295756036E+03  0.11280951138E+04  0.80238201210E+03 0.  0.
        5    1    3    3  502    0 -0.74638320893E+02 -0.25480909653E+03 -0.26315781891E+02  0.26685794910E+03  0.46999998093E+01 0. -1.
       -5    1    3    3    0  502  0.74638320893E+02  0.25480909653E+03  0.81927334225E+03  0.86123716474E+03  0.46999998093E+01 0.  1.
</event>
<event>
 5   0  0.2077795E-02  0.7902929E+03  0.7818609E-02  0.9574175E-01
       -1   -1    0    0    0  501  0.00000000000E+00  0.00000000000E+00  0.14023305489E+03  0.14023305498E+03  0.50400001928E-02 0. -1.
        1   -1    0    0  501    0  0.00000000000E+00  0.00000000000E+00 -0.11134372033E+04  0.11134372033E+04  0.50400001928E-02 0.  1.
    10030    2    1    2    0    0  0.00000000000E+00  0.00000000000E+00 -0.97320414841E+03  0.12536702583E+04  0.79029285839E+03 0.  0.
        5    1    3    3  502    0  0.33553117006E+03 -0.81863353085E+02 -0.18214187304E+03  0.39048754983E+03  0.46999998093E+01 0. -1.
       -5    1    3    3    0  502 -0.33553117006E+03  0.81863353085E+02 -0.79106227537E+03  0.86318270845E+03  0.46999998093E+01 0.  1.
</event>
<event>
 5   0  0.2077795E-02  0.7915157E+03  0.7818609E-02  0.9572380E-01
        1   -1    0    0  501    0  0.00000000000E+00  0.00000000000E+00  0.10078091899E+04  0.10078091899E+04  0.50400001928E-02 0.  1.
       -1   -1    0    0    0  501  0.00000000000E+00  0.00000000000E+00 -0.15541063235E+03  0.15541063243E+03  0.50400001928E-02 0. -1.
    10030    2    1    2    0    0  0.00000000000E+00  0.00000000000E+00  0.85239855755E+03  0.11632198223E+04  0.79151566893E+03 0.  0.
        5    1    3    3  502    0 -0.30571944481E+03 -0.25127186196E+03  0.42692817531E+03  0.58214404096E+03  0.46999998093E+01 0. -1.
       -5    1    3    3    0  502  0.30571944481E+03  0.25127186196E+03  0.42547038224E+03  0.58107578138E+03  0.46999998093E+01 0.  1.
</event>
<event>
 5   0  0.3467240E-02  0.8182685E+03  0.7818609E-02  0.9533944E-01
       -2   -1    0    0    0  501  0.00000000000E+00  0.00000000000E+00  0.17062247855E+03  0.17062247856E+03  0.25500000920E-02 0.  1.
        2   -1    0    0  501    0  0.00000000000E+00  0.00000000000E+00 -0.98105973765E+03  0.98105973765E+03  0.25500000920E-02 0. -1.
    10030    2    1    2    0    0  0.00000000000E+00  0.00000000000E+00 -0.81043725910E+03  0.11516822162E+04  0.81826852329E+03 0.  0.
        2    1    3    3  502    0 -0.13356629402E+03  0.23583199729E+03 -0.83658728949E+03  0.87939466612E+03  0.25500000920E-02 0. -1.
       -2    1    3    3    0  502  0.13356629402E+03 -0.23583199729E+03  0.26150030389E+02  0.27228755010E+03  0.25500000920E-02 0.  1.
</event>
<event>
 5   0  0.2129257E-02  0.8283374E+03  0.7818609E-02  0.9519882E-01
       -1   -1    0    0    0  501  0.00000000000E+00  0.00000000000E+00  0.19901336607E+03  0.19901336613E+03  0.50400001928E-02 0.  1.
        1   -1    0    0  501    0  0.00000000000E+00  0.00000000000E+00 -0.86193052296E+03  0.86193052298E+03  0.50400001928E-02 0. -1.
    10030    2    1    2    0    0  0.00000000000E+00  0.00000000000E+00 -0.66291715690E+03  0.10609438891E+04  0.82833735816E+03 0.  0.
        3    1    3    3  502    0  0.32633869747E+03 -0.44625841206E+02 -0.98568888890E+01  0.32952326114E+03  0.10100000352E+00 0.  1.
       -3    1    3    3    0  502 -0.32633869747E+03  0.44625841206E+02 -0.65306026801E+03  0.73142062797E+03  0.10100000352E+00 0. -1.
</event>
<event>
 5   0  0.3550586E-02  0.8002095E+03  0.7818609E-02  0.9559714E-01
       -2   -1    0    0    0  501  0.00000000000E+00  0.00000000000E+00  0.25672075005E+03  0.25672075006E+03  0.25500000920E-02 0. -1.
        2   -1    0    0  501    0  0.00000000000E+00  0.00000000000E+00 -0.62357174939E+03  0.62357174939E+03  0.25500000920E-02 0.  1.
    10030    2    1    2    0    0  0.00000000000E+00  0.00000000000E+00 -0.36685099934E+03  0.88029249945E+03  0.80020949062E+03 0.  0.
        3    1    3    3  502    0  0.81986099000E+02 -0.29819779857E+03 -0.46268089543E+03  0.55652247816E+03  0.10100000352E+00 0.  1.
       -3    1    3    3    0  502 -0.81986099000E+02  0.29819779857E+03  0.95829896092E+02  0.32377002129E+03  0.10100000352E+00 0. -1.
</event>
<event>
 5   0  0.1358000E-02  0.8010870E+03  0.7818609E-02  0.9558445E-01
       -3   -1    0    0    0  501  0.00000000000E+00  0.00000000000E+00  0.30672554060E+03  0.30672555722E+03  0.10100000352E+00 0. -1.
        3   -1    0    0  501    0  0.00000000000E+00  0.00000000000E+00 -0.52305752285E+03  0.52305753260E+03  0.10100000352E+00 0.  1.
    10030    2    1    2    0    0  0.00000000000E+00  0.00000000000E+00 -0.21633198225E+03  0.82978308982E+03  0.80108704247E+03 0.  0.
        4    1    3    3  502    0  0.22088514280E+03 -0.15837588396E+03  0.19658444174E+03  0.33544034129E+03  0.12699999809E+01 0. -1.
       -4    1    3    3    0  502 -0.22088514280E+03  0.15837588396E+03 -0.41291642399E+03  0.49434274853E+03  0.12699999809E+01 0.  1.
</event>
<event>
 5   0  0.3343036E-02  0.7939421E+03  0.7818609E-02  0.9568827E-01
       -2   -1    0    0    0  501  0.00000000000E+00  0.00000000000E+00  0.14042905996E+03  0.14042905999E+03  0.25500000920E-02 0.  1.
        2   -1    0    0  501    0  0.00000000000E+00  0.00000000000E+00 -0.11221751721E+04  0.11221751721E+04  0.25500000920E-02 0. -1.
    10030    2    1    2    0    0  0.00000000000E+00  0.00000000000E+00 -0.98174611212E+03  0.12626042321E+04  0.79394207483E+03 0.  0.
        4    1    3    3  502    0  0.29768370769E+03  0.22667733418E+03 -0.70176708245E+03  0.79528413449E+03  0.12699999809E+01 0. -1.
       -4    1    3    3    0  502 -0.29768370769E+03 -0.22667733418E+03 -0.27997902967E+03  0.46732009759E+03  0.12699999809E+01 0.  1.
</event>
<event>
 5   0  0.3343036E-02  0.7915994E+03  0.7818609E-02  0.9572257E-01
       -2   -1    0    0    0  501  0.00000000000E+00  0.00000000000E+00  0.85705652214E+02  0.85705652252E+02  0.25500000920E-02 0. -1.
        2   -1    0    0  501    0  0.00000000000E+00  0.00000000000E+00 -0.18278537224E+04  0.18278537224E+04  0.25500000920E-02 0.  1.
    10030    2    1    2    0    0  0.00000000000E+00  0.00000000000E+00 -0.17421480701E+04  0.19135593746E+04  0.79159938217E+03 0.  0.
        4    1    3    3  502    0  0.36963885392E+03  0.53064958866E+02 -0.11881688977E+04  0.12454700777E+04  0.12699999809E+01 0.  1.
       -4    1    3    3    0  502 -0.36963885392E+03 -0.53064958866E+02 -0.55397917244E+03  0.66808929686E+03  0.12699999809E+01 0. -1.
</event>
<event>
 5   0  0.2063692E-02  0.7956368E+03  0.7818609E-02  0.9566354E-01
        1   -1    0    0  501    0  0.00000000000E+00  0.00000000000E+00  0.23439845668E+03  0.23439845674E+03  0.50400001928E-02 0.  1.
       -1   -1    0    0    0  501  0.00000000000E+00  0.00000000000E+00 -0.67517294672E+03  0.67517294674E+03  0.50400001928E-02 0. -1.
    10030    2    1    2    0    0  0.00000000000E+00  0.00000000000E+00 -0.44077449004E+03  0.90957140348E+03  0.79563684364E+03 0.  0.
        2    1    3    3  502    0 -0.29377449746E+03  0.15716178410E+03  0.28127052074E+02  0.33435671491E+03  0.25500000920E-02 0.  1.
       -2    1    3    3    0  502  0.29377449746E+03 -0.15716178410E+03 -0.46890154212E+03  0.57521468857E+03  0.25500000920E-02 0. -1.
</event>
<event>
 5   0  0.3416160E-02  0.7928321E+03  0.7818609E-02  0.9570451E-01
        2   -1    0    0  501    0  0.00000000000E+00  0.00000000000E+00  0.81121931719E+03  0.81121931719E+03  0.25500000920E-02 0. -1.
       -2   -1    0    0    0  501  0.00000000000E+00  0.00000000000E+00 -0.19371541004E+03  0.19371541006E+03  0.25500000920E-02 0.  1.
    10030    2    1    2    0    0  0.00000000000E+00  0.00000000000E+00  0.61750390715E+03  0.10049347272E+04  0.79283209489E+03 0.  0.
        1    1    3    3  502    0  0.15833601226E+03 -0.26145514317E+03 -0.11198640840E+02  0.30586679168E+03  0.50400001928E-02 0.  1.
       -1    1    3    3    0  502 -0.15833601226E+03  0.26145514317E+03  0.62870254799E+03  0.69906793557E+03  0.50400001928E-02 0. -1.
</event>
<event>
 5   0  0.1989298E-02  0.8097048E+03  0.7818609E-02  0.9546075E-01
        1   -1    0    0  501    0  0.00000000000E+00  0.00000000000E+00  0.21223780906E+03  0.21223780912E+03  0.50400001928E-02 0. -1.
       -1   -1    0    0    0  501  0.00000000000E+00  0.00000000000E+00 -0.77227265791E+03  0.77227265793E+03  0.50400001928E-02 0.  1.
    10030    2    1    2    0    0  0.00000000000E+00  0.00000000000E+00 -0.56003484885E+03  0.98451046705E+03  0.80970477818E+03 0.  0.
        1    1    3    3  502    0 -0.16087684262E+03 -0.37148061188E+03 -0.28624740467E+03  0.49579913291E+03  0.50400001928E-02 0.  1.
       -1    1    3    3    0  502  0.16087684262E+03  0.37148061188E+03 -0.27378744418E+03  0.48871133413E+03  0.50400001928E-02 0. -1.
</event>
<event>
 5   0  0.2077795E-02  0.8175342E+03  0.7818609E-02  0.9534978E-01
       -1   -1    0    0    0  501  0.00000000000E+00  0.00000000000E+00  0.12110734606E+03  0.12110734617E+03  0.50400001928E-02 0. -1.
        1   -1    0    0  501    0  0.00000000000E+00  0.00000000000E+00 -0.13796896841E+04  0.13796896841E+04  0.50400001928E-02 0.  1.
    10030    2    1    2    0    0  0.00000000000E+00  0.00000000000E+00 -0.12585823380E+04  0.15007970302E+04  0.81753423442E+03 0.  0.
        5    1    3    3  502    0  0.23803004178E+02 -0.22988500557E+03 -0.12481760060E+04  0.12694010913E+04  0.46999998093E+01 0.  1.
       -5    1    3    3    0  502 -0.23803004178E+02  0.22988500557E+03 -0.10406332009E+02  0.23139593889E+03  0.46999998093E+01 0. -1.
</event>
<event>
 5   0  0.3416160E-02  0.7785952E+03  0.7818609E-02  0.9591527E-01
       -2   -1    0    0    0  501  0.00000000000E+00  0.00000000000E+00  0.10434756591E+03  0.10434756594E+03  0.25500000920E-02 0.  1.
        2   -1    0    0  501    0  0.00000000000E+00  0.00000000000E+00 -0.14523827817E+04  0.14523827817E+04  0.25500000920E-02 0. -1.
    10030    2    1    2    0    0  0.00000000000E+00  0.00000000000E+00 -0.13480352158E+04  0.15567303477E+04  0.77859516583E+03 0.  0.
        1    1    3    3  502    0  0.27893804406E+03  0.15909910229E+03 -0.23399469252E+03  0.39733169132E+03  0.50400001928E-02 0.  1.
       -1    1    3    3    0  502 -0.27893804406E+03 -0.15909910229E+03 -0.11140405233E+04  0.11593986564E+04  0.50400001928E-02 0. -1.
</event>
<event>
 5   0  0.2077795E-02  0.7996448E+03  0.7818609E-02  0.9560531E-01
       -1   -1    0    0    0  501  0.00000000000E+00  0.00000000000E+00  0.40319815057E+03  0.40319815060E+03  0.50400001928E-02 0.  1.
        1   -1    0    0  501    0  0.00000000000E+00  0.00000000000E+00 -0.39647496130E+03  0.39647496134E+03  0.50400001928E-02 0. -1.
    10030    2    1    2    0    0  0.00000000000E+00  0.00000000000E+00  0.67231892653E+01  0.79967311194E+03  0.79964484909E+03 0.  0.
        5    1    3    3  502    0  0.39431901745E+03  0.12743384581E+02 -0.61339995061E+02  0.39929258240E+03  0.46999998093E+01 0.  1.
       -5    1    3    3    0  502 -0.39431901745E+03 -0.12743384581E+02  0.68063184326E+02  0.40038052953E+03  0.46999998093E+01 0. -1.
</event>
<event>
 5   0  0.2129257E-02  0.8077130E+03  0.7818609E-02  0.9548920E-01
       -1   -1    0    0    0  501  0.00000000000E+00  0.00000000000E+00  0.21076873201E+03  0.21076873207E+03  0.50400001928E-02 0.  1.
        1   -1    0    0  501    0  0.00000000000E+00  0.00000000000E+00 -0.77383423126E+03  0.77383423127E+03  0.50400001928E-02 0. -1.
    10030    2    1    2    0    0  0.00000000000E+00  0.00000000000E+00 -0.56306549925E+03  0.98460296334E+03  0.80771296818E+03 0.  0.
        3    1    3    3  502    0  0.19666319652E+03 -0.31222109248E+03 -0.48161841922E+03  0.60672459600E+03  0.10100000352E+00 0. -1.
       -3    1    3    3    0  502 -0.19666319652E+03  0.31222109248E+03 -0.81447080032E+02  0.37787836734E+03  0.10100000352E+00 0.  1.
</event>
<event>
 5   0  0.2132540E-02  0.8018226E+03  0.7818609E-02  0.9557383E-01
       -1   -1    0    0    0  501  0.00000000000E+00  0.00000000000E+00  0.16989965254E+03  0.16989965262E+03  0.50400001928E-02 0. -1.
        1   -1    0    0  501    0  0.00000000000E+00  0.00000000000E+00 -0.94602813854E+03  0.94602813855E+03  0.50400001928E-02 0.  1.
    10030    2    1    2    0    0  0.00000000000E+00  0.00000000000E+00 -0.77612848600E+03  0.11159277912E+04  0.80182255414E+03 0.  0.
        4    1    3    3  502    0  0.10513677520E+03  0.31901136182E+03 -0.83447403631E+02  0.34610269075E+03  0.12699999809E+01 0. -1.
       -4    1    3    3    0  502 -0.10513677520E+03 -0.31901136182E+03 -0.69268108236E+03  0.76982510042E+03  0.12699999809E+01 0.  1.
</event>
<event>
 5   0  0.3404132E-02  0.8424955E+03  0.7818609E-02  0.9500465E-01
       -2   -1    0    0    0  501  0.00000000000E+00  0.00000000000E+00  0.73774750280E+03  0.73774750281E+03  0.25500000920E-02 0. -1.
        2   -1    0    0  501    0  0.00000000000E+00  0.00000000000E+00 -0.24052897020E+03  0.24052897021E+03  0.25500000920E-02 0.  1.
    10030    2    1    2    0    0  0.00000000000E+00  0.00000000000E+00  0.49721853260E+03  0.97827647302E+03  0.84249545311E+03 0.  0.
        5    1    3    3  502    0  0.11046210281E+03  0.13925157444E+03  0.69203863143E+03  0.71451552435E+03  0.46999998093E+01 0. -1.
       -5    1    3    3    0  502 -0.11046210281E+03 -0.13925157444E+03 -0.19482009883E+03  0.26376094868E+03  0.46999998093E+01 0.  1.
</event>
<event>
 5   0  0.3416160E-02  0.7424894E+03  0.7818609E-02  0.9647208E-01
       -2   -1    0    0    0  501  0.00000000000E+00  0.00000000000E+00  0.21015250343E+03  0.21015250344E+03  0.25500000920E-02 0. -1.
        2   -1    0    0  501    0  0.00000000000E+00  0.00000000000E+00 -0.65582190894E+03  0.65582190895E+03  0.25500000920E-02 0.  1.
    10030    2    1    2    0    0  0.00000000000E+00  0.00000000000E+00 -0.44566940552E+03  0.86597441239E+03  0.74248936955E+03 0.  0.
        1    1    3    3  502    0  0.28056056302E+03 -0.19767142541E+03 -0.38791792032E+03  0.51794645947E+03  0.50400001928E-02 0. -1.
       -1    1    3    3    0  502 -0.28056056302E+03  0.19767142541E+03 -0.57751485199E+02  0.34802795292E+03  0.50400001928E-02 0.  1.
</event>
<event>
 5   0  0.2063692E-02  0.7918223E+03  0.7818609E-02  0.9571930E-01
        1   -1    0    0  501    0  0.00000000000E+00  0.00000000000E+00  0.14564932760E+04  0.14564932761E+04  0.50400001928E-02 0.  1.
       -1   -1    0    0    0  501  0.00000000000E+00  0.00000000000E+00 -0.10761851313E+03  0.10761851325E+03  0.50400001928E-02 0. -1.
    10030    2    1    2    0    0  0.00000000000E+00  0.00000000000E+00  0.13488747629E+04  0.15641117893E+04  0.79182230546E+03 0.  0.
        2    1    3    3  502    0  0.15976684768E+03 -0.52769736784E+01 -0.41037368656E+02  0.16503744333E+03  0.25500000920E-02 0. -1.
       -2    1    3    3    0  502 -0.15976684768E+03  0.52769736784E+01  0.13899121316E+04  0.13990743460E+04  0.25500000920E-02 0.  1.
</event>
<event>
 5   0  0.2077795E-02  0.8097058E+03  0.7818609E-02  0.9546074E-01
       -1   -1    0    0    0  501  0.00000000000E+00  0.00000000000E+00  0.82161776274E+02  0.82161776428E+02  0.50400001928E-02 0.  1.
        1   -1    0    0  501    0  0.00000000000E+00  0.00000000000E+00 -0.19949163421E+04  0.19949163421E+04  0.50400001928E-02 0. -1.
    10030    2    1    2    0    0  0.00000000000E+00  0.00000000000E+00 -0.19127545659E+04  0.20770781186E+04  0.80970579930E+03 0.  0.
        5    1    3    3  502    0 -0.13805100448E+03  0.28196913885E+03 -0.30076709405E+03  0.43479605559E+03  0.46999998093E+01 0.  1.
       -5    1    3    3    0  502  0.13805100448E+03 -0.28196913885E+03 -0.16119874718E+04  0.16422820630E+04  0.46999998093E+01 0. -1.
</event>
<event>
 5   0  0.3550586E-02  0.7930019E+03  0.7818609E-02  0.9570202E-01
       -2   -1    0    0    0  501  0.00000000000E+00  0.00000000000E+00  0.37332934447E+03  0.37332934448E+03  0.25500000920E-02 0. -1.
        2   -1    0    0  501    0  0.00000000000E+00  0.00000000000E+00 -0.42111072243E+03  0.42111072244E+03  0.25500000920E-02 0.  1.
    10030    2    1    2    0    0  0.00000000000E+00  0.00000000000E+00 -0.47781377965E+02  0.79444006692E+03  0.79300186623E+03 0.  0.
        3    1    3    3  502    0 -0.15937724586E+03  0.31140788015E+03  0.16309455619E+03  0.38597385763E+03  0.10100000352E+00 0. -1.
       -3    1    3    3    0  502  0.15937724586E+03 -0.31140788015E+03 -0.21087593416E+03  0.40846620928E+03  0.10100000352E+00 0.  1.
</event>
<event>
 5   0  0.3416160E-02  0.8754592E+03  0.7818609E-02  0.9456790E-01
        2   -1    0    0  501    0  0.00000000000E+00  0.00000000000E+00  0.45186147791E+03  0.45186147792E+03  0.25500000920E-02 0. -1.
       -2   -1    0    0    0  501  0.00000000000E+00  0.00000000000E+00 -0.42403964532E+03  0.42403964533E+03  0.25500000920E-02 0.  1.
    10030    2    1    2    0    0  0.00000000000E+00  0.00000000000E+00  0.27821832587E+02  0.87590112325E+03  0.87545915001E+03 0.  0.
        1    1    3    3  502    0  0.69810242743E+02 -0.15969501523E+03  0.41564969750E+03  0.45071125894E+03  0.50400001928E-02 0. -1.
       -1    1    3    3    0  502 -0.69810242743E+02  0.15969501523E+03 -0.38782786491E+03  0.42518986431E+03  0.50400001928E-02 0.  1.
</event>
<event>
 5   0  0.1358000E-02  0.7984164E+03  0.7818609E-02  0.9562312E-01
       -3   -1    0    0    0  501  0.00000000000E+00  0.00000000000E+00  0.64811920388E+03  0.64811921175E+03  0.10100000352E+00 0.  1.
        3   -1    0    0  501    0  0.00000000000E+00  0.00000000000E+00 -0.24589178300E+03  0.24589180374E+03  0.10100000352E+00 0. -1.
    10030    2    1    2    0    0  0.00000000000E+00  0.00000000000E+00  0.40222742089E+03  0.89401101549E+03  0.79841643126E+03 0.  0.
        3    1    3    3  502    0 -0.88954110732E+02 -0.14558793397E+03 -0.20301197578E+03  0.26518399809E+03  0.10100000352E+00 0. -1.
       -3    1    3    3    0  502  0.88954110732E+02  0.14558793397E+03  0.60523939666E+03  0.62882701740E+03  0.10100000352E+00 0.  1.
</event>
<event>
 5   0  0.2077795E-02  0.7962609E+03  0.7818609E-02  0.9565445E-01
        1   -1    0    0  501    0  0.00000000000E+00  0.00000000000E+00  0.22716735620E+03  0.22716735626E+03  0.50400001928E-02 0. -1.
       -1   -1    0    0    0  501  0.00000000000E+00  0.00000000000E+00 -0.69775803273E+03  0.69775803275E+03  0.50400001928E-02 0.  1.
    10030    2    1    2    0    0  0.00000000000E+00  0.00000000000E+00 -0.47059067652E+03  0.92492538900E+03  0.79626088086E+03 0.  0.
        5    1    3    3  502    0  0.17803767715E+03 -0.25681942909E+03  0.51200165763E+02  0.31669730125E+03  0.46999998093E+01 0. -1.
       -5    1    3    3    0  502 -0.17803767715E+03  0.25681942909E+03 -0.52179084229E+03  0.60822808776E+03  0.46999998093E+01 0.  1.
</event>
<event>
 5   0  0.2063692E-02  0.7852273E+03  0.7818609E-02  0.9581650E-01
        1   -1    0    0  501    0  0.00000000000E+00  0.00000000000E+00  0.13287020292E+04  0.13287020292E+04  0.50400001928E-02 0.  1.
       -1   -1    0    0    0  501  0.00000000000E+00  0.00000000000E+00 -0.11601208129E+03  0.11601208140E+03  0.50400001928E-02 0. -1.
    10030    2    1    2    0    0  0.00000000000E+00  0.00000000000E+00  0.12126899479E+04  0.14447141106E+04  0.78522732483E+03 0.  0.
        2    1    3    3  502    0  0.82438019104E+02 -0.29363860525E+03  0.10612271257E+04  0.11041841648E+04  0.25500000920E-02 0.  1.
       -2    1    3    3    0  502 -0.82438019104E+02  0.29363860525E+03  0.15146282226E+03  0.34052994585E+03  0.25500000920E-02 0. -1.
</event>
<event>
 5   0  0.2077795E-02  0.7939198E+03  0.7818609E-02  0.9568860E-01
       -1   -1    0    0    0  501  0.00000000000E+00  0.00000000000E+00  0.12229953547E+03  0.12229953557E+03  0.50400001928E-02 0.  1.
        1   -1    0    0  501    0  0.00000000000E+00  0.00000000000E+00 -0.12884527932E+04  0.12884527932E+04  0.50400001928E-02 0. -1.
    10030    2    1    2    0    0  0.00000000000E+00  0.00000000000E+00 -0.11661532577E+04  0.14107523288E+04  0.79391984019E+03 0.  0.
        5    1    3    3  502    0  0.11120541882E+03  0.13773103496E+03  0.48223399204E+02  0.18353220261E+03  0.46999998093E+01 0.  1.
       -5    1    3    3    0  502 -0.11120541882E+03 -0.13773103496E+03 -0.12143766569E+04  0.12272201262E+04  0.46999998093E+01 0. -1.
</event>
<event>
 5   0  0.2063692E-02  0.8073568E+03  0.7818609E-02  0.9549429E-01
        1   -1    0    0  501    0  0.00000000000E+00  0.00000000000E+00  0.22659136864E+03  0.22659136870E+03  0.50400001928E-02 0. -1.
       -1   -1    0    0    0  501  0.00000000000E+00  0.00000000000E+00 -0.71916362353E+03  0.71916362355E+03  0.50400001928E-02 0.  1.
    10030    2    1    2    0    0  0.00000000000E+00  0.00000000000E+00 -0.49257225489E+03  0.94575499225E+03  0.80735684742E+03 0.  0.
        2    1    3    3  502    0 -0.19192447865E+03 -0.34541451885E+03 -0.34295553091E+03  0.52322527798E+03  0.25500000920E-02 0. -1.
       -2    1    3    3    0  502  0.19192447865E+03  0.34541451885E+03 -0.14961672398E+03  0.42252971427E+03  0.25500000920E-02 0.  1.
</event>
<event>
 5   0  0.2077795E-02  0.6082718E+03  0.7818609E-02  0.9888392E-01
       -1   -1    0    0    0  501  0.00000000000E+00  0.00000000000E+00  0.21497762573E+03  0.21497762579E+03  0.50400001928E-02 0.  1.
        1   -1    0    0  501    0  0.00000000000E+00  0.00000000000E+00 -0.43027108934E+03  0.43027108937E+03  0.50400001928E-02 0. -1.
    10030    2    1    2    0    0  0.00000000000E+00  0.00000000000E+00 -0.21529346361E+03  0.64524871516E+03  0.60827183803E+03 0.  0.
        5    1    3    3  502    0  0.17710565518E+03 -0.82964571026E+01  0.15443781065E+03  0.23517731960E+03  0.46999998093E+01 0.  1.
       -5    1    3    3    0  502 -0.17710565518E+03  0.82964571026E+01 -0.36973127426E+03  0.41007139556E+03  0.46999998093E+01 0. -1.
</event>
<event>
 5   0  0.1358000E-02  0.8055104E+03  0.7818609E-02  0.9552075E-01
       -4   -1    0    0    0  501  0.00000000000E+00  0.00000000000E+00  0.25122221057E+03  0.25122542066E+03  0.12699999809E+01 0. -1.
        4   -1    0    0  501    0  0.00000000000E+00  0.00000000000E+00 -0.64568231726E+03  0.64568356624E+03  0.12699999809E+01 0.  1.
    10030    2    1    2    0    0  0.00000000000E+00  0.00000000000E+00 -0.39446010669E+03  0.89690898690E+03  0.80551036928E+03 0.  0.
        1    1    3    3  502    0  0.33361605951E+03  0.28371114087E+02 -0.44647540212E+03  0.55807246841E+03  0.50400001928E-02 0.  1.
       -1    1    3    3    0  502 -0.33361605951E+03 -0.28371114087E+02  0.52015295434E+02  0.33883651849E+03  0.50400001928E-02 0. -1.
</event>
<event>
 5   0  0.3550586E-02  0.8017787E+03  0.7818609E-02  0.9557446E-01
       -2   -1    0    0    0  501  0.00000000000E+00  0.00000000000E+00  0.10208898808E+03  0.10208898811E+03  0.25500000920E-02 0. -1.
        2   -1    0    0  501    0  0.00000000000E+00  0.00000000000E+00 -0.15742372146E+04  0.15742372146E+04  0.25500000920E-02 0.  1.
    10030    2    1    2    0    0  0.00000000000E+00  0.00000000000E+00 -0.14721482265E+04  0.16763262027E+04  0.80177873323E+03 0.  0.
        3    1    3    3  502    0 -0.31976589420E+03  0.19268376437E+03 -0.10414610573E+04  0.11063536524E+04  0.10100000352E+00 0. -1.
       -3    1    3    3    0  502  0.31976589420E+03 -0.19268376437E+03 -0.43068716915E+03  0.56997255023E+03  0.10100000352E+00 0.  1.
</event>
<event>
 5   0  0.3467240E-02  0.8276010E+03  0.7818609E-02  0.9520903E-01
       -2   -1    0    0    0  501  0.00000000000E+00  0.00000000000E+00  0.11978147561E+03  0.11978147564E+03  0.25500000920E-02 0.  1.
        2   -1    0    0  501    0  0.00000000000E+00  0.00000000000E+00 -0.14295270328E+04  0.14295270328E+04  0.25500000920E-02 0. -1.
    10030    2    1    2    0    0  0.00000000000E+00  0.00000000000E+00 -0.13097455572E+04  0.15493085085E+04  0.82760100881E+03 0.  0.
        2    1    3    3  502    0  0.21282990340E+03  0.34076310406E+03 -0.84033589185E+03  0.93143999915E+03  0.25500000920E-02 0.  1.
       -2    1    3    3    0  502 -0.21282990340E+03 -0.34076310406E+03 -0.46940966537E+03  0.61786850933E+03  0.25500000920E-02 0. -1.
</event>
<event>
 5   0  0.3416160E-02  0.8005284E+03  0.7818609E-02  0.9559253E-01
        2   -1    0    0  501    0  0.00000000000E+00  0.00000000000E+00  0.46990056413E+03  0.46990056414E+03  0.25500000920E-02 0. -1.
       -2   -1    0    0    0  501  0.00000000000E+00  0.00000000000E+00 -0.34094755323E+03  0.34094755323E+03  0.25500000920E-02 0.  1.
    10030    2    1    2    0    0  0.00000000000E+00  0.00000000000E+00  0.12895301090E+03  0.81084811737E+03  0.80052844448E+03 0.  0.
        1    1    3    3  502    0  0.17353783091E+03  0.32417366579E+03 -0.95699666978E+02  0.37995048445E+03  0.50400001928E-02 0.  1.
       -1    1    3    3    0  502 -0.17353783091E+03 -0.32417366579E+03  0.22465267788E+03  0.43089763292E+03  0.50400001928E-02 0. -1.
</event>
<event>
 5   0  0.2063692E-02  0.8076572E+03  0.7818609E-02  0.9548999E-01
        1   -1    0    0  501    0  0.00000000000E+00  0.00000000000E+00  0.13695857839E+04  0.13695857839E+04  0.50400001928E-02 0. -1.
       -1   -1    0    0    0  501  0.00000000000E+00  0.00000000000E+00 -0.11907071094E+03  0.11907071105E+03  0.50400001928E-02 0.  1.
    10030    2    1    2    0    0  0.00000000000E+00  0.00000000000E+00  0.12505150730E+04  0.14886564950E+04  0.80765723689E+03 0.  0.
        2    1    3    3  502    0 -0.23354182212E+03 -0.28773450478E+03  0.32951711052E+03  0.49589762457E+03  0.25500000920E-02 0.  1.
       -2    1    3    3    0  502  0.23354182212E+03  0.28773450478E+03  0.92099796247E+03  0.99275887042E+03  0.25500000920E-02 0. -1.
</event>
<event>
 5   0  0.3343036E-02  0.8080017E+03  0.7818609E-02  0.9548507E-01
        2   -1    0    0  501    0  0.00000000000E+00  0.00000000000E+00  0.68080026839E+03  0.68080026840E+03  0.25500000920E-02 0. -1.
       -2   -1    0    0    0  501  0.00000000000E+00  0.00000000000E+00 -0.23974238700E+03  0.23974238702E+03  0.25500000920E-02 0.  1.
    10030    2    1    2    0    0  0.00000000000E+00  0.00000000000E+00  0.44105788139E+03  0.92054265542E+03  0.80800168670E+03 0.  0.
        4    1    3    3  502    0 -0.23132876639E+03 -0.32190247260E+03  0.30937014884E+03  0.50283764966E+03  0.12699999809E+01 0. -1.
       -4    1    3    3    0  502  0.23132876639E+03  0.32190247260E+03  0.13168773255E+03  0.41770500575E+03  0.12699999809E+01 0.  1.
</event>
<event>
 5   0  0.2132540E-02  0.7965648E+03  0.7818609E-02  0.9565003E-01
       -1   -1    0    0    0  501  0.00000000000E+00  0.00000000000E+00  0.23511059079E+04  0.23511059079E+04  0.50400001928E-02 0.  1.
        1   -1    0    0  501    0  0.00000000000E+00  0.00000000000E+00 -0.67469903407E+02  0.67469903595E+02  0.50400001928E-02 0. -1.
    10030    2    1    2    0    0  0.00000000000E+00  0.00000000000E+00  0.22836360045E+04  0.24185758115E+04  0.79656484667E+03 0.  0.
        4    1    3    3  502    0 -0.20581861088E+03 -0.27946195539E+03  0.17349925780E+04  0.17693674417E+04  0.12699999809E+01 0. -1.
       -4    1    3    3    0  502  0.20581861088E+03  0.27946195539E+03  0.54864342648E+03  0.64920836980E+03  0.12699999809E+01 0.  1.
</event>
<event>
 5   0  0.2063692E-02  0.1073413E+04  0.7818609E-02  0.9231500E-01
       -1   -1    0    0    0  501  0.00000000000E+00  0.00000000000E+00  0.63174793261E+03  0.63174793263E+03  0.50400001928E-02 0. -1.
        1   -1    0    0  501    0  0.00000000000E+00  0.00000000000E+00 -0.45596321984E+03  0.45596321987E+03  0.50400001928E-02 0.  1.
    10030    2    1    2    0    0  0.00000000000E+00  0.00000000000E+00  0.17578471277E+03  0.10877111525E+04  0.10734129150E+04 0.  0.
        2    1    3    3  502    0 -0.23817669008E+03 -0.45135802479E+03 -0.80458002128E+02  0.51664851916E+03  0.25500000920E-02 0.  1.
       -2    1    3    3    0  502  0.23817669008E+03  0.45135802479E+03  0.25624271490E+03  0.57106263333E+03  0.25500000920E-02 0. -1.
</event>
<event>
 5   0  0.3550586E-02  0.8004318E+03  0.7818609E-02  0.9559392E-01
        2   -1    0    0  501    0  0.00000000000E+00  0.00000000000E+00  0.44711553803E+03  0.44711553804E+03  0.25500000920E-02 0. -1.
       -2   -1    0    0    0  501  0.00000000000E+00  0.00000000000E+00 -0.35823574993E+03  0.35823574994E+03  0.25500000920E-02 0.  1.
    10030    2    1    2    0    0  0.00000000000E+00  0.00000000000E+00  0.88879788097E+02  0.80535128798E+03  0.80043180866E+03 0.  0.
        3    1    3    3  502    0 -0.32664935219E+03 -0.33568254656E+02  0.27463883446E+03  0.42808074776E+03  0.10100000352E+00 0. -1.
       -3    1    3    3    0  502  0.32664935219E+03  0.33568254656E+02 -0.18575904637E+03  0.37727054022E+03  0.10100000352E+00 0.  1.
</event>
<event>
 5   0  0.2077795E-02  0.8055435E+03  0.7818609E-02  0.9552028E-01
        1   -1    0    0  501    0  0.00000000000E+00  0.00000000000E+00  0.87907598228E+03  0.87907598229E+03  0.50400001928E-02 0. -1.
       -1   -1    0    0    0  501  0.00000000000E+00  0.00000000000E+00 -0.18454046741E+03  0.18454046748E+03  0.50400001928E-02 0.  1.
    10030    2    1    2    0    0  0.00000000000E+00  0.00000000000E+00  0.69453551487E+03  0.10636164498E+04  0.80554352508E+03 0.  0.
        5    1    3    3  502    0  0.39701484171E+02 -0.14119888585E+03  0.84252078484E+03  0.85520564550E+03  0.46999998093E+01 0. -1.
       -5    1    3    3    0  502 -0.39701484171E+02  0.14119888585E+03 -0.14798526997E+03  0.20841080427E+03  0.46999998093E+01 0.  1.
</event>
<event>
 5   0  0.3550586E-02  0.8504787E+03  0.7818609E-02  0.9489695E-01
       -2   -1    0    0    0  501  0.00000000000E+00  0.00000000000E+00  0.17418369489E+03  0.17418369491E+03  0.25500000920E-02 0.  1.
        2   -1    0    0  501    0  0.00000000000E+00  0.00000000000E+00 -0.10381482330E+04  0.10381482330E+04  0.25500000920E-02 0. -1.
    10030    2    1    2    0    0  0.00000000000E+00  0.00000000000E+00 -0.86396453807E+03  0.12123319279E+04  0.85047867716E+03 0.  0.
        3    1    3    3  502    0 -0.17824109287E+03 -0.35795413947E+03 -0.63819528787E+03  0.75312302368E+03  0.10100000352E+00 0. -1.
       -3    1    3    3    0  502  0.17824109287E+03  0.35795413947E+03 -0.22576925020E+03  0.45920890419E+03  0.10100000352E+00 0.  1.
</event>
<event>
 5   0  0.1358000E-02  0.8204776E+03  0.7818609E-02  0.9530841E-01
       -3   -1    0    0    0  501  0.00000000000E+00  0.00000000000E+00  0.75630041579E+03  0.75630042254E+03  0.10100000352E+00 0.  1.
        3   -1    0    0  501    0  0.00000000000E+00  0.00000000000E+00 -0.22252512657E+03  0.22252514949E+03  0.10100000352E+00 0. -1.
    10030    2    1    2    0    0  0.00000000000E+00  0.00000000000E+00  0.53377528922E+03  0.97882557203E+03  0.82047756890E+03 0.  0.
        3    1    3    3  502    0  0.21518828020E+03 -0.17833980132E+03  0.62515331396E+03  0.68478299981E+03  0.10100000352E+00 0.  1.
       -3    1    3    3    0  502 -0.21518828020E+03  0.17833980132E+03 -0.91378024736E+02  0.29404257222E+03  0.10100000352E+00 0. -1.
</event>
<event>
 5   0  0.2132540E-02  0.7973650E+03  0.7818609E-02  0.9563839E-01
       -1   -1    0    0    0  501  0.00000000000E+00  0.00000000000E+00  0.22932919112E+03  0.22932919117E+03  0.50400001928E-02 0.  1.
        1   -1    0    0  501    0  0.00000000000E+00  0.00000000000E+00 -0.69309858407E+03  0.69309858409E+03  0.50400001928E-02 0. -1.
    10030    2    1    2    0    0  0.00000000000E+00  0.00000000000E+00 -0.46376939296E+03  0.92242777526E+03  0.79736500471E+03 0.  0.
        4    1    3    3  502    0  0.12033503187E+02  0.31691093659E+03  0.47604805876E+02  0.32069483528E+03  0.12699999809E+01 0.  1.
       -4    1    3    3    0  502 -0.12033503187E+02 -0.31691093659E+03 -0.51137419883E+03  0.60173293999E+03  0.12699999809E+01 0. -1.
</event>
<event>
 5   0  0.2077795E-02  0.8107325E+03  0.7818609E-02  0.9544611E-01
       -1   -1    0    0    0  501  0.00000000000E+00  0.00000000000E+00  0.36814133146E+03  0.36814133150E+03  0.50400001928E-02 0. -1.
        1   -1    0    0  501    0  0.00000000000E+00  0.00000000000E+00 -0.44635516254E+03  0.44635516257E+03  0.50400001928E-02 0.  1.
    10030    2    1    2    0    0  0.00000000000E+00  0.00000000000E+00 -0.78213831081E+02  0.81449649407E+03  0.81073246850E+03 0.  0.
        5    1    3    3  502    0  0.99845616070E+01 -0.81457956379E+02 -0.43789390778E+03  0.44554265183E+03  0.46999998093E+01 0.  1.
       -5    1    3    3    0  502 -0.99845616070E+01  0.81457956379E+02  0.35968007670E+03  0.36895384224E+03  0.46999998093E+01 0. -1.
</event>
<event>
 5   0  0.3404132E-02  0.7987556E+03  0.7818609E-02  0.9561820E-01
       -2   -1    0    0    0  501  0.00000000000E+00  0.00000000000E+00  0.22310835106E+03  0.22310835108E+03  0.25500000920E-02 0. -1.
        2   -1    0    0  501    0  0.00000000000E+00  0.00000000000E+00 -0.71491102765E+03  0.71491102766E+03  0.25500000920E-02 0.  1.
    10030    2    1    2    0    0  0.00000000000E+00  0.00000000000E+00 -0.49180267659E+03  0.93801937873E+03  0.79875558350E+03 0.  0.
        5    1    3    3  502    0  0.56893775869E+02  0.33906390809E+03 -0.48449782233E+03  0.59410560117E+03  0.46999998093E+01 0.  1.
       -5    1    3    3    0  502 -0.56893775869E+02 -0.33906390809E+03 -0.73048542630E+01  0.34391377756E+03  0.46999998093E+01 0. -1.
</event>
<event>
 5   0  0.1989298E-02  0.8044505E+03  0.7818609E-02  0.9553597E-01
        1   -1    0    0  501    0  0.00000000000E+00  0.00000000000E+00  0.17205677202E+04  0.17205677202E+04  0.50400001928E-02 0. -1.
       -1   -1    0    0    0  501  0.00000000000E+00  0.00000000000E+00 -0.94030099734E+02  0.94030099869E+02  0.50400001928E-02 0.  1.
    10030    2    1    2    0    0  0.00000000000E+00  0.00000000000E+00  0.16265376205E+04  0.18145978201E+04  0.80445050677E+03 0.  0.
        1    1    3    3  502    0 -0.26134216564E+03  0.13132962513E+03  0.14360947307E+04  0.14655767716E+04  0.50400001928E-02 0. -1.
       -1    1    3    3    0  502  0.26134216564E+03 -0.13132962513E+03  0.19044288981E+03  0.34902104848E+03  0.50400001928E-02 0.  1.
</event>
<event>
 5   0  0.3404132E-02  0.7963693E+03  0.7818609E-02  0.9565287E-01
        2   -1    0    0  501    0  0.00000000000E+00  0.00000000000E+00  0.10118078756E+04  0.10118078756E+04  0.25500000920E-02 0.  1.
       -2   -1    0    0    0  501  0.00000000000E+00  0.00000000000E+00 -0.15670072626E+03  0.15670072628E+03  0.25500000920E-02 0. -1.
    10030    2    1    2    0    0  0.00000000000E+00  0.00000000000E+00  0.85510714929E+03  0.11685086018E+04  0.79636933377E+03 0.  0.
        5    1    3    3  502    0  0.15217868721E+02 -0.62373937533E+02 -0.14901459595E+03  0.16232538746E+03  0.46999998093E+01 0. -1.
       -5    1    3    3    0  502 -0.15217868721E+02  0.62373937533E+02  0.10041217452E+04  0.10061832144E+04  0.46999998093E+01 0.  1.
</event>
<event>
 5   0  0.2063692E-02  0.8390003E+03  0.7818609E-02  0.9505220E-01
       -1   -1    0    0    0  501  0.00000000000E+00  0.00000000000E+00  0.31544171189E+03  0.31544171193E+03  0.50400001928E-02 0. -1.
        1   -1    0    0  501    0  0.00000000000E+00  0.00000000000E+00 -0.55788555155E+03  0.55788555157E+03  0.50400001928E-02 0.  1.
    10030    2    1    2    0    0  0.00000000000E+00  0.00000000000E+00 -0.24244383966E+03  0.87332726350E+03  0.83900029427E+03 0.  0.
        2    1    3    3  502    0 -0.90605543718E+02  0.40085634998E+03 -0.33604426116E+02  0.41234019369E+03  0.25500000920E-02 0.  1.
       -2    1    3    3    0  502  0.90605543718E+02 -0.40085634998E+03 -0.20883941354E+03  0.46098706981E+03  0.25500000920E-02 0. -1.
</event>
<event>
 5   0  0.2129257E-02  0.8049508E+03  0.7818609E-02  0.9552879E-01
       -1   -1    0    0    0  501  0.00000000000E+00  0.00000000000E+00  0.19751623244E+03  0.19751623251E+03  0.50400001928E-02 0.  1.
        1   -1    0    0  501    0  0.00000000000E+00  0.00000000000E+00 -0.82011718354E+03  0.82011718356E+03  0.50400001928E-02 0. -1.
    10030    2    1    2    0    0  0.00000000000E+00  0.00000000000E+00 -0.62260095110E+03  0.10176334161E+04  0.80495082159E+03 0.  0.
        3    1    3    3  502    0  0.31762963585E+02  0.11648661002E+03 -0.79668192220E+03  0.80577919527E+03  0.10100000352E+00 0. -1.
       -3    1    3    3    0  502 -0.31762963585E+02 -0.11648661002E+03  0.17408097110E+03  0.21185422080E+03  0.10100000352E+00 0.  1.
</event>
<event>
 5   0  0.1358000E-02  0.7907175E+03  0.7818609E-02  0.9573551E-01
       -3   -1    0    0    0  501  0.00000000000E+00  0.00000000000E+00  0.54773967404E+03  0.54773968336E+03  0.10100000352E+00 0. -1.
        3   -1    0    0  501    0  0.00000000000E+00  0.00000000000E+00 -0.28537009970E+03  0.28537011757E+03  0.10100000352E+00 0.  1.
    10030    2    1    2    0    0  0.00000000000E+00  0.00000000000E+00  0.26236957435E+03  0.83310980093E+03  0.79071748865E+03 0.  0.
        3    1    3    3  502    0  0.33365148799E+03 -0.15194955587E+03 -0.24723313869E+02  0.36745507945E+03  0.10100000352E+00 0.  1.
       -3    1    3    3    0  502 -0.33365148799E+03  0.15194955587E+03  0.28709288822E+03  0.46565472147E+03  0.10100000352E+00 0. -1.
</event>
<event>
 5   0  0.2077795E-02  0.7916269E+03  0.7818609E-02  0.9572217E-01
       -1   -1    0    0    0  501  0.00000000000E+00  0.00000000000E+00  0.17152377197E+03  0.17152377205E+03  0.50400001928E-02 0.  1.
        1   -1    0    0  501    0  0.00000000000E+00  0.00000000000E+00 -0.91339109007E+03  0.91339109009E+03  0.50400001928E-02 0. -1.
    10030    2    1    2    0    0  0.00000000000E+00  0.00000000000E+00 -0.74186731810E+03  0.10849148621E+04  0.79162689470E+03 0.  0.
        5    1    3    3  502    0 -0.21903994034E+03 -0.31298476440E+03 -0.22911476205E+03  0.44548133788E+03  0.46999998093E+01 0.  1.
       -5    1    3    3    0  502  0.21903994034E+03  0.31298476440E+03 -0.51275255605E+03  0.63943352425E+03  0.46999998093E+01 0. -1.
</event>
<event>
 5   0  0.3467240E-02  0.7999105E+03  0.7818609E-02  0.9560147E-01
       -2   -1    0    0    0  501  0.00000000000E+00  0.00000000000E+00  0.23078619561E+03  0.23078619562E+03  0.25500000920E-02 0. -1.
        2   -1    0    0  501    0  0.00000000000E+00  0.00000000000E+00 -0.69312721391E+03  0.69312721391E+03  0.25500000920E-02 0.  1.
    10030    2    1    2    0    0  0.00000000000E+00  0.00000000000E+00 -0.46234101830E+03  0.92391340954E+03  0.79991047694E+03 0.  0.
        2    1    3    3  502    0  0.38139262303E+03 -0.11941434520E+03 -0.21312576713E+03  0.45292682782E+03  0.25500000920E-02 0.  1.
       -2    1    3    3    0  502 -0.38139262303E+03  0.11941434520E+03 -0.24921525117E+03  0.47098658172E+03  0.25500000920E-02 0. -1.
</event>
<event>
 5   0  0.3416160E-02  0.8017818E+03  0.7818609E-02  0.9557442E-01
       -2   -1    0    0    0  501  0.00000000000E+00  0.00000000000E+00  0.71618111251E+02  0.71618111296E+02  0.25500000920E-02 0.  1.
        2   -1    0    0  501    0  0.00000000000E+00  0.00000000000E+00 -0.22440345368E+04  0.22440345368E+04  0.25500000920E-02 0. -1.
    10030    2    1    2    0    0  0.00000000000E+00  0.00000000000E+00 -0.21724164256E+04  0.23156526481E+04  0.80178180364E+03 0.  0.
        1    1    3    3  502    0 -0.30756208144E+03  0.21871096404E+03 -0.14767431543E+04  0.15242044691E+04  0.50400001928E-02 0. -1.
       -1    1    3    3    0  502  0.30756208144E+03 -0.21871096404E+03 -0.69567327124E+03  0.79144817902E+03  0.50400001928E-02 0.  1.
</event>
<event>
 5   0  0.2132540E-02  0.8081984E+03  0.7818609E-02  0.9548226E-01
        1   -1    0    0  501    0  0.00000000000E+00  0.00000000000E+00  0.19650884725E+03  0.19650884731E+03  0.50400001928E-02 0. -1.
       -1   -1    0    0    0  501  0.00000000000E+00  0.00000000000E+00 -0.83098631636E+03  0.83098631638E+03  0.50400001928E-02 0.  1.
    10030    2    1    2    0    0  0.00000000000E+00  0.00000000000E+00 -0.63447746911E+03  0.10274951637E+04  0.80819839928E+03 0.  0.
        4    1    3    3  502    0  0.26833423094E+03 -0.29752797210E+03 -0.38413100732E+03  0.55505350856E+03  0.12699999809E+01 0. -1.
       -4    1    3    3    0  502 -0.26833423094E+03  0.29752797210E+03 -0.25034646179E+03  0.47244165513E+03  0.12699999809E+01 0.  1.
</event>
<event>
 5   0  0.2129257E-02  0.7867392E+03  0.7818609E-02  0.9579412E-01
        1   -1    0    0  501    0  0.00000000000E+00  0.00000000000E+00  0.10500010707E+04  0.10500010708E+04  0.50400001928E-02 0. -1.
       -1   -1    0    0    0  501  0.00000000000E+00  0.00000000000E+00 -0.14737095208E+03  0.14737095217E+03  0.50400001928E-02 0.  1.
    10030    2    1    2    0    0  0.00000000000E+00  0.00000000000E+00  0.90263011867E+03  0.11973720229E+04  0.78673923899E+03 0.  0.
        3    1    3    3  502    0 -0.70296084266E+02 -0.32267872018E+02  0.10383133594E+04  0.10411903753E+04  0.10100000352E+00 0. -1.
       -3    1    3    3    0  502  0.70296084266E+02  0.32267872018E+02 -0.13568324077E+03  0.15618164763E+03  0.10100000352E+00 0.  1.
</event>
<event>
 5   0  0.2129257E-02  0.7988976E+03  0.7818609E-02  0.9561614E-01
       -1   -1    0    0    0  501  0.00000000000E+00  0.00000000000E+00  0.35083410384E+03  0.35083410388E+03  0.50400001928E-02 0.  1.
        1   -1    0    0  501    0  0.00000000000E+00  0.00000000000E+00 -0.45479998903E+03  0.45479998906E+03  0.50400001928E-02 0. -1.
    10030    2    1    2    0    0  0.00000000000E+00  0.00000000000E+00 -0.10396588519E+03  0.80563409294E+03  0.79889760697E+03 0.  0.
        3    1    3    3  502    0 -0.11429864525E+03  0.18747153544E+03 -0.38848754373E+03  0.44624246631E+03  0.10100000352E+00 0. -1.
       -3    1    3    3    0  502  0.11429864525E+03 -0.18747153544E+03  0.28452165854E+03  0.35939162663E+03  0.10100000352E+00 0.  1.
</event>
<event>
 5   0  0.2063692E-02  0.9176611E+03  0.7818609E-02  0.9403770E-01
        1   -1    0    0  501    0  0.00000000000E+00  0.00000000000E+00  0.18785470310E+04  0.18785470310E+04  0.50400001928E-02 0. -1.
       -1   -1    0    0    0  501  0.00000000000E+00  0.00000000000E+00 -0.11206825125E+03  0.11206825137E+03  0.50400001928E-02 0.  1.
    10030    2    1    2    0    0  0.00000000000E+00  0.00000000000E+00  0.17664787798E+04  0.19906152824E+04  0.91766111562E+03 0.  0.
        2    1    3    3  502    0 -0.17511152902E+03  0.19602738842E+03  0.67440734338E+02  0.27136513642E+03  0.25500000920E-02 0.  1.
       -2    1    3    3    0  502  0.17511152902E+03 -0.19602738842E+03  0.16990380454E+04  0.17192501460E+04  0.25500000920E-02 0. -1.
</event>
<event>
 5   0  0.3416160E-02  0.8040606E+03  0.7818609E-02  0.9554158E-01
       -2   -1    0    0    0  501  0.00000000000E+00  0.00000000000E+00  0.32477136805E+03  0.32477136806E+03  0.25500000920E-02 0. -1.
        2   -1    0    0  501    0  0.00000000000E+00  0.00000000000E+00 -0.49766811134E+03  0.49766811135E+03  0.25500000920E-02 0.  1.
    10030    2    1    2    0    0  0.00000000000E+00  0.00000000000E+00 -0.17289674329E+03  0.82243947941E+03  0.80406057822E+03 0.  0.
        1    1    3    3  502    0 -0.37026129114E+02  0.74334202807E+02  0.31590257937E+03  0.32663580273E+03  0.50400001928E-02 0. -1.
       -1    1    3    3    0  502  0.37026129114E+02 -0.74334202807E+02 -0.48879932267E+03  0.49580367668E+03  0.50400001928E-02 0.  1.
</event>
<event>
 5   0  0.3550586E-02  0.8072349E+03  0.7818609E-02  0.9549604E-01
        2   -1    0    0  501    0  0.00000000000E+00  0.00000000000E+00  0.73811892107E+03  0.73811892107E+03  0.25500000920E-02 0.  1.
       -2   -1    0    0    0  501  0.00000000000E+00  0.00000000000E+00 -0.22070567968E+03  0.22070567969E+03  0.25500000920E-02 0. -1.
    10030    2    1    2    0    0  0.00000000000E+00  0.00000000000E+00  0.51741324139E+03  0.95882460077E+03  0.80723488073E+03 0.  0.
        3    1    3    3  502    0  0.18349751389E+03 -0.23178655044E+03 -0.67688347476E+02  0.30327885708E+03  0.10100000352E+00 0. -1.
       -3    1    3    3    0  502 -0.18349751389E+03  0.23178655044E+03  0.58510158887E+03  0.65554574368E+03  0.10100000352E+00 0.  1.
</event>
<event>
 5   0  0.2129257E-02  0.8034120E+03  0.7818609E-02  0.9555091E-01
       -1   -1    0    0    0  501  0.00000000000E+00  0.00000000000E+00  0.81806648597E+03  0.81806648599E+03  0.50400001928E-02 0.  1.
        1   -1    0    0  501    0  0.00000000000E+00  0.00000000000E+00 -0.19725499959E+03  0.19725499966E+03  0.50400001928E-02 0. -1.
    10030    2    1    2    0    0  0.00000000000E+00  0.00000000000E+00  0.62081148638E+03  0.10153214856E+04  0.80341198497E+03 0.  0.
        3    1    3    3  502    0  0.39735950024E+03 -0.38478470669E+02  0.36681723727E+03  0.54215317107E+03  0.10100000352E+00 0.  1.
       -3    1    3    3    0  502 -0.39735950024E+03  0.38478470669E+02  0.25399424911E+03  0.47316831457E+03  0.10100000352E+00 0. -1.
</event>
<event>
 5   0  0.3343036E-02  0.8319485E+03  0.7818609E-02  0.9514890E-01
       -2   -1    0    0    0  501  0.00000000000E+00  0.00000000000E+00  0.30380369293E+03  0.30380369294E+03  0.25500000920E-02 0.  1.
        2   -1    0    0  501    0  0.00000000000E+00  0.00000000000E+00 -0.56956052943E+03  0.56956052943E+03  0.25500000920E-02 0. -1.
    10030    2    1    2    0    0  0.00000000000E+00  0.00000000000E+00 -0.26575683650E+03  0.87336422237E+03  0.83194853733E+03 0.  0.
        4    1    3    3  502    0 -0.22004386941E+03 -0.15534389839E+03  0.19989065522E+03  0.33542349080E+03  0.12699999809E+01 0.  1.
       -4    1    3    3    0  502  0.22004386941E+03  0.15534389839E+03 -0.46564749172E+03  0.53794073157E+03  0.12699999809E+01 0. -1.
</event>
<event>
 5   0  0.2129257E-02  0.8158094E+03  0.7818609E-02  0.9537411E-01
        1   -1    0    0  501    0  0.00000000000E+00  0.00000000000E+00  0.45026765942E+03  0.45026765945E+03  0.50400001928E-02 0. -1.
       -1   -1    0    0    0  501  0.00000000000E+00  0.00000000000E+00 -0.36952739700E+03  0.36952739703E+03  0.50400001928E-02 0.  1.
    10030    2    1    2    0    0  0.00000000000E+00  0.00000000000E+00  0.80740262422E+02  0.81979505648E+03  0.81580938010E+03 0.  0.
        3    1    3    3  502    0 -0.27316358708E+03  0.80259408928E+00  0.34478119119E+03  0.43987847125E+03  0.10100000352E+00 0. -1.
       -3    1    3    3    0  502  0.27316358708E+03 -0.80259408928E+00 -0.26404092877E+03  0.37991658523E+03  0.10100000352E+00 0.  1.
</event>
<event>
 5   0  0.2129257E-02  0.7959608E+03  0.7818609E-02  0.9565882E-01
       -1   -1    0    0    0  501  0.00000000000E+00  0.00000000000E+00  0.73087197533E+03  0.73087197535E+03  0.50400001928E-02 0. -1.
        1   -1    0    0  501    0  0.00000000000E+00  0.00000000000E+00 -0.21671157288E+03  0.21671157294E+03  0.50400001928E-02 0.  1.
    10030    2    1    2    0    0  0.00000000000E+00  0.00000000000E+00  0.51416040245E+03  0.94758354828E+03  0.79596084171E+03 0.  0.
        3    1    3    3  502    0  0.21447430991E+02 -0.10278259408E+02 -0.21586480107E+03  0.21717103272E+03  0.10100000352E+00 0.  1.
       -3    1    3    3    0  502 -0.21447430991E+02  0.10278259408E+02  0.73002520352E+03  0.73041251556E+03  0.10100000352E+00 0. -1.
</event>
<event>
 5   0  0.3404132E-02  0.8016934E+03  0.7818609E-02  0.9557569E-01
        2   -1    0    0  501    0  0.00000000000E+00  0.00000000000E+00  0.56106435577E+03  0.56106435578E+03  0.25500000920E-02 0. -1.
       -2   -1    0    0    0  501  0.00000000000E+00  0.00000000000E+00 -0.28638084013E+03  0.28638084014E+03  0.25500000920E-02 0.  1.
    10030    2    1    2    0    0  0.00000000000E+00  0.00000000000E+00  0.27468351564E+03  0.84744519591E+03  0.80169341167E+03 0.  0.
        5    1    3    3  502    0 -0.33536224754E+03  0.21274983613E+02  0.36829506201E+03  0.49858179340E+03  0.46999998093E+01 0. -1.
       -5    1    3    3    0  502  0.33536224754E+03 -0.21274983613E+02 -0.93611546371E+02  0.34886340252E+03  0.46999998093E+01 0.  1.
</event>
<event>
 5   0  0.2132540E-02  0.7980519E+03  0.7818609E-02  0.9562841E-01
        1   -1    0    0  501    0  0.00000000000E+00  0.00000000000E+00  0.86012261056E+02  0.86012261204E+02  0.50400001928E-02 0. -1.
       -1   -1    0    0    0  501  0.00000000000E+00  0.00000000000E+00 -0.18511513831E+04  0.18511513831E+04  0.50400001928E-02 0.  1.
    10030    2    1    2    0    0  0.00000000000E+00  0.00000000000E+00 -0.17651391220E+04  0.19371636443E+04  0.79805191853E+03 0.  0.
        4    1    3    3  502    0 -0.11870269339E+02 -0.20977748529E+03 -0.59150076807E+02  0.21828385445E+03  0.12699999809E+01 0. -1.
       -4    1    3    3    0  502  0.11870269339E+02  0.20977748529E+03 -0.17059890452E+04  0.17188797899E+04  0.12699999809E+01 0.  1.
</event>
<event>
 5   0  0.2129257E-02  0.8272823E+03  0.7818609E-02  0.9521345E-01
       -1   -1    0    0    0  501  0.00000000000E+00  0.00000000000E+00  0.33120243264E+03  0.33120243268E+03  0.50400001928E-02 0.  1.
        1   -1    0    0  501    0  0.00000000000E+00  0.00000000000E+00 -0.51659951836E+03  0.51659951838E+03  0.50400001928E-02 0. -1.
    10030    2    1    2    0    0  0.00000000000E+00  0.00000000000E+00 -0.18539708572E+03  0.84780195106E+03  0.82728233925E+03 0.  0.
        3    1    3    3  502    0  0.10362319116E+03  0.36740897732E+02 -0.50135156756E+03  0.51326510091E+03  0.10100000352E+00 0. -1.
       -3    1    3    3    0  502 -0.10362319116E+03 -0.36740897732E+02  0.31595448185E+03  0.33453685016E+03  0.10100000352E+00 0.  1.
</event>
<event>
 5   0  0.3467240E-02  0.8035549E+03  0.7818609E-02  0.9554886E-01
       -2   -1    0    0    0  501  0.00000000000E+00  0.00000000000E+00  0.27818536274E+03  0.27818536275E+03  0.25500000920E-02 0. -1.
        2   -1    0    0  501    0  0.00000000000E+00  0.00000000000E+00 -0.58027899488E+03  0.58027899489E+03  0.25500000920E-02 0.  1.
    10030    2    1    2    0    0  0.00000000000E+00  0.00000000000E+00 -0.30209363214E+03  0.85846435764E+03  0.80355490836E+03 0.  0.
        2    1    3    3  502    0 -0.29878092786E+02 -0.15469231384E+03  0.24380702611E+03  0.29028310040E+03  0.25500000920E-02 0. -1.
       -2    1    3    3    0  502  0.29878092786E+02  0.15469231384E+03 -0.54590065825E+03  0.56818125724E+03  0.25500000920E-02 0.  1.
</event>
<event>
 5   0  0.2132540E-02  0.1027607E+04  0.7818609E-02  0.9278773E-01
        1   -1    0    0  501    0  0.00000000000E+00  0.00000000000E+00  0.81268324631E+03  0.81268324632E+03  0.50400001928E-02 0. -1.
       -1   -1    0    0    0  501  0.00000000000E+00  0.00000000000E+00 -0.32484271820E+03  0.32484271824E+03  0.50400001928E-02 0.  1.
    10030    2    1    2    0    0  0.00000000000E+00  0.00000000000E+00  0.48784052811E+03  0.11375259646E+04  0.10276073857E+04 0.  0.
        4    1    3    3  502    0 -0.30167254812E+03 -0.54419388148E+02 -0.21252664520E+03  0.37301070215E+03  0.12699999809E+01 0.  1.
       -4    1    3    3    0  502  0.30167254812E+03  0.54419388148E+02  0.70036717331E+03  0.76451526241E+03  0.12699999809E+01 0. -1.
</event>
<event>
 5   0  0.3416160E-02  0.8351425E+03  0.7818609E-02  0.9510498E-01
        2   -1    0    0  501    0  0.00000000000E+00  0.00000000000E+00  0.37089470111E+03  0.37089470112E+03  0.25500000920E-02 0.  1.
       -2   -1    0    0    0  501  0.00000000000E+00  0.00000000000E+00 -0.47012196270E+03  0.47012196271E+03  0.25500000920E-02 0. -1.
    10030    2    1    2    0    0  0.00000000000E+00  0.00000000000E+00 -0.99227261585E+02  0.84101666383E+03  0.83514249047E+03 0.  0.
        1    1    3    3  502    0 -0.59360673246E+01 -0.30357731479E+03  0.23905803434E+03  0.38644943622E+03  0.50400001928E-02 0.  1.
       -1    1    3    3    0  502  0.59360673246E+01  0.30357731479E+03 -0.33828529592E+03  0.45456722761E+03  0.50400001928E-02 0. -1.
</event>
<event>
 5   0  0.1358000E-02  0.7820149E+03  0.7818609E-02  0.9586421E-01
       -4   -1    0    0    0  501  0.00000000000E+00  0.00000000000E+00  0.61066068939E+03  0.61066201001E+03  0.12699999809E+01 0. -1.
        4   -1    0    0  501    0  0.00000000000E+00  0.00000000000E+00 -0.25035976615E+03  0.25036298729E+03  0.12699999809E+01 0.  1.
    10030    2    1    2    0    0  0.00000000000E+00  0.00000000000E+00  0.36030092325E+03  0.86102499730E+03  0.78201489160E+03 0.  0.
        3    1    3    3  502    0 -0.22082803787E+03 -0.15195669992E+03  0.49357010072E+03  0.56166477145E+03  0.10100000352E+00 0. -1.
       -3    1    3    3    0  502  0.22082803787E+03  0.15195669992E+03 -0.13326917747E+03  0.29936022586E+03  0.10100000352E+00 0.  1.
</event>
<event>
 5   0  0.2132540E-02  0.7034423E+03  0.7818609E-02  0.9711363E-01
        1   -1    0    0  501    0  0.00000000000E+00  0.00000000000E+00  0.60649023437E+03  0.60649023439E+03  0.50400001928E-02 0.  1.
       -1   -1    0    0    0  501  0.00000000000E+00  0.00000000000E+00 -0.20397322444E+03  0.20397322450E+03  0.50400001928E-02 0. -1.
    10030    2    1    2    0    0  0.00000000000E+00  0.00000000000E+00  0.40251700993E+03  0.81046345889E+03  0.70344230390E+03 0.  0.
        4    1    3    3  502    0  0.34472216861E+03 -0.44472542628E+02  0.13926768457E+03  0.37444396302E+03  0.12699999809E+01 0. -1.
       -4    1    3    3    0  502 -0.34472216861E+03  0.44472542628E+02  0.26324932536E+03  0.43601949587E+03  0.12699999809E+01 0.  1.
</event>
<event>
 5   0  0.3550586E-02  0.7892630E+03  0.7818609E-02  0.9575690E-01
        2   -1    0    0  501    0  0.00000000000E+00  0.00000000000E+00  0.38726410492E+03  0.38726410493E+03  0.25500000920E-02 0. -1.
       -2   -1    0    0    0  501  0.00000000000E+00  0.00000000000E+00 -0.40213909989E+03  0.40213909990E+03  0.25500000920E-02 0.  1.
    10030    2    1    2    0    0  0.00000000000E+00  0.00000000000E+00 -0.14874994971E+02  0.78940320482E+03  0.78926304507E+03 0.  0.
        3    1    3    3  502    0 -0.88299785390E+02  0.17865742746E+03 -0.34811316357E+03  0.40112107067E+03  0.10100000352E+00 0.  1.
       -3    1    3    3    0  502  0.88299785390E+02 -0.17865742746E+03  0.33323816860E+03  0.38828213415E+03  0.10100000352E+00 0. -1.
</event>
<event>
 5   0  0.2129257E-02  0.7953896E+03  0.7818609E-02  0.9566715E-01
        1   -1    0    0  501    0  0.00000000000E+00  0.00000000000E+00  0.60735342690E+03  0.60735342692E+03  0.50400001928E-02 0.  1.
       -1   -1    0    0    0  501  0.00000000000E+00  0.00000000000E+00 -0.26041037954E+03  0.26041037959E+03  0.50400001928E-02 0. -1.
    10030    2    1    2    0    0  0.00000000000E+00  0.00000000000E+00  0.34694304736E+03  0.86776380651E+03  0.79538955599E+03 0.  0.
        3    1    3    3  502    0  0.14327685420E+02  0.39743605792E+03  0.17276150877E+03  0.43359803023E+03  0.10100000352E+00 0. -1.
       -3    1    3    3    0  502 -0.14327685420E+02 -0.39743605792E+03  0.17418153859E+03  0.43416577628E+03  0.10100000352E+00 0.  1.
</event>
<event>
 5   0  0.3467240E-02  0.7804444E+03  0.7818609E-02  0.9588762E-01
       -2   -1    0    0    0  501  0.00000000000E+00  0.00000000000E+00  0.65561673839E+03  0.65561673840E+03  0.25500000920E-02 0.  1.
        2   -1    0    0  501    0  0.00000000000E+00  0.00000000000E+00 -0.23225973530E+03  0.23225973532E+03  0.25500000920E-02 0. -1.
    10030    2    1    2    0    0  0.00000000000E+00  0.00000000000E+00  0.42335700309E+03  0.88787647372E+03  0.78044441219E+03 0.  0.
        2    1    3    3  502    0 -0.98369744391E+02  0.83186144522E+02  0.63072615708E+03  0.64374841862E+03  0.25500000920E-02 0.  1.
       -2    1    3    3    0  502  0.98369744391E+02 -0.83186144522E+02 -0.20736915399E+03  0.24412805509E+03  0.25500000920E-02 0. -1.
</event>
<event>
 5   0  0.3550586E-02  0.7965916E+03  0.7818609E-02  0.9564964E-01
        2   -1    0    0  501    0  0.00000000000E+00  0.00000000000E+00  0.18186802082E+03  0.18186802084E+03  0.25500000920E-02 0. -1.
       -2   -1    0    0    0  501  0.00000000000E+00  0.00000000000E+00 -0.87227840322E+03  0.87227840322E+03  0.25500000920E-02 0.  1.
    10030    2    1    2    0    0  0.00000000000E+00  0.00000000000E+00 -0.69041038240E+03  0.10541464241E+04  0.79659160630E+03 0.  0.
        3    1    3    3  502    0 -0.67746140922E+02 -0.90117174767E+02  0.16031191485E+03  0.19598613482E+03  0.10100000352E+00 0. -1.
       -3    1    3    3    0  502  0.67746140922E+02  0.90117174767E+02 -0.85072229725E+03  0.85816028924E+03  0.10100000352E+00 0.  1.
</event>
<event>
 5   0  0.3467240E-02  0.8099160E+03  0.7818609E-02  0.9545774E-01
        2   -1    0    0  501    0  0.00000000000E+00  0.00000000000E+00  0.72482589473E+03  0.72482589473E+03  0.25500000920E-02 0. -1.
       -2   -1    0    0    0  501  0.00000000000E+00  0.00000000000E+00 -0.22624876480E+03  0.22624876481E+03  0.25500000920E-02 0.  1.
    10030    2    1    2    0    0  0.00000000000E+00  0.00000000000E+00  0.49857712993E+03  0.95107465955E+03  0.80991595462E+03 0.  0.
        2    1    3    3  502    0  0.26684598031E+03  0.13262736026E+03 -0.72719493010E+02  0.30673264999E+03  0.25500000920E-02 0.  1.
       -2    1    3    3    0  502 -0.26684598031E+03 -0.13262736026E+03  0.57129662294E+03  0.64434200956E+03  0.25500000920E-02 0. -1.
</event>
<event>
 5   0  0.3467240E-02  0.7738964E+03  0.7818609E-02  0.9598589E-01
       -2   -1    0    0    0  501  0.00000000000E+00  0.00000000000E+00  0.13040329886E+03  0.13040329888E+03  0.25500000920E-02 0.  1.
        2   -1    0    0  501    0  0.00000000000E+00  0.00000000000E+00 -0.11481988742E+04  0.11481988742E+04  0.25500000920E-02 0. -1.
    10030    2    1    2    0    0  0.00000000000E+00  0.00000000000E+00 -0.10177955753E+04  0.12786021731E+04  0.77389642965E+03 0.  0.
        2    1    3    3  502    0 -0.40581803016E+02  0.16466953599E+03  0.65726823756E+02  0.18188720183E+03  0.25500000920E-02 0.  1.
       -2    1    3    3    0  502  0.40581803016E+02 -0.16466953599E+03 -0.10835223991E+04  0.10967149713E+04  0.25500000920E-02 0. -1.
</event>
<event>
 5   0  0.2077795E-02  0.7493650E+03  0.7818609E-02  0.9636347E-01
       -1   -1    0    0    0  501  0.00000000000E+00  0.00000000000E+00  0.11235119880E+03  0.11235119891E+03  0.50400001928E-02 0. -1.
        1   -1    0    0  501    0  0.00000000000E+00  0.00000000000E+00 -0.12495370552E+04  0.12495370552E+04  0.50400001928E-02 0.  1.
    10030    2    1    2    0    0  0.00000000000E+00  0.00000000000E+00 -0.11371858564E+04  0.13618882542E+04  0.74936502769E+03 0.  0.
        5    1    3    3  502    0  0.94381061626E+02 -0.33463609350E+03 -0.31496582284E+03  0.46916378742E+03  0.46999998093E+01 0. -1.
       -5    1    3    3    0  502 -0.94381061626E+02  0.33463609350E+03 -0.82222003360E+03  0.89272446674E+03  0.46999998093E+01 0.  1.
</event>
<event>
 5   0  0.2132540E-02  0.8160887E+03  0.7818609E-02  0.9537017E-01
        1   -1    0    0  501    0  0.00000000000E+00  0.00000000000E+00  0.66913540995E+03  0.66913540997E+03  0.50400001928E-02 0. -1.
       -1   -1    0    0    0  501  0.00000000000E+00  0.00000000000E+00 -0.24882882069E+03  0.24882882074E+03  0.50400001928E-02 0.  1.
    10030    2    1    2    0    0  0.00000000000E+00  0.00000000000E+00  0.42030658927E+03  0.91796423071E+03  0.81608865933E+03 0.  0.
        4    1    3    3  502    0 -0.23422455898E+03 -0.10372366336E+03 -0.14711001094E+03  0.29540262455E+03  0.12699999809E+01 0.  1.
       -4    1    3    3    0  502  0.23422455898E+03  0.10372366336E+03  0.56741660021E+03  0.62256160616E+03  0.12699999809E+01 0. -1.
</event>
<event>
 5   0  0.3467240E-02  0.7839938E+03  0.7818609E-02  0.9583479E-01
       -2   -1    0    0    0  501  0.00000000000E+00  0.00000000000E+00  0.21329322195E+03  0.21329322196E+03  0.25500000920E-02 0. -1.
        2   -1    0    0  501    0  0.00000000000E+00  0.00000000000E+00 -0.72042409463E+03  0.72042409463E+03  0.25500000920E-02 0.  1.
    10030    2    1    2    0    0  0.00000000000E+00  0.00000000000E+00 -0.50713087268E+03  0.93371731660E+03  0.78399381712E+03 0.  0.
        2    1    3    3  502    0 -0.38530861788E+03  0.65101185995E+02 -0.29047954194E+03  0.48690785548E+03  0.25500000920E-02 0.  1.
       -2    1    3    3    0  502  0.38530861788E+03 -0.65101185995E+02 -0.21665133074E+03  0.44680946112E+03  0.25500000920E-02 0. -1.
</event>
<event>
 5   0  0.3467240E-02  0.7977124E+03  0.7818609E-02  0.9563334E-01
        2   -1    0    0  501    0  0.00000000000E+00  0.00000000000E+00  0.41537695399E+03  0.41537695400E+03  0.25500000920E-02 0.  1.
       -2   -1    0    0    0  501  0.00000000000E+00  0.00000000000E+00 -0.38299256039E+03  0.38299256040E+03  0.25500000920E-02 0. -1.
    10030    2    1    2    0    0  0.00000000000E+00  0.00000000000E+00  0.32384393596E+02  0.79836951440E+03  0.79771243727E+03 0.  0.
        2    1    3    3  502    0  0.15242512560E+03 -0.36747528598E+03  0.44760032597E+02  0.40034355901E+03  0.25500000920E-02 0.  1.
       -2    1    3    3    0  502 -0.15242512560E+03  0.36747528598E+03 -0.12375639000E+02  0.39802595539E+03  0.25500000920E-02 0. -1.
</event>
<event>
 5   0  0.1358000E-02  0.8184221E+03  0.7818609E-02  0.9533728E-01
        3   -1    0    0  501    0  0.00000000000E+00  0.00000000000E+00  0.10381242904E+04  0.10381242954E+04  0.10100000352E+00 0.  1.
       -3   -1    0    0    0  501  0.00000000000E+00  0.00000000000E+00 -0.16130407358E+03  0.16130410520E+03  0.10100000352E+00 0. -1.
    10030    2    1    2    0    0  0.00000000000E+00  0.00000000000E+00  0.87682021686E+03  0.11994284006E+04  0.81842213763E+03 0.  0.
        2    1    3    3  502    0 -0.68577501396E+02  0.19725084321E+02 -0.15211560993E+03  0.16802116367E+03  0.25500000920E-02 0. -1.
       -2    1    3    3    0  502  0.68577501396E+02 -0.19725084321E+02  0.10289358268E+04  0.10314072369E+04  0.25500000920E-02 0.  1.
</event>
<event>
 5   0  0.3550586E-02  0.7959627E+03  0.7818609E-02  0.9565879E-01
       -2   -1    0    0    0  501  0.00000000000E+00  0.00000000000E+00  0.88983847182E+02  0.88983847219E+02  0.25500000920E-02 0. -1.
        2   -1    0    0  501    0  0.00000000000E+00  0.00000000000E+00 -0.17799763395E+04  0.17799763395E+04  0.25500000920E-02 0.  1.
    10030    2    1    2    0    0  0.00000000000E+00  0.00000000000E+00 -0.16909924923E+04  0.18689601867E+04  0.79596266901E+03 0.  0.
        3    1    3    3  502    0  0.32155520395E+03  0.19173352741E+03 -0.11625233323E+04  0.12213189604E+04  0.10100000352E+00 0.  1.
       -3    1    3    3    0  502 -0.32155520395E+03 -0.19173352741E+03 -0.52846916000E+03  0.64764122629E+03  0.10100000352E+00 0. -1.
</event>
<event>
 5   0  0.1358000E-02  0.7879504E+03  0.7818609E-02  0.9577624E-01
       -4   -1    0    0    0  501  0.00000000000E+00  0.00000000000E+00  0.20341205622E+04  0.20341209586E+04  0.12699999809E+01 0.  1.
        4   -1    0    0  501    0  0.00000000000E+00  0.00000000000E+00 -0.76300723438E+02  0.76311292068E+02  0.12699999809E+01 0. -1.
    10030    2    1    2    0    0  0.00000000000E+00  0.00000000000E+00  0.19578198387E+04  0.21104322507E+04  0.78795035621E+03 0.  0.
        4    1    3    3  502    0  0.29924571218E+03 -0.85839140399E+02  0.16256073737E+04  0.16551487247E+04  0.12699999809E+01 0.  1.
       -4    1    3    3    0  502 -0.29924571218E+03  0.85839140399E+02  0.33221246499E+03  0.45528352603E+03  0.12699999809E+01 0. -1.
</event>
<event>
 5   0  0.1989298E-02  0.7925862E+03  0.7818609E-02  0.9570811E-01
       -1   -1    0    0    0  501  0.00000000000E+00  0.00000000000E+00  0.22986501911E+03  0.22986501917E+03  0.50400001928E-02 0. -1.
        1   -1    0    0  501    0  0.00000000000E+00  0.00000000000E+00 -0.68321928113E+03  0.68321928115E+03  0.50400001928E-02 0.  1.
    10030    2    1    2    0    0  0.00000000000E+00  0.00000000000E+00 -0.45335426202E+03  0.91308430032E+03  0.79258617992E+03 0.  0.
        1    1    3    3  502    0 -0.18745189908E+03  0.29584649826E+03 -0.44030009440E+03  0.56260780137E+03  0.50400001928E-02 0.  1.
       -1    1    3    3    0  502  0.18745189908E+03 -0.29584649826E+03 -0.13054167620E+02  0.35047649895E+03  0.50400001928E-02 0. -1.
</event>
<event>
 5   0  0.3467240E-02  0.8351669E+03  0.7818609E-02  0.9510464E-01
        2   -1    0    0  501    0  0.00000000000E+00  0.00000000000E+00  0.10068660269E+04  0.10068660269E+04  0.25500000920E-02 0.  1.
       -2   -1    0    0    0  501  0.00000000000E+00  0.00000000000E+00 -0.17318684969E+03  0.17318684971E+03  0.25500000920E-02 0. -1.
    10030    2    1    2    0    0  0.00000000000E+00  0.00000000000E+00  0.83367917716E+03  0.11800528766E+04  0.83516694203E+03 0.  0.
        2    1    3    3  502    0 -0.17301774586E+03  0.13376900684E+03 -0.85796340242E+02  0.23492615771E+03  0.25500000920E-02 0.  1.
       -2    1    3    3    0  502  0.17301774586E+03 -0.13376900684E+03  0.91947551740E+03  0.94512671885E+03  0.25500000920E-02 0. -1.
</event>
<event>
 5   0  0.3404132E-02  0.8094598E+03  0.7818609E-02  0.9546424E-01
        2   -1    0    0  501    0  0.00000000000E+00  0.00000000000E+00  0.12561956898E+04  0.12561956898E+04  0.25500000920E-02 0. -1.
       -2   -1    0    0    0  501  0.00000000000E+00  0.00000000000E+00 -0.13039870653E+03  0.13039870656E+03  0.25500000920E-02 0.  1.
    10030    2    1    2    0    0  0.00000000000E+00  0.00000000000E+00  0.11257969833E+04  0.13865943964E+04  0.80945980289E+03 0.  0.
        5    1    3    3  502    0 -0.31972589038E+03  0.40666943859E+02  0.98216332543E+03  0.10337046644E+04  0.46999998093E+01 0. -1.
       -5    1    3    3    0  502  0.31972589038E+03 -0.40666943859E+02  0.14363365787E+03  0.35288973203E+03  0.46999998093E+01 0.  1.
</event>
<event>
 5   0  0.1358000E-02  0.8053505E+03  0.7818609E-02  0.9552305E-01
        4   -1    0    0  501    0  0.00000000000E+00  0.00000000000E+00  0.30682324987E+03  0.30682587825E+03  0.12699999809E+01 0. -1.
       -4   -1    0    0    0  501  0.00000000000E+00  0.00000000000E+00 -0.52846582779E+03  0.52846735381E+03  0.12699999809E+01 0.  1.
    10030    2    1    2    0    0  0.00000000000E+00  0.00000000000E+00 -0.22164257792E+03  0.83529323206E+03  0.80535045240E+03 0.  0.
        4    1    3    3  502    0  0.84572570848E+02  0.91384390914E+02 -0.50799764654E+03  0.52303618271E+03  0.12699999809E+01 0.  1.
       -4    1    3    3    0  502 -0.84572570848E+02 -0.91384390914E+02  0.28635506862E+03  0.31225704934E+03  0.12699999809E+01 0. -1.
</event>
<event>
 5   0  0.2077795E-02  0.8079696E+03  0.7818609E-02  0.9548553E-01
       -1   -1    0    0    0  501  0.00000000000E+00  0.00000000000E+00  0.71971911755E+03  0.71971911757E+03  0.50400001928E-02 0.  1.
        1   -1    0    0  501    0  0.00000000000E+00  0.00000000000E+00 -0.22676030425E+03  0.22676030430E+03  0.50400001928E-02 0. -1.
    10030    2    1    2    0    0  0.00000000000E+00  0.00000000000E+00  0.49295881331E+03  0.94647942187E+03  0.80796961849E+03 0.  0.
        5    1    3    3  502    0 -0.33412412428E+03 -0.10745982958E+03  0.48075092295E+03  0.59525631901E+03  0.46999998093E+01 0.  1.
       -5    1    3    3    0  502  0.33412412428E+03  0.10745982958E+03  0.12207890358E+02  0.35122310287E+03  0.46999998093E+01 0. -1.
</event>
<event>
 5   0  0.3343036E-02  0.7652688E+03  0.7818609E-02  0.9611696E-01
        2   -1    0    0  501    0  0.00000000000E+00  0.00000000000E+00  0.32015463828E+04  0.32015463828E+04  0.25500000920E-02 0.  1.
       -2   -1    0    0    0  501  0.00000000000E+00  0.00000000000E+00 -0.45730740883E+02  0.45730740954E+02  0.25500000920E-02 0. -1.
    10030    2    1    2    0    0  0.00000000000E+00  0.00000000000E+00  0.31558156419E+04  0.32472771237E+04  0.76526881074E+03 0.  0.
        4    1    3    3  502    0  0.27857770564E+03 -0.24297247356E+03  0.11585635757E+04  0.12161053954E+04  0.12699999809E+01 0. -1.
       -4    1    3    3    0  502 -0.27857770564E+03  0.24297247356E+03  0.19972520662E+04  0.20311717283E+04  0.12699999809E+01 0.  1.
</event>
<event>
 5   0  0.2129257E-02  0.7918239E+03  0.7818609E-02  0.9571928E-01
       -1   -1    0    0    0  501  0.00000000000E+00  0.00000000000E+00  0.10660495391E+04  0.10660495391E+04  0.50400001928E-02 0.  1.
        1   -1    0    0  501    0  0.00000000000E+00  0.00000000000E+00 -0.14703471518E+03  0.14703471527E+03  0.50400001928E-02 0. -1.
    10030    2    1    2    0    0  0.00000000000E+00  0.00000000000E+00  0.91901482390E+03  0.12130842544E+04  0.79182394610E+03 0.  0.
        3    1    3    3  502    0 -0.28490280282E+03 -0.45202119750E+02  0.87494403603E+03  0.92127081527E+03  0.10100000352E+00 0.  1.
       -3    1    3    3    0  502  0.28490280282E+03  0.45202119750E+02  0.44070787873E+02  0.29181343909E+03  0.10100000352E+00 0. -1.
</event>
<event>
 5   0  0.2063692E-02  0.8080094E+03  0.7818609E-02  0.9548496E-01
       -1   -1    0    0    0  501  0.00000000000E+00  0.00000000000E+00  0.77713000298E+03  0.77713000300E+03  0.50400001928E-02 0.  1.
        1   -1    0    0  501    0  0.00000000000E+00  0.00000000000E+00 -0.21002896803E+03  0.21002896809E+03  0.50400001928E-02 0. -1.
    10030    2    1    2    0    0  0.00000000000E+00  0.00000000000E+00  0.56710103495E+03  0.98715897109E+03  0.80800943705E+03 0.  0.
        2    1    3    3  502    0  0.13095943647E+03  0.68456054851E+02  0.74292786739E+03  0.75748163120E+03  0.25500000920E-02 0.  1.
       -2    1    3    3    0  502 -0.13095943647E+03 -0.68456054851E+02 -0.17582683244E+03  0.22967733989E+03  0.25500000920E-02 0. -1.
</event>
<event>
 5   0  0.3467240E-02  0.8009560E+03  0.7818609E-02  0.9558634E-01
       -2   -1    0    0    0  501  0.00000000000E+00  0.00000000000E+00  0.82210266662E+02  0.82210266702E+02  0.25500000920E-02 0. -1.
        2   -1    0    0  501    0  0.00000000000E+00  0.00000000000E+00 -0.19508833854E+04  0.19508833854E+04  0.25500000920E-02 0.  1.
    10030    2    1    2    0    0  0.00000000000E+00  0.00000000000E+00 -0.18686731188E+04  0.20330936521E+04  0.80095603721E+03 0.  0.
        2    1    3    3  502    0  0.10479002284E+03 -0.36627231729E+03 -0.12477594480E+04  0.13046225506E+04  0.25500000920E-02 0. -1.
       -2    1    3    3    0  502 -0.10479002284E+03  0.36627231729E+03 -0.62091367073E+03  0.72847110156E+03  0.25500000920E-02 0.  1.
</event>
<event>
 5   0  0.3404132E-02  0.8108268E+03  0.7818609E-02  0.9544477E-01
        2   -1    0    0  501    0  0.00000000000E+00  0.00000000000E+00  0.81987905615E+03  0.81987905616E+03  0.25500000920E-02 0. -1.
       -2   -1    0    0    0  501  0.00000000000E+00  0.00000000000E+00 -0.20046862466E+03  0.20046862468E+03  0.25500000920E-02 0.  1.
    10030    2    1    2    0    0  0.00000000000E+00  0.00000000000E+00  0.61941043149E+03  0.10203476808E+04  0.81082680466E+03 0.  0.
        5    1    3    3  502    0 -0.38841426921E+02 -0.39660232246E+03  0.21607557737E+03  0.45333520022E+03  0.46999998093E+01 0. -1.
       -5    1    3    3    0  502  0.38841426921E+02  0.39660232246E+03  0.40333485412E+03  0.56701248062E+03  0.46999998093E+01 0.  1.
</event>
<event>
 5   0  0.2132540E-02  0.8143624E+03  0.7818609E-02  0.9539458E-01
       -1   -1    0    0    0  501  0.00000000000E+00  0.00000000000E+00  0.55558229633E+03  0.55558229635E+03  0.50400001928E-02 0.  1.
        1   -1    0    0  501    0  0.00000000000E+00  0.00000000000E+00 -0.29841936470E+03  0.29841936474E+03  0.50400001928E-02 0. -1.
    10030    2    1    2    0    0  0.00000000000E+00  0.00000000000E+00  0.25716293163E+03  0.85400166109E+03  0.81436236636E+03 0.  0.
        4    1    3    3  502    0 -0.59788537554E+02 -0.61178961985E+02 -0.28888793180E+03  0.30128953624E+03  0.12699999809E+01 0. -1.
       -4    1    3    3    0  502  0.59788537554E+02  0.61178961985E+02  0.54605086342E+03  0.55271212485E+03  0.12699999809E+01 0.  1.
</event>
<event>
 5   0  0.3404132E-02  0.7990949E+03  0.7818609E-02  0.9561328E-01
       -2   -1    0    0    0  501  0.00000000000E+00  0.00000000000E+00  0.18292995653E+03  0.18292995654E+03  0.25500000920E-02 0.  1.
        2   -1    0    0  501    0  0.00000000000E+00  0.00000000000E+00 -0.87267377242E+03  0.87267377242E+03  0.25500000920E-02 0. -1.
    10030    2    1    2    0    0  0.00000000000E+00  0.00000000000E+00 -0.68974381589E+03  0.10556037290E+04  0.79909492618E+03 0.  0.
        5    1    3    3  502    0 -0.31883001307E+03 -0.95713351778E+02 -0.63669752331E+03  0.71848413283E+03  0.46999998093E+01 0. -1.
       -5    1    3    3    0  502  0.31883001307E+03  0.95713351778E+02 -0.53046292583E+02  0.33711959613E+03  0.46999998093E+01 0.  1.
</event>
<event>
 5   0  0.1358000E-02  0.7887466E+03  0.7818609E-02  0.9576450E-01
       -3   -1    0    0    0  501  0.00000000000E+00  0.00000000000E+00  0.15806838815E+03  0.15806842041E+03  0.10100000352E+00 0.  1.
        3   -1    0    0  501    0  0.00000000000E+00  0.00000000000E+00 -0.98394306250E+03  0.98394306769E+03  0.10100000352E+00 0. -1.
    10030    2    1    2    0    0  0.00000000000E+00  0.00000000000E+00 -0.82587467436E+03  0.11420114881E+04  0.78874663943E+03 0.  0.
        5    1    3    3  502    0  0.57663574296E+02  0.34410218328E+03 -0.14683887634E+03  0.37856986930E+03  0.46999998093E+01 0.  1.
       -5    1    3    3    0  502 -0.57663574296E+02 -0.34410218328E+03 -0.67903579802E+03  0.76344161880E+03  0.46999998093E+01 0. -1.
</event>
<event>
 5   0  0.2129257E-02  0.7860449E+03  0.7818609E-02  0.9580439E-01
       -1   -1    0    0    0  501  0.00000000000E+00  0.00000000000E+00  0.15400989142E+03  0.15400989150E+03  0.50400001928E-02 0. -1.
        1   -1    0    0  501    0  0.00000000000E+00  0.00000000000E+00 -0.10029658064E+04  0.10029658064E+04  0.50400001928E-02 0.  1.
    10030    2    1    2    0    0  0.00000000000E+00  0.00000000000E+00 -0.84895591498E+03  0.11569756979E+04  0.78604492237E+03 0.  0.
        3    1    3    3  502    0  0.24948675580E+03 -0.29264020732E+03 -0.54391671594E+03  0.66612861846E+03  0.10100000352E+00 0. -1.
       -3    1    3    3    0  502 -0.24948675580E+03  0.29264020732E+03 -0.30503919905E+03  0.49084707946E+03  0.10100000352E+00 0.  1.
</event>
<event>
 5   0  0.3467240E-02  0.8438676E+03  0.7818609E-02  0.9498605E-01
       -2   -1    0    0    0  501  0.00000000000E+00  0.00000000000E+00  0.67992645902E+03  0.67992645902E+03  0.25500000920E-02 0. -1.
        2   -1    0    0  501    0  0.00000000000E+00  0.00000000000E+00 -0.26183440562E+03  0.26183440563E+03  0.25500000920E-02 0.  1.
    10030    2    1    2    0    0  0.00000000000E+00  0.00000000000E+00  0.41809205340E+03  0.94176086465E+03  0.84386762059E+03 0.  0.
        2    1    3    3  502    0 -0.21032841385E+03  0.24212860179E+03  0.51501035227E+03  0.60671242317E+03  0.25500000920E-02 0. -1.
       -2    1    3    3    0  502  0.21032841385E+03 -0.24212860179E+03 -0.96918298872E+02  0.33504844148E+03  0.25500000920E-02 0.  1.
</event>
<event>
 5   0  0.3550586E-02  0.7968467E+03  0.7818609E-02  0.9564593E-01
        2   -1    0    0  501    0  0.00000000000E+00  0.00000000000E+00  0.39555921407E+03  0.39555921408E+03  0.25500000920E-02 0.  1.
       -2   -1    0    0    0  501  0.00000000000E+00  0.00000000000E+00 -0.40130819118E+03  0.40130819119E+03  0.25500000920E-02 0. -1.
    10030    2    1    2    0    0  0.00000000000E+00  0.00000000000E+00 -0.57489771045E+01  0.79686740527E+03  0.79684666708E+03 0.  0.
        3    1    3    3  502    0  0.26241640274E+03  0.61850308659E+02  0.29048159642E+03  0.39631729355E+03  0.10100000352E+00 0.  1.
       -3    1    3    3    0  502 -0.26241640274E+03 -0.61850308659E+02 -0.29623057353E+03  0.40055011172E+03  0.10100000352E+00 0. -1.
</event>
<event>
 5   0  0.3416160E-02  0.8242399E+03  0.7818609E-02  0.9525579E-01
        2   -1    0    0  501    0  0.00000000000E+00  0.00000000000E+00  0.21407554648E+04  0.21407554648E+04  0.25500000920E-02 0. -1.
       -2   -1    0    0    0  501  0.00000000000E+00  0.00000000000E+00 -0.79337808404E+02  0.79337808445E+02  0.25500000920E-02 0.  1.
    10030    2    1    2    0    0  0.00000000000E+00  0.00000000000E+00  0.20614176564E+04  0.22200932732E+04  0.82423988487E+03 0.  0.
        1    1    3    3  502    0  0.31181182426E+03 -0.71699841763E+02  0.33104371622E+03  0.46038833948E+03  0.50400001928E-02 0.  1.
       -1    1    3    3    0  502 -0.31181182426E+03  0.71699841763E+02  0.17303739402E+04  0.17597049338E+04  0.50400001928E-02 0. -1.
</event>
<event>
 5   0  0.1989298E-02  0.7891325E+03  0.7818609E-02  0.9575882E-01
        1   -1    0    0  501    0  0.00000000000E+00  0.00000000000E+00  0.13689864365E+03  0.13689864374E+03  0.50400001928E-02 0.  1.
       -1   -1    0    0    0  501  0.00000000000E+00  0.00000000000E+00 -0.11372101580E+04  0.11372101580E+04  0.50400001928E-02 0. -1.
    10030    2    1    2    0    0  0.00000000000E+00  0.00000000000E+00 -0.10003115143E+04  0.12741088017E+04  0.78913250658E+03 0.  0.
        1    1    3    3  502    0  0.10972215966E+03  0.13773081320E+03  0.69935235059E+02  0.18947207276E+03  0.50400001928E-02 0.  1.
       -1    1    3    3    0  502 -0.10972215966E+03 -0.13773081320E+03 -0.10702467494E+04  0.10846367290E+04  0.50400001928E-02 0. -1.
</event>
<event>
 5   0  0.3550586E-02  0.7995204E+03  0.7818609E-02  0.9560712E-01
        2   -1    0    0  501    0  0.00000000000E+00  0.00000000000E+00  0.48455256556E+03  0.48455256557E+03  0.25500000920E-02 0.  1.
       -2   -1    0    0    0  501  0.00000000000E+00  0.00000000000E+00 -0.32980573978E+03  0.32980573979E+03  0.25500000920E-02 0. -1.
    10030    2    1    2    0    0  0.00000000000E+00  0.00000000000E+00  0.15474682578E+03  0.81435830536E+03  0.79952039963E+03 0.  0.
        3    1    3    3  502    0  0.14290643776E+03  0.30750844217E+03  0.29302059192E+03  0.44815708122E+03  0.10100000352E+00 0.  1.
       -3    1    3    3    0  502 -0.14290643776E+03 -0.30750844217E+03 -0.13827376614E+03  0.36620122414E+03  0.10100000352E+00 0. -1.
</event>
<event>
 5   0  0.2132540E-02  0.5387812E+03  0.7818609E-02  0.1004125E+00
       -1   -1    0    0    0  501  0.00000000000E+00  0.00000000000E+00  0.47333833512E+03  0.47333833515E+03  0.50400001928E-02 0. -1.
        1   -1    0    0  501    0  0.00000000000E+00  0.00000000000E+00 -0.15331799374E+03  0.15331799383E+03  0.50400001928E-02 0.  1.
    10030    2    1    2    0    0  0.00000000000E+00  0.00000000000E+00  0.32002034138E+03  0.62665632898E+03  0.53878115757E+03 0.  0.
        4    1    3    3  502    0  0.46275900857E+02  0.11722559552E+03  0.43693147064E+03  0.45474610738E+03  0.12699999809E+01 0. -1.
       -4    1    3    3    0  502 -0.46275900857E+02 -0.11722559552E+03 -0.11691112926E+03  0.17191022160E+03  0.12699999809E+01 0.  1.
</event>
<event>
 5   0  0.3404132E-02  0.8012871E+03  0.7818609E-02  0.9558156E-01
       -2   -1    0    0    0  501  0.00000000000E+00  0.00000000000E+00  0.39253522140E+03  0.39253522140E+03  0.25500000920E-02 0. -1.
        2   -1    0    0  501    0  0.00000000000E+00  0.00000000000E+00 -0.40891939963E+03  0.40891939963E+03  0.25500000920E-02 0.  1.
    10030    2    1    2    0    0  0.00000000000E+00  0.00000000000E+00 -0.16384178229E+02  0.80145462104E+03  0.80128713224E+03 0.  0.
        5    1    3    3  502    0 -0.29021941878E+03 -0.12139566869E+03 -0.25629425051E+03  0.40579927582E+03  0.46999998093E+01 0.  1.
       -5    1    3    3    0  502  0.29021941878E+03  0.12139566869E+03  0.23991007229E+03  0.39565534521E+03  0.46999998093E+01 0. -1.
</event>
<event>
 5   0  0.2132540E-02  0.8014177E+03  0.7818609E-02  0.9557967E-01
        1   -1    0    0  501    0  0.00000000000E+00  0.00000000000E+00  0.30170697996E+03  0.30170698000E+03  0.50400001928E-02 0. -1.
       -1   -1    0    0    0  501  0.00000000000E+00  0.00000000000E+00 -0.53219711421E+03  0.53219711423E+03  0.50400001928E-02 0.  1.
    10030    2    1    2    0    0  0.00000000000E+00  0.00000000000E+00 -0.23049013425E+03  0.83390409423E+03  0.80141770407E+03 0.  0.
        4    1    3    3  502    0 -0.14631099739E+02  0.33630390772E+03  0.11094074457E+03  0.35443454844E+03  0.12699999809E+01 0. -1.
       -4    1    3    3    0  502  0.14631099739E+02 -0.33630390772E+03 -0.34143087883E+03  0.47946954579E+03  0.12699999809E+01 0.  1.
</event>
<event>
 5   0  0.2129257E-02  0.8256901E+03  0.7818609E-02  0.9523559E-01
        1   -1    0    0  501    0  0.00000000000E+00  0.00000000000E+00  0.12315392652E+04  0.12315392652E+04  0.50400001928E-02 0. -1.
       -1   -1    0    0    0  501  0.00000000000E+00  0.00000000000E+00 -0.13839674807E+03  0.13839674816E+03  0.50400001928E-02 0.  1.
    10030    2    1    2    0    0  0.00000000000E+00  0.00000000000E+00  0.10931425172E+04  0.13699360134E+04  0.82569008593E+03 0.  0.
        3    1    3    3  502    0  0.35942389294E+03 -0.19255921258E+03  0.65379378376E+03  0.77052638310E+03  0.10100000352E+00 0. -1.
       -3    1    3    3    0  502 -0.35942389294E+03  0.19255921258E+03  0.43934873341E+03  0.59940963031E+03  0.10100000352E+00 0.  1.
</event>
<event>
 5   0  0.3416160E-02  0.8330334E+03  0.7818609E-02  0.9513396E-01
        2   -1    0    0  501    0  0.00000000000E+00  0.00000000000E+00  0.81557323823E+03  0.81557323824E+03  0.25500000920E-02 0. -1.
       -2   -1    0    0    0  501  0.00000000000E+00  0.00000000000E+00 -0.21271681642E+03  0.21271681644E+03  0.25500000920E-02 0.  1.
    10030    2    1    2    0    0  0.00000000000E+00  0.00000000000E+00  0.60285642181E+03  0.10282900547E+04  0.83303335541E+03 0.  0.
        1    1    3    3  502    0 -0.21010911095E+03  0.35764930461E+03  0.25479366947E+03  0.48680455793E+03  0.50400001928E-02 0. -1.
       -1    1    3    3    0  502  0.21010911095E+03 -0.35764930461E+03  0.34806275234E+03  0.54148549675E+03  0.50400001928E-02 0.  1.
</event>
<event>
 5   0  0.3343036E-02  0.7899171E+03  0.7818609E-02  0.9574727E-01
        2   -1    0    0  501    0  0.00000000000E+00  0.00000000000E+00  0.52991809166E+03  0.52991809167E+03  0.25500000920E-02 0.  1.
       -2   -1    0    0    0  501  0.00000000000E+00  0.00000000000E+00 -0.29437054055E+03  0.29437054056E+03  0.25500000920E-02 0. -1.
    10030    2    1    2    0    0  0.00000000000E+00  0.00000000000E+00  0.23554755111E+03  0.82428863223E+03  0.78991714780E+03 0.  0.
        4    1    3    3  502    0 -0.11826435958E+03 -0.63499885807E+02  0.50538219161E+03  0.52290674765E+03  0.12699999809E+01 0.  1.
       -4    1    3    3    0  502  0.11826435958E+03  0.63499885807E+02 -0.26983464049E+03  0.30138188459E+03  0.12699999809E+01 0. -1.
</event>
<event>
 5   0  0.3550586E-02  0.8168571E+03  0.7818609E-02  0.9535933E-01
        2   -1    0    0  501    0  0.00000000000E+00  0.00000000000E+00  0.34854194828E+03  0.34854194829E+03  0.25500000920E-02 0.  1.
       -2   -1    0    0    0  501  0.00000000000E+00  0.00000000000E+00 -0.47860490903E+03  0.47860490904E+03  0.25500000920E-02 0. -1.
    10030    2    1    2    0    0  0.00000000000E+00  0.00000000000E+00 -0.13006296074E+03  0.82714685733E+03  0.81685711715E+03 0.  0.
        3    1    3    3  502    0  0.18461729123E+03 -0.36254029871E+03 -0.28593965720E+02  0.40784388863E+03  0.10100000352E+00 0.  1.
       -3    1    3    3    0  502 -0.18461729123E+03  0.36254029871E+03 -0.10146899502E+03  0.41930296871E+03  0.10100000352E+00 0. -1.
</event>
<event>
 5   0  0.2063692E-02  0.7553669E+03  0.7818609E-02  0.9626968E-01
       -1   -1    0    0    0  501  0.00000000000E+00  0.00000000000E+00  0.21143921693E+03  0.21143921699E+03  0.50400001928E-02 0. -1.
        1   -1    0    0  501    0  0.00000000000E+00  0.00000000000E+00 -0.67463725749E+03  0.67463725750E+03  0.50400001928E-02 0.  1.
    10030    2    1    2    0    0  0.00000000000E+00  0.00000000000E+00 -0.46319804056E+03  0.88607647449E+03  0.75536686045E+03 0.  0.
        2    1    3    3  502    0 -0.27974730928E+03  0.16165758014E+03 -0.21710969852E+01  0.32310438551E+03  0.25500000920E-02 0. -1.
       -2    1    3    3    0  502  0.27974730928E+03 -0.16165758014E+03 -0.46102694357E+03  0.56297208898E+03  0.25500000920E-02 0.  1.
</event>
<event>
 5   0  0.2063692E-02  0.7876918E+03  0.7818609E-02  0.9578006E-01
        1   -1    0    0  501    0  0.00000000000E+00  0.00000000000E+00  0.41118766462E+03  0.41118766465E+03  0.50400001928E-02 0.  1.
       -1   -1    0    0    0  501  0.00000000000E+00  0.00000000000E+00 -0.37723552760E+03  0.37723552763E+03  0.50400001928E-02 0. -1.
    10030    2    1    2    0    0  0.00000000000E+00  0.00000000000E+00  0.33952137024E+02  0.78842319229E+03  0.78769180682E+03 0.  0.
        2    1    3    3  502    0  0.22369055127E+03  0.32359500378E+03  0.36056990848E+02  0.39503328441E+03  0.25500000920E-02 0. -1.
       -2    1    3    3    0  502 -0.22369055127E+03 -0.32359500378E+03 -0.21048538246E+01  0.39338990787E+03  0.25500000920E-02 0.  1.
</event>
<event>
 5   0  0.3404132E-02  0.8211073E+03  0.7818609E-02  0.9529958E-01
        2   -1    0    0  501    0  0.00000000000E+00  0.00000000000E+00  0.25061392554E+03  0.25061392555E+03  0.25500000920E-02 0. -1.
       -2   -1    0    0    0  501  0.00000000000E+00  0.00000000000E+00 -0.67256550394E+03  0.67256550395E+03  0.25500000920E-02 0.  1.
    10030    2    1    2    0    0  0.00000000000E+00  0.00000000000E+00 -0.42195157840E+03  0.92317942950E+03  0.82110725520E+03 0.  0.
        5    1    3    3  502    0 -0.46453825069E+02 -0.40773220448E+03 -0.19822179186E+03  0.45576032868E+03  0.46999998093E+01 0.  1.
       -5    1    3    3    0  502  0.46453825069E+02  0.40773220448E+03 -0.22372978654E+03  0.46741910082E+03  0.46999998093E+01 0. -1.
</event>
<event>
 5   0  0.1989298E-02  0.7511731E+03  0.7818609E-02  0.9633512E-01
        1   -1    0    0  501    0  0.00000000000E+00  0.00000000000E+00  0.62497127418E+03  0.62497127420E+03  0.50400001928E-02 0. -1.
       -1   -1    0    0    0  501  0.00000000000E+00  0.00000000000E+00 -0.22571477652E+03  0.22571477658E+03  0.50400001928E-02 0.  1.
    10030    2    1    2    0    0  0.00000000000E+00  0.00000000000E+00  0.39925649766E+03  0.85068605078E+03  0.75117308663E+03 0.  0.
        1    1    3    3  502    0  0.22464630391E+03 -0.10343411164E+03  0.51974213514E+03  0.57558358592E+03  0.50400001928E-02 0. -1.
       -1    1    3    3    0  502 -0.22464630391E+03  0.10343411164E+03 -0.12048563748E+03  0.27510246487E+03  0.50400001928E-02 0.  1.
</event>
<event>
 5   0  0.3550586E-02  0.8029170E+03  0.7818609E-02  0.9555804E-01
        2   -1    0    0  501    0  0.00000000000E+00  0.00000000000E+00  0.14793460129E+03  0.14793460131E+03  0.25500000920E-02 0.  1.
       -2   -1    0    0    0  501  0.00000000000E+00  0.00000000000E+00 -0.10894605838E+04  0.10894605838E+04  0.25500000920E-02 0. -1.
    10030    2    1    2    0    0  0.00000000000E+00  0.00000000000E+00 -0.94152598249E+03  0.12373951851E+04  0.80291697477E+03 0.  0.
        3    1    3    3  502    0 -0.16396971016E+03  0.17762212335E+03  0.23198664169E+02  0.24284536802E+03  0.10100000352E+00 0.  1.
       -3    1    3    3    0  502  0.16396971016E+03 -0.17762212335E+03 -0.96472464666E+03  0.99454981707E+03  0.10100000352E+00 0. -1.
</event>
<event>
 5   0  0.1358000E-02  0.7940230E+03  0.7818609E-02  0.9568709E-01
       -4   -1    0    0    0  501  0.00000000000E+00  0.00000000000E+00  0.22856582180E+03  0.22856935007E+03  0.12699999809E+01 0. -1.
        4   -1    0    0  501    0  0.00000000000E+00  0.00000000000E+00 -0.68958675532E+03  0.68958792479E+03  0.12699999809E+01 0.  1.
    10030    2    1    2    0    0  0.00000000000E+00  0.00000000000E+00 -0.46102093353E+03  0.91815727486E+03  0.79402297211E+03 0.  0.
        3    1    3    3  502    0 -0.24009734816E+03  0.12781639870E+03  0.10389728278E+03  0.29116734697E+03  0.10100000352E+00 0. -1.
       -3    1    3    3    0  502  0.24009734816E+03 -0.12781639870E+03 -0.56491821630E+03  0.62698992790E+03  0.10100000352E+00 0.  1.
</event>
<event>
 5   0  0.2132540E-02  0.7975161E+03  0.7818609E-02  0.9563619E-01
        1   -1    0    0  501    0  0.00000000000E+00  0.00000000000E+00  0.28714985015E+03  0.28714985019E+03  0.50400001928E-02 0. -1.
       -1   -1    0    0    0  501  0.00000000000E+00  0.00000000000E+00 -0.55374572217E+03  0.55374572219E+03  0.50400001928E-02 0.  1.
    10030    2    1    2    0    0  0.00000000000E+00  0.00000000000E+00 -0.26659587202E+03  0.84089557238E+03  0.79751614697E+03 0.  0.
        4    1    3    3  502    0 -0.33203673900E+03  0.19739188972E+03 -0.23764788836E+03  0.45353068906E+03  0.12699999809E+01 0.  1.
       -4    1    3    3    0  502  0.33203673900E+03 -0.19739188972E+03 -0.28947983664E+02  0.38736488332E+03  0.12699999809E+01 0. -1.
</event>
<event>
 5   0  0.2077795E-02  0.8070063E+03  0.7818609E-02  0.9549931E-01
       -1   -1    0    0    0  501  0.00000000000E+00  0.00000000000E+00  0.13088592072E+03  0.13088592082E+03  0.50400001928E-02 0.  1.
        1   -1    0    0  501    0  0.00000000000E+00  0.00000000000E+00 -0.12439442194E+04  0.12439442194E+04  0.50400001928E-02 0. -1.
    10030    2    1    2    0    0  0.00000000000E+00  0.00000000000E+00 -0.11130582986E+04  0.13748301402E+04  0.80700628138E+03 0.  0.
        5    1    3    3  502    0 -0.26126308634E+03  0.27989216370E+03 -0.77332860814E+03  0.86293525235E+03  0.46999998093E+01 0. -1.
       -5    1    3    3    0  502  0.26126308634E+03 -0.27989216370E+03 -0.33972969049E+03  0.51189488782E+03  0.46999998093E+01 0.  1.
</event>
<event>
 5   0  0.3343036E-02  0.7971078E+03  0.7818609E-02  0.9564213E-01
       -2   -1    0    0    0  501  0.00000000000E+00  0.00000000000E+00  0.10339553120E+03  0.10339553124E+03  0.25500000920E-02 0. -1.
        2   -1    0    0  501    0  0.00000000000E+00  0.00000000000E+00 -0.15362869764E+04  0.15362869764E+04  0.25500000920E-02 0.  1.
    10030    2    1    2    0    0  0.00000000000E+00  0.00000000000E+00 -0.14328914452E+04  0.16396825076E+04  0.79710779204E+03 0.  0.
        4    1    3    3  502    0  0.34625171226E+03 -0.18818624314E+03 -0.59406853639E+03  0.71289785326E+03  0.12699999809E+01 0. -1.
       -4    1    3    3    0  502 -0.34625171226E+03  0.18818624314E+03 -0.83882290878E+03  0.92678465435E+03  0.12699999809E+01 0.  1.
</event>
<event>
 5   0  0.2077795E-02  0.8009425E+03  0.7818609E-02  0.9558654E-01
        1   -1    0    0  501    0  0.00000000000E+00  0.00000000000E+00  0.11076122307E+04  0.11076122307E+04  0.50400001928E-02 0.  1.
       -1   -1    0    0    0  501  0.00000000000E+00  0.00000000000E+00 -0.14479545803E+03  0.14479545812E+03  0.50400001928E-02 0. -1.
    10030    2    1    2    0    0  0.00000000000E+00  0.00000000000E+00  0.96281677268E+03  0.12524076888E+04  0.80094249563E+03 0.  0.
        5    1    3    3  502    0  0.32116276989E+03  0.17379121876E+03  0.22444202681E+03  0.42865513630E+03  0.46999998093E+01 0. -1.
       -5    1    3    3    0  502 -0.32116276989E+03 -0.17379121876E+03  0.73837474586E+03  0.82375255253E+03  0.46999998093E+01 0.  1.
</event>
<event>
 5   0  0.3467240E-02  0.7970257E+03  0.7818609E-02  0.9564332E-01
       -2   -1    0    0    0  501  0.00000000000E+00  0.00000000000E+00  0.21528467812E+03  0.21528467813E+03  0.25500000920E-02 0.  1.
        2   -1    0    0  501    0  0.00000000000E+00  0.00000000000E+00 -0.73768594793E+03  0.73768594794E+03  0.25500000920E-02 0. -1.
    10030    2    1    2    0    0  0.00000000000E+00  0.00000000000E+00 -0.52240126981E+03  0.95297062607E+03  0.79702567553E+03 0.  0.
        2    1    3    3  502    0 -0.27951808039E+03 -0.21007858356E+03 -0.48978452798E+03  0.60179087097E+03  0.25500000920E-02 0. -1.
       -2    1    3    3    0  502  0.27951808039E+03  0.21007858356E+03 -0.32616741837E+02  0.35117975510E+03  0.25500000920E-02 0.  1.
</event>
<event>
 5   0  0.2063692E-02  0.8007110E+03  0.7818609E-02  0.9558989E-01
       -1   -1    0    0    0  501  0.00000000000E+00  0.00000000000E+00  0.15510652549E+03  0.15510652557E+03  0.50400001928E-02 0.  1.
        1   -1    0    0  501    0  0.00000000000E+00  0.00000000000E+00 -0.10333834198E+04  0.10333834198E+04  0.50400001928E-02 0. -1.
    10030    2    1    2    0    0  0.00000000000E+00  0.00000000000E+00 -0.87827689434E+03  0.11884899454E+04  0.80071096359E+03 0.  0.
        2    1    3    3  502    0 -0.32796340507E+03 -0.20659526602E+03 -0.58788591544E+03  0.70416720215E+03  0.25500000920E-02 0. -1.
       -2    1    3    3    0  502  0.32796340507E+03  0.20659526602E+03 -0.29039097890E+03  0.48432274326E+03  0.25500000920E-02 0.  1.
</event>
<event>
 5   0  0.2132540E-02  0.7980902E+03  0.7818609E-02  0.9562786E-01
        1   -1    0    0  501    0  0.00000000000E+00  0.00000000000E+00  0.57530083340E+03  0.57530083343E+03  0.50400001928E-02 0. -1.
       -1   -1    0    0    0  501  0.00000000000E+00  0.00000000000E+00 -0.27678905299E+03  0.27678905303E+03  0.50400001928E-02 0.  1.
    10030    2    1    2    0    0  0.00000000000E+00  0.00000000000E+00  0.29851178042E+03  0.85208988646E+03  0.79809015253E+03 0.  0.
        4    1    3    3  502    0 -0.34405685233E+03  0.20204251664E+03  0.15592888551E+03  0.42838268686E+03  0.12699999809E+01 0.  1.
       -4    1    3    3    0  502  0.34405685233E+03 -0.20204251664E+03  0.14258289490E+03  0.42370719959E+03  0.12699999809E+01 0. -1.
</event>
<event>
 5   0  0.3467240E-02  0.7968684E+03  0.7818609E-02  0.9564561E-01
        2   -1    0    0  501    0  0.00000000000E+00  0.00000000000E+00  0.20227266350E+04  0.20227266350E+04  0.25500000920E-02 0.  1.
       -2   -1    0    0    0  501  0.00000000000E+00  0.00000000000E+00 -0.78483068147E+02  0.78483068188E+02  0.25500000920E-02 0. -1.
    10030    2    1    2    0    0  0.00000000000E+00  0.00000000000E+00  0.19442435669E+04  0.21012097032E+04  0.79686835145E+03 0.  0.
        2    1    3    3  502    0 -0.44521471631E+02 -0.26475947636E+03  0.19584366575E+03  0.33231684156E+03  0.25500000920E-02 0. -1.
       -2    1    3    3    0  502  0.44521471631E+02  0.26475947636E+03  0.17483999011E+04  0.17688928617E+04  0.25500000920E-02 0.  1.
</event>
<event>
 5   0  0.3343036E-02  0.7812931E+03  0.7818609E-02  0.9587496E-01
       -2   -1    0    0    0  501  0.00000000000E+00  0.00000000000E+00  0.39796086313E+03  0.39796086314E+03  0.25500000920E-02 0. -1.
        2   -1    0    0  501    0  0.00000000000E+00  0.00000000000E+00 -0.38346671894E+03  0.38346671895E+03  0.25500000920E-02 0.  1.
    10030    2    1    2    0    0  0.00000000000E+00  0.00000000000E+00  0.14494144189E+02  0.78142758209E+03  0.78129314974E+03 0.  0.
        4    1    3    3  502    0 -0.68354700481E+01  0.23059452909E+03  0.32255133199E+03  0.39656214540E+03  0.12699999809E+01 0. -1.
       -4    1    3    3    0  502  0.68354700481E+01 -0.23059452909E+03 -0.30805718780E+03  0.38486543668E+03  0.12699999809E+01 0.  1.
</event>
<event>
 5   0  0.2063692E-02  0.7983679E+03  0.7818609E-02  0.9562383E-01
        1   -1    0    0  501    0  0.00000000000E+00  0.00000000000E+00  0.47075423469E+03  0.47075423471E+03  0.50400001928E-02 0.  1.
       -1   -1    0    0    0  501  0.00000000000E+00  0.00000000000E+00 -0.33849468504E+03  0.33849468507E+03  0.50400001928E-02 0. -1.
    10030    2    1    2    0    0  0.00000000000E+00  0.00000000000E+00  0.13225954965E+03  0.80924891979E+03  0.79836785112E+03 0.  0.
        2    1    3    3  502    0  0.94388451708E+02 -0.28749290432E+03 -0.19777700910E+03  0.36149287017E+03  0.25500000920E-02 0. -1.
       -2    1    3    3    0  502 -0.94388451708E+02  0.28749290432E+03  0.33003655875E+03  0.44775604962E+03  0.25500000920E-02 0.  1.
</event>
<event>
 5   0  0.1989298E-02  0.7846460E+03  0.7818609E-02  0.9582511E-01
       -1   -1    0    0    0  501  0.00000000000E+00  0.00000000000E+00  0.46787871768E+03  0.46787871770E+03  0.50400001928E-02 0.  1.
        1   -1    0    0  501    0  0.00000000000E+00  0.00000000000E+00 -0.32896844035E+03  0.32896844039E+03  0.50400001928E-02 0. -1.
    10030    2    1    2    0    0  0.00000000000E+00  0.00000000000E+00  0.13891027733E+03  0.79684715809E+03  0.78464598910E+03 0.  0.
        1    1    3    3  502    0 -0.27613342477E+03 -0.14193646262E+03 -0.17411112930E+03  0.35596392102E+03  0.50400001928E-02 0. -1.
       -1    1    3    3    0  502  0.27613342477E+03  0.14193646262E+03  0.31302140663E+03  0.44088323707E+03  0.50400001928E-02 0.  1.
</event>
<event>
 5   0  0.2132540E-02  0.8016648E+03  0.7818609E-02  0.9557611E-01
       -1   -1    0    0    0  501  0.00000000000E+00  0.00000000000E+00  0.36777700649E+03  0.36777700653E+03  0.50400001928E-02 0. -1.
        1   -1    0    0  501    0  0.00000000000E+00  0.00000000000E+00 -0.43685873770E+03  0.43685873773E+03  0.50400001928E-02 0.  1.
    10030    2    1    2    0    0  0.00000000000E+00  0.00000000000E+00 -0.69081731205E+02  0.80463574426E+03  0.80166476494E+03 0.  0.
        4    1    3    3  502    0  0.33406698452E+03 -0.12298998385E+03  0.15036373908E+03  0.38644294948E+03  0.12699999809E+01 0. -1.
       -4    1    3    3    0  502 -0.33406698452E+03  0.12298998385E+03 -0.21944547028E+03  0.41819279478E+03  0.12699999809E+01 0.  1.
</event>
<event>
 5   0  0.3343036E-02  0.1000648E+04  0.7818609E-02  0.9307834E-01
        2   -1    0    0  501    0  0.00000000000E+00  0.00000000000E+00  0.13107447894E+04  0.13107447894E+04  0.25500000920E-02 0. -1.
       -2   -1    0    0    0  501  0.00000000000E+00  0.00000000000E+00 -0.19097859387E+03  0.19097859389E+03  0.25500000920E-02 0.  1.
    10030    2    1    2    0    0  0.00000000000E+00  0.00000000000E+00  0.11197661955E+04  0.15017233833E+04  0.10006481836E+04 0.  0.
        4    1    3    3  502    0  0.98361824197E+02 -0.19543172024E+03 -0.11537793610E+03  0.24735053421E+03  0.12699999809E+01 0.  1.
       -4    1    3    3    0  502 -0.98361824197E+02  0.19543172024E+03  0.12351441316E+04  0.12543728491E+04  0.12699999809E+01 0. -1.
</event>
<event>
 5   0  0.2129257E-02  0.5912647E+03  0.7818609E-02  0.9923697E-01
        1   -1    0    0  501    0  0.00000000000E+00  0.00000000000E+00  0.34657510710E+03  0.34657510713E+03  0.50400001928E-02 0.  1.
       -1   -1    0    0    0  501  0.00000000000E+00  0.00000000000E+00 -0.25217764850E+03  0.25217764855E+03  0.50400001928E-02 0. -1.
    10030    2    1    2    0    0  0.00000000000E+00  0.00000000000E+00  0.94397458593E+02  0.59875275569E+03  0.59126473111E+03 0.  0.
        3    1    3    3  502    0  0.11841302115E+03 -0.17169483182E+03  0.25936999409E+03  0.33282662587E+03  0.10100000352E+00 0.  1.
       -3    1    3    3    0  502 -0.11841302115E+03  0.17169483182E+03 -0.16497253550E+03  0.26592612982E+03  0.10100000352E+00 0. -1.
</event>
<event>
 5   0  0.1989298E-02  0.8412664E+03  0.7818609E-02  0.9502134E-01
       -1   -1    0    0    0  501  0.00000000000E+00  0.00000000000E+00  0.24195789727E+03  0.24195789732E+03  0.50400001928E-02 0. -1.
        1   -1    0    0  501    0  0.00000000000E+00  0.00000000000E+00 -0.73125233771E+03  0.73125233773E+03  0.50400001928E-02 0.  1.
    10030    2    1    2    0    0  0.00000000000E+00  0.00000000000E+00 -0.48929444044E+03  0.97321023505E+03  0.84126637408E+03 0.  0.
        1    1    3    3  502    0  0.12198981903E+03  0.26574416966E+03 -0.59444688858E+03  0.66247157149E+03  0.50400001928E-02 0.  1.
       -1    1    3    3    0  502 -0.12198981903E+03 -0.26574416966E+03  0.10515244814E+03  0.31073866356E+03  0.50400001928E-02 0. -1.
</event>
<event>
 5   0  0.1989298E-02  0.7358989E+03  0.7818609E-02  0.9657736E-01
       -1   -1    0    0    0  501  0.00000000000E+00  0.00000000000E+00  0.19728958025E+03  0.19728958031E+03  0.50400001928E-02 0. -1.
        1   -1    0    0  501    0  0.00000000000E+00  0.00000000000E+00 -0.68623382060E+03  0.68623382061E+03  0.50400001928E-02 0.  1.
    10030    2    1    2    0    0  0.00000000000E+00  0.00000000000E+00 -0.48894424035E+03  0.88352340093E+03  0.73589885841E+03 0.  0.
        1    1    3    3  502    0 -0.34552024282E+03  0.23555300353E+02 -0.39369373282E+03  0.52434134460E+03  0.50400001928E-02 0.  1.
       -1    1    3    3    0  502  0.34552024282E+03 -0.23555300353E+02 -0.95250507530E+02  0.35918205632E+03  0.50400001928E-02 0. -1.
</event>
<event>
 5   0  0.3343036E-02  0.7281390E+03  0.7818609E-02  0.9670285E-01
        2   -1    0    0  501    0  0.00000000000E+00  0.00000000000E+00  0.95820324298E+03  0.95820324298E+03  0.25500000920E-02 0. -1.
       -2   -1    0    0    0  501  0.00000000000E+00  0.00000000000E+00 -0.13832825703E+03  0.13832825705E+03  0.25500000920E-02 0.  1.
    10030    2    1    2    0    0  0.00000000000E+00  0.00000000000E+00  0.81987498595E+03  0.10965315000E+04  0.72813895513E+03 0.  0.
        4    1    3    3  502    0  0.33662451693E+03 -0.93358133749E+01  0.61828948262E+03  0.70405022550E+03  0.12699999809E+01 0. -1.
       -4    1    3    3    0  502 -0.33662451693E+03  0.93358133749E+01  0.20158550334E+03  0.39248127454E+03  0.12699999809E+01 0.  1.
</event>
<event>
 5   0  0.3550586E-02  0.8058785E+03  0.7818609E-02  0.9551547E-01
       -2   -1    0    0    0  501  0.00000000000E+00  0.00000000000E+00  0.30237858023E+03  0.30237858024E+03  0.25500000920E-02 0.  1.
        2   -1    0    0  501    0  0.00000000000E+00  0.00000000000E+00 -0.53694291903E+03  0.53694291904E+03  0.25500000920E-02 0. -1.
    10030    2    1    2    0    0  0.00000000000E+00  0.00000000000E+00 -0.23456433881E+03  0.83932149927E+03  0.80587849587E+03 0.  0.
        3    1    3    3  502    0  0.21336249221E+03 -0.20039718480E+03 -0.40568039914E+03  0.50025911406E+03  0.10100000352E+00 0. -1.
       -3    1    3    3    0  502 -0.21336249221E+03  0.20039718480E+03  0.17111606033E+03  0.33906238521E+03  0.10100000352E+00 0.  1.
</event>
<event>
 5   0  0.1358000E-02  0.8124955E+03  0.7818609E-02  0.9542104E-01
       -3   -1    0    0    0  501  0.00000000000E+00  0.00000000000E+00  0.37294504356E+03  0.37294505724E+03  0.10100000352E+00 0.  1.
        3   -1    0    0  501    0  0.00000000000E+00  0.00000000000E+00 -0.44252422154E+03  0.44252423307E+03  0.10100000352E+00 0. -1.
    10030    2    1    2    0    0  0.00000000000E+00  0.00000000000E+00 -0.69579177982E+02  0.81546929030E+03  0.81249547778E+03 0.  0.
        5    1    3    3  502    0  0.33573489236E+03  0.13934105895E+03 -0.21678526094E+03  0.42326326088E+03  0.46999998093E+01 0.  1.
       -5    1    3    3    0  502 -0.33573489236E+03 -0.13934105895E+03  0.14720608296E+03  0.39220602942E+03  0.46999998093E+01 0. -1.
</event>
<event>
 5   0  0.3404132E-02  0.8858624E+03  0.7818609E-02  0.9443429E-01
        2   -1    0    0  501    0  0.00000000000E+00  0.00000000000E+00  0.13238391054E+04  0.13238391054E+04  0.25500000920E-02 0.  1.
       -2   -1    0    0    0  501  0.00000000000E+00  0.00000000000E+00 -0.14819630950E+03  0.14819630952E+03  0.25500000920E-02 0. -1.
    10030    2    1    2    0    0  0.00000000000E+00  0.00000000000E+00  0.11756427959E+04  0.14720354149E+04  0.88586244937E+03 0.  0.
        5    1    3    3  502    0 -0.40727960155E+03  0.44922241258E+02  0.30842240172E+03  0.51287537422E+03  0.46999998093E+01 0. -1.
       -5    1    3    3    0  502  0.40727960155E+03 -0.44922241258E+02  0.86722039415E+03  0.95916004067E+03  0.46999998093E+01 0.  1.
</event>
<event>
 5   0  0.3550586E-02  0.8252103E+03  0.7818609E-02  0.9524226E-01
        2   -1    0    0  501    0  0.00000000000E+00  0.00000000000E+00  0.12619070392E+04  0.12619070392E+04  0.25500000920E-02 0. -1.
       -2   -1    0    0    0  501  0.00000000000E+00  0.00000000000E+00 -0.13490931704E+03  0.13490931706E+03  0.25500000920E-02 0.  1.
    10030    2    1    2    0    0  0.00000000000E+00  0.00000000000E+00  0.11269977222E+04  0.13968163563E+04  0.82521031706E+03 0.  0.
        3    1    3    3  502    0 -0.18406577383E+02 -0.24108678643E+03 -0.24267767347E+01  0.24180062061E+03  0.10100000352E+00 0.  1.
       -3    1    3    3    0  502  0.18406577383E+02  0.24108678643E+03  0.11294244989E+04  0.11550157357E+04  0.10100000352E+00 0. -1.
</event>
<event>
 5   0  0.2077795E-02  0.7576670E+03  0.7818609E-02  0.9623398E-01
        1   -1    0    0  501    0  0.00000000000E+00  0.00000000000E+00  0.25127850857E+03  0.25127850862E+03  0.50400001928E-02 0. -1.
       -1   -1    0    0    0  501  0.00000000000E+00  0.00000000000E+00 -0.57113848507E+03  0.57113848509E+03  0.50400001928E-02 0.  1.
    10030    2    1    2    0    0  0.00000000000E+00  0.00000000000E+00 -0.31985997650E+03  0.82241699371E+03  0.75766701590E+03 0.  0.
        5    1    3    3  502    0 -0.21968901493E+02  0.20913212775E+03  0.18207397809E+03  0.27819400242E+03  0.46999998093E+01 0. -1.
       -5    1    3    3    0  502  0.21968901493E+02 -0.20913212775E+03 -0.50193395458E+03  0.54422299129E+03  0.46999998093E+01 0.  1.
</event>
<event>
 5   0  0.3404132E-02  0.7435795E+03  0.7818609E-02  0.9645477E-01
       -2   -1    0    0    0  501  0.00000000000E+00  0.00000000000E+00  0.13078901327E+03  0.13078901329E+03  0.25500000920E-02 0. -1.
        2   -1    0    0  501    0  0.00000000000E+00  0.00000000000E+00 -0.10568749020E+04  0.10568749020E+04  0.25500000920E-02 0.  1.
    10030    2    1    2    0    0  0.00000000000E+00  0.00000000000E+00 -0.92608588870E+03  0.11876639153E+04  0.74357951987E+03 0.  0.
        5    1    3    3  502    0  0.10284929368E+03 -0.35395649608E+03 -0.38574059205E+03  0.53355512619E+03  0.46999998093E+01 0.  1.
       -5    1    3    3    0  502 -0.10284929368E+03  0.35395649608E+03 -0.54034529665E+03  0.65410878908E+03  0.46999998093E+01 0. -1.
</event>
<event>
 5   0  0.3467240E-02  0.7623812E+03  0.7818609E-02  0.9616124E-01
        2   -1    0    0  501    0  0.00000000000E+00  0.00000000000E+00  0.31696570353E+03  0.31696570354E+03  0.25500000920E-02 0. -1.
       -2   -1    0    0    0  501  0.00000000000E+00  0.00000000000E+00 -0.45842897627E+03  0.45842897628E+03  0.25500000920E-02 0.  1.
    10030    2    1    2    0    0  0.00000000000E+00  0.00000000000E+00 -0.14146327275E+03  0.77539467982E+03  0.76238117235E+03 0.  0.
        2    1    3    3  502    0  0.25058168784E+03 -0.18624229250E+03 -0.29316288597E+03  0.42827777378E+03  0.25500000920E-02 0.  1.
       -2    1    3    3    0  502 -0.25058168784E+03  0.18624229250E+03  0.15169961323E+03  0.34711690604E+03  0.25500000920E-02 0. -1.
</event>
<event>
 5   0  0.3404132E-02  0.8177417E+03  0.7818609E-02  0.9534686E-01
       -2   -1    0    0    0  501  0.00000000000E+00  0.00000000000E+00  0.38577952709E+03  0.38577952710E+03  0.25500000920E-02 0. -1.
        2   -1    0    0  501    0  0.00000000000E+00  0.00000000000E+00 -0.43334428359E+03  0.43334428360E+03  0.25500000920E-02 0.  1.
    10030    2    1    2    0    0  0.00000000000E+00  0.00000000000E+00 -0.47564756498E+02  0.81912381069E+03  0.81774165308E+03 0.  0.
        5    1    3    3  502    0  0.40840154375E+03 -0.15327723532E+02 -0.12516023756E+02  0.40890769239E+03  0.46999998093E+01 0. -1.
       -5    1    3    3    0  502 -0.40840154375E+03  0.15327723532E+02 -0.35048732743E+02  0.41021611830E+03  0.46999998093E+01 0.  1.
</event>
<event>
 5   0  0.1989298E-02  0.7950029E+03  0.7818609E-02  0.9567278E-01
        1   -1    0    0  501    0  0.00000000000E+00  0.00000000000E+00  0.21279658924E+03  0.21279658930E+03  0.50400001928E-02 0. -1.
       -1   -1    0    0    0  501  0.00000000000E+00  0.00000000000E+00 -0.74252788853E+03  0.74252788855E+03  0.50400001928E-02 0.  1.
    10030    2    1    2    0    0  0.00000000000E+00  0.00000000000E+00 -0.52973129929E+03  0.95532447784E+03  0.79500289844E+03 0.  0.
        1    1    3    3  502    0 -0.39596142418E+03 -0.69601623976E+01 -0.30603038897E+03  0.50048825391E+03  0.50400001928E-02 0.  1.
       -1    1    3    3    0  502  0.39596142418E+03  0.69601623976E+01 -0.22370091032E+03  0.45483622394E+03  0.50400001928E-02 0. -1.
</event>
<event>
 5   0  0.3467240E-02  0.7915393E+03  0.7818609E-02  0.9572345E-01
        2   -1    0    0  501    0  0.00000000000E+00  0.00000000000E+00  0.52469750834E+03  0.52469750834E+03  0.25500000920E-02 0.  1.
       -2   -1    0    0    0  501  0.00000000000E+00  0.00000000000E+00 -0.29852174287E+03  0.29852174288E+03  0.25500000920E-02 0. -1.
    10030    2    1    2    0    0  0.00000000000E+00  0.00000000000E+00  0.22617576547E+03  0.82321925122E+03  0.79153929700E+03 0.  0.
        2    1    3    3  502    0 -0.60233662057E+02 -0.15490625531E+03  0.48664241114E+03  0.51424204253E+03  0.25500000920E-02 0.  1.
       -2    1    3    3    0  502  0.60233662057E+02  0.15490625531E+03 -0.26046664567E+03  0.30897720869E+03  0.25500000920E-02 0. -1.
</event>
<event>
 5   0  0.2077795E-02  0.8116467E+03  0.7818609E-02  0.9543310E-01
        1   -1    0    0  501    0  0.00000000000E+00  0.00000000000E+00  0.52789164619E+03  0.52789164621E+03  0.50400001928E-02 0.  1.
       -1   -1    0    0    0  501  0.00000000000E+00  0.00000000000E+00 -0.31198181034E+03  0.31198181038E+03  0.50400001928E-02 0. -1.
    10030    2    1    2    0    0  0.00000000000E+00  0.00000000000E+00  0.21590983585E+03  0.83987345659E+03  0.81164670015E+03 0.  0.
        5    1    3    3  502    0  0.15282050754E+03 -0.17426244404E+03 -0.23671907404E+03  0.33132992159E+03  0.46999998093E+01 0. -1.
       -5    1    3    3    0  502 -0.15282050754E+03  0.17426244404E+03  0.45262890989E+03  0.50854353500E+03  0.46999998093E+01 0.  1.
</event>
<event>
 5   0  0.2129257E-02  0.7988792E+03  0.7818609E-02  0.9561641E-01
       -1   -1    0    0    0  501  0.00000000000E+00  0.00000000000E+00  0.26331526224E+03  0.26331526229E+03  0.50400001928E-02 0. -1.
        1   -1    0    0  501    0  0.00000000000E+00  0.00000000000E+00 -0.60593528387E+03  0.60593528390E+03  0.50400001928E-02 0.  1.
    10030    2    1    2    0    0  0.00000000000E+00  0.00000000000E+00 -0.34262002163E+03  0.86925054619E+03  0.79887923544E+03 0.  0.
        3    1    3    3  502    0 -0.78333278724E+02 -0.11422480799E+03  0.23635065163E+03  0.27394351615E+03  0.10100000352E+00 0. -1.
       -3    1    3    3    0  502  0.78333278724E+02  0.11422480799E+03 -0.57897067326E+03  0.59530703003E+03  0.10100000352E+00 0.  1.
</event>
<event>
 5   0  0.3343036E-02  0.6600219E+03  0.7818609E-02  0.9788153E-01
       -2   -1    0    0    0  501  0.00000000000E+00  0.00000000000E+00  0.30693900363E+03  0.30693900364E+03  0.25500000920E-02 0.  1.
        2   -1    0    0  501    0  0.00000000000E+00  0.00000000000E+00 -0.35481714742E+03  0.35481714743E+03  0.25500000920E-02 0. -1.
    10030    2    1    2    0    0  0.00000000000E+00  0.00000000000E+00 -0.47878143790E+02  0.66175615107E+03  0.66002188359E+03 0.  0.
        4    1    3    3  502    0 -0.15493786565E+03  0.29054848265E+03 -0.45938599937E+02  0.33246974425E+03  0.12699999809E+01 0.  1.
       -4    1    3    3    0  502  0.15493786565E+03 -0.29054848265E+03 -0.19395438529E+01  0.32928640681E+03  0.12699999809E+01 0. -1.
</event>
<event>
 5   0  0.2129257E-02  0.8038682E+03  0.7818609E-02  0.9554435E-01
       -1   -1    0    0    0  501  0.00000000000E+00  0.00000000000E+00  0.16316063207E+04  0.16316063207E+04  0.50400001928E-02 0.  1.
        1   -1    0    0  501    0  0.00000000000E+00  0.00000000000E+00 -0.99013477840E+02  0.99013477969E+02  0.50400001928E-02 0. -1.
    10030    2    1    2    0    0  0.00000000000E+00  0.00000000000E+00  0.15325928428E+04  0.17306197986E+04  0.80386818918E+03 0.  0.
        3    1    3    3  502    0  0.20665261463E+02  0.36578380510E+03  0.11221785151E+04  0.11804700229E+04  0.10100000352E+00 0.  1.
       -3    1    3    3    0  502 -0.20665261463E+02 -0.36578380510E+03  0.41041432774E+03  0.55014977571E+03  0.10100000352E+00 0. -1.
</event>
<event>
 5   0  0.2132540E-02  0.8042257E+03  0.7818609E-02  0.9553921E-01
        1   -1    0    0  501    0  0.00000000000E+00  0.00000000000E+00  0.11946632700E+04  0.11946632700E+04  0.50400001928E-02 0.  1.
       -1   -1    0    0    0  501  0.00000000000E+00  0.00000000000E+00 -0.13534755184E+03  0.13534755193E+03  0.50400001928E-02 0. -1.
    10030    2    1    2    0    0  0.00000000000E+00  0.00000000000E+00  0.10593157182E+04  0.13300108219E+04  0.80422571194E+03 0.  0.
        4    1    3    3  502    0  0.31457660536E+03  0.25046234607E+03  0.52664971036E+03  0.66260950624E+03  0.12699999809E+01 0. -1.
       -4    1    3    3    0  502 -0.31457660536E+03 -0.25046234607E+03  0.53266600780E+03  0.66740131571E+03  0.12699999809E+01 0.  1.
</event>
<event>
 5   0  0.2129257E-02  0.8008159E+03  0.7818609E-02  0.9558837E-01
        1   -1    0    0  501    0  0.00000000000E+00  0.00000000000E+00  0.14218426509E+03  0.14218426518E+03  0.50400001928E-02 0.  1.
       -1   -1    0    0    0  501  0.00000000000E+00  0.00000000000E+00 -0.11275968912E+04  0.11275968912E+04  0.50400001928E-02 0. -1.
    10030    2    1    2    0    0  0.00000000000E+00  0.00000000000E+00 -0.98541262608E+03  0.12697811564E+04  0.80081592231E+03 0.  0.
        3    1    3    3  502    0 -0.13931626992E+02 -0.70092316279E+02 -0.11174031707E+04  0.11196860628E+04  0.10100000352E+00 0. -1.
       -3    1    3    3    0  502  0.13931626992E+02  0.70092316279E+02  0.13199054466E+03  0.15009509357E+03  0.10100000352E+00 0.  1.
</event>
<event>
 5   0  0.3404132E-02  0.7964619E+03  0.7818609E-02  0.9565152E-01
       -2   -1    0    0    0  501  0.00000000000E+00  0.00000000000E+00  0.72977459458E+03  0.72977459458E+03  0.25500000920E-02 0. -1.
        2   -1    0    0  501    0  0.00000000000E+00  0.00000000000E+00 -0.21731079921E+03  0.21731079922E+03  0.25500000920E-02 0.  1.
    10030    2    1    2    0    0  0.00000000000E+00  0.00000000000E+00  0.51246379537E+03  0.94708539381E+03  0.79646192728E+03 0.  0.
        5    1    3    3  502    0 -0.15997938718E+03 -0.18904454324E+03  0.62702740226E+03  0.67417853484E+03  0.46999998093E+01 0. -1.
       -5    1    3    3    0  502  0.15997938718E+03  0.18904454324E+03 -0.11456360689E+03  0.27290685897E+03  0.46999998093E+01 0.  1.
</event>
<event>
 5   0  0.2132540E-02  0.7960016E+03  0.7818609E-02  0.9565823E-01
        1   -1    0    0  501    0  0.00000000000E+00  0.00000000000E+00  0.66077510912E+03  0.66077510914E+03  0.50400001928E-02 0. -1.
       -1   -1    0    0    0  501  0.00000000000E+00  0.00000000000E+00 -0.23972546826E+03  0.23972546832E+03  0.50400001928E-02 0.  1.
    10030    2    1    2    0    0  0.00000000000E+00  0.00000000000E+00  0.42104964086E+03  0.90050057746E+03  0.79600156403E+03 0.  0.
        4    1    3    3  502    0 -0.26122613213E+02  0.39024170664E+03  0.12714688888E+03  0.41126502985E+03  0.12699999809E+01 0.  1.
       -4    1    3    3    0  502  0.26122613213E+02 -0.39024170664E+03  0.29390275198E+03  0.48923554761E+03  0.12699999809E+01 0. -1.
</event>
<event>
 5   0  0.2077795E-02  0.8018556E+03  0.7818609E-02  0.9557335E-01
       -1   -1    0    0    0  501  0.00000000000E+00  0.00000000000E+00  0.93602831926E+03  0.93602831927E+03  0.50400001928E-02 0. -1.
        1   -1    0    0  501    0  0.00000000000E+00  0.00000000000E+00 -0.17172888247E+03  0.17172888254E+03  0.50400001928E-02 0.  1.
    10030    2    1    2    0    0  0.00000000000E+00  0.00000000000E+00  0.76429943679E+03  0.11077572018E+04  0.80185559117E+03 0.  0.
        5    1    3    3  502    0 -0.12246933340E+03 -0.25070972211E+03 -0.15535070054E+02  0.27949513553E+03  0.46999998093E+01 0.  1.
       -5    1    3    3    0  502  0.12246933340E+03  0.25070972211E+03  0.77983450684E+03  0.82826206628E+03  0.46999998093E+01 0. -1.
</event>
<event>
 5   0  0.3404132E-02  0.8044635E+03  0.7818609E-02  0.9553579E-01
        2   -1    0    0  501    0  0.00000000000E+00  0.00000000000E+00  0.17444699123E+04  0.17444699123E+04  0.25500000920E-02 0. -1.
       -2   -1    0    0    0  501  0.00000000000E+00  0.00000000000E+00 -0.92744726716E+02  0.92744726751E+02  0.25500000920E-02 0.  1.
    10030    2    1    2    0    0  0.00000000000E+00  0.00000000000E+00  0.16517251856E+04  0.18372146391E+04  0.80446351145E+03 0.  0.
        5    1    3    3  502    0 -0.11095544547E+03 -0.11376236003E+03 -0.17946549675E+02  0.15999110626E+03  0.46999998093E+01 0.  1.
       -5    1    3    3    0  502  0.11095544547E+03  0.11376236003E+03  0.16696717353E+04  0.16772235328E+04  0.46999998093E+01 0. -1.
</event>
<event>
 5   0  0.2077795E-02  0.6939277E+03  0.7818609E-02  0.9727673E-01
       -1   -1    0    0    0  501  0.00000000000E+00  0.00000000000E+00  0.35019215118E+03  0.35019215122E+03  0.50400001928E-02 0.  1.
        1   -1    0    0  501    0  0.00000000000E+00  0.00000000000E+00 -0.34376526270E+03  0.34376526274E+03  0.50400001928E-02 0. -1.
    10030    2    1    2    0    0  0.00000000000E+00  0.00000000000E+00  0.64268884762E+01  0.69395741396E+03  0.69392765292E+03 0.  0.
        5    1    3    3  502    0 -0.21101750954E+03 -0.16746150300E+03  0.22183220342E+03  0.34900338220E+03  0.46999998093E+01 0.  1.
       -5    1    3    3    0  502  0.21101750954E+03  0.16746150300E+03 -0.21540531494E+03  0.34495403175E+03  0.46999998093E+01 0. -1.
</event>
<event>
 5   0  0.3343036E-02  0.7240061E+03  0.7818609E-02  0.9677037E-01
       -2   -1    0    0    0  501  0.00000000000E+00  0.00000000000E+00  0.11052259906E+03  0.11052259909E+03  0.25500000920E-02 0.  1.
        2   -1    0    0  501    0  0.00000000000E+00  0.00000000000E+00 -0.11856960466E+04  0.11856960466E+04  0.25500000920E-02 0. -1.
    10030    2    1    2    0    0  0.00000000000E+00  0.00000000000E+00 -0.10751734475E+04  0.12962186457E+04  0.72400610158E+03 0.  0.
        4    1    3    3  502    0  0.42229887628E+02 -0.21385512740E+03 -0.20158583833E+02  0.21891861576E+03  0.12699999809E+01 0.  1.
       -4    1    3    3    0  502 -0.42229887628E+02  0.21385512740E+03 -0.10550148637E+04  0.10773000299E+04  0.12699999809E+01 0. -1.
</event>
<event>
 5   0  0.2063692E-02  0.8053236E+03  0.7818609E-02  0.9552343E-01
       -1   -1    0    0    0  501  0.00000000000E+00  0.00000000000E+00  0.19629006899E+03  0.19629006906E+03  0.50400001928E-02 0.  1.
        1   -1    0    0  501    0  0.00000000000E+00  0.00000000000E+00 -0.82600472015E+03  0.82600472017E+03  0.50400001928E-02 0. -1.
    10030    2    1    2    0    0  0.00000000000E+00  0.00000000000E+00 -0.62971465116E+03  0.10222947892E+04  0.80532359595E+03 0.  0.
        2    1    3    3  502    0 -0.22437516044E+03  0.49360196598E+02  0.10492755907E+03  0.25256768259E+03  0.25500000920E-02 0.  1.
       -2    1    3    3    0  502  0.22437516044E+03 -0.49360196598E+02 -0.73464221024E+03  0.76972710664E+03  0.25500000920E-02 0. -1.
</event>
<event>
 5   0  0.2063692E-02  0.7992980E+03  0.7818609E-02  0.9561034E-01
        1   -1    0    0  501    0  0.00000000000E+00  0.00000000000E+00  0.52258960108E+03  0.52258960111E+03  0.50400001928E-02 0.  1.
       -1   -1    0    0    0  501  0.00000000000E+00  0.00000000000E+00 -0.30563049406E+03  0.30563049410E+03  0.50400001928E-02 0. -1.
    10030    2    1    2    0    0  0.00000000000E+00  0.00000000000E+00  0.21695910702E+03  0.82822009521E+03  0.79929798698E+03 0.  0.
        2    1    3    3  502    0 -0.90560039614E+02  0.37107772725E+03  0.23028970557E+03  0.44601922485E+03  0.25500000920E-02 0.  1.
       -2    1    3    3    0  502  0.90560039614E+02 -0.37107772725E+03 -0.13330598550E+02  0.38220087036E+03  0.25500000920E-02 0. -1.
</event>
<event>
 5   0  0.1989298E-02  0.7945384E+03  0.7818609E-02  0.9567956E-01
       -1   -1    0    0    0  501  0.00000000000E+00  0.00000000000E+00  0.51559920388E+03  0.51559920390E+03  0.50400001928E-02 0.  1.
        1   -1    0    0  501    0  0.00000000000E+00  0.00000000000E+00 -0.30609590277E+03  0.30609590281E+03  0.50400001928E-02 0. -1.
    10030    2    1    2    0    0  0.00000000000E+00  0.00000000000E+00  0.20950330111E+03  0.82169510671E+03  0.79453836611E+03 0.  0.
        1    1    3    3  502    0 -0.14687770961E+03  0.32442785082E+03 -0.77323567325E+02  0.36442478792E+03  0.50400001928E-02 0. -1.
       -1    1    3    3    0  502  0.14687770961E+03 -0.32442785082E+03  0.28682686844E+03  0.45727031879E+03  0.50400001928E-02 0.  1.
</event>
<event>
 5   0  0.3550586E-02  0.7935137E+03  0.7818609E-02  0.9569454E-01
       -2   -1    0    0    0  501  0.00000000000E+00  0.00000000000E+00  0.73871825064E+02  0.73871825108E+02  0.25500000920E-02 0.  1.
        2   -1    0    0  501    0  0.00000000000E+00  0.00000000000E+00 -0.21309341713E+04  0.21309341713E+04  0.25500000920E-02 0. -1.
    10030    2    1    2    0    0  0.00000000000E+00  0.00000000000E+00 -0.20570623463E+04  0.22048059965E+04  0.79351369586E+03 0.  0.
        3    1    3    3  502    0 -0.27850974408E+03 -0.12115155439E+03 -0.31921176054E+03  0.44061495089E+03  0.10100000352E+00 0.  1.
       -3    1    3    3    0  502  0.27850974408E+03  0.12115155439E+03 -0.17378505857E+04  0.17641910456E+04  0.10100000352E+00 0. -1.
</event>
<event>
 5   0  0.2063692E-02  0.8321246E+03  0.7818609E-02  0.9514648E-01
       -1   -1    0    0    0  501  0.00000000000E+00  0.00000000000E+00  0.40318600031E+03  0.40318600035E+03  0.50400001928E-02 0. -1.
        1   -1    0    0  501    0  0.00000000000E+00  0.00000000000E+00 -0.42934981521E+03  0.42934981524E+03  0.50400001928E-02 0.  1.
    10030    2    1    2    0    0  0.00000000000E+00  0.00000000000E+00 -0.26163814897E+02  0.83253581559E+03  0.83212459345E+03 0.  0.
        2    1    3    3  502    0  0.27187929931E+03 -0.19394518959E+03  0.23518331013E+03  0.40846576274E+03  0.25500000920E-02 0. -1.
       -2    1    3    3    0  502 -0.27187929931E+03  0.19394518959E+03 -0.26134712502E+03  0.42407005285E+03  0.25500000920E-02 0.  1.
</event>
<event>
 5   0  0.1358000E-02  0.8397011E+03  0.7818609E-02  0.9504265E-01
       -3   -1    0    0    0  501  0.00000000000E+00  0.00000000000E+00  0.13028860212E+04  0.13028860252E+04  0.10100000352E+00 0.  1.
        3   -1    0    0  501    0  0.00000000000E+00  0.00000000000E+00 -0.13529536730E+03  0.13529540500E+03  0.10100000352E+00 0. -1.
    10030    2    1    2    0    0  0.00000000000E+00  0.00000000000E+00  0.11675906539E+04  0.14381814302E+04  0.83970107234E+03 0.  0.
        1    1    3    3  502    0 -0.37622497560E+03 -0.14216594323E+03  0.37742671809E+03  0.55154992089E+03  0.50400001928E-02 0. -1.
       -1    1    3    3    0  502  0.37622497560E+03  0.14216594323E+03  0.79016393585E+03  0.88663150927E+03  0.50400001928E-02 0.  1.
</event>
<event>
 5   0  0.2063692E-02  0.7711023E+03  0.7818609E-02  0.9602814E-01
       -1   -1    0    0    0  501  0.00000000000E+00  0.00000000000E+00  0.14156199940E+03  0.14156199949E+03  0.50400001928E-02 0.  1.
        1   -1    0    0  501    0  0.00000000000E+00  0.00000000000E+00 -0.10500677425E+04  0.10500677425E+04  0.50400001928E-02 0. -1.
    10030    2    1    2    0    0  0.00000000000E+00  0.00000000000E+00 -0.90850574313E+03  0.11916297420E+04  0.77110229981E+03 0.  0.
        2    1    3    3  502    0 -0.10674371549E+03 -0.19753454868E+03  0.30102055171E+02  0.22653973702E+03  0.25500000920E-02 0.  1.
       -2    1    3    3    0  502  0.10674371549E+03  0.19753454868E+03 -0.93860779830E+03  0.96509000501E+03  0.25500000920E-02 0. -1.
</event>
<event>
 5   0  0.3404132E-02  0.8067807E+03  0.7818609E-02  0.9550254E-01
       -2   -1    0    0    0  501  0.00000000000E+00  0.00000000000E+00  0.20465983876E+03  0.20465983877E+03  0.25500000920E-02 0. -1.
        2   -1    0    0  501    0  0.00000000000E+00  0.00000000000E+00 -0.79509383505E+03  0.79509383505E+03  0.25500000920E-02 0.  1.
    10030    2    1    2    0    0  0.00000000000E+00  0.00000000000E+00 -0.59043399629E+03  0.99975367382E+03  0.80678070400E+03 0.  0.
        5    1    3    3  502    0  0.29786205614E+03  0.73258743760E+02  0.29377258347E+02  0.30817813247E+03  0.46999998093E+01 0. -1.
       -5    1    3    3    0  502 -0.29786205614E+03 -0.73258743760E+02 -0.61981125464E+03  0.69157554135E+03  0.46999998093E+01 0.  1.
</event>
<event>
 5   0  0.3343036E-02  0.7838338E+03  0.7818609E-02  0.9583716E-01
        2   -1    0    0  501    0  0.00000000000E+00  0.00000000000E+00  0.44129954184E+03  0.44129954185E+03  0.25500000920E-02 0. -1.
       -2   -1    0    0    0  501  0.00000000000E+00  0.00000000000E+00 -0.34806033229E+03  0.34806033230E+03  0.25500000920E-02 0.  1.
    10030    2    1    2    0    0  0.00000000000E+00  0.00000000000E+00  0.93239209551E+02  0.78935987415E+03  0.78383382213E+03 0.  0.
        4    1    3    3  502    0 -0.23416010861E+03  0.26212290811E+03 -0.12797474992E+03  0.37405684720E+03  0.12699999809E+01 0.  1.
       -4    1    3    3    0  502  0.23416010861E+03 -0.26212290811E+03  0.22121395948E+03  0.41530302694E+03  0.12699999809E+01 0. -1.
</event>
<event>
 5   0  0.2063692E-02  0.7094111E+03  0.7818609E-02  0.9701272E-01
       -1   -1    0    0    0  501  0.00000000000E+00  0.00000000000E+00  0.54293304761E+02  0.54293304995E+02  0.50400001928E-02 0.  1.
        1   -1    0    0  501    0  0.00000000000E+00  0.00000000000E+00 -0.23173397834E+04  0.23173397834E+04  0.50400001928E-02 0. -1.
    10030    2    1    2    0    0  0.00000000000E+00  0.00000000000E+00 -0.22630464786E+04  0.23716330884E+04  0.70941112305E+03 0.  0.
        2    1    3    3  502    0 -0.26537944570E+03 -0.19174124519E+03 -0.15877687261E+04  0.16211725642E+04  0.25500000920E-02 0.  1.
       -2    1    3    3    0  502  0.26537944570E+03  0.19174124519E+03 -0.67527775250E+03  0.75046052416E+03  0.25500000920E-02 0. -1.
</event>
<event>
 5   0  0.1989298E-02  0.7473577E+03  0.7818609E-02  0.9639505E-01
        1   -1    0    0  501    0  0.00000000000E+00  0.00000000000E+00  0.84192856891E+03  0.84192856893E+03  0.50400001928E-02 0.  1.
       -1   -1    0    0    0  501  0.00000000000E+00  0.00000000000E+00 -0.16585242151E+03  0.16585242159E+03  0.50400001928E-02 0. -1.
    10030    2    1    2    0    0  0.00000000000E+00  0.00000000000E+00  0.67607614740E+03  0.10077809905E+04  0.74735772409E+03 0.  0.
        1    1    3    3  502    0 -0.26708708122E+03  0.22438591205E+03  0.51870811203E+03  0.62509411451E+03  0.50400001928E-02 0.  1.
       -1    1    3    3    0  502  0.26708708122E+03 -0.22438591205E+03  0.15736803537E+03  0.38268687600E+03  0.50400001928E-02 0. -1.
</event>
<event>
 5   0  0.2129257E-02  0.7870071E+03  0.7818609E-02  0.9579017E-01
       -1   -1    0    0    0  501  0.00000000000E+00  0.00000000000E+00  0.34433231093E+03  0.34433231097E+03  0.50400001928E-02 0. -1.
        1   -1    0    0  501    0  0.00000000000E+00  0.00000000000E+00 -0.44969648169E+03  0.44969648172E+03  0.50400001928E-02 0.  1.
    10030    2    1    2    0    0  0.00000000000E+00  0.00000000000E+00 -0.10536417076E+03  0.79402879268E+03  0.78700706168E+03 0.  0.
        3    1    3    3  502    0  0.81216189696E+02 -0.43496650463E+02 -0.43866169007E+03  0.44823221282E+03  0.10100000352E+00 0.  1.
       -3    1    3    3    0  502 -0.81216189696E+02  0.43496650463E+02  0.33329751931E+03  0.34579657987E+03  0.10100000352E+00 0. -1.
</event>
<event>
 5   0  0.3467240E-02  0.7749815E+03  0.7818609E-02  0.9596953E-01
       -2   -1    0    0    0  501  0.00000000000E+00  0.00000000000E+00  0.11295060065E+03  0.11295060068E+03  0.25500000920E-02 0.  1.
        2   -1    0    0  501    0  0.00000000000E+00  0.00000000000E+00 -0.13293341788E+04  0.13293341788E+04  0.25500000920E-02 0. -1.
    10030    2    1    2    0    0  0.00000000000E+00  0.00000000000E+00 -0.12163835781E+04  0.14422847794E+04  0.77498153262E+03 0.  0.
        2    1    3    3  502    0  0.11468536109E+03  0.38923528920E+02  0.76822100914E+02  0.14342039028E+03  0.25500000920E-02 0.  1.
       -2    1    3    3    0  502 -0.11468536109E+03 -0.38923528920E+02 -0.12932056790E+04  0.12988643892E+04  0.25500000920E-02 0. -1.
</event>
<event>
 5   0  0.1989298E-02  0.8118738E+03  0.7818609E-02  0.9542987E-01
        1   -1    0    0  501    0  0.00000000000E+00  0.00000000000E+00  0.10951497723E+04  0.10951497723E+04  0.50400001928E-02 0.  1.
       -1   -1    0    0    0  501  0.00000000000E+00  0.00000000000E+00 -0.15046780614E+03  0.15046780623E+03  0.50400001928E-02 0. -1.
    10030    2    1    2    0    0  0.00000000000E+00  0.00000000000E+00  0.94468196614E+03  0.12456175785E+04  0.81187384166E+03 0.  0.
        1    1    3    3  502    0  0.26859418097E+03 -0.41187829601E+02  0.93502747081E+03  0.97371229968E+03  0.50400001928E-02 0.  1.
       -1    1    3    3    0  502 -0.26859418097E+03  0.41187829601E+02  0.96544953321E+01  0.27190527884E+03  0.50400001928E-02 0. -1.
</event>
<event>
 5   0  0.3404132E-02  0.8279836E+03  0.7818609E-02  0.9520372E-01
        2   -1    0    0  501    0  0.00000000000E+00  0.00000000000E+00  0.15017981639E+04  0.15017981639E+04  0.25500000920E-02 0.  1.
       -2   -1    0    0    0  501  0.00000000000E+00  0.00000000000E+00 -0.11412267789E+03  0.11412267792E+03  0.25500000920E-02 0. -1.
    10030    2    1    2    0    0  0.00000000000E+00  0.00000000000E+00  0.13876754860E+04  0.16159208419E+04  0.82798364270E+03 0.  0.
        5    1    3    3  502    0 -0.24364033332E+03 -0.32994951158E+03  0.80319623045E+03  0.90187225638E+03  0.46999998093E+01 0.  1.
       -5    1    3    3    0  502  0.24364033332E+03  0.32994951158E+03  0.58447925558E+03  0.71404858547E+03  0.46999998093E+01 0. -1.
</event>
<event>
 5   0  0.1989298E-02  0.7978310E+03  0.7818609E-02  0.9563162E-01
        1   -1    0    0  501    0  0.00000000000E+00  0.00000000000E+00  0.90463166361E+03  0.90463166362E+03  0.50400001928E-02 0.  1.
       -1   -1    0    0    0  501  0.00000000000E+00  0.00000000000E+00 -0.17590978124E+03  0.17590978132E+03  0.50400001928E-02 0. -1.
    10030    2    1    2    0    0  0.00000000000E+00  0.00000000000E+00  0.72872188236E+03  0.10805414449E+04  0.79783095477E+03 0.  0.
        1    1    3    3  502    0 -0.11156493809E+03  0.48915500394E+02  0.87882474969E+03  0.88722736786E+03  0.50400001928E-02 0.  1.
       -1    1    3    3    0  502  0.11156493809E+03 -0.48915500394E+02 -0.15010286733E+03  0.19331407707E+03  0.50400001928E-02 0. -1.
</event>
<event>
 5   0  0.3467240E-02  0.7912630E+03  0.7818609E-02  0.9572750E-01
        2   -1    0    0  501    0  0.00000000000E+00  0.00000000000E+00  0.71401627021E+03  0.71401627021E+03  0.25500000920E-02 0.  1.
       -2   -1    0    0    0  501  0.00000000000E+00  0.00000000000E+00 -0.21921670334E+03  0.21921670336E+03  0.25500000920E-02 0. -1.
    10030    2    1    2    0    0  0.00000000000E+00  0.00000000000E+00  0.49479956686E+03  0.93323297357E+03  0.79126302301E+03 0.  0.
        2    1    3    3  502    0 -0.22835071902E+03 -0.25956411791E+03  0.47428669674E+03  0.58691179311E+03  0.25500000920E-02 0.  1.
       -2    1    3    3    0  502  0.22835071902E+03  0.25956411791E+03  0.20512870122E+02  0.34632118045E+03  0.25500000920E-02 0. -1.
</event>
<event>
 5   0  0.1358000E-02  0.7768772E+03  0.7818609E-02  0.9594103E-01
        3   -1    0    0  501    0  0.00000000000E+00  0.00000000000E+00  0.43356849266E+03  0.43356850443E+03  0.10100000352E+00 0.  1.
       -3   -1    0    0    0  501  0.00000000000E+00  0.00000000000E+00 -0.34800621664E+03  0.34800623129E+03  0.10100000352E+00 0. -1.
    10030    2    1    2    0    0  0.00000000000E+00  0.00000000000E+00  0.85562276026E+02  0.78157473572E+03  0.77687718749E+03 0.  0.
        2    1    3    3  502    0 -0.24690452538E+03  0.27915596645E+01 -0.25889015531E+03  0.35776214162E+03  0.25500000920E-02 0. -1.
       -2    1    3    3    0  502  0.24690452538E+03 -0.27915596645E+01  0.34445243133E+03  0.42381259410E+03  0.25500000920E-02 0.  1.
</event>
<event>
 5   0  0.3404132E-02  0.7995730E+03  0.7818609E-02  0.9560635E-01
        2   -1    0    0  501    0  0.00000000000E+00  0.00000000000E+00  0.12220483086E+04  0.12220483086E+04  0.25500000920E-02 0. -1.
       -2   -1    0    0    0  501  0.00000000000E+00  0.00000000000E+00 -0.13078799481E+03  0.13078799484E+03  0.25500000920E-02 0.  1.
    10030    2    1    2    0    0  0.00000000000E+00  0.00000000000E+00  0.10912603138E+04  0.13528363034E+04  0.79957300571E+03 0.  0.
        5    1    3    3  502    0 -0.86657731648E+02  0.28920996185E+03  0.10230352345E+03  0.31881039098E+03  0.46999998093E+01 0.  1.
       -5    1    3    3    0  502  0.86657731648E+02 -0.28920996185E+03  0.98895679034E+03  0.10340259125E+04  0.46999998093E+01 0. -1.
</event>
<event>
 5   0  0.1989298E-02  0.8026949E+03  0.7818609E-02  0.9556124E-01
        1   -1    0    0  501    0  0.00000000000E+00  0.00000000000E+00  0.28047672514E+03  0.28047672519E+03  0.50400001928E-02 0. -1.
       -1   -1    0    0    0  501  0.00000000000E+00  0.00000000000E+00 -0.57430714368E+03  0.57430714370E+03  0.50400001928E-02 0.  1.
    10030    2    1    2    0    0  0.00000000000E+00  0.00000000000E+00 -0.29383041854E+03  0.85478386889E+03  0.80269492813E+03 0.  0.
        1    1    3    3  502    0  0.55371342741E+02  0.36007857241E+03  0.32408472923E+02  0.36574974101E+03  0.50400001928E-02 0.  1.
       -1    1    3    3    0  502 -0.55371342741E+02 -0.36007857241E+03 -0.32623889146E+03  0.48903412788E+03  0.50400001928E-02 0. -1.
</event>
<event>
 5   0  0.2063692E-02  0.7799877E+03  0.7818609E-02  0.9589445E-01
        1   -1    0    0  501    0  0.00000000000E+00  0.00000000000E+00  0.35371831040E+03  0.35371831043E+03  0.50400001928E-02 0.  1.
       -1   -1    0    0    0  501  0.00000000000E+00  0.00000000000E+00 -0.42998959992E+03  0.42998959995E+03  0.50400001928E-02 0. -1.
    10030    2    1    2    0    0  0.00000000000E+00  0.00000000000E+00 -0.76271289519E+02  0.78370791038E+03  0.77998767887E+03 0.  0.
        2    1    3    3  502    0 -0.32046355649E+03 -0.14183950065E+03 -0.21006537606E+03  0.40858633997E+03  0.25500000920E-02 0. -1.
       -2    1    3    3    0  502  0.32046355649E+03  0.14183950065E+03  0.13379408654E+03  0.37512157041E+03  0.25500000920E-02 0.  1.
</event>
<event>
 5   0  0.3550586E-02  0.8030245E+03  0.7818609E-02  0.9555650E-01
        2   -1    0    0  501    0  0.00000000000E+00  0.00000000000E+00  0.73626188941E+03  0.73626188942E+03  0.25500000920E-02 0.  1.
       -2   -1    0    0    0  501  0.00000000000E+00  0.00000000000E+00 -0.21896025291E+03  0.21896025292E+03  0.25500000920E-02 0. -1.
    10030    2    1    2    0    0  0.00000000000E+00  0.00000000000E+00  0.51730163650E+03  0.95522214234E+03  0.80302450653E+03 0.  0.
        3    1    3    3  502    0  0.38597543079E+03 -0.10284772527E+02  0.12764429944E+03  0.40666434206E+03  0.10100000352E+00 0. -1.
       -3    1    3    3    0  502 -0.38597543079E+03  0.10284772527E+02  0.38965733706E+03  0.54855780028E+03  0.10100000352E+00 0.  1.
</event>
<event>
 5   0  0.2129257E-02  0.7541540E+03  0.7818609E-02  0.9628856E-01
        1   -1    0    0  501    0  0.00000000000E+00  0.00000000000E+00  0.27415305813E+03  0.27415305818E+03  0.50400001928E-02 0.  1.
       -1   -1    0    0    0  501  0.00000000000E+00  0.00000000000E+00 -0.51864116700E+03  0.51864116703E+03  0.50400001928E-02 0. -1.
    10030    2    1    2    0    0  0.00000000000E+00  0.00000000000E+00 -0.24448810887E+03  0.79279422520E+03  0.75415399497E+03 0.  0.
        3    1    3    3  502    0  0.25918006727E+03  0.32125074687E+02 -0.40817405890E+03  0.48457445275E+03  0.10100000352E+00 0. -1.
       -3    1    3    3    0  502 -0.25918006727E+03 -0.32125074687E+02  0.16368595003E+03  0.30821977246E+03  0.10100000352E+00 0.  1.
</event>
<event>
 5   0  0.3416160E-02  0.5699626E+03  0.7818609E-02  0.9969761E-01
       -2   -1    0    0    0  501  0.00000000000E+00  0.00000000000E+00  0.20301804747E+03  0.20301804748E+03  0.25500000920E-02 0.  1.
        2   -1    0    0  501    0  0.00000000000E+00  0.00000000000E+00 -0.40003513117E+03  0.40003513117E+03  0.25500000920E-02 0. -1.
    10030    2    1    2    0    0  0.00000000000E+00  0.00000000000E+00 -0.19701708370E+03  0.60305317866E+03  0.56996263476E+03 0.  0.
        1    1    3    3  502    0 -0.26207423113E+03 -0.96776225495E+02 -0.15804071039E+03  0.32097571031E+03  0.50400001928E-02 0. -1.
       -1    1    3    3    0  502  0.26207423113E+03  0.96776225495E+02 -0.38976373312E+02  0.28207746834E+03  0.50400001928E-02 0.  1.
</event>
<event>
 5   0  0.1989298E-02  0.8016467E+03  0.7818609E-02  0.9557637E-01
       -1   -1    0    0    0  501  0.00000000000E+00  0.00000000000E+00  0.25876329793E+03  0.25876329798E+03  0.50400001928E-02 0.  1.
        1   -1    0    0  501    0  0.00000000000E+00  0.00000000000E+00 -0.62087386506E+03  0.62087386509E+03  0.50400001928E-02 0. -1.
    10030    2    1    2    0    0  0.00000000000E+00  0.00000000000E+00 -0.36211056713E+03  0.87963716307E+03  0.80164672757E+03 0.  0.
        1    1    3    3  502    0  0.60192608998E+02  0.95499415691E+02 -0.60307062602E+03  0.61354500125E+03  0.50400001928E-02 0. -1.
       -1    1    3    3    0  502 -0.60192608998E+02 -0.95499415691E+02  0.24096005888E+03  0.26609216181E+03  0.50400001928E-02 0.  1.
</event>
<event>
 5   0  0.3467240E-02  0.8106696E+03  0.7818609E-02  0.9544700E-01
        2   -1    0    0  501    0  0.00000000000E+00  0.00000000000E+00  0.78112341922E+03  0.78112341922E+03  0.25500000920E-02 0.  1.
       -2   -1    0    0    0  501  0.00000000000E+00  0.00000000000E+00 -0.21033336778E+03  0.21033336779E+03  0.25500000920E-02 0. -1.
    10030    2    1    2    0    0  0.00000000000E+00  0.00000000000E+00  0.57079005144E+03  0.99145678702E+03  0.81066964769E+03 0.  0.
        2    1    3    3  502    0 -0.28905485254E+03  0.22068916395E+03  0.66480044025E+02  0.36969718842E+03  0.25500000920E-02 0. -1.
       -2    1    3    3    0  502  0.28905485254E+03 -0.22068916395E+03  0.50431000742E+03  0.62175959860E+03  0.25500000920E-02 0.  1.
</event>
<event>
 5   0  0.2129257E-02  0.7976226E+03  0.7818609E-02  0.9563465E-01
        1   -1    0    0  501    0  0.00000000000E+00  0.00000000000E+00  0.78509199970E+03  0.78509199972E+03  0.50400001928E-02 0.  1.
       -1   -1    0    0    0  501  0.00000000000E+00  0.00000000000E+00 -0.20258830131E+03  0.20258830137E+03  0.50400001928E-02 0. -1.
    10030    2    1    2    0    0  0.00000000000E+00  0.00000000000E+00  0.58250369839E+03  0.98768030109E+03  0.79762260407E+03 0.  0.
        3    1    3    3  502    0 -0.59789688717E+02  0.81953485121E+02  0.76884814433E+03  0.77551186957E+03  0.10100000352E+00 0.  1.
       -3    1    3    3    0  502  0.59789688717E+02 -0.81953485121E+02 -0.18634444594E+03  0.21216843152E+03  0.10100000352E+00 0. -1.
</event>
<event>
 5   0  0.3343036E-02  0.7805285E+03  0.7818609E-02  0.9588637E-01
        2   -1    0    0  501    0  0.00000000000E+00  0.00000000000E+00  0.90154155998E+03  0.90154155999E+03  0.25500000920E-02 0.  1.
       -2   -1    0    0    0  501  0.00000000000E+00  0.00000000000E+00 -0.16893971530E+03  0.16893971531E+03  0.25500000920E-02 0. -1.
    10030    2    1    2    0    0  0.00000000000E+00  0.00000000000E+00  0.73260184469E+03  0.10704812753E+04  0.78052847349E+03 0.  0.
        4    1    3    3  502    0  0.37036525249E+03 -0.51442181089E+02  0.21303907879E+03  0.43035332024E+03  0.12699999809E+01 0.  1.
       -4    1    3    3    0  502 -0.37036525249E+03  0.51442181089E+02  0.51956276590E+03  0.64012795507E+03  0.12699999809E+01 0. -1.
</event>
<event>
 5   0  0.3416160E-02  0.7774244E+03  0.7818609E-02  0.9593282E-01
        2   -1    0    0  501    0  0.00000000000E+00  0.00000000000E+00  0.11304189137E+04  0.11304189137E+04  0.25500000920E-02 0. -1.
       -2   -1    0    0    0  501  0.00000000000E+00  0.00000000000E+00 -0.13366474596E+03  0.13366474599E+03  0.25500000920E-02 0.  1.
    10030    2    1    2    0    0  0.00000000000E+00  0.00000000000E+00  0.99675416775E+03  0.12640836597E+04  0.77742435503E+03 0.  0.
        1    1    3    3  502    0  0.59877807107E+02 -0.36646047558E+03  0.68532006906E+03  0.77944995287E+03  0.50400001928E-02 0. -1.
       -1    1    3    3    0  502 -0.59877807107E+02  0.36646047558E+03  0.31143409869E+03  0.48463370684E+03  0.50400001928E-02 0.  1.
</event>
<event>
 5   0  0.2129257E-02  0.8130695E+03  0.7818609E-02  0.9541290E-01
        1   -1    0    0  501    0  0.00000000000E+00  0.00000000000E+00  0.71467556221E+03  0.71467556223E+03  0.50400001928E-02 0.  1.
       -1   -1    0    0    0  501  0.00000000000E+00  0.00000000000E+00 -0.23125251013E+03  0.23125251018E+03  0.50400001928E-02 0. -1.
    10030    2    1    2    0    0  0.00000000000E+00  0.00000000000E+00  0.48342305208E+03  0.94592807241E+03  0.81306953632E+03 0.  0.
        3    1    3    3  502    0 -0.60295321507E+02  0.29186185302E+03 -0.79968302958E+02  0.30856734552E+03  0.10100000352E+00 0. -1.
       -3    1    3    3    0  502  0.60295321507E+02 -0.29186185302E+03  0.56339135504E+03  0.63736072689E+03  0.10100000352E+00 0.  1.
</event>
<event>
 5   0  0.2077795E-02  0.7594411E+03  0.7818609E-02  0.9620654E-01
       -1   -1    0    0    0  501  0.00000000000E+00  0.00000000000E+00  0.55040465182E+02  0.55040465413E+02  0.50400001928E-02 0. -1.
        1   -1    0    0  501    0  0.00000000000E+00  0.00000000000E+00 -0.26196671298E+04  0.26196671298E+04  0.50400001928E-02 0.  1.
    10030    2    1    2    0    0  0.00000000000E+00  0.00000000000E+00 -0.25646266646E+04  0.26747075952E+04  0.75944110440E+03 0.  0.
        5    1    3    3  502    0  0.34706731681E+03  0.13056928141E+03 -0.99485837925E+03  0.10617294120E+04  0.46999998093E+01 0. -1.
       -5    1    3    3    0  502 -0.34706731681E+03 -0.13056928141E+03 -0.15697682854E+04  0.16129781832E+04  0.46999998093E+01 0.  1.
</event>
<event>
 5   0  0.2129257E-02  0.8103818E+03  0.7818609E-02  0.9545110E-01
        1   -1    0    0  501    0  0.00000000000E+00  0.00000000000E+00  0.88212033160E+03  0.88212033161E+03  0.50400001928E-02 0.  1.
       -1   -1    0    0    0  501  0.00000000000E+00  0.00000000000E+00 -0.18611935649E+03  0.18611935655E+03  0.50400001928E-02 0. -1.
    10030    2    1    2    0    0  0.00000000000E+00  0.00000000000E+00  0.69600097511E+03  0.10682396882E+04  0.81038180756E+03 0.  0.
        3    1    3    3  502    0 -0.23991930065E+03  0.32030093212E+03  0.26436323663E+03  0.47962682267E+03  0.10100000352E+00 0. -1.
       -3    1    3    3    0  502  0.23991930065E+03 -0.32030093212E+03  0.43163773849E+03  0.58861286550E+03  0.10100000352E+00 0.  1.
</event>
<event>
 5   0  0.2077795E-02  0.7788483E+03  0.7818609E-02  0.9591148E-01
        1   -1    0    0  501    0  0.00000000000E+00  0.00000000000E+00  0.31171798634E+03  0.31171798638E+03  0.50400001928E-02 0.  1.
       -1   -1    0    0    0  501  0.00000000000E+00  0.00000000000E+00 -0.48650122378E+03  0.48650122381E+03  0.50400001928E-02 0. -1.
    10030    2    1    2    0    0  0.00000000000E+00  0.00000000000E+00 -0.17478323744E+03  0.79821921019E+03  0.77884833403E+03 0.  0.
        5    1    3    3  502    0  0.20693445662E+03 -0.14576032331E+03  0.21587528010E+03  0.33270432480E+03  0.46999998093E+01 0.  1.
       -5    1    3    3    0  502 -0.20693445662E+03  0.14576032331E+03 -0.39065851754E+03  0.46551488538E+03  0.46999998093E+01 0. -1.
</event>
<event>
 5   0  0.3467240E-02  0.7849880E+03  0.7818609E-02  0.9582004E-01
        2   -1    0    0  501    0  0.00000000000E+00  0.00000000000E+00  0.94757111484E+03  0.94757111485E+03  0.25500000920E-02 0. -1.
       -2   -1    0    0    0  501  0.00000000000E+00  0.00000000000E+00 -0.16257518056E+03  0.16257518058E+03  0.25500000920E-02 0.  1.
    10030    2    1    2    0    0  0.00000000000E+00  0.00000000000E+00  0.78499593428E+03  0.11101462954E+04  0.78498801291E+03 0.  0.
        2    1    3    3  502    0  0.18603101459E+03 -0.18731412480E+03  0.80324917315E+03  0.84551957631E+03  0.25500000920E-02 0.  1.
       -2    1    3    3    0  502 -0.18603101459E+03  0.18731412480E+03 -0.18253238872E+02  0.26462671912E+03  0.25500000920E-02 0. -1.
</event>
<event>
 5   0  0.2129257E-02  0.7932715E+03  0.7818609E-02  0.9569808E-01
        1   -1    0    0  501    0  0.00000000000E+00  0.00000000000E+00  0.32565065519E+03  0.32565065523E+03  0.50400001928E-02 0. -1.
       -1   -1    0    0    0  501  0.00000000000E+00  0.00000000000E+00 -0.48309412969E+03  0.48309412972E+03  0.50400001928E-02 0.  1.
    10030    2    1    2    0    0  0.00000000000E+00  0.00000000000E+00 -0.15744347450E+03  0.80874478495E+03  0.79327150429E+03 0.  0.
        3    1    3    3  502    0 -0.33078080275E+03  0.19512240590E+03  0.22364790408E+02  0.38469323727E+03  0.10100000352E+00 0.  1.
       -3    1    3    3    0  502  0.33078080275E+03 -0.19512240590E+03 -0.17980826491E+03  0.42405154767E+03  0.10100000352E+00 0. -1.
</event>
<event>
 5   0  0.3416160E-02  0.7895903E+03  0.7818609E-02  0.9575208E-01
        2   -1    0    0  501    0  0.00000000000E+00  0.00000000000E+00  0.15891232709E+04  0.15891232709E+04  0.25500000920E-02 0.  1.
       -2   -1    0    0    0  501  0.00000000000E+00  0.00000000000E+00 -0.98081270039E+02  0.98081270072E+02  0.25500000920E-02 0. -1.
    10030    2    1    2    0    0  0.00000000000E+00  0.00000000000E+00  0.14910420009E+04  0.16872045410E+04  0.78959034617E+03 0.  0.
        1    1    3    3  502    0 -0.16228440333E+03 -0.33585568119E+03  0.46915320832E+03  0.59936633127E+03  0.50400001928E-02 0. -1.
       -1    1    3    3    0  502  0.16228440333E+03  0.33585568119E+03  0.10218887926E+04  0.10878382097E+04  0.50400001928E-02 0.  1.
</event>
<event>
 5   0  0.3343036E-02  0.7998693E+03  0.7818609E-02  0.9560206E-01
       -2   -1    0    0    0  501  0.00000000000E+00  0.00000000000E+00  0.29555366683E+03  0.29555366684E+03  0.25500000920E-02 0. -1.
        2   -1    0    0  501    0  0.00000000000E+00  0.00000000000E+00 -0.54117995393E+03  0.54117995394E+03  0.25500000920E-02 0.  1.
    10030    2    1    2    0    0  0.00000000000E+00  0.00000000000E+00 -0.24562628710E+03  0.83673362078E+03  0.79986928884E+03 0.  0.
        4    1    3    3  502    0 -0.99990595832E+02 -0.22243571627E+03 -0.45439223174E+03  0.51570309316E+03  0.12699999809E+01 0.  1.
       -4    1    3    3    0  502  0.99990595832E+02  0.22243571627E+03  0.20876594463E+03  0.32103052763E+03  0.12699999809E+01 0. -1.
</event>
<event>
 5   0  0.2129257E-02  0.8002721E+03  0.7818609E-02  0.9559623E-01
        1   -1    0    0  501    0  0.00000000000E+00  0.00000000000E+00  0.41554293441E+03  0.41554293444E+03  0.50400001928E-02 0. -1.
       -1   -1    0    0    0  501  0.00000000000E+00  0.00000000000E+00 -0.38530043980E+03  0.38530043983E+03  0.50400001928E-02 0.  1.
    10030    2    1    2    0    0  0.00000000000E+00  0.00000000000E+00  0.30242494604E+02  0.80084337427E+03  0.80027214223E+03 0.  0.
        3    1    3    3  502    0 -0.22078365331E+03 -0.20960671271E+03  0.27497652335E+03  0.41023468183E+03  0.10100000352E+00 0. -1.
       -3    1    3    3    0  502  0.22078365331E+03  0.20960671271E+03 -0.24473402874E+03  0.39060869244E+03  0.10100000352E+00 0.  1.
</event>
<event>
 5   0  0.3550586E-02  0.7945524E+03  0.7818609E-02  0.9567936E-01
        2   -1    0    0  501    0  0.00000000000E+00  0.00000000000E+00  0.34962787737E+03  0.34962787738E+03  0.25500000920E-02 0. -1.
       -2   -1    0    0    0  501  0.00000000000E+00  0.00000000000E+00 -0.45141821793E+03  0.45141821794E+03  0.25500000920E-02 0.  1.
    10030    2    1    2    0    0  0.00000000000E+00  0.00000000000E+00 -0.10179034056E+03  0.80104609532E+03  0.79455243590E+03 0.  0.
        3    1    3    3  502    0  0.29589435085E+03  0.15939458765E+03 -0.26444767195E+03  0.42765954080E+03  0.10100000352E+00 0.  1.
       -3    1    3    3    0  502 -0.29589435085E+03 -0.15939458765E+03  0.16265733140E+03  0.37338655452E+03  0.10100000352E+00 0. -1.
</event>
<event>
 5   0  0.3550586E-02  0.8071993E+03  0.7818609E-02  0.9549655E-01
        2   -1    0    0  501    0  0.00000000000E+00  0.00000000000E+00  0.68325921498E+03  0.68325921498E+03  0.25500000920E-02 0.  1.
       -2   -1    0    0    0  501  0.00000000000E+00  0.00000000000E+00 -0.23840536352E+03  0.23840536354E+03  0.25500000920E-02 0. -1.
    10030    2    1    2    0    0  0.00000000000E+00  0.00000000000E+00  0.44485385146E+03  0.92166457852E+03  0.80719926049E+03 0.  0.
        3    1    3    3  502    0 -0.26725406527E+03  0.25300935657E+03  0.33237703754E+02  0.36951755719E+03  0.10100000352E+00 0.  1.
       -3    1    3    3    0  502  0.26725406527E+03 -0.25300935657E+03  0.41161614770E+03  0.55214702133E+03  0.10100000352E+00 0. -1.
</event>
<event>
 5   0  0.2063692E-02  0.8323886E+03  0.7818609E-02  0.9514284E-01
        1   -1    0    0  501    0  0.00000000000E+00  0.00000000000E+00  0.19257096908E+03  0.19257096915E+03  0.50400001928E-02 0.  1.
       -1   -1    0    0    0  501  0.00000000000E+00  0.00000000000E+00 -0.89950045900E+03  0.89950045901E+03  0.50400001928E-02 0. -1.
    10030    2    1    2    0    0  0.00000000000E+00  0.00000000000E+00 -0.70692948991E+03  0.10920714282E+04  0.83238855140E+03 0.  0.
        2    1    3    3  502    0 -0.42629748494E+02  0.31451895441E+03 -0.70667122845E+03  0.77467650879E+03  0.25500000920E-02 0. -1.
       -2    1    3    3    0  502  0.42629748494E+02 -0.31451895441E+03 -0.25826145919E+00  0.31739491937E+03  0.25500000920E-02 0.  1.
</event>
<event>
 5   0  0.2077795E-02  0.8134859E+03  0.7818609E-02  0.9540699E-01
       -1   -1    0    0    0  501  0.00000000000E+00  0.00000000000E+00  0.15604244308E+03  0.15604244316E+03  0.50400001928E-02 0.  1.
        1   -1    0    0  501    0  0.00000000000E+00  0.00000000000E+00 -0.10602231823E+04  0.10602231823E+04  0.50400001928E-02 0. -1.
    10030    2    1    2    0    0  0.00000000000E+00  0.00000000000E+00 -0.90418073925E+03  0.12162656255E+04  0.81348587115E+03 0.  0.
        5    1    3    3  502    0 -0.33041989480E+03 -0.14231346228E+03 -0.16845980225E+03  0.39727977975E+03  0.46999998093E+01 0.  1.
       -5    1    3    3    0  502  0.33041989480E+03  0.14231346228E+03 -0.73572093700E+03  0.81898584577E+03  0.46999998093E+01 0. -1.
</event>
<event>
 5   0  0.1989298E-02  0.8074319E+03  0.7818609E-02  0.9549322E-01
       -1   -1    0    0    0  501  0.00000000000E+00  0.00000000000E+00  0.37453952679E+03  0.37453952682E+03  0.50400001928E-02 0. -1.
        1   -1    0    0  501    0  0.00000000000E+00  0.00000000000E+00 -0.43516520030E+03  0.43516520033E+03  0.50400001928E-02 0.  1.
    10030    2    1    2    0    0  0.00000000000E+00  0.00000000000E+00 -0.60625673514E+02  0.80970472715E+03  0.80743189984E+03 0.  0.
        1    1    3    3  502    0  0.13302311324E+03  0.90917639483E+02 -0.40152424470E+03  0.43264637399E+03  0.50400001928E-02 0.  1.
       -1    1    3    3    0  502 -0.13302311324E+03 -0.90917639483E+02  0.34089857118E+03  0.37705835316E+03  0.50400001928E-02 0. -1.
</event>
<event>
 5   0  0.3404132E-02  0.7849768E+03  0.7818609E-02  0.9582021E-01
        2   -1    0    0  501    0  0.00000000000E+00  0.00000000000E+00  0.14949387742E+04  0.14949387742E+04  0.25500000920E-02 0.  1.
       -2   -1    0    0    0  501  0.00000000000E+00  0.00000000000E+00 -0.10304578241E+03  0.10304578244E+03  0.25500000920E-02 0. -1.
    10030    2    1    2    0    0  0.00000000000E+00  0.00000000000E+00  0.13918929918E+04  0.15979845566E+04  0.78497677841E+03 0.  0.
        5    1    3    3  502    0 -0.47899167502E+02  0.14944731432E+03  0.14282254557E+04  0.14368294514E+04  0.46999998093E+01 0.  1.
       -5    1    3    3    0  502  0.47899167502E+02 -0.14944731432E+03 -0.36332463952E+02  0.16115510523E+03  0.46999998093E+01 0. -1.
</event>
<event>
 5   0  0.3550586E-02  0.8053550E+03  0.7818609E-02  0.9552298E-01
       -2   -1    0    0    0  501  0.00000000000E+00  0.00000000000E+00  0.52101092207E+03  0.52101092208E+03  0.25500000920E-02 0. -1.
        2   -1    0    0  501    0  0.00000000000E+00  0.00000000000E+00 -0.31122025170E+03  0.31122025171E+03  0.25500000920E-02 0.  1.
    10030    2    1    2    0    0  0.00000000000E+00  0.00000000000E+00  0.20979067037E+03  0.83223117379E+03  0.80535495358E+03 0.  0.
        3    1    3    3  502    0 -0.20129733163E+03 -0.34074929194E+03  0.28130029750E+02  0.39676441934E+03  0.10100000352E+00 0. -1.
       -3    1    3    3    0  502  0.20129733163E+03  0.34074929194E+03  0.18166064062E+03  0.43546675445E+03  0.10100000352E+00 0.  1.
</event>
<event>
 5   0  0.3343036E-02  0.8339493E+03  0.7818609E-02  0.9512137E-01
       -2   -1    0    0    0  501  0.00000000000E+00  0.00000000000E+00  0.27214936868E+03  0.27214936869E+03  0.25500000920E-02 0. -1.
        2   -1    0    0  501    0  0.00000000000E+00  0.00000000000E+00 -0.63886917690E+03  0.63886917690E+03  0.25500000920E-02 0.  1.
    10030    2    1    2    0    0  0.00000000000E+00  0.00000000000E+00 -0.36671980822E+03  0.91101854559E+03  0.83394926265E+03 0.  0.
        4    1    3    3  502    0  0.13477985684E+03  0.22802005792E+02  0.24697485540E+03  0.28228307313E+03  0.12699999809E+01 0. -1.
       -4    1    3    3    0  502 -0.13477985684E+03 -0.22802005792E+02 -0.61369466362E+03  0.62873547246E+03  0.12699999809E+01 0.  1.
</event>
<event>
 5   0  0.3550586E-02  0.8018216E+03  0.7818609E-02  0.9557384E-01
       -2   -1    0    0    0  501  0.00000000000E+00  0.00000000000E+00  0.33535633004E+03  0.33535633005E+03  0.25500000920E-02 0.  1.
        2   -1    0    0  501    0  0.00000000000E+00  0.00000000000E+00 -0.47927972482E+03  0.47927972483E+03  0.25500000920E-02 0. -1.
    10030    2    1    2    0    0  0.00000000000E+00  0.00000000000E+00 -0.14392339479E+03  0.81463605488E+03  0.80182164996E+03 0.  0.
        3    1    3    3  502    0  0.23999242605E+03 -0.27939153042E+03  0.88915029547E+02  0.37889561163E+03  0.10100000352E+00 0.  1.
       -3    1    3    3    0  502 -0.23999242605E+03  0.27939153042E+03 -0.23283842433E+03  0.43574044325E+03  0.10100000352E+00 0. -1.
</event>
<event>
 5   0  0.2077795E-02  0.8131197E+03  0.7818609E-02  0.9541219E-01
       -1   -1    0    0    0  501  0.00000000000E+00  0.00000000000E+00  0.40705636170E+03  0.40705636173E+03  0.50400001928E-02 0. -1.
        1   -1    0    0  501    0  0.00000000000E+00  0.00000000000E+00 -0.40606396656E+03  0.40606396659E+03  0.50400001928E-02 0.  1.
    10030    2    1    2    0    0  0.00000000000E+00  0.00000000000E+00  0.99239514093E+00  0.81312032833E+03  0.81311972273E+03 0.  0.
        5    1    3    3  502    0  0.35928933680E+03  0.55298773691E+02  0.18249097305E+03  0.40678228471E+03  0.46999998093E+01 0. -1.
       -5    1    3    3    0  502 -0.35928933680E+03 -0.55298773691E+02 -0.18149857791E+03  0.40633804362E+03  0.46999998093E+01 0.  1.
</event>
<event>
 5   0  0.2132540E-02  0.7967108E+03  0.7818609E-02  0.9564790E-01
        1   -1    0    0  501    0  0.00000000000E+00  0.00000000000E+00  0.36309103909E+03  0.36309103913E+03  0.50400001928E-02 0.  1.
       -1   -1    0    0    0  501  0.00000000000E+00  0.00000000000E+00 -0.43704475722E+03  0.43704475725E+03  0.50400001928E-02 0. -1.
    10030    2    1    2    0    0  0.00000000000E+00  0.00000000000E+00 -0.73953718127E+02  0.80013579637E+03  0.79671082597E+03 0.  0.
        4    1    3    3  502    0  0.16933260895E+03  0.18446039703E+03  0.27417148777E+03  0.37130955836E+03  0.12699999809E+01 0.  1.
       -4    1    3    3    0  502 -0.16933260895E+03 -0.18446039703E+03 -0.34812520590E+03  0.42882623801E+03  0.12699999809E+01 0. -1.
</event>
<event>
 5   0  0.2077795E-02  0.8136397E+03  0.7818609E-02  0.9540481E-01
       -1   -1    0    0    0  501  0.00000000000E+00  0.00000000000E+00  0.17830323698E+03  0.17830323705E+03  0.50400001928E-02 0. -1.
        1   -1    0    0  501    0  0.00000000000E+00  0.00000000000E+00 -0.92820747177E+03  0.92820747178E+03  0.50400001928E-02 0.  1.
    10030    2    1    2    0    0  0.00000000000E+00  0.00000000000E+00 -0.74990423479E+03  0.11065107088E+04  0.81363971597E+03 0.  0.
        5    1    3    3  502    0  0.10495100699E+02 -0.67393277849E+02 -0.92033904661E+03  0.92287488412E+03  0.46999998093E+01 0.  1.
       -5    1    3    3    0  502 -0.10495100699E+02  0.67393277849E+02  0.17043481182E+03  0.18363582471E+03  0.46999998093E+01 0. -1.
</event>
<event>
 5   0  0.2132540E-02  0.8882686E+03  0.7818609E-02  0.9440366E-01
        1   -1    0    0  501    0  0.00000000000E+00  0.00000000000E+00  0.19540475973E+03  0.19540475979E+03  0.50400001928E-02 0.  1.
       -1   -1    0    0    0  501  0.00000000000E+00  0.00000000000E+00 -0.10094701571E+04  0.10094701571E+04  0.50400001928E-02 0. -1.
    10030    2    1    2    0    0  0.00000000000E+00  0.00000000000E+00 -0.81406539737E+03  0.12048749169E+04  0.88826859350E+03 0.  0.
        4    1    3    3  502    0  0.18630370738E+03  0.24621453291E+03 -0.84007840868E+03  0.89502179484E+03  0.12699999809E+01 0. -1.
       -4    1    3    3    0  502 -0.18630370738E+03 -0.24621453291E+03  0.26013011314E+02  0.30985312207E+03  0.12699999809E+01 0.  1.
</event>
<event>
 5   0  0.3550586E-02  0.8029756E+03  0.7818609E-02  0.9555720E-01
        2   -1    0    0  501    0  0.00000000000E+00  0.00000000000E+00  0.34812166207E+03  0.34812166208E+03  0.25500000920E-02 0. -1.
       -2   -1    0    0    0  501  0.00000000000E+00  0.00000000000E+00 -0.46303482752E+03  0.46303482753E+03  0.25500000920E-02 0.  1.
    10030    2    1    2    0    0  0.00000000000E+00  0.00000000000E+00 -0.11491316545E+03  0.81115648961E+03  0.80297560052E+03 0.  0.
        3    1    3    3  502    0 -0.25651300052E+03 -0.29679073885E+03 -0.14381899931E+03  0.41781284909E+03  0.10100000352E+00 0.  1.
       -3    1    3    3    0  502  0.25651300052E+03  0.29679073885E+03  0.28905833860E+02  0.39334364052E+03  0.10100000352E+00 0. -1.
</event>
<event>
 5   0  0.2129257E-02  0.7873553E+03  0.7818609E-02  0.9578502E-01
       -1   -1    0    0    0  501  0.00000000000E+00  0.00000000000E+00  0.35606281665E+03  0.35606281668E+03  0.50400001928E-02 0. -1.
        1   -1    0    0  501    0  0.00000000000E+00  0.00000000000E+00 -0.43526615263E+03  0.43526615266E+03  0.50400001928E-02 0.  1.
    10030    2    1    2    0    0  0.00000000000E+00  0.00000000000E+00 -0.79203335980E+02  0.79132896934E+03  0.78735530054E+03 0.  0.
        3    1    3    3  502    0  0.32590320876E+02 -0.26541632819E+03  0.25077535549E+03  0.36660093482E+03  0.10100000352E+00 0. -1.
       -3    1    3    3    0  502 -0.32590320876E+02  0.26541632819E+03 -0.32997869147E+03  0.42472803453E+03  0.10100000352E+00 0.  1.
</event>
<event>
 5   0  0.3404132E-02  0.8089391E+03  0.7818609E-02  0.9547167E-01
       -2   -1    0    0    0  501  0.00000000000E+00  0.00000000000E+00  0.65079033008E+03  0.65079033009E+03  0.25500000920E-02 0. -1.
        2   -1    0    0  501    0  0.00000000000E+00  0.00000000000E+00 -0.25137994078E+03  0.25137994079E+03  0.25500000920E-02 0.  1.
    10030    2    1    2    0    0  0.00000000000E+00  0.00000000000E+00  0.39941038931E+03  0.90217027088E+03  0.80893914392E+03 0.  0.
        5    1    3    3  502    0 -0.35954616861E+03 -0.18317391217E+03  0.23019492748E+03  0.46458360291E+03  0.46999998093E+01 0. -1.
       -5    1    3    3    0  502  0.35954616861E+03  0.18317391217E+03  0.16921546183E+03  0.43758666797E+03  0.46999998093E+01 0.  1.
</event>
<event>
 5   0  0.3550586E-02  0.8299732E+03  0.7818609E-02  0.9517618E-01
       -2   -1    0    0    0  501  0.00000000000E+00  0.00000000000E+00  0.59711006442E+03  0.59711006443E+03  0.25500000920E-02 0.  1.
        2   -1    0    0  501    0  0.00000000000E+00  0.00000000000E+00 -0.28841226261E+03  0.28841226262E+03  0.25500000920E-02 0. -1.
    10030    2    1    2    0    0  0.00000000000E+00  0.00000000000E+00  0.30869780181E+03  0.88552232705E+03  0.82997316755E+03 0.  0.
        3    1    3    3  502    0 -0.83706909407E+02  0.30915852303E+03 -0.12718290886E+03  0.34461767446E+03  0.10100000352E+00 0. -1.
       -3    1    3    3    0  502  0.83706909407E+02 -0.30915852303E+03  0.43588071068E+03  0.54090465258E+03  0.10100000352E+00 0.  1.
</event>
<event>
 5   0  0.2129257E-02  0.7874418E+03  0.7818609E-02  0.9578375E-01
        1   -1    0    0  501    0  0.00000000000E+00  0.00000000000E+00  0.45886207048E+03  0.45886207051E+03  0.50400001928E-02 0. -1.
       -1   -1    0    0    0  501  0.00000000000E+00  0.00000000000E+00 -0.33782734385E+03  0.33782734389E+03  0.50400001928E-02 0.  1.
    10030    2    1    2    0    0  0.00000000000E+00  0.00000000000E+00  0.12103472663E+03  0.79668941440E+03  0.78744181878E+03 0.  0.
        3    1    3    3  502    0 -0.10868068181E+03  0.18583698101E+03  0.39403894885E+03  0.44901400593E+03  0.10100000352E+00 0. -1.
       -3    1    3    3    0  502  0.10868068181E+03 -0.18583698101E+03 -0.27300422222E+03  0.34767540847E+03  0.10100000352E+00 0.  1.
</event>
<event>
 5   0  0.3343036E-02  0.8129160E+03  0.7818609E-02  0.9541508E-01
       -2   -1    0    0    0  501  0.00000000000E+00  0.00000000000E+00  0.14283611087E+03  0.14283611089E+03  0.25500000920E-02 0. -1.
        2   -1    0    0  501    0  0.00000000000E+00  0.00000000000E+00 -0.11566269986E+04  0.11566269986E+04  0.25500000920E-02 0.  1.
    10030    2    1    2    0    0  0.00000000000E+00  0.00000000000E+00 -0.10137908877E+04  0.12994631094E+04  0.81291599127E+03 0.  0.
        4    1    3    3  502    0  0.11118145070E+03 -0.26498359306E+03 -0.96639404547E+03  0.10082146019E+04  0.12699999809E+01 0.  1.
       -4    1    3    3    0  502 -0.11118145070E+03  0.26498359306E+03 -0.47396842223E+02  0.29124850750E+03  0.12699999809E+01 0. -1.
</event>
<event>
 5   0  0.1358000E-02  0.8232128E+03  0.7818609E-02  0.9527012E-01
        4   -1    0    0  501    0  0.00000000000E+00  0.00000000000E+00  0.39700394733E+03  0.39700597866E+03  0.12699999809E+01 0.  1.
       -4   -1    0    0    0  501  0.00000000000E+00  0.00000000000E+00 -0.42674189413E+03  0.42674378391E+03  0.12699999809E+01 0. -1.
    10030    2    1    2    0    0  0.00000000000E+00  0.00000000000E+00 -0.29737946797E+02  0.82374976257E+03  0.82321280715E+03 0.  0.
        2    1    3    3  502    0  0.93221920841E+02 -0.72698229675E+02 -0.40939060956E+03  0.42611739031E+03  0.25500000920E-02 0. -1.
       -2    1    3    3    0  502 -0.93221920841E+02  0.72698229675E+02  0.37965266276E+03  0.39763237226E+03  0.25500000920E-02 0.  1.
</event>
<event>
 5   0  0.2063692E-02  0.8032644E+03  0.7818609E-02  0.9555304E-01
       -1   -1    0    0    0  501  0.00000000000E+00  0.00000000000E+00  0.32025588259E+03  0.32025588263E+03  0.50400001928E-02 0. -1.
        1   -1    0    0  501    0  0.00000000000E+00  0.00000000000E+00 -0.50368606718E+03  0.50368606721E+03  0.50400001928E-02 0.  1.
    10030    2    1    2    0    0  0.00000000000E+00  0.00000000000E+00 -0.18343018459E+03  0.82394194984E+03  0.80326440484E+03 0.  0.
        2    1    3    3  502    0 -0.13092200553E+03  0.37969205887E+03 -0.93089324270E+02  0.41227691349E+03  0.25500000920E-02 0.  1.
       -2    1    3    3    0  502  0.13092200553E+03 -0.37969205887E+03 -0.90340860324E+02  0.41166503635E+03  0.25500000920E-02 0. -1.
</event>
<event>
 5   0  0.2132540E-02  0.7975778E+03  0.7818609E-02  0.9563530E-01
       -1   -1    0    0    0  501  0.00000000000E+00  0.00000000000E+00  0.21809981304E+03  0.21809981310E+03  0.50400001928E-02 0.  1.
        1   -1    0    0  501    0  0.00000000000E+00  0.00000000000E+00 -0.72917343439E+03  0.72917343440E+03  0.50400001928E-02 0. -1.
    10030    2    1    2    0    0  0.00000000000E+00  0.00000000000E+00 -0.51107362135E+03  0.94727324750E+03  0.79757780749E+03 0.  0.
        4    1    3    3  502    0 -0.85497606753E+02 -0.26782829656E+03  0.80369160328E+02  0.29240836518E+03  0.12699999809E+01 0.  1.
       -4    1    3    3    0  502  0.85497606753E+02  0.26782829656E+03 -0.59144278168E+03  0.65486488232E+03  0.12699999809E+01 0. -1.
</event>
<event>
 5   0  0.2129257E-02  0.7948316E+03  0.7818609E-02  0.9567528E-01
        1   -1    0    0  501    0  0.00000000000E+00  0.00000000000E+00  0.19705407295E+03  0.19705407301E+03  0.50400001928E-02 0.  1.
       -1   -1    0    0    0  501  0.00000000000E+00  0.00000000000E+00 -0.80150242802E+03  0.80150242803E+03  0.50400001928E-02 0. -1.
    10030    2    1    2    0    0  0.00000000000E+00  0.00000000000E+00 -0.60444835507E+03  0.99855650104E+03  0.79483159967E+03 0.  0.
        3    1    3    3  502    0 -0.21218123432E+03 -0.30980553337E+03 -0.13871545364E+03  0.40030280037E+03  0.10100000352E+00 0. -1.
       -3    1    3    3    0  502  0.21218123432E+03  0.30980553337E+03 -0.46573290142E+03  0.59825370068E+03  0.10100000352E+00 0.  1.
</event>
<event>
 5   0  0.2077795E-02  0.7926363E+03  0.7818609E-02  0.9570737E-01
        1   -1    0    0  501    0  0.00000000000E+00  0.00000000000E+00  0.20798625175E+03  0.20798625181E+03  0.50400001928E-02 0. -1.
       -1   -1    0    0    0  501  0.00000000000E+00  0.00000000000E+00 -0.75518492023E+03  0.75518492024E+03  0.50400001928E-02 0.  1.
    10030    2    1    2    0    0  0.00000000000E+00  0.00000000000E+00 -0.54719866848E+03  0.96317117205E+03  0.79263631249E+03 0.  0.
        5    1    3    3  502    0  0.16517513812E+03 -0.34130528834E+03 -0.13359927895E+03  0.40204848393E+03  0.46999998093E+01 0. -1.
       -5    1    3    3    0  502 -0.16517513812E+03  0.34130528834E+03 -0.41359938953E+03  0.56112268811E+03  0.46999998093E+01 0.  1.
</event>
<event>
 5   0  0.3416160E-02  0.7959246E+03  0.7818609E-02  0.9565935E-01
       -2   -1    0    0    0  501  0.00000000000E+00  0.00000000000E+00  0.74177367632E+02  0.74177367676E+02  0.25500000920E-02 0.  1.
        2   -1    0    0  501    0  0.00000000000E+00  0.00000000000E+00 -0.21350714773E+04  0.21350714774E+04  0.25500000920E-02 0. -1.
    10030    2    1    2    0    0  0.00000000000E+00  0.00000000000E+00 -0.20608941097E+04  0.22092488450E+04  0.79592457418E+03 0.  0.
        1    1    3    3  502    0 -0.86134214723E+02 -0.23773266408E+03 -0.18834415923E+04  0.19003389577E+04  0.50400001928E-02 0. -1.
       -1    1    3    3    0  502  0.86134214723E+02  0.23773266408E+03 -0.17745251738E+03  0.30890988729E+03  0.50400001928E-02 0.  1.
</event>
<event>
 5   0  0.1989298E-02  0.8654697E+03  0.7818609E-02  0.9469806E-01
       -1   -1    0    0    0  501  0.00000000000E+00  0.00000000000E+00  0.23141992192E+03  0.23141992197E+03  0.50400001928E-02 0.  1.
        1   -1    0    0  501    0  0.00000000000E+00  0.00000000000E+00 -0.80917609270E+03  0.80917609272E+03  0.50400001928E-02 0. -1.
    10030    2    1    2    0    0  0.00000000000E+00  0.00000000000E+00 -0.57775617078E+03  0.10405960147E+04  0.86546974119E+03 0.  0.
        1    1    3    3  502    0 -0.83760199084E+02 -0.15904146692E+03 -0.76216595325E+03  0.78307528340E+03  0.50400001928E-02 0. -1.
       -1    1    3    3    0  502  0.83760199084E+02  0.15904146692E+03  0.18440978247E+03  0.25752073129E+03  0.50400001928E-02 0.  1.
</event>
<event>
 5   0  0.3416160E-02  0.8006614E+03  0.7818609E-02  0.9559060E-01
       -2   -1    0    0    0  501  0.00000000000E+00  0.00000000000E+00  0.19766319371E+03  0.19766319373E+03  0.25500000920E-02 0. -1.
        2   -1    0    0  501    0  0.00000000000E+00  0.00000000000E+00 -0.81079664065E+03  0.81079664066E+03  0.25500000920E-02 0.  1.
    10030    2    1    2    0    0  0.00000000000E+00  0.00000000000E+00 -0.61313344694E+03  0.10084598344E+04  0.80066136025E+03 0.  0.
        1    1    3    3  502    0 -0.37137767564E+02  0.90637636751E+02 -0.79547062395E+03  0.80147857649E+03  0.50400001928E-02 0.  1.
       -1    1    3    3    0  502  0.37137767564E+02 -0.90637636751E+02  0.18233717701E+03  0.20698125790E+03  0.50400001928E-02 0. -1.
</event>
<event>
 5   0  0.2129257E-02  0.8187953E+03  0.7818609E-02  0.9533203E-01
       -1   -1    0    0    0  501  0.00000000000E+00  0.00000000000E+00  0.13645763481E+03  0.13645763490E+03  0.50400001928E-02 0. -1.
        1   -1    0    0  501    0  0.00000000000E+00  0.00000000000E+00 -0.12282671201E+04  0.12282671201E+04  0.50400001928E-02 0.  1.
    10030    2    1    2    0    0  0.00000000000E+00  0.00000000000E+00 -0.10918094853E+04  0.13647247550E+04  0.81879527649E+03 0.  0.
        3    1    3    3  502    0  0.71038598693E+02  0.31433353181E+03 -0.12505729217E+03  0.34567526416E+03  0.10100000352E+00 0. -1.
       -3    1    3    3    0  502 -0.71038598693E+02 -0.31433353181E+03 -0.96675219315E+03  0.10190494909E+04  0.10100000352E+00 0.  1.
</event>
<event>
 5   0  0.2063692E-02  0.8013303E+03  0.7818609E-02  0.9558093E-01
       -1   -1    0    0    0  501  0.00000000000E+00  0.00000000000E+00  0.12639747443E+03  0.12639747453E+03  0.50400001928E-02 0. -1.
        1   -1    0    0  501    0  0.00000000000E+00  0.00000000000E+00 -0.12700616293E+04  0.12700616293E+04  0.50400001928E-02 0.  1.
    10030    2    1    2    0    0  0.00000000000E+00  0.00000000000E+00 -0.11436641549E+04  0.13964591038E+04  0.80133034983E+03 0.  0.
        2    1    3    3  502    0  0.38472585857E+02 -0.20482152464E+03  0.24510974191E+02  0.20983990250E+03  0.25500000920E-02 0. -1.
       -2    1    3    3    0  502 -0.38472585857E+02  0.20482152464E+03 -0.11681751291E+04  0.11866192013E+04  0.25500000920E-02 0.  1.
</event>
<event>
 5   0  0.2077795E-02  0.8099194E+03  0.7818609E-02  0.9545769E-01
        1   -1    0    0  501    0  0.00000000000E+00  0.00000000000E+00  0.61683980493E+03  0.61683980495E+03  0.50400001928E-02 0.  1.
       -1   -1    0    0    0  501  0.00000000000E+00  0.00000000000E+00 -0.26585893336E+03  0.26585893341E+03  0.50400001928E-02 0. -1.
    10030    2    1    2    0    0  0.00000000000E+00  0.00000000000E+00  0.35098087157E+03  0.88269873836E+03  0.80991943457E+03 0.  0.
        5    1    3    3  502    0  0.34354300622E+02 -0.26487245450E+02 -0.26328951433E+03  0.26688059221E+03  0.46999998093E+01 0. -1.
       -5    1    3    3    0  502 -0.34354300622E+02  0.26487245450E+02  0.61427038590E+03  0.61581814615E+03  0.46999998093E+01 0.  1.
</event>
<event>
 5   0  0.3404132E-02  0.7976285E+03  0.7818609E-02  0.9563456E-01
        2   -1    0    0  501    0  0.00000000000E+00  0.00000000000E+00  0.52399151873E+03  0.52399151874E+03  0.25500000920E-02 0.  1.
       -2   -1    0    0    0  501  0.00000000000E+00  0.00000000000E+00 -0.30354077276E+03  0.30354077277E+03  0.25500000920E-02 0. -1.
    10030    2    1    2    0    0  0.00000000000E+00  0.00000000000E+00  0.22045074597E+03  0.82753229151E+03  0.79762846119E+03 0.  0.
        5    1    3    3  502    0  0.14899251401E+03 -0.36702064763E+03  0.15808256467E+03  0.42651507860E+03  0.46999998093E+01 0.  1.
       -5    1    3    3    0  502 -0.14899251401E+03  0.36702064763E+03  0.62368181293E+02  0.40101721291E+03  0.46999998093E+01 0. -1.
</event>
<event>
 5   0  0.3404132E-02  0.8114802E+03  0.7818609E-02  0.9543547E-01
        2   -1    0    0  501    0  0.00000000000E+00  0.00000000000E+00  0.24566938720E+04  0.24566938720E+04  0.25500000920E-02 0. -1.
       -2   -1    0    0    0  501  0.00000000000E+00  0.00000000000E+00 -0.67010799315E+02  0.67010799364E+02  0.25500000920E-02 0.  1.
    10030    2    1    2    0    0  0.00000000000E+00  0.00000000000E+00  0.23896830727E+04  0.25237046714E+04  0.81148017869E+03 0.  0.
        5    1    3    3  502    0  0.21703480341E+03  0.33847818996E+02  0.22556810479E+04  0.22663558548E+04  0.46999998093E+01 0. -1.
       -5    1    3    3    0  502 -0.21703480341E+03 -0.33847818996E+02  0.13400202479E+03  0.25734881657E+03  0.46999998093E+01 0.  1.
</event>
<event>
 5   0  0.3404132E-02  0.7985636E+03  0.7818609E-02  0.9562099E-01
        2   -1    0    0  501    0  0.00000000000E+00  0.00000000000E+00  0.59513965989E+03  0.59513965989E+03  0.25500000920E-02 0. -1.
       -2   -1    0    0    0  501  0.00000000000E+00  0.00000000000E+00 -0.26787993446E+03  0.26787993447E+03  0.25500000920E-02 0.  1.
    10030    2    1    2    0    0  0.00000000000E+00  0.00000000000E+00  0.32725972543E+03  0.86301959436E+03  0.79856364327E+03 0.  0.
        5    1    3    3  502    0  0.13435885197E+03  0.12024566676E+02 -0.24247596604E+03  0.27751319863E+03  0.46999998093E+01 0.  1.
       -5    1    3    3    0  502 -0.13435885197E+03 -0.12024566676E+02  0.56973569148E+03  0.58550639573E+03  0.46999998093E+01 0. -1.
</event>
<event>
 5   0  0.2132540E-02  0.7465246E+03  0.7818609E-02  0.9640819E-01
        1   -1    0    0  501    0  0.00000000000E+00  0.00000000000E+00  0.19104393436E+03  0.19104393443E+03  0.50400001928E-02 0. -1.
       -1   -1    0    0    0  501  0.00000000000E+00  0.00000000000E+00 -0.72928115121E+03  0.72928115123E+03  0.50400001928E-02 0.  1.
    10030    2    1    2    0    0  0.00000000000E+00  0.00000000000E+00 -0.53823721685E+03  0.92032508566E+03  0.74652458880E+03 0.  0.
        4    1    3    3  502    0  0.14443086836E+03 -0.18765382151E+02 -0.69280233871E+03  0.70794710870E+03  0.12699999809E+01 0.  1.
       -4    1    3    3    0  502 -0.14443086836E+03  0.18765382151E+02  0.15456512186E+03  0.21237797695E+03  0.12699999809E+01 0. -1.
</event>
<event>
 5   0  0.3467240E-02  0.7284742E+03  0.7818609E-02  0.9669740E-01
       -2   -1    0    0    0  501  0.00000000000E+00  0.00000000000E+00  0.16689799422E+03  0.16689799424E+03  0.25500000920E-02 0. -1.
        2   -1    0    0  501    0  0.00000000000E+00  0.00000000000E+00 -0.79490859235E+03  0.79490859236E+03  0.25500000920E-02 0.  1.
    10030    2    1    2    0    0  0.00000000000E+00  0.00000000000E+00 -0.62801059813E+03  0.96180658660E+03  0.72847415785E+03 0.  0.
        2    1    3    3  502    0 -0.33551432353E+03 -0.18802440010E+01 -0.50116844501E+03  0.60311127240E+03  0.25500000920E-02 0.  1.
       -2    1    3    3    0  502  0.33551432353E+03  0.18802440010E+01 -0.12684215312E+03  0.35869531420E+03  0.25500000920E-02 0. -1.
</event>
<event>
 5   0  0.3550586E-02  0.7948146E+03  0.7818609E-02  0.9567553E-01
       -2   -1    0    0    0  501  0.00000000000E+00  0.00000000000E+00  0.23861565607E+03  0.23861565608E+03  0.25500000920E-02 0. -1.
        2   -1    0    0  501    0  0.00000000000E+00  0.00000000000E+00 -0.66187004725E+03  0.66187004726E+03  0.25500000920E-02 0.  1.
    10030    2    1    2    0    0  0.00000000000E+00  0.00000000000E+00 -0.42325439118E+03  0.90048570334E+03  0.79481458357E+03 0.  0.
        3    1    3    3  502    0  0.23741211146E+03  0.19631204700E+03 -0.49606238297E+03  0.58393563726E+03  0.10100000352E+00 0.  1.
       -3    1    3    3    0  502 -0.23741211146E+03 -0.19631204700E+03  0.72807991784E+02  0.31655006608E+03  0.10100000352E+00 0. -1.
</event>
<event>
 5   0  0.1989298E-02  0.8056676E+03  0.7818609E-02  0.9551849E-01
        1   -1    0    0  501    0  0.00000000000E+00  0.00000000000E+00  0.84957845641E+03  0.84957845642E+03  0.50400001928E-02 0. -1.
       -1   -1    0    0    0  501  0.00000000000E+00  0.00000000000E+00 -0.19100658736E+03  0.19100658743E+03  0.50400001928E-02 0.  1.
    10030    2    1    2    0    0  0.00000000000E+00  0.00000000000E+00  0.65857186904E+03  0.10405850439E+04  0.80566762799E+03 0.  0.
        1    1    3    3  502    0 -0.99050331980E+02 -0.35985117224E+03  0.52504142587E+03  0.64418346248E+03  0.50400001928E-02 0.  1.
       -1    1    3    3    0  502  0.99050331980E+02  0.35985117224E+03  0.13353044317E+03  0.39640158137E+03  0.50400001928E-02 0. -1.
</event>
<event>
 5   0  0.3550586E-02  0.7909707E+03  0.7818609E-02  0.9573179E-01
       -2   -1    0    0    0  501  0.00000000000E+00  0.00000000000E+00  0.19387810128E+03  0.19387810130E+03  0.25500000920E-02 0. -1.
        2   -1    0    0  501    0  0.00000000000E+00  0.00000000000E+00 -0.80673719364E+03  0.80673719365E+03  0.25500000920E-02 0.  1.
    10030    2    1    2    0    0  0.00000000000E+00  0.00000000000E+00 -0.61285909236E+03  0.10006152949E+04  0.79097073359E+03 0.  0.
        3    1    3    3  502    0  0.98401796962E+02  0.37461074941E+03 -0.40757430405E+03  0.56225701485E+03  0.10100000352E+00 0.  1.
       -3    1    3    3    0  502 -0.98401796962E+02 -0.37461074941E+03 -0.20528478830E+03  0.43835828010E+03  0.10100000352E+00 0. -1.
</event>
<event>
 5   0  0.2132540E-02  0.8086885E+03  0.7818609E-02  0.9547525E-01
        1   -1    0    0  501    0  0.00000000000E+00  0.00000000000E+00  0.34335392058E+03  0.34335392061E+03  0.50400001928E-02 0. -1.
       -1   -1    0    0    0  501  0.00000000000E+00  0.00000000000E+00 -0.47616832882E+03  0.47616832884E+03  0.50400001928E-02 0.  1.
    10030    2    1    2    0    0  0.00000000000E+00  0.00000000000E+00 -0.13281440824E+03  0.81952224946E+03  0.80868847544E+03 0.  0.
        4    1    3    3  502    0  0.16346900025E+03 -0.19762036943E+03  0.25037731269E+03  0.35842200835E+03  0.12699999809E+01 0. -1.
       -4    1    3    3    0  502 -0.16346900025E+03  0.19762036943E+03 -0.38319172093E+03  0.46110024111E+03  0.12699999809E+01 0.  1.
</event>
<event>
 5   0  0.3404132E-02  0.8283302E+03  0.7818609E-02  0.9519892E-01
       -2   -1    0    0    0  501  0.00000000000E+00  0.00000000000E+00  0.27304939451E+03  0.27304939453E+03  0.25500000920E-02 0.  1.
        2   -1    0    0  501    0  0.00000000000E+00  0.00000000000E+00 -0.62821142442E+03  0.62821142442E+03  0.25500000920E-02 0. -1.
    10030    2    1    2    0    0  0.00000000000E+00  0.00000000000E+00 -0.35516202990E+03  0.90126081895E+03  0.82833024591E+03 0.  0.
        5    1    3    3  502    0 -0.83622274592E+02  0.24579014178E+03 -0.52864246489E+03  0.58897404381E+03  0.46999998093E+01 0. -1.
       -5    1    3    3    0  502  0.83622274592E+02 -0.24579014178E+03  0.17348043499E+03  0.31228677513E+03  0.46999998093E+01 0.  1.
</event>
<event>
 5   0  0.2129257E-02  0.7747635E+03  0.7818609E-02  0.9597282E-01
        1   -1    0    0  501    0  0.00000000000E+00  0.00000000000E+00  0.68070389593E+03  0.68070389594E+03  0.50400001928E-02 0.  1.
       -1   -1    0    0    0  501  0.00000000000E+00  0.00000000000E+00 -0.22045504011E+03  0.22045504017E+03  0.50400001928E-02 0. -1.
    10030    2    1    2    0    0  0.00000000000E+00  0.00000000000E+00  0.46024885581E+03  0.90115893611E+03  0.77476345994E+03 0.  0.
        3    1    3    3  502    0 -0.58740795972E+02 -0.25400237404E+03 -0.10314514305E+03  0.28036871770E+03  0.10100000352E+00 0. -1.
       -3    1    3    3    0  502  0.58740795972E+02  0.25400237404E+03  0.56339399886E+03  0.62079021842E+03  0.10100000352E+00 0.  1.
</event>
<event>
 5   0  0.3467240E-02  0.8037876E+03  0.7818609E-02  0.9554551E-01
       -2   -1    0    0    0  501  0.00000000000E+00  0.00000000000E+00  0.94285485974E+02  0.94285486009E+02  0.25500000920E-02 0. -1.
        2   -1    0    0  501    0  0.00000000000E+00  0.00000000000E+00 -0.17130806367E+04  0.17130806367E+04  0.25500000920E-02 0.  1.
    10030    2    1    2    0    0  0.00000000000E+00  0.00000000000E+00 -0.16187951508E+04  0.18073661228E+04  0.80378763459E+03 0.  0.
        2    1    3    3  502    0  0.89671503715E+02 -0.97526644368E+02  0.43771511049E+02  0.13952910136E+03  0.25500000920E-02 0. -1.
       -2    1    3    3    0  502 -0.89671503715E+02  0.97526644368E+02 -0.16625666618E+04  0.16678370214E+04  0.25500000920E-02 0.  1.
</event>
<event>
 5   0  0.2077795E-02  0.9305515E+03  0.7818609E-02  0.9388176E-01
       -1   -1    0    0    0  501  0.00000000000E+00  0.00000000000E+00  0.17300743714E+03  0.17300743721E+03  0.50400001928E-02 0. -1.
        1   -1    0    0  501    0  0.00000000000E+00  0.00000000000E+00 -0.12512844341E+04  0.12512844341E+04  0.50400001928E-02 0.  1.
    10030    2    1    2    0    0  0.00000000000E+00  0.00000000000E+00 -0.10782769969E+04  0.14242918713E+04  0.93055147763E+03 0.  0.
        5    1    3    3  502    0 -0.23467134488E+02  0.45424087293E+03 -0.38937565351E+03  0.59876620361E+03  0.46999998093E+01 0.  1.
       -5    1    3    3    0  502  0.23467134488E+02 -0.45424087293E+03 -0.68890134342E+03  0.82552566768E+03  0.46999998093E+01 0. -1.
</event>
<event>
 5   0  0.2063692E-02  0.7877754E+03  0.7818609E-02  0.9577882E-01
       -1   -1    0    0    0  501  0.00000000000E+00  0.00000000000E+00  0.34019267647E+03  0.34019267651E+03  0.50400001928E-02 0. -1.
        1   -1    0    0  501    0  0.00000000000E+00  0.00000000000E+00 -0.45605780828E+03  0.45605780831E+03  0.50400001928E-02 0.  1.
    10030    2    1    2    0    0  0.00000000000E+00  0.00000000000E+00 -0.11586513181E+03  0.79625048482E+03  0.78777541584E+03 0.  0.
        2    1    3    3  502    0 -0.19827570846E+03  0.26072877040E+03 -0.27904335772E+03  0.43029983009E+03  0.25500000920E-02 0.  1.
       -2    1    3    3    0  502  0.19827570846E+03 -0.26072877040E+03  0.16317822591E+03  0.36595065473E+03  0.25500000920E-02 0. -1.
</event>
<event>
 5   0  0.2077795E-02  0.7947864E+03  0.7818609E-02  0.9567594E-01
        1   -1    0    0  501    0  0.00000000000E+00  0.00000000000E+00  0.97067763804E+03  0.97067763805E+03  0.50400001928E-02 0. -1.
       -1   -1    0    0    0  501  0.00000000000E+00  0.00000000000E+00 -0.16269187850E+03  0.16269187858E+03  0.50400001928E-02 0.  1.
    10030    2    1    2    0    0  0.00000000000E+00  0.00000000000E+00  0.80798575954E+03  0.11333695166E+04  0.79478643271E+03 0.  0.
        5    1    3    3  502    0 -0.33793926106E+03 -0.15774493535E+03  0.20840199762E+03  0.42724687407E+03  0.46999998093E+01 0.  1.
       -5    1    3    3    0  502  0.33793926106E+03  0.15774493535E+03  0.59958376191E+03  0.70612264256E+03  0.46999998093E+01 0. -1.
</event>
<event>
 5   0  0.3404132E-02  0.8012166E+03  0.7818609E-02  0.9558258E-01
       -2   -1    0    0    0  501  0.00000000000E+00  0.00000000000E+00  0.25360020062E+03  0.25360020063E+03  0.25500000920E-02 0.  1.
        2   -1    0    0  501    0  0.00000000000E+00  0.00000000000E+00 -0.63283467928E+03  0.63283467929E+03  0.25500000920E-02 0. -1.
    10030    2    1    2    0    0  0.00000000000E+00  0.00000000000E+00 -0.37923447866E+03  0.88643487992E+03  0.80121657904E+03 0.  0.
        5    1    3    3  502    0 -0.12568740627E+03 -0.10375468488E+02 -0.61026723107E+03  0.62317987593E+03  0.46999998093E+01 0. -1.
       -5    1    3    3    0  502  0.12568740627E+03  0.10375468488E+02  0.23103275241E+03  0.26325500399E+03  0.46999998093E+01 0.  1.
</event>
<event>
 5   0  0.2077795E-02  0.7961535E+03  0.7818609E-02  0.9565601E-01
        1   -1    0    0  501    0  0.00000000000E+00  0.00000000000E+00  0.21287607156E+03  0.21287607162E+03  0.50400001928E-02 0.  1.
       -1   -1    0    0    0  501  0.00000000000E+00  0.00000000000E+00 -0.74440071761E+03  0.74440071763E+03  0.50400001928E-02 0. -1.
    10030    2    1    2    0    0  0.00000000000E+00  0.00000000000E+00 -0.53152464605E+03  0.95727678925E+03  0.79615350397E+03 0.  0.
        5    1    3    3  502    0  0.15792999324E+03 -0.20873276744E+03  0.94814047776E+02  0.27842960442E+03  0.46999998093E+01 0.  1.
       -5    1    3    3    0  502 -0.15792999324E+03  0.20873276744E+03 -0.62633869383E+03  0.67884718483E+03  0.46999998093E+01 0. -1.
</event>
<event>
 5   0  0.3416160E-02  0.7946676E+03  0.7818609E-02  0.9567768E-01
       -2   -1    0    0    0  501  0.00000000000E+00  0.00000000000E+00  0.53110503089E+03  0.53110503090E+03  0.25500000920E-02 0.  1.
        2   -1    0    0  501    0  0.00000000000E+00  0.00000000000E+00 -0.29725598964E+03  0.29725598965E+03  0.25500000920E-02 0. -1.
    10030    2    1    2    0    0  0.00000000000E+00  0.00000000000E+00  0.23384904126E+03  0.82836102054E+03  0.79466760740E+03 0.  0.
        1    1    3    3  502    0  0.98862955104E+02  0.36728409464E+03 -0.28501231515E+01  0.38036773430E+03  0.50400001928E-02 0. -1.
       -1    1    3    3    0  502 -0.98862955104E+02 -0.36728409464E+03  0.23669916441E+03  0.44799328625E+03  0.50400001928E-02 0.  1.
</event>
<event>
 5   0  0.3404132E-02  0.7957475E+03  0.7818609E-02  0.9566193E-01
       -2   -1    0    0    0  501  0.00000000000E+00  0.00000000000E+00  0.19143133815E+03  0.19143133816E+03  0.25500000920E-02 0. -1.
        2   -1    0    0  501    0  0.00000000000E+00  0.00000000000E+00 -0.82694681035E+03  0.82694681035E+03  0.25500000920E-02 0.  1.
    10030    2    1    2    0    0  0.00000000000E+00  0.00000000000E+00 -0.63551547220E+03  0.10183781485E+04  0.79574753407E+03 0.  0.
        5    1    3    3  502    0  0.15578765836E+03  0.73484042823E+02  0.14120147112E+03  0.22277711842E+03  0.46999998093E+01 0. -1.
       -5    1    3    3    0  502 -0.15578765836E+03 -0.73484042823E+02 -0.77671694332E+03  0.79560103010E+03  0.46999998093E+01 0.  1.
</event>
<event>
 5   0  0.3404132E-02  0.7939956E+03  0.7818609E-02  0.9568749E-01
       -2   -1    0    0    0  501  0.00000000000E+00  0.00000000000E+00  0.12696575533E+04  0.12696575533E+04  0.25500000920E-02 0.  1.
        2   -1    0    0  501    0  0.00000000000E+00  0.00000000000E+00 -0.12413368055E+03  0.12413368058E+03  0.25500000920E-02 0. -1.
    10030    2    1    2    0    0  0.00000000000E+00  0.00000000000E+00  0.11455238727E+04  0.13937912338E+04  0.79399563008E+03 0.  0.
        5    1    3    3  502    0 -0.42405140675E+02  0.10296268148E+03 -0.96107707405E+02  0.14716756149E+03  0.46999998093E+01 0. -1.
       -5    1    3    3    0  502  0.42405140675E+02 -0.10296268148E+03  0.12416315801E+04  0.12466236724E+04  0.46999998093E+01 0.  1.
</event>
<event>
 5   0  0.2129257E-02  0.8167022E+03  0.7818609E-02  0.9536151E-01
       -1   -1    0    0    0  501  0.00000000000E+00  0.00000000000E+00  0.69776189792E+03  0.69776189794E+03  0.50400001928E-02 0. -1.
        1   -1    0    0  501    0  0.00000000000E+00  0.00000000000E+00 -0.23897924511E+03  0.23897924516E+03  0.50400001928E-02 0.  1.
    10030    2    1    2    0    0  0.00000000000E+00  0.00000000000E+00  0.45878265281E+03  0.93674114310E+03  0.81670217745E+03 0.  0.
        3    1    3    3  502    0 -0.33729240304E+03 -0.19848406528E+03  0.36309453683E+03  0.53385367114E+03  0.10100000352E+00 0. -1.
       -3    1    3    3    0  502  0.33729240304E+03  0.19848406528E+03  0.95688115984E+02  0.40288747196E+03  0.10100000352E+00 0.  1.
</event>
<event>
 5   0  0.2077795E-02  0.7795422E+03  0.7818609E-02  0.9590110E-01
       -1   -1    0    0    0  501  0.00000000000E+00  0.00000000000E+00  0.19005484008E+03  0.19005484014E+03  0.50400001928E-02 0. -1.
        1   -1    0    0  501    0  0.00000000000E+00  0.00000000000E+00 -0.79935608009E+03  0.79935608010E+03  0.50400001928E-02 0.  1.
    10030    2    1    2    0    0  0.00000000000E+00  0.00000000000E+00 -0.60930124001E+03  0.98941092025E+03  0.77954215282E+03 0.  0.
        5    1    3    3  502    0 -0.22465982408E+03 -0.38433228315E+02 -0.70591355267E+03  0.74181209442E+03  0.46999998093E+01 0.  1.
       -5    1    3    3    0  502  0.22465982408E+03  0.38433228315E+02  0.96612312659E+02  0.24759882582E+03  0.46999998093E+01 0. -1.
</event>
<event>
 5   0  0.3404132E-02  0.8039096E+03  0.7818609E-02  0.9554375E-01
       -2   -1    0    0    0  501  0.00000000000E+00  0.00000000000E+00  0.18802787120E+03  0.18802787122E+03  0.25500000920E-02 0. -1.
        2   -1    0    0  501    0  0.00000000000E+00  0.00000000000E+00 -0.85927502046E+03  0.85927502046E+03  0.25500000920E-02 0.  1.
    10030    2    1    2    0    0  0.00000000000E+00  0.00000000000E+00 -0.67124714926E+03  0.10473028917E+04  0.80390957920E+03 0.  0.
        5    1    3    3  502    0  0.58095931101E+02  0.38949400804E+03 -0.23087596936E+03  0.45651563252E+03  0.46999998093E+01 0. -1.
       -5    1    3    3    0  502 -0.58095931101E+02 -0.38949400804E+03 -0.44037117989E+03  0.59078725916E+03  0.46999998093E+01 0.  1.
</event>
<event>
 5   0  0.2063692E-02  0.6611528E+03  0.7818609E-02  0.9786074E-01
        1   -1    0    0  501    0  0.00000000000E+00  0.00000000000E+00  0.79296341320E+03  0.79296341322E+03  0.50400001928E-02 0. -1.
       -1   -1    0    0    0  501  0.00000000000E+00  0.00000000000E+00 -0.13781310166E+03  0.13781310176E+03  0.50400001928E-02 0.  1.
    10030    2    1    2    0    0  0.00000000000E+00  0.00000000000E+00  0.65515031154E+03  0.93077651497E+03  0.66115277366E+03 0.  0.
        2    1    3    3  502    0  0.14695440271E+03  0.22662576953E+03  0.59255891992E+02  0.27652503799E+03  0.25500000920E-02 0.  1.
       -2    1    3    3    0  502 -0.14695440271E+03 -0.22662576953E+03  0.59589441954E+03  0.65425147699E+03  0.25500000920E-02 0. -1.
</event>
<event>
 5   0  0.3416160E-02  0.7991878E+03  0.7818609E-02  0.9561193E-01
        2   -1    0    0  501    0  0.00000000000E+00  0.00000000000E+00  0.17546115036E+04  0.17546115036E+04  0.25500000920E-02 0.  1.
       -2   -1    0    0    0  501  0.00000000000E+00  0.00000000000E+00 -0.91003212601E+02  0.91003212637E+02  0.25500000920E-02 0. -1.
    10030    2    1    2    0    0  0.00000000000E+00  0.00000000000E+00  0.16636082910E+04  0.18456147162E+04  0.79918779703E+03 0.  0.
        1    1    3    3  502    0  0.19387176643E+03 -0.87876339609E+00  0.16387216453E+04  0.16501501947E+04  0.50400001928E-02 0.  1.
       -1    1    3    3    0  502 -0.19387176643E+03  0.87876339609E+00  0.24886645682E+02  0.19546452159E+03  0.50400001928E-02 0. -1.
</event>
<event>
 5   0  0.2077795E-02  0.7977945E+03  0.7818609E-02  0.9563215E-01
       -1   -1    0    0    0  501  0.00000000000E+00  0.00000000000E+00  0.17696380235E+03  0.17696380242E+03  0.50400001928E-02 0.  1.
        1   -1    0    0  501    0  0.00000000000E+00  0.00000000000E+00 -0.89916145966E+03  0.89916145967E+03  0.50400001928E-02 0. -1.
    10030    2    1    2    0    0  0.00000000000E+00  0.00000000000E+00 -0.72219765731E+03  0.10761252621E+04  0.79779453715E+03 0.  0.
        5    1    3    3  502    0  0.22831926570E+03  0.22350677958E+03 -0.39025468055E+02  0.32191620768E+03  0.46999998093E+01 0.  1.
       -5    1    3    3    0  502 -0.22831926570E+03 -0.22350677958E+03 -0.68317218925E+03  0.75420905442E+03  0.46999998093E+01 0. -1.
</event>
<event>
 5   0  0.1989298E-02  0.7932830E+03  0.7818609E-02  0.9569791E-01
        1   -1    0    0  501    0  0.00000000000E+00  0.00000000000E+00  0.20986078156E+04  0.20986078156E+04  0.50400001928E-02 0. -1.
       -1   -1    0    0    0  501  0.00000000000E+00  0.00000000000E+00 -0.74966121382E+02  0.74966121551E+02  0.50400001928E-02 0.  1.
    10030    2    1    2    0    0  0.00000000000E+00  0.00000000000E+00  0.20236416942E+04  0.21735739371E+04  0.79328302245E+03 0.  0.
        1    1    3    3  502    0 -0.20577447534E+03  0.47863679861E+02  0.92028566416E+02  0.23044158395E+03  0.50400001928E-02 0.  1.
       -1    1    3    3    0  502  0.20577447534E+03 -0.47863679861E+02  0.19316131278E+04  0.19431323532E+04  0.50400001928E-02 0. -1.
</event>
<event>
 5   0  0.1989298E-02  0.7836587E+03  0.7818609E-02  0.9583976E-01
        1   -1    0    0  501    0  0.00000000000E+00  0.00000000000E+00  0.61188616096E+03  0.61188616098E+03  0.50400001928E-02 0.  1.
       -1   -1    0    0    0  501  0.00000000000E+00  0.00000000000E+00 -0.25091308005E+03  0.25091308010E+03  0.50400001928E-02 0. -1.
    10030    2    1    2    0    0  0.00000000000E+00  0.00000000000E+00  0.36097308091E+03  0.86279924108E+03  0.78365870458E+03 0.  0.
        1    1    3    3  502    0 -0.36350665448E+03  0.13292144341E+03  0.11328976143E+03  0.40328621107E+03  0.50400001928E-02 0.  1.
       -1    1    3    3    0  502  0.36350665448E+03 -0.13292144341E+03  0.24768331948E+03  0.45951303001E+03  0.50400001928E-02 0. -1.
</event>
<event>
 5   0  0.2132540E-02  0.8091981E+03  0.7818609E-02  0.9546798E-01
        1   -1    0    0  501    0  0.00000000000E+00  0.00000000000E+00  0.23148480571E+03  0.23148480577E+03  0.50400001928E-02 0. -1.
       -1   -1    0    0    0  501  0.00000000000E+00  0.00000000000E+00 -0.70717553243E+03  0.70717553245E+03  0.50400001928E-02 0.  1.
    10030    2    1    2    0    0  0.00000000000E+00  0.00000000000E+00 -0.47569072672E+03  0.93866033822E+03  0.80919809877E+03 0.  0.
        4    1    3    3  502    0  0.29594500634E+03 -0.24218367211E+03 -0.39113245375E+03  0.54701241950E+03  0.12699999809E+01 0.  1.
       -4    1    3    3    0  502 -0.29594500634E+03  0.24218367211E+03 -0.84558272975E+02  0.39164791872E+03  0.12699999809E+01 0. -1.
</event>
<event>
 5   0  0.3343036E-02  0.7573587E+03  0.7818609E-02  0.9623876E-01
       -2   -1    0    0    0  501  0.00000000000E+00  0.00000000000E+00  0.11225340698E+03  0.11225340701E+03  0.25500000920E-02 0.  1.
        2   -1    0    0  501    0  0.00000000000E+00  0.00000000000E+00 -0.12774494508E+04  0.12774494508E+04  0.25500000920E-02 0. -1.
    10030    2    1    2    0    0  0.00000000000E+00  0.00000000000E+00 -0.11651960438E+04  0.13897028578E+04  0.75735870795E+03 0.  0.
        4    1    3    3  502    0 -0.21126746028E+03  0.61451461553E+02 -0.17074561411E+02  0.22068841258E+03  0.12699999809E+01 0.  1.
       -4    1    3    3    0  502  0.21126746028E+03 -0.61451461553E+02 -0.11481214824E+04  0.11690144453E+04  0.12699999809E+01 0. -1.
</event>
<event>
 5   0  0.3416160E-02  0.8191183E+03  0.7818609E-02  0.9532749E-01
       -2   -1    0    0    0  501  0.00000000000E+00  0.00000000000E+00  0.16998822660E+03  0.16998822662E+03  0.25500000920E-02 0. -1.
        2   -1    0    0  501    0  0.00000000000E+00  0.00000000000E+00 -0.98676647357E+03  0.98676647357E+03  0.25500000920E-02 0.  1.
    10030    2    1    2    0    0  0.00000000000E+00  0.00000000000E+00 -0.81677824696E+03  0.11567547002E+04  0.81911826479E+03 0.  0.
        1    1    3    3  502    0  0.12409934726E+03  0.38689308565E+03 -0.48111065463E+03  0.62972563052E+03  0.50400001928E-02 0. -1.
       -1    1    3    3    0  502 -0.12409934726E+03 -0.38689308565E+03 -0.33566759233E+03  0.52702906967E+03  0.50400001928E-02 0.  1.
</event>
<event>
 5   0  0.2132540E-02  0.7947981E+03  0.7818609E-02  0.9567577E-01
       -1   -1    0    0    0  501  0.00000000000E+00  0.00000000000E+00  0.18612166509E+03  0.18612166515E+03  0.50400001928E-02 0.  1.
        1   -1    0    0  501    0  0.00000000000E+00  0.00000000000E+00 -0.84850960075E+03  0.84850960076E+03  0.50400001928E-02 0. -1.
    10030    2    1    2    0    0  0.00000000000E+00  0.00000000000E+00 -0.66238793566E+03  0.10346312659E+04  0.79479813733E+03 0.  0.
        4    1    3    3  502    0 -0.31158300927E+03 -0.11146166384E+03 -0.44758695441E+02  0.33393506538E+03  0.12699999809E+01 0.  1.
       -4    1    3    3    0  502  0.31158300927E+03  0.11146166384E+03 -0.61762924022E+03  0.70069620054E+03  0.12699999809E+01 0. -1.
</event>
<event>
 5   0  0.3404132E-02  0.8165906E+03  0.7818609E-02  0.9536309E-01
       -2   -1    0    0    0  501  0.00000000000E+00  0.00000000000E+00  0.35946962957E+03  0.35946962958E+03  0.25500000920E-02 0. -1.
        2   -1    0    0  501    0  0.00000000000E+00  0.00000000000E+00 -0.46375279845E+03  0.46375279846E+03  0.25500000920E-02 0.  1.
    10030    2    1    2    0    0  0.00000000000E+00  0.00000000000E+00 -0.10428316888E+03  0.82322242804E+03  0.81659058696E+03 0.  0.
        5    1    3    3  502    0 -0.66399864037E+02 -0.16323078043E+03  0.31912876639E+03  0.36457988035E+03  0.46999998093E+01 0. -1.
       -5    1    3    3    0  502  0.66399864037E+02  0.16323078043E+03 -0.42341193527E+03  0.45864254769E+03  0.46999998093E+01 0.  1.
</event>
<event>
 5   0  0.3550586E-02  0.7946444E+03  0.7818609E-02  0.9567802E-01
        2   -1    0    0  501    0  0.00000000000E+00  0.00000000000E+00  0.60937100465E+03  0.60937100465E+03  0.25500000920E-02 0.  1.
       -2   -1    0    0    0  501  0.00000000000E+00  0.00000000000E+00 -0.25906210660E+03  0.25906210661E+03  0.25500000920E-02 0. -1.
    10030    2    1    2    0    0  0.00000000000E+00  0.00000000000E+00  0.35030889805E+03  0.86843311126E+03  0.79464441399E+03 0.  0.
        3    1    3    3  502    0  0.84719057338E+02 -0.10077332197E+03 -0.23453208112E+03  0.26895703816E+03  0.10100000352E+00 0. -1.
       -3    1    3    3    0  502 -0.84719057338E+02  0.10077332197E+03  0.58484097917E+03  0.59947607310E+03  0.10100000352E+00 0.  1.
</event>
<event>
 5   0  0.3343036E-02  0.7940936E+03  0.7818609E-02  0.9568606E-01
        2   -1    0    0  501    0  0.00000000000E+00  0.00000000000E+00  0.74017183374E+03  0.74017183375E+03  0.25500000920E-02 0.  1.
       -2   -1    0    0    0  501  0.00000000000E+00  0.00000000000E+00 -0.21298591284E+03  0.21298591285E+03  0.25500000920E-02 0. -1.
    10030    2    1    2    0    0  0.00000000000E+00  0.00000000000E+00  0.52718592091E+03  0.95315774660E+03  0.79409363094E+03 0.  0.
        4    1    3    3  502    0  0.20020721532E+03  0.32315130732E+03  0.40115729893E+03  0.55266489654E+03  0.12699999809E+01 0.  1.
       -4    1    3    3    0  502 -0.20020721532E+03 -0.32315130732E+03  0.12602862198E+03  0.40049285006E+03  0.12699999809E+01 0. -1.
</event>
<event>
 5   0  0.3467240E-02  0.7699440E+03  0.7818609E-02  0.9604571E-01
        2   -1    0    0  501    0  0.00000000000E+00  0.00000000000E+00  0.67225607176E+03  0.67225607176E+03  0.25500000920E-02 0. -1.
       -2   -1    0    0    0  501  0.00000000000E+00  0.00000000000E+00 -0.22045684388E+03  0.22045684389E+03  0.25500000920E-02 0.  1.
    10030    2    1    2    0    0  0.00000000000E+00  0.00000000000E+00  0.45179922788E+03  0.89271291565E+03  0.76994402878E+03 0.  0.
        2    1    3    3  502    0  0.16857603177E+02  0.32141114096E+03  0.47079972494E+03  0.57029964171E+03  0.25500000920E-02 0. -1.
       -2    1    3    3    0  502 -0.16857603177E+02 -0.32141114096E+03 -0.19000497064E+02  0.32241327394E+03  0.25500000920E-02 0.  1.
</event>
<event>
 5   0  0.3467240E-02  0.7903464E+03  0.7818609E-02  0.9574096E-01
        2   -1    0    0  501    0  0.00000000000E+00  0.00000000000E+00  0.31858338494E+03  0.31858338495E+03  0.25500000920E-02 0. -1.
       -2   -1    0    0    0  501  0.00000000000E+00  0.00000000000E+00 -0.49017577111E+03  0.49017577112E+03  0.25500000920E-02 0.  1.
    10030    2    1    2    0    0  0.00000000000E+00  0.00000000000E+00 -0.17159238617E+03  0.80875915607E+03  0.79034639591E+03 0.  0.
        2    1    3    3  502    0 -0.12177520626E+03  0.32761773709E+03 -0.27448083590E+03  0.44441232184E+03  0.25500000920E-02 0.  1.
       -2    1    3    3    0  502  0.12177520626E+03 -0.32761773709E+03  0.10288844973E+03  0.36434683423E+03  0.25500000920E-02 0. -1.
</event>
<event>
 5   0  0.3467240E-02  0.8133901E+03  0.7818609E-02  0.9540835E-01
        2   -1    0    0  501    0  0.00000000000E+00  0.00000000000E+00  0.47347255121E+03  0.47347255122E+03  0.25500000920E-02 0.  1.
       -2   -1    0    0    0  501  0.00000000000E+00  0.00000000000E+00 -0.34933567547E+03  0.34933567548E+03  0.25500000920E-02 0. -1.
    10030    2    1    2    0    0  0.00000000000E+00  0.00000000000E+00  0.12413687574E+03  0.82280822670E+03  0.81339007494E+03 0.  0.
        2    1    3    3  502    0  0.15316124160E+03 -0.15032176528E+03 -0.28739635228E+03  0.35868044601E+03  0.25500000920E-02 0. -1.
       -2    1    3    3    0  502 -0.15316124160E+03  0.15032176528E+03  0.41153322801E+03  0.46412778069E+03  0.25500000920E-02 0.  1.
</event>
<event>
 5   0  0.3550586E-02  0.7947648E+03  0.7818609E-02  0.9567626E-01
        2   -1    0    0  501    0  0.00000000000E+00  0.00000000000E+00  0.47243536199E+03  0.47243536200E+03  0.25500000920E-02 0. -1.
       -2   -1    0    0    0  501  0.00000000000E+00  0.00000000000E+00 -0.33425265174E+03  0.33425265175E+03  0.25500000920E-02 0.  1.
    10030    2    1    2    0    0  0.00000000000E+00  0.00000000000E+00  0.13818271025E+03  0.80668801375E+03  0.79476480176E+03 0.  0.
        3    1    3    3  502    0 -0.15769552516E+03  0.31044868081E+03 -0.12526632592E+03  0.37005124602E+03  0.10100000352E+00 0.  1.
       -3    1    3    3    0  502  0.15769552516E+03 -0.31044868081E+03  0.26344903616E+03  0.43663676773E+03  0.10100000352E+00 0. -1.
</event>
<event>
 5   0  0.3343036E-02  0.7952924E+03  0.7818609E-02  0.9566856E-01
       -2   -1    0    0    0  501  0.00000000000E+00  0.00000000000E+00  0.23575711682E+03  0.23575711683E+03  0.25500000920E-02 0.  1.
        2   -1    0    0  501    0  0.00000000000E+00  0.00000000000E+00 -0.67070091829E+03  0.67070091829E+03  0.25500000920E-02 0. -1.
    10030    2    1    2    0    0  0.00000000000E+00  0.00000000000E+00 -0.43494380147E+03  0.90645803512E+03  0.79529243615E+03 0.  0.
        4    1    3    3  502    0 -0.26544539392E+03  0.18745445644E+03  0.43735308410E+02  0.32789452648E+03  0.12699999809E+01 0.  1.
       -4    1    3    3    0  502  0.26544539392E+03 -0.18745445644E+03 -0.47867910988E+03  0.57856350864E+03  0.12699999809E+01 0. -1.
</event>
<event>
 5   0  0.3416160E-02  0.7934505E+03  0.7818609E-02  0.9569546E-01
       -2   -1    0    0    0  501  0.00000000000E+00  0.00000000000E+00  0.12301174390E+03  0.12301174392E+03  0.25500000920E-02 0.  1.
        2   -1    0    0  501    0  0.00000000000E+00  0.00000000000E+00 -0.12794787491E+04  0.12794787491E+04  0.25500000920E-02 0. -1.
    10030    2    1    2    0    0  0.00000000000E+00  0.00000000000E+00 -0.11564670052E+04  0.14024904930E+04  0.79345047035E+03 0.  0.
        1    1    3    3  502    0 -0.31430328856E+03 -0.20091030070E+03 -0.81695165815E+03  0.89808770057E+03  0.50400001928E-02 0. -1.
       -1    1    3    3    0  502  0.31430328856E+03  0.20091030070E+03 -0.33951534706E+03  0.50440279246E+03  0.50400001928E-02 0.  1.
</event>
<event>
 5   0  0.1989298E-02  0.6319846E+03  0.7818609E-02  0.9841184E-01
        1   -1    0    0  501    0  0.00000000000E+00  0.00000000000E+00  0.41422350714E+03  0.41422350717E+03  0.50400001928E-02 0. -1.
       -1   -1    0    0    0  501  0.00000000000E+00  0.00000000000E+00 -0.24105617244E+03  0.24105617250E+03  0.50400001928E-02 0.  1.
    10030    2    1    2    0    0  0.00000000000E+00  0.00000000000E+00  0.17316733469E+03  0.65527967967E+03  0.63198459853E+03 0.  0.
        1    1    3    3  502    0 -0.53194084400E+02 -0.81166830587E+02  0.39838990521E+03  0.41003924398E+03  0.50400001928E-02 0. -1.
       -1    1    3    3    0  502  0.53194084400E+02  0.81166830587E+02 -0.22522257051E+03  0.24524043569E+03  0.50400001928E-02 0.  1.
</event>
<event>
 5   0  0.2129257E-02  0.7962357E+03  0.7818609E-02  0.9565482E-01
        1   -1    0    0  501    0  0.00000000000E+00  0.00000000000E+00  0.19452130009E+04  0.19452130009E+04  0.50400001928E-02 0. -1.
       -1   -1    0    0    0  501  0.00000000000E+00  0.00000000000E+00 -0.81480965549E+02  0.81480965704E+02  0.50400001928E-02 0.  1.
    10030    2    1    2    0    0  0.00000000000E+00  0.00000000000E+00  0.18637320353E+04  0.20266939666E+04  0.79623572810E+03 0.  0.
        3    1    3    3  502    0  0.24586585573E+03  0.30726365389E+03  0.77836569413E+03  0.87218927763E+03  0.10100000352E+00 0.  1.
       -3    1    3    3    0  502 -0.24586585573E+03 -0.30726365389E+03  0.10853663412E+04  0.11545046890E+04  0.10100000352E+00 0. -1.
</event>
<event>
 5   0  0.1989298E-02  0.8258522E+03  0.7818609E-02  0.9523333E-01
       -1   -1    0    0    0  501  0.00000000000E+00  0.00000000000E+00  0.68897482413E+02  0.68897482598E+02  0.50400001928E-02 0.  1.
        1   -1    0    0  501    0  0.00000000000E+00  0.00000000000E+00 -0.24748070325E+04  0.24748070325E+04  0.50400001928E-02 0. -1.
    10030    2    1    2    0    0  0.00000000000E+00  0.00000000000E+00 -0.24059095501E+04  0.25437045151E+04  0.82585222465E+03 0.  0.
        1    1    3    3  502    0 -0.88563261848E+02 -0.22677168133E+03 -0.17566467088E+03  0.30021146451E+03  0.50400001928E-02 0.  1.
       -1    1    3    3    0  502  0.88563261848E+02  0.22677168133E+03 -0.22302448792E+04  0.22434930506E+04  0.50400001928E-02 0. -1.
</event>
<event>
 5   0  0.3343036E-02  0.8141767E+03  0.7818609E-02  0.9539721E-01
        2   -1    0    0  501    0  0.00000000000E+00  0.00000000000E+00  0.71329978399E+03  0.71329978399E+03  0.25500000920E-02 0. -1.
       -2   -1    0    0    0  501  0.00000000000E+00  0.00000000000E+00 -0.23232995715E+03  0.23232995717E+03  0.25500000920E-02 0.  1.
    10030    2    1    2    0    0  0.00000000000E+00  0.00000000000E+00  0.48096982684E+03  0.94562974116E+03  0.81417665960E+03 0.  0.
        4    1    3    3  502    0  0.24908065280E+03  0.27806688212E+03  0.51924765739E+02  0.37690868486E+03  0.12699999809E+01 0.  1.
       -4    1    3    3    0  502 -0.24908065280E+03 -0.27806688212E+03  0.42904506110E+03  0.56872105630E+03  0.12699999809E+01 0. -1.
</event>
<event>
 5   0  0.3467240E-02  0.7087725E+03  0.7818609E-02  0.9702347E-01
        2   -1    0    0  501    0  0.00000000000E+00  0.00000000000E+00  0.34849374812E+03  0.34849374812E+03  0.25500000920E-02 0.  1.
       -2   -1    0    0    0  501  0.00000000000E+00  0.00000000000E+00 -0.36037834430E+03  0.36037834431E+03  0.25500000920E-02 0. -1.
    10030    2    1    2    0    0  0.00000000000E+00  0.00000000000E+00 -0.11884596183E+02  0.70887209243E+03  0.70877245982E+03 0.  0.
        2    1    3    3  502    0  0.18563401913E+03 -0.10229532586E+02 -0.30768815179E+03  0.35949496680E+03  0.25500000920E-02 0. -1.
       -2    1    3    3    0  502 -0.18563401913E+03  0.10229532586E+02  0.29580355561E+03  0.34937712563E+03  0.25500000920E-02 0.  1.
</event>
<event>
 5   0  0.3467240E-02  0.7915043E+03  0.7818609E-02  0.9572396E-01
        2   -1    0    0  501    0  0.00000000000E+00  0.00000000000E+00  0.55076861677E+03  0.55076861678E+03  0.25500000920E-02 0. -1.
       -2   -1    0    0    0  501  0.00000000000E+00  0.00000000000E+00 -0.28436582544E+03  0.28436582545E+03  0.25500000920E-02 0.  1.
    10030    2    1    2    0    0  0.00000000000E+00  0.00000000000E+00  0.26640279133E+03  0.83513444223E+03  0.79150432050E+03 0.  0.
        2    1    3    3  502    0 -0.69892973870E+02 -0.10146425223E+03  0.53001709441E+03  0.54414900776E+03  0.25500000920E-02 0. -1.
       -2    1    3    3    0  502  0.69892973870E+02  0.10146425223E+03 -0.26361430308E+03  0.29098543447E+03  0.25500000920E-02 0.  1.
</event>
<event>
 5   0  0.3416160E-02  0.7828531E+03  0.7818609E-02  0.9585174E-01
        2   -1    0    0  501    0  0.00000000000E+00  0.00000000000E+00  0.77159393384E+03  0.77159393384E+03  0.25500000920E-02 0.  1.
       -2   -1    0    0    0  501  0.00000000000E+00  0.00000000000E+00 -0.19856913472E+03  0.19856913473E+03  0.25500000920E-02 0. -1.
    10030    2    1    2    0    0  0.00000000000E+00  0.00000000000E+00  0.57302479912E+03  0.97016306858E+03  0.78285308917E+03 0.  0.
        1    1    3    3  502    0 -0.33751313884E+03 -0.14509533868E+03  0.11911073532E+03  0.38620608940E+03  0.50400001928E-02 0. -1.
       -1    1    3    3    0  502  0.33751313884E+03  0.14509533868E+03  0.45391406380E+03  0.58395697918E+03  0.50400001928E-02 0.  1.
</event>
<event>
 5   0  0.3404132E-02  0.7581892E+03  0.7818609E-02  0.9622590E-01
       -2   -1    0    0    0  501  0.00000000000E+00  0.00000000000E+00  0.14180225130E+03  0.14180225132E+03  0.25500000920E-02 0.  1.
        2   -1    0    0  501    0  0.00000000000E+00  0.00000000000E+00 -0.10134727570E+04  0.10134727570E+04  0.25500000920E-02 0. -1.
    10030    2    1    2    0    0  0.00000000000E+00  0.00000000000E+00 -0.87167050571E+03  0.11552750083E+04  0.75818920750E+03 0.  0.
        5    1    3    3  502    0  0.19528063044E+02  0.32456734075E+03 -0.73272919716E+03  0.80164797155E+03  0.46999998093E+01 0. -1.
       -5    1    3    3    0  502 -0.19528063044E+02 -0.32456734075E+03 -0.13894130856E+03  0.35362703679E+03  0.46999998093E+01 0.  1.
</event>
<event>
 5   0  0.2063692E-02  0.7974143E+03  0.7818609E-02  0.9563767E-01
       -1   -1    0    0    0  501  0.00000000000E+00  0.00000000000E+00  0.17866854985E+03  0.17866854992E+03  0.50400001928E-02 0.  1.
        1   -1    0    0  501    0  0.00000000000E+00  0.00000000000E+00 -0.88973351185E+03  0.88973351186E+03  0.50400001928E-02 0. -1.
    10030    2    1    2    0    0  0.00000000000E+00  0.00000000000E+00 -0.71106496200E+03  0.10684020618E+04  0.79741431228E+03 0.  0.
        2    1    3    3  502    0 -0.10417811987E+03 -0.31537881488E+03 -0.65105761924E+03  0.73088501224E+03  0.25500000920E-02 0. -1.
       -2    1    3    3    0  502  0.10417811987E+03  0.31537881488E+03 -0.60007342763E+02  0.33751704954E+03  0.25500000920E-02 0.  1.
</event>
<event>
 5   0  0.2129257E-02  0.8129189E+03  0.7818609E-02  0.9541504E-01
       -1   -1    0    0    0  501  0.00000000000E+00  0.00000000000E+00  0.13653359673E+03  0.13653359682E+03  0.50400001928E-02 0.  1.
        1   -1    0    0  501    0  0.00000000000E+00  0.00000000000E+00 -0.12100265443E+04  0.12100265443E+04  0.50400001928E-02 0. -1.
    10030    2    1    2    0    0  0.00000000000E+00  0.00000000000E+00 -0.10734929476E+04  0.13465601412E+04  0.81291887986E+03 0.  0.
        3    1    3    3  502    0  0.14401458508E+03  0.50955711572E+02 -0.11606648536E+04  0.11706748472E+04  0.10100000352E+00 0. -1.
       -3    1    3    3    0  502 -0.14401458508E+03 -0.50955711572E+02  0.87171905965E+02  0.17588529401E+03  0.10100000352E+00 0.  1.
</event>
<event>
 5   0  0.1989298E-02  0.8268603E+03  0.7818609E-02  0.9521932E-01
       -1   -1    0    0    0  501  0.00000000000E+00  0.00000000000E+00  0.12260877967E+03  0.12260877978E+03  0.50400001928E-02 0.  1.
        1   -1    0    0  501    0  0.00000000000E+00  0.00000000000E+00 -0.13940640617E+04  0.13940640617E+04  0.50400001928E-02 0. -1.
    10030    2    1    2    0    0  0.00000000000E+00  0.00000000000E+00 -0.12714552821E+04  0.15166728415E+04  0.82686031101E+03 0.  0.
        1    1    3    3  502    0 -0.12650930279E+02  0.14857877467E+03  0.71564585107E+02  0.16540008521E+03  0.50400001928E-02 0.  1.
       -1    1    3    3    0  502  0.12650930279E+02 -0.14857877467E+03 -0.13430198672E+04  0.13512727563E+04  0.50400001928E-02 0. -1.
</event>
<event>
 5   0  0.2063692E-02  0.8033927E+03  0.7818609E-02  0.9555119E-01
        1   -1    0    0  501    0  0.00000000000E+00  0.00000000000E+00  0.73027966745E+03  0.73027966747E+03  0.50400001928E-02 0. -1.
       -1   -1    0    0    0  501  0.00000000000E+00  0.00000000000E+00 -0.22095640817E+03  0.22095640823E+03  0.50400001928E-02 0.  1.
    10030    2    1    2    0    0  0.00000000000E+00  0.00000000000E+00  0.50932325928E+03  0.95123607570E+03  0.80339273663E+03 0.  0.
        2    1    3    3  502    0 -0.32824168125E+03 -0.60871345901E+02  0.51918443291E+03  0.61725229643E+03  0.25500000920E-02 0. -1.
       -2    1    3    3    0  502  0.32824168125E+03  0.60871345901E+02 -0.98611736374E+01  0.33398377927E+03  0.25500000920E-02 0.  1.
</event>
<event>
 5   0  0.3550586E-02  0.7953318E+03  0.7818609E-02  0.9566799E-01
        2   -1    0    0  501    0  0.00000000000E+00  0.00000000000E+00  0.37216488165E+03  0.37216488166E+03  0.25500000920E-02 0.  1.
       -2   -1    0    0    0  501  0.00000000000E+00  0.00000000000E+00 -0.42491427131E+03  0.42491427132E+03  0.25500000920E-02 0. -1.
    10030    2    1    2    0    0  0.00000000000E+00  0.00000000000E+00 -0.52749389663E+02  0.79707915297E+03  0.79533180371E+03 0.  0.
        3    1    3    3  502    0 -0.62966257922E+02 -0.20569109518E+03  0.30882175122E+03  0.37635682603E+03  0.10100000352E+00 0.  1.
       -3    1    3    3    0  502  0.62966257922E+02  0.20569109518E+03 -0.36157114088E+03  0.42072232694E+03  0.10100000352E+00 0. -1.
</event>
<event>
 5   0  0.2063692E-02  0.7842346E+03  0.7818609E-02  0.9583121E-01
       -1   -1    0    0    0  501  0.00000000000E+00  0.00000000000E+00  0.22966775132E+03  0.22966775137E+03  0.50400001928E-02 0.  1.
        1   -1    0    0  501    0  0.00000000000E+00  0.00000000000E+00 -0.66947127349E+03  0.66947127351E+03  0.50400001928E-02 0. -1.
    10030    2    1    2    0    0  0.00000000000E+00  0.00000000000E+00 -0.43980352217E+03  0.89913902488E+03  0.78423456182E+03 0.  0.
        2    1    3    3  502    0  0.30379506895E+03  0.18313497769E+03 -0.41149756719E+03  0.54328639940E+03  0.25500000920E-02 0. -1.
       -2    1    3    3    0  502 -0.30379506895E+03 -0.18313497769E+03 -0.28305954986E+02  0.35585262548E+03  0.25500000920E-02 0.  1.
</event>
<event>
 5   0  0.3404132E-02  0.7677069E+03  0.7818609E-02  0.9607973E-01
       -2   -1    0    0    0  501  0.00000000000E+00  0.00000000000E+00  0.12212681363E+03  0.12212681366E+03  0.25500000920E-02 0. -1.
        2   -1    0    0  501    0  0.00000000000E+00  0.00000000000E+00 -0.12064792369E+04  0.12064792369E+04  0.25500000920E-02 0.  1.
    10030    2    1    2    0    0  0.00000000000E+00  0.00000000000E+00 -0.10843524233E+04  0.13286060506E+04  0.76770688402E+03 0.  0.
        5    1    3    3  502    0  0.27731187101E+03  0.26536577780E+03 -0.54094623300E+03  0.66329916841E+03  0.46999998093E+01 0.  1.
       -5    1    3    3    0  502 -0.27731187101E+03 -0.26536577780E+03 -0.54340619031E+03  0.66530688219E+03  0.46999998093E+01 0. -1.
</event>
<event>
 5   0  0.3343036E-02  0.8035656E+03  0.7818609E-02  0.9554870E-01
        2   -1    0    0  501    0  0.00000000000E+00  0.00000000000E+00  0.42827389394E+03  0.42827389395E+03  0.25500000920E-02 0. -1.
       -2   -1    0    0    0  501  0.00000000000E+00  0.00000000000E+00 -0.37693031457E+03  0.37693031458E+03  0.25500000920E-02 0.  1.
    10030    2    1    2    0    0  0.00000000000E+00  0.00000000000E+00  0.51343579370E+02  0.80520420853E+03  0.80356558805E+03 0.  0.
        4    1    3    3  502    0  0.67735789838E+02 -0.25546008013E+03  0.32891045549E+03  0.42193801724E+03  0.12699999809E+01 0. -1.
       -4    1    3    3    0  502 -0.67735789838E+02  0.25546008013E+03 -0.27756687612E+03  0.38326619129E+03  0.12699999809E+01 0.  1.
</event>
<event>
 5   0  0.2077795E-02  0.8053314E+03  0.7818609E-02  0.9552332E-01
       -1   -1    0    0    0  501  0.00000000000E+00  0.00000000000E+00  0.20878971181E+03  0.20878971187E+03  0.50400001928E-02 0. -1.
        1   -1    0    0  501    0  0.00000000000E+00  0.00000000000E+00 -0.77656915325E+03  0.77656915326E+03  0.50400001928E-02 0.  1.
    10030    2    1    2    0    0  0.00000000000E+00  0.00000000000E+00 -0.56777944144E+03  0.98535886513E+03  0.80533135974E+03 0.  0.
        5    1    3    3  502    0 -0.13158771906E+03  0.28028131350E+03 -0.59880600234E+03  0.67413919997E+03  0.46999998093E+01 0.  1.
       -5    1    3    3    0  502  0.13158771906E+03 -0.28028131350E+03  0.31026560905E+02  0.31121966516E+03  0.46999998093E+01 0. -1.
</event>
<event>
 5   0  0.2129257E-02  0.7974858E+03  0.7818609E-02  0.9563663E-01
       -1   -1    0    0    0  501  0.00000000000E+00  0.00000000000E+00  0.14360866771E+03  0.14360866780E+03  0.50400001928E-02 0.  1.
        1   -1    0    0  501    0  0.00000000000E+00  0.00000000000E+00 -0.11071469416E+04  0.11071469416E+04  0.50400001928E-02 0. -1.
    10030    2    1    2    0    0  0.00000000000E+00  0.00000000000E+00 -0.96353827384E+03  0.12507556094E+04  0.79748579248E+03 0.  0.
        3    1    3    3  502    0  0.26320013176E+03  0.20343967241E+02 -0.13070210415E+02  0.26430858284E+03  0.10100000352E+00 0.  1.
       -3    1    3    3    0  502 -0.26320013176E+03 -0.20343967241E+02 -0.95046806343E+03  0.98644702653E+03  0.10100000352E+00 0. -1.
</event>
<event>
 5   0  0.2132540E-02  0.8004986E+03  0.7818609E-02  0.9559296E-01
       -1   -1    0    0    0  501  0.00000000000E+00  0.00000000000E+00  0.56582157955E+03  0.56582157958E+03  0.50400001928E-02 0.  1.
        1   -1    0    0  501    0  0.00000000000E+00  0.00000000000E+00 -0.28312722476E+03  0.28312722480E+03  0.50400001928E-02 0. -1.
    10030    2    1    2    0    0  0.00000000000E+00  0.00000000000E+00  0.28269435479E+03  0.84894880438E+03  0.80049857853E+03 0.  0.
        4    1    3    3  502    0  0.21338810286E+02 -0.18299419364E+03  0.51817795439E+03  0.54995656651E+03  0.12699999809E+01 0.  1.
       -4    1    3    3    0  502 -0.21338810286E+02  0.18299419364E+03 -0.23548359959E+03  0.29899223787E+03  0.12699999809E+01 0. -1.
</event>
<event>
 5   0  0.2077795E-02  0.7503029E+03  0.7818609E-02  0.9634875E-01
        1   -1    0    0  501    0  0.00000000000E+00  0.00000000000E+00  0.17300400446E+03  0.17300400453E+03  0.50400001928E-02 0.  1.
       -1   -1    0    0    0  501  0.00000000000E+00  0.00000000000E+00 -0.81349919629E+03  0.81349919631E+03  0.50400001928E-02 0. -1.
    10030    2    1    2    0    0  0.00000000000E+00  0.00000000000E+00 -0.64049519183E+03  0.98650320084E+03  0.75030292183E+03 0.  0.
        5    1    3    3  502    0  0.19004859129E+03  0.28802147959E+03 -0.12682489847E+03  0.36767034777E+03  0.46999998093E+01 0.  1.
       -5    1    3    3    0  502 -0.19004859129E+03 -0.28802147959E+03 -0.51367029337E+03  0.61883285307E+03  0.46999998093E+01 0. -1.
</event>
<event>
 5   0  0.3467240E-02  0.7890221E+03  0.7818609E-02  0.9576045E-01
        2   -1    0    0  501    0  0.00000000000E+00  0.00000000000E+00  0.80716310734E+03  0.80716310734E+03  0.25500000920E-02 0.  1.
       -2   -1    0    0    0  501  0.00000000000E+00  0.00000000000E+00 -0.19282219485E+03  0.19282219487E+03  0.25500000920E-02 0. -1.
    10030    2    1    2    0    0  0.00000000000E+00  0.00000000000E+00  0.61434091249E+03  0.99998530221E+03  0.78902208327E+03 0.  0.
        2    1    3    3  502    0 -0.23848836252E+03  0.46336677859E+02 -0.86766868411E+02  0.25797727852E+03  0.25500000920E-02 0. -1.
       -2    1    3    3    0  502  0.23848836252E+03 -0.46336677859E+02  0.70110778090E+03  0.74200802369E+03  0.25500000920E-02 0.  1.
</event>
<event>
 5   0  0.2063692E-02  0.7896167E+03  0.7818609E-02  0.9575169E-01
        1   -1    0    0  501    0  0.00000000000E+00  0.00000000000E+00  0.10261786034E+04  0.10261786034E+04  0.50400001928E-02 0. -1.
       -1   -1    0    0    0  501  0.00000000000E+00  0.00000000000E+00 -0.15189715974E+03  0.15189715982E+03  0.50400001928E-02 0.  1.
    10030    2    1    2    0    0  0.00000000000E+00  0.00000000000E+00  0.87428144365E+03  0.11780757632E+04  0.78961665458E+03 0.  0.
        2    1    3    3  502    0  0.36183489802E+03  0.14299334883E+03  0.53724688745E+03  0.66332933699E+03  0.25500000920E-02 0.  1.
       -2    1    3    3    0  502 -0.36183489802E+03 -0.14299334883E+03  0.33703455620E+03  0.51474642623E+03  0.25500000920E-02 0. -1.
</event>
<event>
 5   0  0.3404132E-02  0.8035098E+03  0.7818609E-02  0.9554951E-01
       -2   -1    0    0    0  501  0.00000000000E+00  0.00000000000E+00  0.33704266088E+03  0.33704266089E+03  0.25500000920E-02 0. -1.
        2   -1    0    0  501    0  0.00000000000E+00  0.00000000000E+00 -0.47889193719E+03  0.47889193719E+03  0.25500000920E-02 0.  1.
    10030    2    1    2    0    0  0.00000000000E+00  0.00000000000E+00 -0.14184927631E+03  0.81593459808E+03  0.80350983264E+03 0.  0.
        5    1    3    3  502    0  0.26062010667E+03 -0.28077350092E+03  0.51893197079E+02  0.38661556192E+03  0.46999998093E+01 0. -1.
       -5    1    3    3    0  502 -0.26062010667E+03  0.28077350092E+03 -0.19374247339E+03  0.42931903616E+03  0.46999998093E+01 0.  1.
</event>
<event>
 5   0  0.1989298E-02  0.8088270E+03  0.7818609E-02  0.9547328E-01
        1   -1    0    0  501    0  0.00000000000E+00  0.00000000000E+00  0.56296923156E+03  0.56296923158E+03  0.50400001928E-02 0. -1.
       -1   -1    0    0    0  501  0.00000000000E+00  0.00000000000E+00 -0.29051367597E+03  0.29051367601E+03  0.50400001928E-02 0.  1.
    10030    2    1    2    0    0  0.00000000000E+00  0.00000000000E+00  0.27245555559E+03  0.85348290760E+03  0.80882695540E+03 0.  0.
        1    1    3    3  502    0  0.26312436762E+03 -0.21719208146E+03 -0.92885252979E+02  0.35360218230E+03  0.50400001928E-02 0.  1.
       -1    1    3    3    0  502 -0.26312436762E+03  0.21719208146E+03  0.36534080857E+03  0.49988072529E+03  0.50400001928E-02 0. -1.
</event>
<event>
 5   0  0.3550586E-02  0.8000456E+03  0.7818609E-02  0.9559951E-01
        2   -1    0    0  501    0  0.00000000000E+00  0.00000000000E+00  0.51663861341E+03  0.51663861342E+03  0.25500000920E-02 0. -1.
       -2   -1    0    0    0  501  0.00000000000E+00  0.00000000000E+00 -0.30972954635E+03  0.30972954636E+03  0.25500000920E-02 0.  1.
    10030    2    1    2    0    0  0.00000000000E+00  0.00000000000E+00  0.20690906706E+03  0.82636815978E+03  0.80004560712E+03 0.  0.
        3    1    3    3  502    0 -0.40703417176E+02  0.35197805387E+03  0.29523211265E+03  0.46120204804E+03  0.10100000352E+00 0. -1.
       -3    1    3    3    0  502  0.40703417176E+02 -0.35197805387E+03 -0.88323045592E+02  0.36516611174E+03  0.10100000352E+00 0.  1.
</event>
<event>
 5   0  0.3404132E-02  0.8066251E+03  0.7818609E-02  0.9550477E-01
        2   -1    0    0  501    0  0.00000000000E+00  0.00000000000E+00  0.15001869144E+04  0.15001869144E+04  0.25500000920E-02 0. -1.
       -2   -1    0    0    0  501  0.00000000000E+00  0.00000000000E+00 -0.10842717434E+03  0.10842717437E+03  0.25500000920E-02 0.  1.
    10030    2    1    2    0    0  0.00000000000E+00  0.00000000000E+00  0.13917597401E+04  0.16086140888E+04  0.80662513757E+03 0.  0.
        5    1    3    3  502    0  0.20650936793E+03 -0.22829841728E+03  0.17632966022E+03  0.35479645637E+03  0.46999998093E+01 0.  1.
       -5    1    3    3    0  502 -0.20650936793E+03  0.22829841728E+03  0.12154300798E+04  0.12538176324E+04  0.46999998093E+01 0. -1.
</event>
<event>
 5   0  0.3404132E-02  0.7979608E+03  0.7818609E-02  0.9562973E-01
        2   -1    0    0  501    0  0.00000000000E+00  0.00000000000E+00  0.37964214094E+03  0.37964214095E+03  0.25500000920E-02 0.  1.
       -2   -1    0    0    0  501  0.00000000000E+00  0.00000000000E+00 -0.41930374724E+03  0.41930374724E+03  0.25500000920E-02 0. -1.
    10030    2    1    2    0    0  0.00000000000E+00  0.00000000000E+00 -0.39661606298E+02  0.79894588819E+03  0.79796083190E+03 0.  0.
        5    1    3    3  502    0  0.13743331918E+03 -0.31713117423E+03 -0.21933335568E+03  0.40937673334E+03  0.46999998093E+01 0.  1.
       -5    1    3    3    0  502 -0.13743331918E+03  0.31713117423E+03  0.17967174938E+03  0.38956915485E+03  0.46999998093E+01 0. -1.
</event>
<event>
 5   0  0.3550586E-02  0.8121569E+03  0.7818609E-02  0.9542585E-01
        2   -1    0    0  501    0  0.00000000000E+00  0.00000000000E+00  0.14255709482E+04  0.14255709482E+04  0.25500000920E-02 0. -1.
       -2   -1    0    0    0  501  0.00000000000E+00  0.00000000000E+00 -0.11567274190E+03  0.11567274192E+03  0.25500000920E-02 0.  1.
    10030    2    1    2    0    0  0.00000000000E+00  0.00000000000E+00  0.13098982063E+04  0.15412436901E+04  0.81215688230E+03 0.  0.
        3    1    3    3  502    0  0.33458970323E+03 -0.20836787068E+02  0.10898337714E+04  0.11402289686E+04  0.10100000352E+00 0. -1.
       -3    1    3    3    0  502 -0.33458970323E+03  0.20836787068E+02  0.22006443484E+03  0.40101472153E+03  0.10100000352E+00 0.  1.
</event>
<event>
 5   0  0.1989298E-02  0.8087495E+03  0.7818609E-02  0.9547438E-01
        1   -1    0    0  501    0  0.00000000000E+00  0.00000000000E+00  0.58116337178E+03  0.58116337180E+03  0.50400001928E-02 0. -1.
       -1   -1    0    0    0  501  0.00000000000E+00  0.00000000000E+00 -0.28136482942E+03  0.28136482947E+03  0.50400001928E-02 0.  1.
    10030    2    1    2    0    0  0.00000000000E+00  0.00000000000E+00  0.29979854236E+03  0.86252820127E+03  0.80874948654E+03 0.  0.
        1    1    3    3  502    0  0.70785723823E+02 -0.38808578879E+03  0.24467793010E+03  0.46420737570E+03  0.50400001928E-02 0. -1.
       -1    1    3    3    0  502 -0.70785723823E+02  0.38808578879E+03  0.55120612267E+02  0.39832082557E+03  0.50400001928E-02 0.  1.
</event>
<event>
 5   0  0.2063692E-02  0.6738314E+03  0.7818609E-02  0.9763061E-01
       -1   -1    0    0    0  501  0.00000000000E+00  0.00000000000E+00  0.79236673823E+02  0.79236673983E+02  0.50400001928E-02 0.  1.
        1   -1    0    0  501    0  0.00000000000E+00  0.00000000000E+00 -0.14325714101E+04  0.14325714101E+04  0.50400001928E-02 0. -1.
    10030    2    1    2    0    0  0.00000000000E+00  0.00000000000E+00 -0.13533347362E+04  0.15118080841E+04  0.67383141416E+03 0.  0.
        2    1    3    3  502    0 -0.20104854090E+02  0.31677620656E+03 -0.93011297028E+03  0.98278253327E+03  0.25500000920E-02 0. -1.
       -2    1    3    3    0  502  0.20104854090E+02 -0.31677620656E+03 -0.42322176597E+03  0.52902555080E+03  0.25500000920E-02 0.  1.
</event>
<event>
 5   0  0.2077795E-02  0.8138131E+03  0.7818609E-02  0.9540236E-01
        1   -1    0    0  501    0  0.00000000000E+00  0.00000000000E+00  0.18123996083E+04  0.18123996083E+04  0.50400001928E-02 0. -1.
       -1   -1    0    0    0  501  0.00000000000E+00  0.00000000000E+00 -0.91355644980E+02  0.91355645119E+02  0.50400001928E-02 0.  1.
    10030    2    1    2    0    0  0.00000000000E+00  0.00000000000E+00  0.17210439633E+04  0.19037552534E+04  0.81381308742E+03 0.  0.
        5    1    3    3  502    0  0.19380510572E+03 -0.59902778700E+02  0.16856099837E+04  0.16977785100E+04  0.46999998093E+01 0. -1.
       -5    1    3    3    0  502 -0.19380510572E+03  0.59902778700E+02  0.35433979561E+02  0.20597674336E+03  0.46999998093E+01 0.  1.
</event>
<event>
 5   0  0.3467240E-02  0.8789449E+03  0.7818609E-02  0.9452291E-01
        2   -1    0    0  501    0  0.00000000000E+00  0.00000000000E+00  0.67835125803E+03  0.67835125803E+03  0.25500000920E-02 0.  1.
       -2   -1    0    0    0  501  0.00000000000E+00  0.00000000000E+00 -0.28471392241E+03  0.28471392242E+03  0.25500000920E-02 0. -1.
    10030    2    1    2    0    0  0.00000000000E+00  0.00000000000E+00  0.39363733562E+03  0.96306518045E+03  0.87894492991E+03 0.  0.
        2    1    3    3  502    0 -0.15177825445E+03 -0.17560582101E+03  0.60571229041E+03  0.64866125339E+03  0.25500000920E-02 0.  1.
       -2    1    3    3    0  502  0.15177825445E+03  0.17560582101E+03 -0.21207495479E+03  0.31440392706E+03  0.25500000920E-02 0. -1.
</event>
<event>
 5   0  0.2129257E-02  0.7398738E+03  0.7818609E-02  0.9651372E-01
        1   -1    0    0  501    0  0.00000000000E+00  0.00000000000E+00  0.91534333550E+03  0.91534333552E+03  0.50400001928E-02 0. -1.
       -1   -1    0    0    0  501  0.00000000000E+00  0.00000000000E+00 -0.14951036123E+03  0.14951036131E+03  0.50400001928E-02 0.  1.
    10030    2    1    2    0    0  0.00000000000E+00  0.00000000000E+00  0.76583297428E+03  0.10648536968E+04  0.73987380759E+03 0.  0.
        3    1    3    3  502    0  0.12882535967E+03 -0.31504729447E+03  0.17433867255E+03  0.38241960461E+03  0.10100000352E+00 0.  1.
       -3    1    3    3    0  502 -0.12882535967E+03  0.31504729447E+03  0.59149430173E+03  0.68243409222E+03  0.10100000352E+00 0. -1.
</event>
<event>
 5   0  0.2132540E-02  0.8038823E+03  0.7818609E-02  0.9554415E-01
       -1   -1    0    0    0  501  0.00000000000E+00  0.00000000000E+00  0.20013175309E+04  0.20013175309E+04  0.50400001928E-02 0. -1.
        1   -1    0    0  501    0  0.00000000000E+00  0.00000000000E+00 -0.80725156379E+02  0.80725156536E+02  0.50400001928E-02 0.  1.
    10030    2    1    2    0    0  0.00000000000E+00  0.00000000000E+00  0.19205923745E+04  0.20820426874E+04  0.80388225709E+03 0.  0.
        4    1    3    3  502    0 -0.38164026220E+03  0.10314920761E+03  0.11482443095E+04  0.12143951811E+04  0.12699999809E+01 0. -1.
       -4    1    3    3    0  502  0.38164026220E+03 -0.10314920761E+03  0.77234806505E+03  0.86764750633E+03  0.12699999809E+01 0.  1.
</event>
<event>
 5   0  0.3343036E-02  0.7893269E+03  0.7818609E-02  0.9575596E-01
       -2   -1    0    0    0  501  0.00000000000E+00  0.00000000000E+00  0.29798696108E+03  0.29798696109E+03  0.25500000920E-02 0.  1.
        2   -1    0    0  501    0  0.00000000000E+00  0.00000000000E+00 -0.52270489799E+03  0.52270489800E+03  0.25500000920E-02 0. -1.
    10030    2    1    2    0    0  0.00000000000E+00  0.00000000000E+00 -0.22471793691E+03  0.82069185909E+03  0.78932691352E+03 0.  0.
        4    1    3    3  502    0  0.10836327213E+03 -0.58144633665E+02  0.27755495202E+03  0.30358155652E+03  0.12699999809E+01 0.  1.
       -4    1    3    3    0  502 -0.10836327213E+03  0.58144633665E+02 -0.50227288893E+03  0.51711030257E+03  0.12699999809E+01 0. -1.
</event>
<event>
 5   0  0.1358000E-02  0.8017111E+03  0.7818609E-02  0.9557544E-01
        3   -1    0    0  501    0  0.00000000000E+00  0.00000000000E+00  0.18045660473E+03  0.18045663299E+03  0.10100000352E+00 0.  1.
       -3   -1    0    0    0  501  0.00000000000E+00  0.00000000000E+00 -0.89043661900E+03  0.89043662473E+03  0.10100000352E+00 0. -1.
    10030    2    1    2    0    0  0.00000000000E+00  0.00000000000E+00 -0.70998001428E+03  0.10708932577E+04  0.80171113798E+03 0.  0.
        3    1    3    3  502    0  0.36627927299E+03  0.12275109453E+03 -0.49796519975E+03  0.63023621555E+03  0.10100000352E+00 0. -1.
       -3    1    3    3    0  502 -0.36627927299E+03 -0.12275109453E+03 -0.21201481453E+03  0.44065704217E+03  0.10100000352E+00 0.  1.
</event>
<event>
 5   0  0.2132540E-02  0.8034938E+03  0.7818609E-02  0.9554974E-01
        1   -1    0    0  501    0  0.00000000000E+00  0.00000000000E+00  0.23758612539E+04  0.23758612539E+04  0.50400001928E-02 0.  1.
       -1   -1    0    0    0  501  0.00000000000E+00  0.00000000000E+00 -0.67933506704E+02  0.67933506891E+02  0.50400001928E-02 0. -1.
    10030    2    1    2    0    0  0.00000000000E+00  0.00000000000E+00  0.23079277472E+04  0.24437947608E+04  0.80349383732E+03 0.  0.
        4    1    3    3  502    0 -0.54235676441E+01  0.25057074102E+03  0.19900406473E+03  0.32003022048E+03  0.12699999809E+01 0. -1.
       -4    1    3    3    0  502  0.54235676441E+01 -0.25057074102E+03  0.21089236824E+04  0.21237645403E+04  0.12699999809E+01 0.  1.
</event>
<event>
 5   0  0.2132540E-02  0.7907313E+03  0.7818609E-02  0.9573531E-01
        1   -1    0    0  501    0  0.00000000000E+00  0.00000000000E+00  0.49022675256E+03  0.49022675259E+03  0.50400001928E-02 0. -1.
       -1   -1    0    0    0  501  0.00000000000E+00  0.00000000000E+00 -0.31886060826E+03  0.31886060830E+03  0.50400001928E-02 0.  1.
    10030    2    1    2    0    0  0.00000000000E+00  0.00000000000E+00  0.17136614431E+03  0.80908736089E+03  0.79073130843E+03 0.  0.
        4    1    3    3  502    0  0.29056077729E+03 -0.21627631216E+03  0.24782740150E+03  0.43888613824E+03  0.12699999809E+01 0. -1.
       -4    1    3    3    0  502 -0.29056077729E+03  0.21627631216E+03 -0.76461257193E+02  0.37020122265E+03  0.12699999809E+01 0.  1.
</event>
<event>
 5   0  0.1989298E-02  0.7887992E+03  0.7818609E-02  0.9576373E-01
        1   -1    0    0  501    0  0.00000000000E+00  0.00000000000E+00  0.23506256492E+04  0.23506256492E+04  0.50400001928E-02 0. -1.
       -1   -1    0    0    0  501  0.00000000000E+00  0.00000000000E+00 -0.66174319521E+02  0.66174319713E+02  0.50400001928E-02 0.  1.
    10030    2    1    2    0    0  0.00000000000E+00  0.00000000000E+00  0.22844513296E+04  0.24167999689E+04  0.78879922165E+03 0.  0.
        1    1    3    3  502    0  0.81945064473E+02  0.15395713332E+03  0.58397048064E+02  0.18392391835E+03  0.50400001928E-02 0.  1.
       -1    1    3    3    0  502 -0.81945064473E+02 -0.15395713332E+03  0.22260542816E+04  0.22328760505E+04  0.50400001928E-02 0. -1.
</event>
<event>
 5   0  0.3416160E-02  0.6835377E+03  0.7818609E-02  0.9745806E-01
       -2   -1    0    0    0  501  0.00000000000E+00  0.00000000000E+00  0.11406031572E+03  0.11406031575E+03  0.25500000920E-02 0.  1.
        2   -1    0    0  501    0  0.00000000000E+00  0.00000000000E+00 -0.10240718757E+04  0.10240718757E+04  0.25500000920E-02 0. -1.
    10030    2    1    2    0    0  0.00000000000E+00  0.00000000000E+00 -0.91001155999E+03  0.11381321915E+04  0.68353774288E+03 0.  0.
        1    1    3    3  502    0  0.10003735034E+03 -0.14735166293E+03  0.30684266594E+02  0.18072495199E+03  0.50400001928E-02 0.  1.
       -1    1    3    3    0  502 -0.10003735034E+03  0.14735166293E+03 -0.94069582658E+03  0.95740723948E+03  0.50400001928E-02 0. -1.
</event>
<event>
 5   0  0.2129257E-02  0.8071691E+03  0.7818609E-02  0.9549698E-01
        1   -1    0    0  501    0  0.00000000000E+00  0.00000000000E+00  0.79786940179E+03  0.79786940180E+03  0.50400001928E-02 0. -1.
       -1   -1    0    0    0  501  0.00000000000E+00  0.00000000000E+00 -0.20414428777E+03  0.20414428783E+03  0.50400001928E-02 0.  1.
    10030    2    1    2    0    0  0.00000000000E+00  0.00000000000E+00  0.59372511402E+03  0.10020136896E+04  0.80716907968E+03 0.  0.
        3    1    3    3  502    0  0.26333433977E+03 -0.27842144353E+03  0.13975406147E+03  0.40791504339E+03  0.10100000352E+00 0.  1.
       -3    1    3    3    0  502 -0.26333433977E+03  0.27842144353E+03  0.45397105255E+03  0.59409864625E+03  0.10100000352E+00 0. -1.
</event>
<event>
 5   0  0.3467240E-02  0.7800279E+03  0.7818609E-02  0.9589384E-01
        2   -1    0    0  501    0  0.00000000000E+00  0.00000000000E+00  0.25132166467E+04  0.25132166467E+04  0.25500000920E-02 0.  1.
       -2   -1    0    0    0  501  0.00000000000E+00  0.00000000000E+00 -0.60524387769E+02  0.60524387822E+02  0.25500000920E-02 0. -1.
    10030    2    1    2    0    0  0.00000000000E+00  0.00000000000E+00  0.24526922589E+04  0.25737410345E+04  0.78002794551E+03 0.  0.
        2    1    3    3  502    0  0.37820796347E+03  0.85475442553E+01  0.15393093354E+04  0.15851143663E+04  0.25500000920E-02 0. -1.
       -2    1    3    3    0  502 -0.37820796347E+03 -0.85475442553E+01  0.91338292355E+03  0.98862666826E+03  0.25500000920E-02 0.  1.
</event>
<event>
 5   0  0.3550586E-02  0.8150244E+03  0.7818609E-02  0.9538521E-01
        2   -1    0    0  501    0  0.00000000000E+00  0.00000000000E+00  0.41297061401E+03  0.41297061402E+03  0.25500000920E-02 0.  1.
       -2   -1    0    0    0  501  0.00000000000E+00  0.00000000000E+00 -0.40212593850E+03  0.40212593851E+03  0.25500000920E-02 0. -1.
    10030    2    1    2    0    0  0.00000000000E+00  0.00000000000E+00  0.10844675512E+02  0.81509655253E+03  0.81502440636E+03 0.  0.
        3    1    3    3  502    0 -0.27410531553E+03  0.24870950404E+03  0.17595442272E+03  0.40981716714E+03  0.10100000352E+00 0.  1.
       -3    1    3    3    0  502  0.27410531553E+03 -0.24870950404E+03 -0.16510974721E+03  0.40527938540E+03  0.10100000352E+00 0. -1.
</event>
<event>
 5   0  0.1358000E-02  0.7856708E+03  0.7818609E-02  0.9580993E-01
       -3   -1    0    0    0  501  0.00000000000E+00  0.00000000000E+00  0.12167726619E+04  0.12167726661E+04  0.10100000352E+00 0. -1.
        3   -1    0    0  501    0  0.00000000000E+00  0.00000000000E+00 -0.12682700218E+03  0.12682704240E+03  0.10100000352E+00 0.  1.
    10030    2    1    2    0    0  0.00000000000E+00  0.00000000000E+00  0.10899456597E+04  0.13435997085E+04  0.78567081880E+03 0.  0.
        4    1    3    3  502    0 -0.13439931637E+03 -0.56042679343E+02 -0.78964957114E+02  0.16565335946E+03  0.12699999809E+01 0.  1.
       -4    1    3    3    0  502  0.13439931637E+03  0.56042679343E+02  0.11689106168E+04  0.11779463490E+04  0.12699999809E+01 0. -1.
</event>
<event>
 5   0  0.2077795E-02  0.7890148E+03  0.7818609E-02  0.9576055E-01
        1   -1    0    0  501    0  0.00000000000E+00  0.00000000000E+00  0.51527433147E+03  0.51527433150E+03  0.50400001928E-02 0. -1.
       -1   -1    0    0    0  501  0.00000000000E+00  0.00000000000E+00 -0.30204507084E+03  0.30204507088E+03  0.50400001928E-02 0.  1.
    10030    2    1    2    0    0  0.00000000000E+00  0.00000000000E+00  0.21322926063E+03  0.81731940238E+03  0.78901475773E+03 0.  0.
        5    1    3    3  502    0  0.35754118927E+03  0.16666534574E+03  0.10762027349E+03  0.40892206196E+03  0.46999998093E+01 0. -1.
       -5    1    3    3    0  502 -0.35754118927E+03 -0.16666534574E+03  0.10560898715E+03  0.40839734042E+03  0.46999998093E+01 0.  1.
</event>
<event>
 5   0  0.3343036E-02  0.8078251E+03  0.7818609E-02  0.9548759E-01
        2   -1    0    0  501    0  0.00000000000E+00  0.00000000000E+00  0.64656775007E+03  0.64656775007E+03  0.25500000920E-02 0. -1.
       -2   -1    0    0    0  501  0.00000000000E+00  0.00000000000E+00 -0.25232524002E+03  0.25232524003E+03  0.25500000920E-02 0.  1.
    10030    2    1    2    0    0  0.00000000000E+00  0.00000000000E+00  0.39424251005E+03  0.89889299010E+03  0.80782513635E+03 0.  0.
        4    1    3    3  502    0 -0.31156097595E+03  0.56435966729E+02 -0.81925009883E+02  0.32706051462E+03  0.12699999809E+01 0.  1.
       -4    1    3    3    0  502  0.31156097595E+03 -0.56435966729E+02  0.47616751994E+03  0.57183247549E+03  0.12699999809E+01 0. -1.
</event>
<event>
 5   0  0.3343036E-02  0.8269688E+03  0.7818609E-02  0.9521781E-01
       -2   -1    0    0    0  501  0.00000000000E+00  0.00000000000E+00  0.98304320883E+02  0.98304320916E+02  0.25500000920E-02 0. -1.
        2   -1    0    0  501    0  0.00000000000E+00  0.00000000000E+00 -0.17391845483E+04  0.17391845483E+04  0.25500000920E-02 0.  1.
    10030    2    1    2    0    0  0.00000000000E+00  0.00000000000E+00 -0.16408802274E+04  0.18374888692E+04  0.82696881668E+03 0.  0.
        4    1    3    3  502    0 -0.87950040771E+01  0.41251586277E+03 -0.76077514030E+03  0.86546352675E+03  0.12699999809E+01 0.  1.
       -4    1    3    3    0  502  0.87950040771E+01 -0.41251586277E+03 -0.88010508710E+03  0.97202534245E+03  0.12699999809E+01 0. -1.
</event>
<event>
 5   0  0.3467240E-02  0.7954073E+03  0.7818609E-02  0.9566689E-01
       -2   -1    0    0    0  501  0.00000000000E+00  0.00000000000E+00  0.24471643040E+03  0.24471643041E+03  0.25500000920E-02 0. -1.
        2   -1    0    0  501    0  0.00000000000E+00  0.00000000000E+00 -0.64633259258E+03  0.64633259259E+03  0.25500000920E-02 0.  1.
    10030    2    1    2    0    0  0.00000000000E+00  0.00000000000E+00 -0.40161616219E+03  0.89104902300E+03  0.79540732940E+03 0.  0.
        2    1    3    3  502    0 -0.13162616991E+03  0.26137606670E+03 -0.50249522317E+03  0.58150180237E+03  0.25500000920E-02 0.  1.
       -2    1    3    3    0  502  0.13162616991E+03 -0.26137606670E+03  0.10087906098E+03  0.30954722063E+03  0.25500000920E-02 0. -1.
</event>
<event>
 5   0  0.2129257E-02  0.8150179E+03  0.7818609E-02  0.9538530E-01
       -1   -1    0    0    0  501  0.00000000000E+00  0.00000000000E+00  0.23174942761E+03  0.23174942766E+03  0.50400001928E-02 0. -1.
        1   -1    0    0  501    0  0.00000000000E+00  0.00000000000E+00 -0.71656507154E+03  0.71656507155E+03  0.50400001928E-02 0.  1.
    10030    2    1    2    0    0  0.00000000000E+00  0.00000000000E+00 -0.48481564393E+03  0.94831449922E+03  0.81501790215E+03 0.  0.
        3    1    3    3  502    0 -0.39577444016E+03  0.61333025687E+02 -0.32997910637E+03  0.51892713204E+03  0.10100000352E+00 0.  1.
       -3    1    3    3    0  502  0.39577444016E+03 -0.61333025687E+02 -0.15483653756E+03  0.42938736718E+03  0.10100000352E+00 0. -1.
</event>
<event>
 5   0  0.3550586E-02  0.8113936E+03  0.7818609E-02  0.9543670E-01
       -2   -1    0    0    0  501  0.00000000000E+00  0.00000000000E+00  0.10837584089E+04  0.10837584089E+04  0.25500000920E-02 0.  1.
        2   -1    0    0  501    0  0.00000000000E+00  0.00000000000E+00 -0.15186956047E+03  0.15186956049E+03  0.25500000920E-02 0. -1.
    10030    2    1    2    0    0  0.00000000000E+00  0.00000000000E+00  0.93188884839E+03  0.12356279694E+04  0.81139364856E+03 0.  0.
        3    1    3    3  502    0  0.14492742344E+03  0.48859927483E+02 -0.10628660343E+03  0.18624742374E+03  0.10100000352E+00 0. -1.
       -3    1    3    3    0  502 -0.14492742344E+03 -0.48859927483E+02  0.10381754518E+04  0.10493805456E+04  0.10100000352E+00 0.  1.
</event>
<event>
 5   0  0.2077795E-02  0.8328415E+03  0.7818609E-02  0.9513660E-01
       -1   -1    0    0    0  501  0.00000000000E+00  0.00000000000E+00  0.72446101714E+03  0.72446101716E+03  0.50400001928E-02 0.  1.
        1   -1    0    0  501    0  0.00000000000E+00  0.00000000000E+00 -0.23935894682E+03  0.23935894687E+03  0.50400001928E-02 0. -1.
    10030    2    1    2    0    0  0.00000000000E+00  0.00000000000E+00  0.48510207032E+03  0.96381996404E+03  0.83284146417E+03 0.  0.
        5    1    3    3  502    0 -0.96269982285E+02  0.20216039373E+03  0.64882824869E+03  0.68639414375E+03  0.46999998093E+01 0.  1.
       -5    1    3    3    0  502  0.96269982285E+02 -0.20216039373E+03 -0.16372617836E+03  0.27742582029E+03  0.46999998093E+01 0. -1.
</event>
<event>
 5   0  0.2129257E-02  0.9223041E+03  0.7818609E-02  0.9398122E-01
       -1   -1    0    0    0  501  0.00000000000E+00  0.00000000000E+00  0.45282409036E+03  0.45282409039E+03  0.50400001928E-02 0.  1.
        1   -1    0    0  501    0  0.00000000000E+00  0.00000000000E+00 -0.46963318693E+03  0.46963318696E+03  0.50400001928E-02 0. -1.
    10030    2    1    2    0    0  0.00000000000E+00  0.00000000000E+00 -0.16809096564E+02  0.92245727735E+03  0.92230411622E+03 0.  0.
        3    1    3    3  502    0  0.20057934807E+03  0.40376815694E+03 -0.10537636615E+03  0.46299566756E+03  0.10100000352E+00 0.  1.
       -3    1    3    3    0  502 -0.20057934807E+03 -0.40376815694E+03  0.88567269588E+02  0.45946160979E+03  0.10100000352E+00 0. -1.
</event>
<event>
 5   0  0.1358000E-02  0.7352842E+03  0.7818609E-02  0.9658724E-01
       -3   -1    0    0    0  501  0.00000000000E+00  0.00000000000E+00  0.10573537400E+04  0.10573537449E+04  0.10100000352E+00 0.  1.
        3   -1    0    0  501    0  0.00000000000E+00  0.00000000000E+00 -0.12782921928E+03  0.12782925918E+03  0.10100000352E+00 0. -1.
    10030    2    1    2    0    0  0.00000000000E+00  0.00000000000E+00  0.92952452077E+03  0.11851830040E+04  0.73528424325E+03 0.  0.
        2    1    3    3  502    0  0.14192040886E+02 -0.41536786905E+02 -0.12359037975E+03  0.13115372913E+03  0.25500000920E-02 0. -1.
       -2    1    3    3    0  502 -0.14192040886E+02  0.41536786905E+02  0.10531149005E+04  0.10540292749E+04  0.25500000920E-02 0.  1.
</event>
<event>
 5   0  0.3343036E-02  0.8026947E+03  0.7818609E-02  0.9556125E-01
       -2   -1    0    0    0  501  0.00000000000E+00  0.00000000000E+00  0.96756483661E+03  0.96756483662E+03  0.25500000920E-02 0.  1.
        2   -1    0    0  501    0  0.00000000000E+00  0.00000000000E+00 -0.16647949698E+03  0.16647949700E+03  0.25500000920E-02 0. -1.
    10030    2    1    2    0    0  0.00000000000E+00  0.00000000000E+00  0.80108533963E+03  0.11340443336E+04  0.80269472979E+03 0.  0.
        4    1    3    3  502    0  0.37383447256E+02 -0.29604351946E+03  0.21347429861E+02  0.29915984557E+03  0.12699999809E+01 0. -1.
       -4    1    3    3    0  502 -0.37383447256E+02  0.29604351946E+03  0.77973790977E+03  0.83488448804E+03  0.12699999809E+01 0.  1.
</event>
<event>
 5   0  0.2132540E-02  0.8088002E+03  0.7818609E-02  0.9547366E-01
        1   -1    0    0  501    0  0.00000000000E+00  0.00000000000E+00  0.28337811376E+03  0.28337811381E+03  0.50400001928E-02 0. -1.
       -1   -1    0    0    0  501  0.00000000000E+00  0.00000000000E+00 -0.57710685808E+03  0.57710685810E+03  0.50400001928E-02 0.  1.
    10030    2    1    2    0    0  0.00000000000E+00  0.00000000000E+00 -0.29372874431E+03  0.86048497191E+03  0.80880022975E+03 0.  0.
        4    1    3    3  502    0  0.35681674353E+03  0.95358285400E+02  0.28361607434E+02  0.37042864999E+03  0.12699999809E+01 0. -1.
       -4    1    3    3    0  502 -0.35681674353E+03 -0.95358285400E+02 -0.32209035175E+03  0.49005632191E+03  0.12699999809E+01 0.  1.
</event>
<event>
 5   0  0.2129257E-02  0.7919787E+03  0.7818609E-02  0.9571701E-01
        1   -1    0    0  501    0  0.00000000000E+00  0.00000000000E+00  0.32061961266E+03  0.32061961270E+03  0.50400001928E-02 0.  1.
       -1   -1    0    0    0  501  0.00000000000E+00  0.00000000000E+00 -0.48907666668E+03  0.48907666671E+03  0.50400001928E-02 0. -1.
    10030    2    1    2    0    0  0.00000000000E+00  0.00000000000E+00 -0.16845705402E+03  0.80969627941E+03  0.79197871552E+03 0.  0.
        3    1    3    3  502    0  0.26308740056E+03  0.21721746746E+03  0.12128882994E+03  0.36209031880E+03  0.10100000352E+00 0.  1.
       -3    1    3    3    0  502 -0.26308740056E+03 -0.21721746746E+03 -0.28974588395E+03  0.44760596061E+03  0.10100000352E+00 0. -1.
</event>
<event>
 5   0  0.3467240E-02  0.7970401E+03  0.7818609E-02  0.9564311E-01
        2   -1    0    0  501    0  0.00000000000E+00  0.00000000000E+00  0.55386213897E+03  0.55386213897E+03  0.25500000920E-02 0.  1.
       -2   -1    0    0    0  501  0.00000000000E+00  0.00000000000E+00 -0.28674685181E+03  0.28674685183E+03  0.25500000920E-02 0. -1.
    10030    2    1    2    0    0  0.00000000000E+00  0.00000000000E+00  0.26711528715E+03  0.84060899080E+03  0.79704008606E+03 0.  0.
        2    1    3    3  502    0  0.79542979250E+02  0.37335598914E+03  0.25425300240E+03  0.45865713709E+03  0.25500000920E-02 0.  1.
       -2    1    3    3    0  502 -0.79542979250E+02 -0.37335598914E+03  0.12862284754E+02  0.38195185370E+03  0.25500000920E-02 0. -1.
</event>
<event>
 5   0  0.2129257E-02  0.7880324E+03  0.7818609E-02  0.9577503E-01
       -1   -1    0    0    0  501  0.00000000000E+00  0.00000000000E+00  0.21496776247E+03  0.21496776253E+03  0.50400001928E-02 0.  1.
        1   -1    0    0  501    0  0.00000000000E+00  0.00000000000E+00 -0.72219550404E+03  0.72219550405E+03  0.50400001928E-02 0. -1.
    10030    2    1    2    0    0  0.00000000000E+00  0.00000000000E+00 -0.50722774156E+03  0.93716326659E+03  0.78803236382E+03 0.  0.
        3    1    3    3  502    0 -0.16586380449E+03  0.29396510793E+03 -0.11865107134E+02  0.33773817860E+03  0.10100000352E+00 0.  1.
       -3    1    3    3    0  502  0.16586380449E+03 -0.29396510793E+03 -0.49536263443E+03  0.59942508798E+03  0.10100000352E+00 0. -1.
</event>
<event>
 5   0  0.3343036E-02  0.7132175E+03  0.7818609E-02  0.9694892E-01
        2   -1    0    0  501    0  0.00000000000E+00  0.00000000000E+00  0.77191751440E+03  0.77191751441E+03  0.25500000920E-02 0.  1.
       -2   -1    0    0    0  501  0.00000000000E+00  0.00000000000E+00 -0.16474531400E+03  0.16474531402E+03  0.25500000920E-02 0. -1.
    10030    2    1    2    0    0  0.00000000000E+00  0.00000000000E+00  0.60717220040E+03  0.93666282843E+03  0.71321747960E+03 0.  0.
        4    1    3    3  502    0  0.11210606458E+03 -0.10387529152E+03 -0.11955148416E+03  0.19404127440E+03  0.12699999809E+01 0. -1.
       -4    1    3    3    0  502 -0.11210606458E+03  0.10387529152E+03  0.72672368456E+03  0.74262155403E+03  0.12699999809E+01 0.  1.
</event>
<event>
 5   0  0.3416160E-02  0.7843780E+03  0.7818609E-02  0.9582909E-01
       -2   -1    0    0    0  501  0.00000000000E+00  0.00000000000E+00  0.35248153669E+03  0.35248153670E+03  0.25500000920E-02 0. -1.
        2   -1    0    0  501    0  0.00000000000E+00  0.00000000000E+00 -0.43636958766E+03  0.43636958767E+03  0.25500000920E-02 0.  1.
    10030    2    1    2    0    0  0.00000000000E+00  0.00000000000E+00 -0.83888050974E+02  0.78885112436E+03  0.78437802832E+03 0.  0.
        1    1    3    3  502    0  0.24383795117E+03 -0.29595839132E+03  0.40767959223E+02  0.38562979962E+03  0.50400001928E-02 0.  1.
       -1    1    3    3    0  502 -0.24383795117E+03  0.29595839132E+03 -0.12465601020E+03  0.40322132475E+03  0.50400001928E-02 0. -1.
</event>
<event>
 5   0  0.3416160E-02  0.8067469E+03  0.7818609E-02  0.9550302E-01
        2   -1    0    0  501    0  0.00000000000E+00  0.00000000000E+00  0.23322716707E+04  0.23322716707E+04  0.25500000920E-02 0. -1.
       -2   -1    0    0    0  501  0.00000000000E+00  0.00000000000E+00 -0.69764654575E+02  0.69764654622E+02  0.25500000920E-02 0.  1.
    10030    2    1    2    0    0  0.00000000000E+00  0.00000000000E+00  0.22625070161E+04  0.24020363253E+04  0.80674686870E+03 0.  0.
        1    1    3    3  502    0  0.96519938709E+02 -0.12941437889E+03  0.22318817703E+04  0.22377132115E+04  0.50400001928E-02 0. -1.
       -1    1    3    3    0  502 -0.96519938709E+02  0.12941437889E+03  0.30625245755E+02  0.16432311381E+03  0.50400001928E-02 0.  1.
</event>
<event>
 5   0  0.3550586E-02  0.8021995E+03  0.7818609E-02  0.9556839E-01
        2   -1    0    0  501    0  0.00000000000E+00  0.00000000000E+00  0.24568785209E+04  0.24568785209E+04  0.25500000920E-02 0.  1.
       -2   -1    0    0    0  501  0.00000000000E+00  0.00000000000E+00 -0.65481871501E+02  0.65481871551E+02  0.25500000920E-02 0. -1.
    10030    2    1    2    0    0  0.00000000000E+00  0.00000000000E+00  0.23913966494E+04  0.25223603925E+04  0.80219948558E+03 0.  0.
        3    1    3    3  502    0 -0.26383699472E+03 -0.21454853317E+03  0.52691433454E+03  0.62712021097E+03  0.10100000352E+00 0. -1.
       -3    1    3    3    0  502  0.26383699472E+03  0.21454853317E+03  0.18644823149E+04  0.18952401815E+04  0.10100000352E+00 0.  1.
</event>
<event>
 5   0  0.3404132E-02  0.7801547E+03  0.7818609E-02  0.9589195E-01
        2   -1    0    0  501    0  0.00000000000E+00  0.00000000000E+00  0.70672551899E+03  0.70672551899E+03  0.25500000920E-02 0.  1.
       -2   -1    0    0    0  501  0.00000000000E+00  0.00000000000E+00 -0.21530332536E+03  0.21530332537E+03  0.25500000920E-02 0. -1.
    10030    2    1    2    0    0  0.00000000000E+00  0.00000000000E+00  0.49142219363E+03  0.92202884436E+03  0.78015473942E+03 0.  0.
        5    1    3    3  502    0  0.10472703967E+03  0.16100174976E+03  0.64693079000E+03  0.67485617232E+03  0.46999998093E+01 0.  1.
       -5    1    3    3    0  502 -0.10472703967E+03 -0.16100174976E+03 -0.15550859637E+03  0.24717267205E+03  0.46999998093E+01 0. -1.
</event>
<event>
 5   0  0.2129257E-02  0.7959965E+03  0.7818609E-02  0.9565830E-01
        1   -1    0    0  501    0  0.00000000000E+00  0.00000000000E+00  0.69582693917E+03  0.69582693919E+03  0.50400001928E-02 0. -1.
       -1   -1    0    0    0  501  0.00000000000E+00  0.00000000000E+00 -0.22764653666E+03  0.22764653672E+03  0.50400001928E-02 0.  1.
    10030    2    1    2    0    0  0.00000000000E+00  0.00000000000E+00  0.46818040251E+03  0.92347347591E+03  0.79599646445E+03 0.  0.
        3    1    3    3  502    0 -0.10405551043E+03 -0.14206464093E+03 -0.17999099510E+03  0.25180683067E+03  0.10100000352E+00 0.  1.
       -3    1    3    3    0  502  0.10405551043E+03  0.14206464093E+03  0.64817139761E+03  0.67166664524E+03  0.10100000352E+00 0. -1.
</event>
<event>
 5   0  0.2132540E-02  0.8178142E+03  0.7818609E-02  0.9534584E-01
       -1   -1    0    0    0  501  0.00000000000E+00  0.00000000000E+00  0.41673144253E+03  0.41673144256E+03  0.50400001928E-02 0.  1.
        1   -1    0    0  501    0  0.00000000000E+00  0.00000000000E+00 -0.40122966153E+03  0.40122966156E+03  0.50400001928E-02 0. -1.
    10030    2    1    2    0    0  0.00000000000E+00  0.00000000000E+00  0.15501780997E+02  0.81796110412E+03  0.81781419812E+03 0.  0.
        4    1    3    3  502    0  0.38136256664E+03  0.14011350676E+03  0.53956599750E+02  0.40985623036E+03  0.12699999809E+01 0. -1.
       -4    1    3    3    0  502 -0.38136256664E+03 -0.14011350676E+03 -0.38454818752E+02  0.40810487377E+03  0.12699999809E+01 0.  1.
</event>
<event>
 5   0  0.3343036E-02  0.8274215E+03  0.7818609E-02  0.9521152E-01
        2   -1    0    0  501    0  0.00000000000E+00  0.00000000000E+00  0.14366472194E+04  0.14366472194E+04  0.25500000920E-02 0.  1.
       -2   -1    0    0    0  501  0.00000000000E+00  0.00000000000E+00 -0.11913611820E+03  0.11913611822E+03  0.25500000920E-02 0. -1.
    10030    2    1    2    0    0  0.00000000000E+00  0.00000000000E+00  0.13175111012E+04  0.15557833376E+04  0.82742147171E+03 0.  0.
        4    1    3    3  502    0  0.23007322059E+03 -0.14950499685E+03  0.76568386004E+02  0.28486797214E+03  0.12699999809E+01 0. -1.
       -4    1    3    3    0  502 -0.23007322059E+03  0.14950499685E+03  0.12409427152E+04  0.12709153655E+04  0.12699999809E+01 0.  1.
</event>
<event>
 5   0  0.2129257E-02  0.8134383E+03  0.7818609E-02  0.9540767E-01
        1   -1    0    0  501    0  0.00000000000E+00  0.00000000000E+00  0.66769604366E+03  0.66769604368E+03  0.50400001928E-02 0. -1.
       -1   -1    0    0    0  501  0.00000000000E+00  0.00000000000E+00 -0.24774815456E+03  0.24774815461E+03  0.50400001928E-02 0.  1.
    10030    2    1    2    0    0  0.00000000000E+00  0.00000000000E+00  0.41994788910E+03  0.91544419828E+03  0.81343828937E+03 0.  0.
        3    1    3    3  502    0 -0.39390050090E+03  0.42460073697E+02  0.31348629966E+03  0.50520701969E+03  0.10100000352E+00 0. -1.
       -3    1    3    3    0  502  0.39390050090E+03 -0.42460073697E+02  0.10646158944E+03  0.41023717859E+03  0.10100000352E+00 0.  1.
</event>
<event>
 5   0  0.2063692E-02  0.7729295E+03  0.7818609E-02  0.9600049E-01
       -1   -1    0    0    0  501  0.00000000000E+00  0.00000000000E+00  0.38298327174E+03  0.38298327178E+03  0.50400001928E-02 0.  1.
        1   -1    0    0  501    0  0.00000000000E+00  0.00000000000E+00 -0.38997788608E+03  0.38997788611E+03  0.50400001928E-02 0. -1.
    10030    2    1    2    0    0  0.00000000000E+00  0.00000000000E+00 -0.69946143375E+01  0.77296115789E+03  0.77292950971E+03 0.  0.
        2    1    3    3  502    0  0.34209604077E+03  0.64321349696E+01 -0.18318196734E+03  0.38810656608E+03  0.25500000920E-02 0. -1.
       -2    1    3    3    0  502 -0.34209604077E+03 -0.64321349696E+01  0.17618735300E+03  0.38485459181E+03  0.25500000920E-02 0.  1.
</event>
<event>
 5   0  0.2129257E-02  0.7899239E+03  0.7818609E-02  0.9574717E-01
       -1   -1    0    0    0  501  0.00000000000E+00  0.00000000000E+00  0.13668029704E+03  0.13668029714E+03  0.50400001928E-02 0. -1.
        1   -1    0    0  501    0  0.00000000000E+00  0.00000000000E+00 -0.11413126078E+04  0.11413126078E+04  0.50400001928E-02 0.  1.
    10030    2    1    2    0    0  0.00000000000E+00  0.00000000000E+00 -0.10046323108E+04  0.12779929050E+04  0.78992391108E+03 0.  0.
        3    1    3    3  502    0  0.37187098380E+02  0.37878118160E+03 -0.33158027332E+03  0.50478069661E+03  0.10100000352E+00 0. -1.
       -3    1    3    3    0  502 -0.37187098380E+02 -0.37878118160E+03 -0.67305203746E+03  0.77321220836E+03  0.10100000352E+00 0.  1.
</event>
<event>
 5   0  0.2129257E-02  0.7976880E+03  0.7818609E-02  0.9563370E-01
        1   -1    0    0  501    0  0.00000000000E+00  0.00000000000E+00  0.90729815366E+03  0.90729815368E+03  0.50400001928E-02 0.  1.
       -1   -1    0    0    0  501  0.00000000000E+00  0.00000000000E+00 -0.17532994587E+03  0.17532994595E+03  0.50400001928E-02 0. -1.
    10030    2    1    2    0    0  0.00000000000E+00  0.00000000000E+00  0.73196820779E+03  0.10826280996E+04  0.79768799971E+03 0.  0.
        3    1    3    3  502    0 -0.15813174125E+03  0.19279355404E+03  0.78846934289E+03  0.82695762706E+03  0.10100000352E+00 0.  1.
       -3    1    3    3    0  502  0.15813174125E+03 -0.19279355404E+03 -0.56501135102E+02  0.25567047256E+03  0.10100000352E+00 0. -1.
</event>
<event>
 5   0  0.2077795E-02  0.7742018E+03  0.7818609E-02  0.9598128E-01
        1   -1    0    0  501    0  0.00000000000E+00  0.00000000000E+00  0.47871877671E+03  0.47871877673E+03  0.50400001928E-02 0.  1.
       -1   -1    0    0    0  501  0.00000000000E+00  0.00000000000E+00 -0.31301700643E+03  0.31301700647E+03  0.50400001928E-02 0. -1.
    10030    2    1    2    0    0  0.00000000000E+00  0.00000000000E+00  0.16570177028E+03  0.79173578320E+03  0.77420183010E+03 0.  0.
        5    1    3    3  502    0 -0.12919253203E+03  0.98556815471E+01  0.45585412266E+03  0.47393345095E+03  0.46999998093E+01 0.  1.
       -5    1    3    3    0  502  0.12919253203E+03 -0.98556815471E+01 -0.29015235238E+03  0.31780233225E+03  0.46999998093E+01 0. -1.
</event>
<event>
 5   0  0.2063692E-02  0.8421423E+03  0.7818609E-02  0.9500944E-01
       -1   -1    0    0    0  501  0.00000000000E+00  0.00000000000E+00  0.29659602704E+03  0.29659602708E+03  0.50400001928E-02 0. -1.
        1   -1    0    0  501    0  0.00000000000E+00  0.00000000000E+00 -0.59778581105E+03  0.59778581107E+03  0.50400001928E-02 0.  1.
    10030    2    1    2    0    0  0.00000000000E+00  0.00000000000E+00 -0.30118978401E+03  0.89438183815E+03  0.84214226020E+03 0.  0.
        2    1    3    3  502    0  0.29710847306E+03  0.12176188239E+03 -0.43989183214E+03  0.54461383085E+03  0.25500000920E-02 0.  1.
       -2    1    3    3    0  502 -0.29710847306E+03 -0.12176188239E+03  0.13870204813E+03  0.34976800729E+03  0.25500000920E-02 0. -1.
</event>
<event>
 5   0  0.1358000E-02  0.8028437E+03  0.7818609E-02  0.9555910E-01
       -3   -1    0    0    0  501  0.00000000000E+00  0.00000000000E+00  0.14831312529E+03  0.14831315968E+03  0.10100000352E+00 0.  1.
        3   -1    0    0  501    0  0.00000000000E+00  0.00000000000E+00 -0.10864814876E+04  0.10864814923E+04  0.10100000352E+00 0. -1.
    10030    2    1    2    0    0  0.00000000000E+00  0.00000000000E+00 -0.93816836236E+03  0.12347946520E+04  0.80284366879E+03 0.  0.
        4    1    3    3  502    0 -0.34974069771E+03 -0.90047453046E+02 -0.73861544875E+03  0.82218093718E+03  0.12699999809E+01 0. -1.
       -4    1    3    3    0  502  0.34974069771E+03  0.90047453046E+02 -0.19955291361E+03  0.41261371483E+03  0.12699999809E+01 0.  1.
</event>
<event>
 5   0  0.1358000E-02  0.7652677E+03  0.7818609E-02  0.9611698E-01
        4   -1    0    0  501    0  0.00000000000E+00  0.00000000000E+00  0.10330655525E+03  0.10331436133E+03  0.12699999809E+01 0. -1.
       -4   -1    0    0    0  501  0.00000000000E+00  0.00000000000E+00 -0.14171634882E+04  0.14171640573E+04  0.12699999809E+01 0.  1.
    10030    2    1    2    0    0  0.00000000000E+00  0.00000000000E+00 -0.13138569330E+04  0.15204784186E+04  0.76526765328E+03 0.  0.
        1    1    3    3  502    0  0.31446251823E+03  0.57518067350E+02 -0.10747059675E+04  0.11212439164E+04  0.50400001928E-02 0.  1.
       -1    1    3    3    0  502 -0.31446251823E+03 -0.57518067350E+02 -0.23915096544E+03  0.39923450219E+03  0.50400001928E-02 0. -1.
</event>
<event>
 5   0  0.3404132E-02  0.8087861E+03  0.7818609E-02  0.9547386E-01
       -2   -1    0    0    0  501  0.00000000000E+00  0.00000000000E+00  0.23031659525E+03  0.23031659526E+03  0.25500000920E-02 0. -1.
        2   -1    0    0  501    0  0.00000000000E+00  0.00000000000E+00 -0.71003880107E+03  0.71003880107E+03  0.25500000920E-02 0.  1.
    10030    2    1    2    0    0  0.00000000000E+00  0.00000000000E+00 -0.47972220582E+03  0.94035539634E+03  0.80878605123E+03 0.  0.
        5    1    3    3  502    0 -0.28352074793E+03 -0.18759334283E+03  0.14699306468E+02  0.34031373229E+03  0.46999998093E+01 0. -1.
       -5    1    3    3    0  502  0.28352074793E+03  0.18759334283E+03 -0.49442151229E+03  0.60004166405E+03  0.46999998093E+01 0.  1.
</event>
<event>
 5   0  0.1989298E-02  0.7283521E+03  0.7818609E-02  0.9669938E-01
       -1   -1    0    0    0  501  0.00000000000E+00  0.00000000000E+00  0.13158209348E+03  0.13158209358E+03  0.50400001928E-02 0.  1.
        1   -1    0    0  501    0  0.00000000000E+00  0.00000000000E+00 -0.10079198172E+04  0.10079198172E+04  0.50400001928E-02 0. -1.
    10030    2    1    2    0    0  0.00000000000E+00  0.00000000000E+00 -0.87633772367E+03  0.11395019107E+04  0.72835211173E+03 0.  0.
        1    1    3    3  502    0  0.27400903588E+03 -0.56090626841E+02 -0.73279244761E+02  0.28913138519E+03  0.50400001928E-02 0. -1.
       -1    1    3    3    0  502 -0.27400903588E+03  0.56090626841E+02 -0.80305847891E+03  0.85037052556E+03  0.50400001928E-02 0.  1.
</event>
<event>
 5   0  0.3404132E-02  0.8166637E+03  0.7818609E-02  0.9536205E-01
        2   -1    0    0  501    0  0.00000000000E+00  0.00000000000E+00  0.54113726687E+03  0.54113726687E+03  0.25500000920E-02 0.  1.
       -2   -1    0    0    0  501  0.00000000000E+00  0.00000000000E+00 -0.30811939977E+03  0.30811939978E+03  0.25500000920E-02 0. -1.
    10030    2    1    2    0    0  0.00000000000E+00  0.00000000000E+00  0.23301786709E+03  0.84925666665E+03  0.81666367586E+03 0.  0.
        5    1    3    3  502    0 -0.24642747655E+03 -0.31184017861E+03  0.19278735954E+02  0.39795044648E+03  0.46999998093E+01 0. -1.
       -5    1    3    3    0  502  0.24642747655E+03  0.31184017861E+03  0.21373913114E+03  0.45130622018E+03  0.46999998093E+01 0.  1.
</event>
<event>
 5   0  0.2129257E-02  0.7573177E+03  0.7818609E-02  0.9623939E-01
        1   -1    0    0  501    0  0.00000000000E+00  0.00000000000E+00  0.51948810277E+03  0.51948810279E+03  0.50400001928E-02 0. -1.
       -1   -1    0    0    0  501  0.00000000000E+00  0.00000000000E+00 -0.27600735955E+03  0.27600735960E+03  0.50400001928E-02 0.  1.
    10030    2    1    2    0    0  0.00000000000E+00  0.00000000000E+00  0.24348074322E+03  0.79549546239E+03  0.75731773937E+03 0.  0.
        3    1    3    3  502    0  0.83460187919E+02  0.36869754643E+03  0.98749891571E+02  0.39071093535E+03  0.10100000352E+00 0.  1.
       -3    1    3    3    0  502 -0.83460187919E+02 -0.36869754643E+03  0.14473085165E+03  0.40478452704E+03  0.10100000352E+00 0. -1.
</event>
<event>
 5   0  0.3343036E-02  0.7969916E+03  0.7818609E-02  0.9564382E-01
        2   -1    0    0  501    0  0.00000000000E+00  0.00000000000E+00  0.66429109118E+03  0.66429109118E+03  0.25500000920E-02 0. -1.
       -2   -1    0    0    0  501  0.00000000000E+00  0.00000000000E+00 -0.23905015008E+03  0.23905015009E+03  0.25500000920E-02 0.  1.
    10030    2    1    2    0    0  0.00000000000E+00  0.00000000000E+00  0.42524094110E+03  0.90334124127E+03  0.79699155592E+03 0.  0.
        4    1    3    3  502    0 -0.18723964619E+01 -0.17747217021E+03 -0.19177648395E+03  0.26130386481E+03  0.12699999809E+01 0.  1.
       -4    1    3    3    0  502  0.18723964619E+01  0.17747217021E+03  0.61701742504E+03  0.64203737646E+03  0.12699999809E+01 0. -1.
</event>
<event>
 5   0  0.2132540E-02  0.8029607E+03  0.7818609E-02  0.9555741E-01
       -1   -1    0    0    0  501  0.00000000000E+00  0.00000000000E+00  0.92835645892E+03  0.92835645893E+03  0.50400001928E-02 0.  1.
        1   -1    0    0  501    0  0.00000000000E+00  0.00000000000E+00 -0.17362564175E+03  0.17362564183E+03  0.50400001928E-02 0. -1.
    10030    2    1    2    0    0  0.00000000000E+00  0.00000000000E+00  0.75473081716E+03  0.11019821008E+04  0.80296073628E+03 0.  0.
        4    1    3    3  502    0 -0.18161416097E+02  0.22317475570E+03  0.83470176534E+03  0.86421378060E+03  0.12699999809E+01 0.  1.
       -4    1    3    3    0  502  0.18161416097E+02 -0.22317475570E+03 -0.79970948176E+02  0.23776832016E+03  0.12699999809E+01 0. -1.
</event>
<event>
 5   0  0.3343036E-02  0.7916497E+03  0.7818609E-02  0.9572183E-01
        2   -1    0    0  501    0  0.00000000000E+00  0.00000000000E+00  0.53256254228E+03  0.53256254229E+03  0.25500000920E-02 0.  1.
       -2   -1    0    0    0  501  0.00000000000E+00  0.00000000000E+00 -0.29419516315E+03  0.29419516316E+03  0.25500000920E-02 0. -1.
    10030    2    1    2    0    0  0.00000000000E+00  0.00000000000E+00  0.23836737913E+03  0.82675770545E+03  0.79164973068E+03 0.  0.
        4    1    3    3  502    0  0.26537705212E+00 -0.53424501138E+02  0.52877775188E+03  0.53147132710E+03  0.12699999809E+01 0.  1.
       -4    1    3    3    0  502 -0.26537705212E+00  0.53424501138E+02 -0.29041037274E+03  0.29528637836E+03  0.12699999809E+01 0. -1.
</event>
<event>
 5   0  0.3467240E-02  0.8351817E+03  0.7818609E-02  0.9510444E-01
        2   -1    0    0  501    0  0.00000000000E+00  0.00000000000E+00  0.70073463264E+03  0.70073463265E+03  0.25500000920E-02 0.  1.
       -2   -1    0    0    0  501  0.00000000000E+00  0.00000000000E+00 -0.24885612381E+03  0.24885612383E+03  0.25500000920E-02 0. -1.
    10030    2    1    2    0    0  0.00000000000E+00  0.00000000000E+00  0.45187850883E+03  0.94959075648E+03  0.83518166769E+03 0.  0.
        2    1    3    3  502    0  0.25585815284E+03  0.21061700866E+03 -0.62952101817E+02  0.33732163560E+03  0.25500000920E-02 0. -1.
       -2    1    3    3    0  502 -0.25585815284E+03 -0.21061700866E+03  0.51483061065E+03  0.61226912088E+03  0.25500000920E-02 0.  1.
</event>
<event>
 5   0  0.1989298E-02  0.7924588E+03  0.7818609E-02  0.9570997E-01
        1   -1    0    0  501    0  0.00000000000E+00  0.00000000000E+00  0.78361042507E+03  0.78361042508E+03  0.50400001928E-02 0. -1.
       -1   -1    0    0    0  501  0.00000000000E+00  0.00000000000E+00 -0.20035175719E+03  0.20035175725E+03  0.50400001928E-02 0.  1.
    10030    2    1    2    0    0  0.00000000000E+00  0.00000000000E+00  0.58325866788E+03  0.98396218234E+03  0.79245877030E+03 0.  0.
        1    1    3    3  502    0  0.22551270461E+03 -0.17361048024E+03  0.63393319964E+03  0.69488695513E+03  0.50400001928E-02 0. -1.
       -1    1    3    3    0  502 -0.22551270461E+03  0.17361048024E+03 -0.50674531759E+02  0.28907522721E+03  0.50400001928E-02 0.  1.
</event>
<event>
 5   0  0.1358000E-02  0.7936348E+03  0.7818609E-02  0.9569276E-01
       -3   -1    0    0    0  501  0.00000000000E+00  0.00000000000E+00  0.25409169752E+03  0.25409171759E+03  0.10100000352E+00 0. -1.
        3   -1    0    0  501    0  0.00000000000E+00  0.00000000000E+00 -0.61971347763E+03  0.61971348586E+03  0.10100000352E+00 0.  1.
    10030    2    1    2    0    0  0.00000000000E+00  0.00000000000E+00 -0.36562178011E+03  0.87380520345E+03  0.79363483258E+03 0.  0.
        2    1    3    3  502    0 -0.29888483351E+03  0.13293995467E+03  0.64511102981E+02  0.33341694268E+03  0.25500000920E-02 0. -1.
       -2    1    3    3    0  502  0.29888483351E+03 -0.13293995467E+03 -0.43013288309E+03  0.54038826077E+03  0.25500000920E-02 0.  1.
</event>
<event>
 5   0  0.1989298E-02  0.7994124E+03  0.7818609E-02  0.9560868E-01
       -1   -1    0    0    0  501  0.00000000000E+00  0.00000000000E+00  0.35208004322E+03  0.35208004326E+03  0.50400001928E-02 0.  1.
        1   -1    0    0  501    0  0.00000000000E+00  0.00000000000E+00 -0.45377475626E+03  0.45377475629E+03  0.50400001928E-02 0. -1.
    10030    2    1    2    0    0  0.00000000000E+00  0.00000000000E+00 -0.10169471304E+03  0.80585479955E+03  0.79941237374E+03 0.  0.
        1    1    3    3  502    0 -0.20033929237E+03 -0.25852740377E+03 -0.28246584234E+03  0.43215645625E+03  0.50400001928E-02 0. -1.
       -1    1    3    3    0  502  0.20033929237E+03  0.25852740377E+03  0.18077112930E+03  0.37369834330E+03  0.50400001928E-02 0.  1.
</event>
<event>
 5   0  0.3404132E-02  0.7924892E+03  0.7818609E-02  0.9570953E-01
        2   -1    0    0  501    0  0.00000000000E+00  0.00000000000E+00  0.80674796296E+03  0.80674796297E+03  0.25500000920E-02 0. -1.
       -2   -1    0    0    0  501  0.00000000000E+00  0.00000000000E+00 -0.19462059694E+03  0.19462059696E+03  0.25500000920E-02 0.  1.
    10030    2    1    2    0    0  0.00000000000E+00  0.00000000000E+00  0.61212736602E+03  0.10013685599E+04  0.79248916748E+03 0.  0.
        5    1    3    3  502    0  0.12850975526E+02 -0.14482859586E+03 -0.15965748657E+03  0.21599322389E+03  0.46999998093E+01 0.  1.
       -5    1    3    3    0  502 -0.12850975526E+02  0.14482859586E+03  0.77178485259E+03  0.78537533603E+03  0.46999998093E+01 0. -1.
</event>
<event>
 5   0  0.3550586E-02  0.7729148E+03  0.7818609E-02  0.9600071E-01
       -2   -1    0    0    0  501  0.00000000000E+00  0.00000000000E+00  0.28532040963E+03  0.28532040964E+03  0.25500000920E-02 0. -1.
        2   -1    0    0  501    0  0.00000000000E+00  0.00000000000E+00 -0.52344421387E+03  0.52344421387E+03  0.25500000920E-02 0.  1.
    10030    2    1    2    0    0  0.00000000000E+00  0.00000000000E+00 -0.23812380424E+03  0.80876462351E+03  0.77291478839E+03 0.  0.
        3    1    3    3  502    0  0.34710986963E+03  0.73256150151E+02  0.41337268462E+02  0.35715613546E+03  0.10100000352E+00 0. -1.
       -3    1    3    3    0  502 -0.34710986963E+03 -0.73256150151E+02 -0.27946107270E+03  0.45160848806E+03  0.10100000352E+00 0.  1.
</event>
<event>
 5   0  0.3404132E-02  0.8167236E+03  0.7818609E-02  0.9536121E-01
       -2   -1    0    0    0  501  0.00000000000E+00  0.00000000000E+00  0.30516515089E+03  0.30516515090E+03  0.25500000920E-02 0.  1.
        2   -1    0    0  501    0  0.00000000000E+00  0.00000000000E+00 -0.54645611995E+03  0.54645611996E+03  0.25500000920E-02 0. -1.
    10030    2    1    2    0    0  0.00000000000E+00  0.00000000000E+00 -0.24129096907E+03  0.85162127086E+03  0.81672361128E+03 0.  0.
        5    1    3    3  502    0  0.80890509523E+02  0.48955241147E+02 -0.53485616102E+03  0.54316948842E+03  0.46999998093E+01 0. -1.
       -5    1    3    3    0  502 -0.80890509523E+02 -0.48955241147E+02  0.29356519195E+03  0.30845178244E+03  0.46999998093E+01 0.  1.
</event>
<event>
 5   0  0.2063692E-02  0.8069798E+03  0.7818609E-02  0.9549969E-01
       -1   -1    0    0    0  501  0.00000000000E+00  0.00000000000E+00  0.11560823753E+03  0.11560823763E+03  0.50400001928E-02 0. -1.
        1   -1    0    0  501    0  0.00000000000E+00  0.00000000000E+00 -0.14082397071E+04  0.14082397071E+04  0.50400001928E-02 0.  1.
    10030    2    1    2    0    0  0.00000000000E+00  0.00000000000E+00 -0.12926314695E+04  0.15238479447E+04  0.80697982785E+03 0.  0.
        2    1    3    3  502    0  0.18510959867E+03 -0.35544406918E+03 -0.73484743500E+03  0.83702258187E+03  0.25500000920E-02 0. -1.
       -2    1    3    3    0  502 -0.18510959867E+03  0.35544406918E+03 -0.55778403455E+03  0.68682536284E+03  0.25500000920E-02 0.  1.
</event>
<event>
 5   0  0.3343036E-02  0.7910615E+03  0.7818609E-02  0.9573046E-01
        2   -1    0    0  501    0  0.00000000000E+00  0.00000000000E+00  0.93143775420E+03  0.93143775420E+03  0.25500000920E-02 0. -1.
       -2   -1    0    0    0  501  0.00000000000E+00  0.00000000000E+00 -0.16796031863E+03  0.16796031865E+03  0.25500000920E-02 0.  1.
    10030    2    1    2    0    0  0.00000000000E+00  0.00000000000E+00  0.76347743556E+03  0.10993980729E+04  0.79106151972E+03 0.  0.
        4    1    3    3  502    0 -0.28596737137E+03  0.14725294048E+03  0.61842048171E+02  0.32754666506E+03  0.12699999809E+01 0.  1.
       -4    1    3    3    0  502  0.28596737137E+03 -0.14725294048E+03  0.70163538739E+03  0.77185140779E+03  0.12699999809E+01 0. -1.
</event>
<event>
 5   0  0.1989298E-02  0.7847565E+03  0.7818609E-02  0.9582347E-01
        1   -1    0    0  501    0  0.00000000000E+00  0.00000000000E+00  0.11977405086E+04  0.11977405086E+04  0.50400001928E-02 0. -1.
       -1   -1    0    0    0  501  0.00000000000E+00  0.00000000000E+00 -0.12854261974E+03  0.12854261983E+03  0.50400001928E-02 0.  1.
    10030    2    1    2    0    0  0.00000000000E+00  0.00000000000E+00  0.10691978888E+04  0.13262831284E+04  0.78475652991E+03 0.  0.
        1    1    3    3  502    0 -0.22504896159E+01  0.11089341133E+03 -0.10149652668E+03  0.15034612843E+03  0.50400001928E-02 0.  1.
       -1    1    3    3    0  502  0.22504896159E+01 -0.11089341133E+03  0.11706944155E+04  0.11759370000E+04  0.50400001928E-02 0. -1.
</event>
<event>
 5   0  0.3550586E-02  0.8049151E+03  0.7818609E-02  0.9552930E-01
       -2   -1    0    0    0  501  0.00000000000E+00  0.00000000000E+00  0.32846377212E+03  0.32846377213E+03  0.25500000920E-02 0.  1.
        2   -1    0    0  501    0  0.00000000000E+00  0.00000000000E+00 -0.49312009306E+03  0.49312009307E+03  0.25500000920E-02 0. -1.
    10030    2    1    2    0    0  0.00000000000E+00  0.00000000000E+00 -0.16465632095E+03  0.82158386520E+03  0.80491511573E+03 0.  0.
        3    1    3    3  502    0  0.48491844944E+02  0.46436921557E+02 -0.48736336638E+03  0.49196636857E+03  0.10100000352E+00 0. -1.
       -3    1    3    3    0  502 -0.48491844944E+02 -0.46436921557E+02  0.32270704543E+03  0.32961749663E+03  0.10100000352E+00 0.  1.
</event>
<event>
 5   0  0.1989298E-02  0.7945612E+03  0.7818609E-02  0.9567923E-01
        1   -1    0    0  501    0  0.00000000000E+00  0.00000000000E+00  0.80312278394E+03  0.80312278395E+03  0.50400001928E-02 0.  1.
       -1   -1    0    0    0  501  0.00000000000E+00  0.00000000000E+00 -0.19652273817E+03  0.19652273824E+03  0.50400001928E-02 0. -1.
    10030    2    1    2    0    0  0.00000000000E+00  0.00000000000E+00  0.60660004577E+03  0.99964552219E+03  0.79456123396E+03 0.  0.
        1    1    3    3  502    0  0.15113194326E+01  0.29794927351E+03 -0.27312152264E+02  0.29920228501E+03  0.50400001928E-02 0. -1.
       -1    1    3    3    0  502 -0.15113194326E+01 -0.29794927351E+03  0.63391219803E+03  0.70044323718E+03  0.50400001928E-02 0.  1.
</event>
<event>
 5   0  0.3404132E-02  0.8137025E+03  0.7818609E-02  0.9540392E-01
       -2   -1    0    0    0  501  0.00000000000E+00  0.00000000000E+00  0.95575795514E+02  0.95575795548E+02  0.25500000920E-02 0.  1.
        2   -1    0    0  501    0  0.00000000000E+00  0.00000000000E+00 -0.17319024834E+04  0.17319024834E+04  0.25500000920E-02 0. -1.
    10030    2    1    2    0    0  0.00000000000E+00  0.00000000000E+00 -0.16363266879E+04  0.18274782790E+04  0.81370254427E+03 0.  0.
        5    1    3    3  502    0  0.15065032622E+03  0.17825189889E+03 -0.69787705366E+02  0.24364251284E+03  0.46999998093E+01 0.  1.
       -5    1    3    3    0  502 -0.15065032622E+03 -0.17825189889E+03 -0.15665389825E+04  0.15838357661E+04  0.46999998093E+01 0. -1.
</event>
<event>
 5   0  0.1358000E-02  0.8098718E+03  0.7818609E-02  0.9545837E-01
        3   -1    0    0  501    0  0.00000000000E+00  0.00000000000E+00  0.87536344690E+03  0.87536345273E+03  0.10100000352E+00 0.  1.
       -3   -1    0    0    0  501  0.00000000000E+00  0.00000000000E+00 -0.18731998846E+03  0.18732001569E+03  0.10100000352E+00 0. -1.
    10030    2    1    2    0    0  0.00000000000E+00  0.00000000000E+00  0.68804345844E+03  0.10626834684E+04  0.80987181290E+03 0.  0.
        2    1    3    3  502    0  0.72278765727E+02 -0.13280889559E+03  0.83693165182E+03  0.85048045982E+03  0.25500000920E-02 0.  1.
       -2    1    3    3    0  502 -0.72278765727E+02  0.13280889559E+03 -0.14888819337E+03  0.21220300859E+03  0.25500000920E-02 0. -1.
</event>
<event>
 5   0  0.2132540E-02  0.7927258E+03  0.7818609E-02  0.9570606E-01
       -1   -1    0    0    0  501  0.00000000000E+00  0.00000000000E+00  0.15667312001E+03  0.15667312010E+03  0.50400001928E-02 0. -1.
        1   -1    0    0  501    0  0.00000000000E+00  0.00000000000E+00 -0.10027473370E+04  0.10027473371E+04  0.50400001928E-02 0.  1.
    10030    2    1    2    0    0  0.00000000000E+00  0.00000000000E+00 -0.84607421704E+03  0.11594204572E+04  0.79272581373E+03 0.  0.
        4    1    3    3  502    0 -0.29363700951E+03 -0.24808479236E+03 -0.56433408224E+03  0.68282012773E+03  0.12699999809E+01 0. -1.
       -4    1    3    3    0  502  0.29363700951E+03  0.24808479236E+03 -0.28174013479E+03  0.47660032943E+03  0.12699999809E+01 0.  1.
</event>
<event>
 5   0  0.3467240E-02  0.8049364E+03  0.7818609E-02  0.9552899E-01
        2   -1    0    0  501    0  0.00000000000E+00  0.00000000000E+00  0.17452708659E+04  0.17452708659E+04  0.25500000920E-02 0.  1.
       -2   -1    0    0    0  501  0.00000000000E+00  0.00000000000E+00 -0.92811174973E+02  0.92811175008E+02  0.25500000920E-02 0. -1.
    10030    2    1    2    0    0  0.00000000000E+00  0.00000000000E+00  0.16524596909E+04  0.18380820409E+04  0.80493636952E+03 0.  0.
        2    1    3    3  502    0 -0.34613062490E+03 -0.10647302476E+03  0.42522972003E+03  0.55853668572E+03  0.25500000920E-02 0. -1.
       -2    1    3    3    0  502  0.34613062490E+03  0.10647302476E+03  0.12272299709E+04  0.12795453552E+04  0.25500000920E-02 0.  1.
</event>
<event>
 5   0  0.3550586E-02  0.8035730E+03  0.7818609E-02  0.9554860E-01
        2   -1    0    0  501    0  0.00000000000E+00  0.00000000000E+00  0.21768126043E+04  0.21768126043E+04  0.25500000920E-02 0. -1.
       -2   -1    0    0    0  501  0.00000000000E+00  0.00000000000E+00 -0.74159984949E+02  0.74159984992E+02  0.25500000920E-02 0.  1.
    10030    2    1    2    0    0  0.00000000000E+00  0.00000000000E+00  0.21026526193E+04  0.22509725892E+04  0.80357299611E+03 0.  0.
        3    1    3    3  502    0  0.82263284637E+02 -0.24602024326E+02  0.21508121462E+04  0.21525253555E+04  0.10100000352E+00 0. -1.
       -3    1    3    3    0  502 -0.82263284637E+02  0.24602024326E+02 -0.48159526901E+02  0.98447233748E+02  0.10100000352E+00 0.  1.
</event>
<event>
 5   0  0.2129257E-02  0.7997492E+03  0.7818609E-02  0.9560380E-01
       -1   -1    0    0    0  501  0.00000000000E+00  0.00000000000E+00  0.11251763805E+04  0.11251763806E+04  0.50400001928E-02 0.  1.
        1   -1    0    0  501    0  0.00000000000E+00  0.00000000000E+00 -0.14211078861E+03  0.14211078870E+03  0.50400001928E-02 0. -1.
    10030    2    1    2    0    0  0.00000000000E+00  0.00000000000E+00  0.98306559194E+03  0.12672871693E+04  0.79974921775E+03 0.  0.
        3    1    3    3  502    0 -0.35693348039E+02  0.13424316383E+03  0.10857165148E+04  0.10945663995E+04  0.10100000352E+00 0.  1.
       -3    1    3    3    0  502  0.35693348039E+02 -0.13424316383E+03 -0.10265092290E+03  0.17272076975E+03  0.10100000352E+00 0. -1.
</event>
<event>
 5   0  0.1358000E-02  0.8020569E+03  0.7818609E-02  0.9557045E-01
       -4   -1    0    0    0  501  0.00000000000E+00  0.00000000000E+00  0.24778524404E+03  0.24778849866E+03  0.12699999809E+01 0. -1.
        4   -1    0    0  501    0  0.00000000000E+00  0.00000000000E+00 -0.64903705116E+03  0.64903829370E+03  0.12699999809E+01 0.  1.
    10030    2    1    2    0    0  0.00000000000E+00  0.00000000000E+00 -0.40125180712E+03  0.89682679235E+03  0.80205690743E+03 0.  0.
        2    1    3    3  502    0 -0.39429604748E+02  0.88003112740E+02 -0.63588207129E+03  0.64315258701E+03  0.25500000920E-02 0.  1.
       -2    1    3    3    0  502  0.39429604748E+02 -0.88003112740E+02  0.23463026417E+03  0.25367420534E+03  0.25500000920E-02 0. -1.
</event>
<event>
 5   0  0.3343036E-02  0.6605155E+03  0.7818609E-02  0.9787245E-01
        2   -1    0    0  501    0  0.00000000000E+00  0.00000000000E+00  0.12905793991E+04  0.12905793991E+04  0.25500000920E-02 0. -1.
       -2   -1    0    0    0  501  0.00000000000E+00  0.00000000000E+00 -0.84512574885E+02  0.84512574923E+02  0.25500000920E-02 0.  1.
    10030    2    1    2    0    0  0.00000000000E+00  0.00000000000E+00  0.12060668243E+04  0.13750919741E+04  0.66051552031E+03 0.  0.
        4    1    3    3  502    0  0.18134531860E+03  0.27510575577E+03  0.55651572509E+03  0.64674621500E+03  0.12699999809E+01 0. -1.
       -4    1    3    3    0  502 -0.18134531860E+03 -0.27510575577E+03  0.64955109916E+03  0.72834575907E+03  0.12699999809E+01 0.  1.
</event>
<event>
 5   0  0.3467240E-02  0.8065137E+03  0.7818609E-02  0.9550636E-01
        2   -1    0    0  501    0  0.00000000000E+00  0.00000000000E+00  0.51494864597E+03  0.51494864597E+03  0.25500000920E-02 0. -1.
       -2   -1    0    0    0  501  0.00000000000E+00  0.00000000000E+00 -0.31579087954E+03  0.31579087955E+03  0.25500000920E-02 0.  1.
    10030    2    1    2    0    0  0.00000000000E+00  0.00000000000E+00  0.19915776642E+03  0.83073952553E+03  0.80651369694E+03 0.  0.
        2    1    3    3  502    0  0.23153117820E+03 -0.10295611285E+00 -0.24050423890E+03  0.33383976098E+03  0.25500000920E-02 0.  1.
       -2    1    3    3    0  502 -0.23153117820E+03  0.10295611285E+00  0.43966200532E+03  0.49689976455E+03  0.25500000920E-02 0. -1.
</event>
<event>
 5   0  0.1358000E-02  0.8087200E+03  0.7818609E-02  0.9547480E-01
       -4   -1    0    0    0  501  0.00000000000E+00  0.00000000000E+00  0.37292757086E+03  0.37292973334E+03  0.12699999809E+01 0.  1.
        4   -1    0    0  501    0  0.00000000000E+00  0.00000000000E+00 -0.43843740425E+03  0.43843924362E+03  0.12699999809E+01 0. -1.
    10030    2    1    2    0    0  0.00000000000E+00  0.00000000000E+00 -0.65509833386E+02  0.81136897696E+03  0.80872002479E+03 0.  0.
        5    1    3    3  502    0  0.21981380468E+03  0.91671937600E+00 -0.37322762563E+03  0.43317421395E+03  0.46999998093E+01 0. -1.
       -5    1    3    3    0  502 -0.21981380468E+03 -0.91671937600E+00  0.30771779224E+03  0.37819476300E+03  0.46999998093E+01 0.  1.
</event>
<event>
 5   0  0.3467240E-02  0.7934868E+03  0.7818609E-02  0.9569493E-01
       -2   -1    0    0    0  501  0.00000000000E+00  0.00000000000E+00  0.13903202774E+03  0.13903202776E+03  0.25500000920E-02 0. -1.
        2   -1    0    0  501    0  0.00000000000E+00  0.00000000000E+00 -0.11321514907E+04  0.11321514907E+04  0.25500000920E-02 0.  1.
    10030    2    1    2    0    0  0.00000000000E+00  0.00000000000E+00 -0.99311946298E+03  0.12711835185E+04  0.79348677992E+03 0.  0.
        2    1    3    3  502    0 -0.38905324491E+02  0.30283171901E+02 -0.11272249088E+04  0.11283025702E+04  0.25500000920E-02 0.  1.
       -2    1    3    3    0  502  0.38905324491E+02 -0.30283171901E+02  0.13410544585E+03  0.14288094830E+03  0.25500000920E-02 0. -1.
</event>
<event>
 5   0  0.3404132E-02  0.8257517E+03  0.7818609E-02  0.9523473E-01
        2   -1    0    0  501    0  0.00000000000E+00  0.00000000000E+00  0.17791405220E+04  0.17791405221E+04  0.25500000920E-02 0.  1.
       -2   -1    0    0    0  501  0.00000000000E+00  0.00000000000E+00 -0.95813953341E+02  0.95813953375E+02  0.25500000920E-02 0. -1.
    10030    2    1    2    0    0  0.00000000000E+00  0.00000000000E+00  0.16833265687E+04  0.18749544754E+04  0.82575174720E+03 0.  0.
        5    1    3    3  502    0 -0.43908373488E+02 -0.13315496076E+03 -0.40039142418E+02  0.14588835375E+03  0.46999998093E+01 0. -1.
       -5    1    3    3    0  502  0.43908373488E+02  0.13315496076E+03  0.17233657111E+04  0.17290661217E+04  0.46999998093E+01 0.  1.
</event>
<event>
 5   0  0.3343036E-02  0.7922830E+03  0.7818609E-02  0.9571255E-01
        2   -1    0    0  501    0  0.00000000000E+00  0.00000000000E+00  0.47837495992E+03  0.47837495993E+03  0.25500000920E-02 0.  1.
       -2   -1    0    0    0  501  0.00000000000E+00  0.00000000000E+00 -0.32804412781E+03  0.32804412782E+03  0.25500000920E-02 0. -1.
    10030    2    1    2    0    0  0.00000000000E+00  0.00000000000E+00  0.15033083211E+03  0.80641908775E+03  0.79228302140E+03 0.  0.
        4    1    3    3  502    0 -0.35710286197E+03 -0.17132283037E+03  0.67789229102E+02  0.40183449170E+03  0.12699999809E+01 0.  1.
       -4    1    3    3    0  502  0.35710286197E+03  0.17132283037E+03  0.82541603011E+02  0.40458459605E+03  0.12699999809E+01 0. -1.
</event>
<event>
 5   0  0.3467240E-02  0.7972345E+03  0.7818609E-02  0.9564029E-01
       -2   -1    0    0    0  501  0.00000000000E+00  0.00000000000E+00  0.20574056753E+03  0.20574056754E+03  0.25500000920E-02 0.  1.
        2   -1    0    0  501    0  0.00000000000E+00  0.00000000000E+00 -0.77231111394E+03  0.77231111394E+03  0.25500000920E-02 0. -1.
    10030    2    1    2    0    0  0.00000000000E+00  0.00000000000E+00 -0.56657054641E+03  0.97805168148E+03  0.79723453738E+03 0.  0.
        2    1    3    3  502    0 -0.36749398626E+03  0.11558573134E+03 -0.40889862425E+03  0.56179175514E+03  0.25500000920E-02 0. -1.
       -2    1    3    3    0  502  0.36749398626E+03 -0.11558573134E+03 -0.15767192216E+03  0.41625992634E+03  0.25500000920E-02 0.  1.
</event>
<event>
 5   0  0.3404132E-02  0.7969966E+03  0.7818609E-02  0.9564375E-01
       -2   -1    0    0    0  501  0.00000000000E+00  0.00000000000E+00  0.13756334210E+03  0.13756334213E+03  0.25500000920E-02 0. -1.
        2   -1    0    0  501    0  0.00000000000E+00  0.00000000000E+00 -0.11543836709E+04  0.11543836709E+04  0.25500000920E-02 0.  1.
    10030    2    1    2    0    0  0.00000000000E+00  0.00000000000E+00 -0.10168203288E+04  0.12919470130E+04  0.79699655170E+03 0.  0.
        5    1    3    3  502    0  0.26479601014E+03 -0.99352307308E+00 -0.99108455672E+03  0.10258599332E+04  0.46999998093E+01 0.  1.
       -5    1    3    3    0  502 -0.26479601014E+03  0.99352307308E+00 -0.25735772103E+02  0.26608707980E+03  0.46999998093E+01 0. -1.
</event>
<event>
 5   0  0.1989298E-02  0.7440888E+03  0.7818609E-02  0.9644670E-01
        1   -1    0    0  501    0  0.00000000000E+00  0.00000000000E+00  0.84672295637E+03  0.84672295638E+03  0.50400001928E-02 0. -1.
       -1   -1    0    0    0  501  0.00000000000E+00  0.00000000000E+00 -0.16347383095E+03  0.16347383102E+03  0.50400001928E-02 0.  1.
    10030    2    1    2    0    0  0.00000000000E+00  0.00000000000E+00  0.68324912542E+03  0.10101967874E+04  0.74408882662E+03 0.  0.
        1    1    3    3  502    0  0.26298254962E+03 -0.63959407024E+02 -0.49471605640E+01  0.27069374129E+03  0.50400001928E-02 0.  1.
       -1    1    3    3    0  502 -0.26298254962E+03  0.63959407024E+02  0.68819628598E+03  0.73950304612E+03  0.50400001928E-02 0. -1.
</event>
<event>
 5   0  0.3550586E-02  0.8208054E+03  0.7818609E-02  0.9530381E-01
       -2   -1    0    0    0  501  0.00000000000E+00  0.00000000000E+00  0.23207781249E+03  0.23207781250E+03  0.25500000920E-02 0.  1.
        2   -1    0    0  501    0  0.00000000000E+00  0.00000000000E+00 -0.72574952665E+03  0.72574952666E+03  0.25500000920E-02 0. -1.
    10030    2    1    2    0    0  0.00000000000E+00  0.00000000000E+00 -0.49367171416E+03  0.95782733916E+03  0.82080536686E+03 0.  0.
        3    1    3    3  502    0  0.54906937232E+02  0.30891024953E+03 -0.55555613548E+03  0.63803051956E+03  0.10100000352E+00 0. -1.
       -3    1    3    3    0  502 -0.54906937232E+02 -0.30891024953E+03  0.61884421311E+02  0.31979681960E+03  0.10100000352E+00 0.  1.
</event>
<event>
 5   0  0.1989298E-02  0.8054244E+03  0.7818609E-02  0.9552199E-01
        1   -1    0    0  501    0  0.00000000000E+00  0.00000000000E+00  0.43161437097E+03  0.43161437100E+03  0.50400001928E-02 0.  1.
       -1   -1    0    0    0  501  0.00000000000E+00  0.00000000000E+00 -0.37574537764E+03  0.37574537767E+03  0.50400001928E-02 0. -1.
    10030    2    1    2    0    0  0.00000000000E+00  0.00000000000E+00  0.55868993329E+02  0.80735974867E+03  0.80542437221E+03 0.  0.
        1    1    3    3  502    0  0.19868424009E+01  0.35985309024E+03 -0.15327297977E+03  0.39114038459E+03  0.50400001928E-02 0. -1.
       -1    1    3    3    0  502 -0.19868424009E+01 -0.35985309024E+03  0.20914197310E+03  0.41621936408E+03  0.50400001928E-02 0.  1.
</event>
<event>
 5   0  0.3467240E-02  0.8031671E+03  0.7818609E-02  0.9555444E-01
        2   -1    0    0  501    0  0.00000000000E+00  0.00000000000E+00  0.97445240621E+03  0.97445240621E+03  0.25500000920E-02 0. -1.
       -2   -1    0    0    0  501  0.00000000000E+00  0.00000000000E+00 -0.16549738865E+03  0.16549738866E+03  0.25500000920E-02 0.  1.
    10030    2    1    2    0    0  0.00000000000E+00  0.00000000000E+00  0.80895501756E+03  0.11399497949E+04  0.80316705261E+03 0.  0.
        2    1    3    3  502    0  0.17612575815E+02 -0.36425958090E+03  0.64313447093E+03  0.73933564286E+03  0.25500000920E-02 0. -1.
       -2    1    3    3    0  502 -0.17612575815E+02  0.36425958090E+03  0.16582054664E+03  0.40061415202E+03  0.25500000920E-02 0.  1.
</event>
<event>
 5   0  0.3404132E-02  0.8035830E+03  0.7818609E-02  0.9554845E-01
       -2   -1    0    0    0  501  0.00000000000E+00  0.00000000000E+00  0.28618645355E+03  0.28618645356E+03  0.25500000920E-02 0. -1.
        2   -1    0    0  501    0  0.00000000000E+00  0.00000000000E+00 -0.56409518905E+03  0.56409518906E+03  0.25500000920E-02 0.  1.
    10030    2    1    2    0    0  0.00000000000E+00  0.00000000000E+00 -0.27790873550E+03  0.85028164262E+03  0.80358298047E+03 0.  0.
        5    1    3    3  502    0  0.87931033428E+02 -0.63887264245E+02  0.27030546410E+03  0.29137704627E+03  0.46999998093E+01 0. -1.
       -5    1    3    3    0  502 -0.87931033428E+02  0.63887264245E+02 -0.54821419960E+03  0.55890459635E+03  0.46999998093E+01 0.  1.
</event>
<event>
 5   0  0.1989298E-02  0.7908245E+03  0.7818609E-02  0.9573394E-01
        1   -1    0    0  501    0  0.00000000000E+00  0.00000000000E+00  0.78672656860E+03  0.78672656862E+03  0.50400001928E-02 0. -1.
       -1   -1    0    0    0  501  0.00000000000E+00  0.00000000000E+00 -0.19873593108E+03  0.19873593114E+03  0.50400001928E-02 0.  1.
    10030    2    1    2    0    0  0.00000000000E+00  0.00000000000E+00  0.58799063752E+03  0.98546249976E+03  0.79082447397E+03 0.  0.
        1    1    3    3  502    0  0.24237313019E+03 -0.11628090276E+03  0.65533768985E+03  0.70833146926E+03  0.50400001928E-02 0. -1.
       -1    1    3    3    0  502 -0.24237313019E+03  0.11628090276E+03 -0.67347052327E+02  0.27713103050E+03  0.50400001928E-02 0.  1.
</event>
<event>
 5   0  0.2132540E-02  0.8042408E+03  0.7818609E-02  0.9553899E-01
        1   -1    0    0  501    0  0.00000000000E+00  0.00000000000E+00  0.14430470434E+03  0.14430470443E+03  0.50400001928E-02 0.  1.
       -1   -1    0    0    0  501  0.00000000000E+00  0.00000000000E+00 -0.11205513503E+04  0.11205513503E+04  0.50400001928E-02 0. -1.
    10030    2    1    2    0    0  0.00000000000E+00  0.00000000000E+00 -0.97624664599E+03  0.12648560548E+04  0.80424083800E+03 0.  0.
        4    1    3    3  502    0 -0.11434315670E+03 -0.70552861593E+02 -0.10842018759E+04  0.10924959425E+04  0.12699999809E+01 0. -1.
       -4    1    3    3    0  502  0.11434315670E+03  0.70552861593E+02  0.10795522987E+03  0.17236011232E+03  0.12699999809E+01 0.  1.
</event>
<event>
 5   0  0.2129257E-02  0.7964127E+03  0.7818609E-02  0.9565224E-01
        1   -1    0    0  501    0  0.00000000000E+00  0.00000000000E+00  0.86549828774E+03  0.86549828775E+03  0.50400001928E-02 0. -1.
       -1   -1    0    0    0  501  0.00000000000E+00  0.00000000000E+00 -0.18321042324E+03  0.18321042331E+03  0.50400001928E-02 0.  1.
    10030    2    1    2    0    0  0.00000000000E+00  0.00000000000E+00  0.68228786449E+03  0.10487087111E+04  0.79641272631E+03 0.  0.
        3    1    3    3  502    0  0.20320645008E+03  0.27131795848E+03  0.65994573886E+02  0.34534271374E+03  0.10100000352E+00 0. -1.
       -3    1    3    3    0  502 -0.20320645008E+03 -0.27131795848E+03  0.61629329061E+03  0.70336599733E+03  0.10100000352E+00 0.  1.
</event>
<event>
 5   0  0.1358000E-02  0.8024133E+03  0.7818609E-02  0.9556530E-01
        3   -1    0    0  501    0  0.00000000000E+00  0.00000000000E+00  0.21590289321E+03  0.21590291683E+03  0.10100000352E+00 0.  1.
       -3   -1    0    0    0  501  0.00000000000E+00  0.00000000000E+00 -0.74555174303E+03  0.74555174987E+03  0.10100000352E+00 0. -1.
    10030    2    1    2    0    0  0.00000000000E+00  0.00000000000E+00 -0.52964884982E+03  0.96145466670E+03  0.80241334236E+03 0.  0.
        2    1    3    3  502    0  0.16965954470E+03  0.80213685510E+02 -0.68971935879E+03  0.71479464907E+03  0.25500000920E-02 0. -1.
       -2    1    3    3    0  502 -0.16965954470E+03 -0.80213685510E+02  0.16007050896E+03  0.24666001763E+03  0.25500000920E-02 0.  1.
</event>
<event>
 5   0  0.2077795E-02  0.6048706E+03  0.7818609E-02  0.9895352E-01
       -1   -1    0    0    0  501  0.00000000000E+00  0.00000000000E+00  0.12772464659E+03  0.12772464669E+03  0.50400001928E-02 0.  1.
        1   -1    0    0  501    0  0.00000000000E+00  0.00000000000E+00 -0.71612726009E+03  0.71612726010E+03  0.50400001928E-02 0. -1.
    10030    2    1    2    0    0  0.00000000000E+00  0.00000000000E+00 -0.58840261350E+03  0.84385190679E+03  0.60487056882E+03 0.  0.
        5    1    3    3  502    0  0.18617518559E+03 -0.17754839075E+03 -0.72471679791E+02  0.26731791028E+03  0.46999998093E+01 0.  1.
       -5    1    3    3    0  502 -0.18617518559E+03  0.17754839075E+03 -0.51593093371E+03  0.57653399652E+03  0.46999998093E+01 0. -1.
</event>
<event>
 5   0  0.2129257E-02  0.7941037E+03  0.7818609E-02  0.9568591E-01
        1   -1    0    0  501    0  0.00000000000E+00  0.00000000000E+00  0.20370447887E+03  0.20370447893E+03  0.50400001928E-02 0. -1.
       -1   -1    0    0    0  501  0.00000000000E+00  0.00000000000E+00 -0.77391609824E+03  0.77391609826E+03  0.50400001928E-02 0.  1.
    10030    2    1    2    0    0  0.00000000000E+00  0.00000000000E+00 -0.57021161937E+03  0.97762057719E+03  0.79410370990E+03 0.  0.
        3    1    3    3  502    0  0.11090534426E+03  0.17333353637E+03  0.13293474270E+03  0.24498197124E+03  0.10100000352E+00 0. -1.
       -3    1    3    3    0  502 -0.11090534426E+03 -0.17333353637E+03 -0.70314636208E+03  0.73263860594E+03  0.10100000352E+00 0.  1.
</event>
<event>
 5   0  0.3404132E-02  0.8050042E+03  0.7818609E-02  0.9552802E-01
       -2   -1    0    0    0  501  0.00000000000E+00  0.00000000000E+00  0.13280886377E+03  0.13280886380E+03  0.25500000920E-02 0. -1.
        2   -1    0    0  501    0  0.00000000000E+00  0.00000000000E+00 -0.12198578387E+04  0.12198578387E+04  0.25500000920E-02 0.  1.
    10030    2    1    2    0    0  0.00000000000E+00  0.00000000000E+00 -0.10870489749E+04  0.13526667025E+04  0.80500418269E+03 0.  0.
        5    1    3    3  502    0  0.30524185056E+02  0.30124149460E+03 -0.98907202220E+03  0.10343905061E+04  0.46999998093E+01 0.  1.
       -5    1    3    3    0  502 -0.30524185056E+02 -0.30124149460E+03 -0.97976952691E+02  0.31827619640E+03  0.46999998093E+01 0. -1.
</event>
<event>
 5   0  0.2077795E-02  0.8131314E+03  0.7818609E-02  0.9541202E-01
       -1   -1    0    0    0  501  0.00000000000E+00  0.00000000000E+00  0.40287458456E+03  0.40287458459E+03  0.50400001928E-02 0.  1.
        1   -1    0    0  501    0  0.00000000000E+00  0.00000000000E+00 -0.41029066783E+03  0.41029066786E+03  0.50400001928E-02 0. -1.
    10030    2    1    2    0    0  0.00000000000E+00  0.00000000000E+00 -0.74160832671E+01  0.81316525245E+03  0.81313143433E+03 0.  0.
        5    1    3    3  502    0 -0.40245368328E+03 -0.26254550242E+02 -0.54850404965E+02  0.40704904560E+03  0.46999998093E+01 0. -1.
       -5    1    3    3    0  502  0.40245368328E+03  0.26254550242E+02  0.47434321698E+02  0.40611620686E+03  0.46999998093E+01 0.  1.
</event>
<event>
 5   0  0.3404132E-02  0.7726271E+03  0.7818609E-02  0.9600506E-01
       -2   -1    0    0    0  501  0.00000000000E+00  0.00000000000E+00  0.15755110231E+03  0.15755110233E+03  0.25500000920E-02 0.  1.
        2   -1    0    0  501    0  0.00000000000E+00  0.00000000000E+00 -0.94723662741E+03  0.94723662741E+03  0.25500000920E-02 0. -1.
    10030    2    1    2    0    0  0.00000000000E+00  0.00000000000E+00 -0.78968552509E+03  0.11047877297E+04  0.77262714115E+03 0.  0.
        5    1    3    3  502    0 -0.11512637594E+03 -0.13151224001E+03 -0.88741849205E+03  0.90447953086E+03  0.46999998093E+01 0. -1.
       -5    1    3    3    0  502  0.11512637594E+03  0.13151224001E+03  0.97732966958E+02  0.20030819888E+03  0.46999998093E+01 0.  1.
</event>
<event>
 5   0  0.2132540E-02  0.8006802E+03  0.7818609E-02  0.9559033E-01
       -1   -1    0    0    0  501  0.00000000000E+00  0.00000000000E+00  0.12296590712E+03  0.12296590722E+03  0.50400001928E-02 0.  1.
        1   -1    0    0  501    0  0.00000000000E+00  0.00000000000E+00 -0.13033872330E+04  0.13033872330E+04  0.50400001928E-02 0. -1.
    10030    2    1    2    0    0  0.00000000000E+00  0.00000000000E+00 -0.11804213259E+04  0.14263531402E+04  0.80068019460E+03 0.  0.
        4    1    3    3  502    0 -0.16346374129E+03 -0.24506865722E+03 -0.10727792406E+03  0.31351109607E+03  0.12699999809E+01 0.  1.
       -4    1    3    3    0  502  0.16346374129E+03  0.24506865722E+03 -0.10731434018E+04  0.11128420441E+04  0.12699999809E+01 0. -1.
</event>
<event>
 5   0  0.2077795E-02  0.8149786E+03  0.7818609E-02  0.9538586E-01
        1   -1    0    0  501    0  0.00000000000E+00  0.00000000000E+00  0.73913531704E+03  0.73913531706E+03  0.50400001928E-02 0.  1.
       -1   -1    0    0    0  501  0.00000000000E+00  0.00000000000E+00 -0.22465103856E+03  0.22465103862E+03  0.50400001928E-02 0. -1.
    10030    2    1    2    0    0  0.00000000000E+00  0.00000000000E+00  0.51448427848E+03  0.96378635567E+03  0.81497856817E+03 0.  0.
        5    1    3    3  502    0 -0.22073672978E+02  0.25578703544E+03 -0.11693380106E+03  0.28215219008E+03  0.46999998093E+01 0. -1.
       -5    1    3    3    0  502  0.22073672978E+02 -0.25578703544E+03  0.63141807954E+03  0.68163416559E+03  0.46999998093E+01 0.  1.
</event>
<event>
 5   0  0.3550586E-02  0.8013854E+03  0.7818609E-02  0.9558014E-01
       -2   -1    0    0    0  501  0.00000000000E+00  0.00000000000E+00  0.26684601868E+03  0.26684601870E+03  0.25500000920E-02 0.  1.
        2   -1    0    0  501    0  0.00000000000E+00  0.00000000000E+00 -0.60167529450E+03  0.60167529451E+03  0.25500000920E-02 0. -1.
    10030    2    1    2    0    0  0.00000000000E+00  0.00000000000E+00 -0.33482927582E+03  0.86852131320E+03  0.80138544256E+03 0.  0.
        3    1    3    3  502    0  0.18857264384E+02  0.41442820134E+02 -0.59886255496E+03  0.60059093707E+03  0.10100000352E+00 0. -1.
       -3    1    3    3    0  502 -0.18857264384E+02 -0.41442820134E+02  0.26403327914E+03  0.26793037613E+03  0.10100000352E+00 0.  1.
</event>
<event>
 5   0  0.3404132E-02  0.8019485E+03  0.7818609E-02  0.9557201E-01
        2   -1    0    0  501    0  0.00000000000E+00  0.00000000000E+00  0.23727252660E+03  0.23727252661E+03  0.25500000920E-02 0.  1.
       -2   -1    0    0    0  501  0.00000000000E+00  0.00000000000E+00 -0.67761897346E+03  0.67761897346E+03  0.25500000920E-02 0. -1.
    10030    2    1    2    0    0  0.00000000000E+00  0.00000000000E+00 -0.44034644685E+03  0.91489150007E+03  0.80194854177E+03 0.  0.
        5    1    3    3  502    0  0.17734906159E+03  0.32717777018E+03 -0.39038457827E+03  0.53937018076E+03  0.46999998093E+01 0. -1.
       -5    1    3    3    0  502 -0.17734906159E+03 -0.32717777018E+03 -0.49961868586E+02  0.37552131931E+03  0.46999998093E+01 0.  1.
</event>
<event>
 5   0  0.1358000E-02  0.7506423E+03  0.7818609E-02  0.9634343E-01
        3   -1    0    0  501    0  0.00000000000E+00  0.00000000000E+00  0.32881121937E+03  0.32881123489E+03  0.10100000352E+00 0.  1.
       -3   -1    0    0    0  501  0.00000000000E+00  0.00000000000E+00 -0.42840984186E+03  0.42840985376E+03  0.10100000352E+00 0. -1.
    10030    2    1    2    0    0  0.00000000000E+00  0.00000000000E+00 -0.99598622482E+02  0.75722108865E+03  0.75064231928E+03 0.  0.
        2    1    3    3  502    0 -0.93178165639E+02 -0.14782236369E+03  0.28527496780E+03  0.33453763468E+03  0.25500000920E-02 0.  1.
       -2    1    3    3    0  502  0.93178165639E+02  0.14782236369E+03 -0.38487359028E+03  0.42268345397E+03  0.25500000920E-02 0. -1.
</event>
<event>
 5   0  0.3343036E-02  0.7902122E+03  0.7818609E-02  0.9574294E-01
       -2   -1    0    0    0  501  0.00000000000E+00  0.00000000000E+00  0.11118238306E+03  0.11118238309E+03  0.25500000920E-02 0. -1.
        2   -1    0    0  501    0  0.00000000000E+00  0.00000000000E+00 -0.14040787526E+04  0.14040787526E+04  0.25500000920E-02 0.  1.
    10030    2    1    2    0    0  0.00000000000E+00  0.00000000000E+00 -0.12928963696E+04  0.15152611357E+04  0.79021217844E+03 0.  0.
        4    1    3    3  502    0 -0.37258311356E+03  0.13035079362E+03 -0.67953350335E+03  0.78586061167E+03  0.12699999809E+01 0.  1.
       -4    1    3    3    0  502  0.37258311356E+03 -0.13035079362E+03 -0.61336286621E+03  0.72940052403E+03  0.12699999809E+01 0. -1.
</event>
<event>
 5   0  0.1989298E-02  0.7919397E+03  0.7818609E-02  0.9571758E-01
        1   -1    0    0  501    0  0.00000000000E+00  0.00000000000E+00  0.37522148043E+03  0.37522148046E+03  0.50400001928E-02 0. -1.
       -1   -1    0    0    0  501  0.00000000000E+00  0.00000000000E+00 -0.41786550159E+03  0.41786550162E+03  0.50400001928E-02 0.  1.
    10030    2    1    2    0    0  0.00000000000E+00  0.00000000000E+00 -0.42644021164E+02  0.79308698208E+03  0.79193967485E+03 0.  0.
        1    1    3    3  502    0  0.97284830471E+02  0.35692055390E+03  0.12007564232E+03  0.38894058664E+03  0.50400001928E-02 0. -1.
       -1    1    3    3    0  502 -0.97284830471E+02 -0.35692055390E+03 -0.16271966349E+03  0.40414639544E+03  0.50400001928E-02 0.  1.
</event>
<event>
 5   0  0.2063692E-02  0.8017276E+03  0.7818609E-02  0.9557520E-01
        1   -1    0    0  501    0  0.00000000000E+00  0.00000000000E+00  0.15380525719E+03  0.15380525727E+03  0.50400001928E-02 0.  1.
       -1   -1    0    0    0  501  0.00000000000E+00  0.00000000000E+00 -0.10447744427E+04  0.10447744427E+04  0.50400001928E-02 0. -1.
    10030    2    1    2    0    0  0.00000000000E+00  0.00000000000E+00 -0.89096918551E+03  0.11985797000E+04  0.80172763934E+03 0.  0.
        2    1    3    3  502    0  0.30808474710E+03  0.12577880686E+03 -0.77962636404E+03  0.84767551997E+03  0.25500000920E-02 0.  1.
       -2    1    3    3    0  502 -0.30808474710E+03 -0.12577880686E+03 -0.11134282147E+03  0.35090418001E+03  0.25500000920E-02 0. -1.
</event>
<event>
 5   0  0.2132540E-02  0.7930690E+03  0.7818609E-02  0.9570104E-01
       -1   -1    0    0    0  501  0.00000000000E+00  0.00000000000E+00  0.32413542012E+03  0.32413542016E+03  0.50400001928E-02 0. -1.
        1   -1    0    0  501    0  0.00000000000E+00  0.00000000000E+00 -0.48510463309E+03  0.48510463311E+03  0.50400001928E-02 0.  1.
    10030    2    1    2    0    0  0.00000000000E+00  0.00000000000E+00 -0.16096921297E+03  0.80924005327E+03  0.79306896062E+03 0.  0.
        4    1    3    3  502    0 -0.12760892240E+03 -0.36149928686E+03 -0.18390313534E+03  0.42519142461E+03  0.12699999809E+01 0. -1.
       -4    1    3    3    0  502  0.12760892240E+03  0.36149928686E+03  0.22933922375E+02  0.38404862866E+03  0.12699999809E+01 0.  1.
</event>
<event>
 5   0  0.2132540E-02  0.7903071E+03  0.7818609E-02  0.9574154E-01
       -1   -1    0    0    0  501  0.00000000000E+00  0.00000000000E+00  0.16768446534E+03  0.16768446542E+03  0.50400001928E-02 0. -1.
        1   -1    0    0  501    0  0.00000000000E+00  0.00000000000E+00 -0.93119132865E+03  0.93119132867E+03  0.50400001928E-02 0.  1.
    10030    2    1    2    0    0  0.00000000000E+00  0.00000000000E+00 -0.76350686331E+03  0.10988757941E+04  0.79030707988E+03 0.  0.
        4    1    3    3  502    0  0.13269773131E+01  0.35418848060E+03 -0.62535254594E+03  0.71869232658E+03  0.12699999809E+01 0.  1.
       -4    1    3    3    0  502 -0.13269773131E+01 -0.35418848060E+03 -0.13815431737E+03  0.38018346751E+03  0.12699999809E+01 0. -1.
</event>
<event>
 5   0  0.1989298E-02  0.8222957E+03  0.7818609E-02  0.9528294E-01
        1   -1    0    0  501    0  0.00000000000E+00  0.00000000000E+00  0.36296225322E+03  0.36296225325E+03  0.50400001928E-02 0.  1.
       -1   -1    0    0    0  501  0.00000000000E+00  0.00000000000E+00 -0.46573034515E+03  0.46573034518E+03  0.50400001928E-02 0. -1.
    10030    2    1    2    0    0  0.00000000000E+00  0.00000000000E+00 -0.10276809194E+03  0.82869259843E+03  0.82229565363E+03 0.  0.
        1    1    3    3  502    0  0.31418427914E+03 -0.75545269394E+02  0.20480545610E+03  0.38257564463E+03  0.50400001928E-02 0.  1.
       -1    1    3    3    0  502 -0.31418427914E+03  0.75545269394E+02 -0.30757354804E+03  0.44611695380E+03  0.50400001928E-02 0. -1.
</event>
<event>
 5   0  0.2077795E-02  0.8013128E+03  0.7818609E-02  0.9558119E-01
        1   -1    0    0  501    0  0.00000000000E+00  0.00000000000E+00  0.17550671335E+04  0.17550671335E+04  0.50400001928E-02 0.  1.
       -1   -1    0    0    0  501  0.00000000000E+00  0.00000000000E+00 -0.91464052278E+02  0.91464052416E+02  0.50400001928E-02 0. -1.
    10030    2    1    2    0    0  0.00000000000E+00  0.00000000000E+00  0.16636030813E+04  0.18465311860E+04  0.80131280331E+03 0.  0.
        5    1    3    3  502    0  0.15389721408E+03  0.27869212905E+03  0.13922442584E+04  0.14281875999E+04  0.46999998093E+01 0.  1.
       -5    1    3    3    0  502 -0.15389721408E+03 -0.27869212905E+03  0.27135882283E+03  0.41834358609E+03  0.46999998093E+01 0. -1.
</event>
<event>
 5   0  0.3343036E-02  0.7862307E+03  0.7818609E-02  0.9580164E-01
        2   -1    0    0  501    0  0.00000000000E+00  0.00000000000E+00  0.23967485081E+03  0.23967485082E+03  0.25500000920E-02 0. -1.
       -2   -1    0    0    0  501  0.00000000000E+00  0.00000000000E+00 -0.64478885740E+03  0.64478885740E+03  0.25500000920E-02 0.  1.
    10030    2    1    2    0    0  0.00000000000E+00  0.00000000000E+00 -0.40511400659E+03  0.88446370823E+03  0.78623068678E+03 0.  0.
        4    1    3    3  502    0  0.17002577810E+02 -0.42665421012E+02 -0.64175798941E+03  0.64340061834E+03  0.12699999809E+01 0.  1.
       -4    1    3    3    0  502 -0.17002577810E+02  0.42665421012E+02  0.23664398282E+03  0.24106308989E+03  0.12699999809E+01 0. -1.
</event>
<event>
 5   0  0.2077795E-02  0.7967249E+03  0.7818609E-02  0.9564770E-01
       -1   -1    0    0    0  501  0.00000000000E+00  0.00000000000E+00  0.14594436294E+03  0.14594436303E+03  0.50400001928E-02 0. -1.
        1   -1    0    0  501    0  0.00000000000E+00  0.00000000000E+00 -0.10873501907E+04  0.10873501907E+04  0.50400001928E-02 0.  1.
    10030    2    1    2    0    0  0.00000000000E+00  0.00000000000E+00 -0.94140582777E+03  0.12332945538E+04  0.79672487332E+03 0.  0.
        5    1    3    3  502    0 -0.23036935765E+03  0.10439098180E+03 -0.94706847740E+03  0.98026950830E+03  0.46999998093E+01 0.  1.
       -5    1    3    3    0  502  0.23036935765E+03 -0.10439098180E+03  0.56626496324E+01  0.25302504545E+03  0.46999998093E+01 0. -1.
</event>
<event>
 5   0  0.3343036E-02  0.8009401E+03  0.7818609E-02  0.9558657E-01
       -2   -1    0    0    0  501  0.00000000000E+00  0.00000000000E+00  0.45967687971E+03  0.45967687972E+03  0.25500000920E-02 0.  1.
        2   -1    0    0  501    0  0.00000000000E+00  0.00000000000E+00 -0.34888909654E+03  0.34888909655E+03  0.25500000920E-02 0. -1.
    10030    2    1    2    0    0  0.00000000000E+00  0.00000000000E+00  0.11078778318E+03  0.80856597627E+03  0.80094007583E+03 0.  0.
        4    1    3    3  502    0  0.32393501284E+03  0.23483858490E+03  0.72632330413E+02  0.40664495794E+03  0.12699999809E+01 0.  1.
       -4    1    3    3    0  502 -0.32393501284E+03 -0.23483858490E+03  0.38155452764E+02  0.40192101833E+03  0.12699999809E+01 0. -1.
</event>
<event>
 5   0  0.1989298E-02  0.7909210E+03  0.7818609E-02  0.9573252E-01
       -1   -1    0    0    0  501  0.00000000000E+00  0.00000000000E+00  0.44197850787E+03  0.44197850790E+03  0.50400001928E-02 0.  1.
        1   -1    0    0  501    0  0.00000000000E+00  0.00000000000E+00 -0.35383850737E+03  0.35383850741E+03  0.50400001928E-02 0. -1.
    10030    2    1    2    0    0  0.00000000000E+00  0.00000000000E+00  0.88140000503E+02  0.79581701531E+03  0.79092102145E+03 0.  0.
        1    1    3    3  502    0  0.21733613672E+03 -0.32585136764E+03  0.98950326133E+02  0.40398672898E+03  0.50400001928E-02 0.  1.
       -1    1    3    3    0  502 -0.21733613672E+03  0.32585136764E+03 -0.10810325630E+02  0.39183028633E+03  0.50400001928E-02 0. -1.
</event>
<event>
 5   0  0.1358000E-02  0.7734782E+03  0.7818609E-02  0.9599220E-01
        3   -1    0    0  501    0  0.00000000000E+00  0.00000000000E+00  0.31503595364E+03  0.31503596983E+03  0.10100000352E+00 0.  1.
       -3   -1    0    0    0  501  0.00000000000E+00  0.00000000000E+00 -0.47476208050E+03  0.47476209124E+03  0.10100000352E+00 0. -1.
    10030    2    1    2    0    0  0.00000000000E+00  0.00000000000E+00 -0.15972612686E+03  0.78979806107E+03  0.77347821021E+03 0.  0.
        3    1    3    3  502    0 -0.26128495944E+03  0.19544170774E+03 -0.29184837934E+03  0.43777023411E+03  0.10100000352E+00 0. -1.
       -3    1    3    3    0  502  0.26128495944E+03 -0.19544170774E+03  0.13212225248E+03  0.35202782696E+03  0.10100000352E+00 0.  1.
</event>
<event>
 5   0  0.3416160E-02  0.7819617E+03  0.7818609E-02  0.9586500E-01
        2   -1    0    0  501    0  0.00000000000E+00  0.00000000000E+00  0.21707431888E+04  0.21707431888E+04  0.25500000920E-02 0. -1.
       -2   -1    0    0    0  501  0.00000000000E+00  0.00000000000E+00 -0.70421056810E+02  0.70421056856E+02  0.25500000920E-02 0.  1.
    10030    2    1    2    0    0  0.00000000000E+00  0.00000000000E+00  0.21003221320E+04  0.22411642457E+04  0.78196171127E+03 0.  0.
        1    1    3    3  502    0  0.10671471693E+03 -0.91474144180E+02  0.44918541413E+01  0.14062619472E+03  0.50400001928E-02 0.  1.
       -1    1    3    3    0  502 -0.10671471693E+03  0.91474144180E+02  0.20958302779E+04  0.21005380510E+04  0.50400001928E-02 0. -1.
</event>
<event>
 5   0  0.2129257E-02  0.7736764E+03  0.7818609E-02  0.9598921E-01
       -1   -1    0    0    0  501  0.00000000000E+00  0.00000000000E+00  0.29046555062E+03  0.29046555067E+03  0.50400001928E-02 0.  1.
        1   -1    0    0  501    0  0.00000000000E+00  0.00000000000E+00 -0.51518596894E+03  0.51518596897E+03  0.50400001928E-02 0. -1.
    10030    2    1    2    0    0  0.00000000000E+00  0.00000000000E+00 -0.22472041832E+03  0.80565151963E+03  0.77367635654E+03 0.  0.
        3    1    3    3  502    0 -0.21355236753E+03  0.46739834399E+02  0.21997633674E+03  0.31012711059E+03  0.10100000352E+00 0.  1.
       -3    1    3    3    0  502  0.21355236753E+03 -0.46739834399E+02 -0.44469675506E+03  0.49552440904E+03  0.10100000352E+00 0. -1.
</event>
<event>
 5   0  0.3467240E-02  0.8137839E+03  0.7818609E-02  0.9540277E-01
        2   -1    0    0  501    0  0.00000000000E+00  0.00000000000E+00  0.59699101493E+03  0.59699101493E+03  0.25500000920E-02 0. -1.
       -2   -1    0    0    0  501  0.00000000000E+00  0.00000000000E+00 -0.27732587503E+03  0.27732587504E+03  0.25500000920E-02 0.  1.
    10030    2    1    2    0    0  0.00000000000E+00  0.00000000000E+00  0.31966513990E+03  0.87431688997E+03  0.81378389172E+03 0.  0.
        2    1    3    3  502    0 -0.19944590518E+03  0.34753764770E+03  0.83862333912E+02  0.40938243332E+03  0.25500000920E-02 0.  1.
       -2    1    3    3    0  502  0.19944590518E+03 -0.34753764770E+03  0.23580280599E+03  0.46493445665E+03  0.25500000920E-02 0. -1.
</event>
<event>
 5   0  0.1989298E-02  0.7620039E+03  0.7818609E-02  0.9616704E-01
       -1   -1    0    0    0  501  0.00000000000E+00  0.00000000000E+00  0.16884166933E+03  0.16884166941E+03  0.50400001928E-02 0. -1.
        1   -1    0    0  501    0  0.00000000000E+00  0.00000000000E+00 -0.85975504168E+03  0.85975504169E+03  0.50400001928E-02 0.  1.
    10030    2    1    2    0    0  0.00000000000E+00  0.00000000000E+00 -0.69091337234E+03  0.10285967111E+04  0.76200387532E+03 0.  0.
        1    1    3    3  502    0 -0.26835840604E+02  0.25768420898E+03 -0.72255085479E+03  0.76759432755E+03  0.50400001928E-02 0.  1.
       -1    1    3    3    0  502  0.26835840604E+02 -0.25768420898E+03  0.31637482448E+02  0.26100238355E+03  0.50400001928E-02 0. -1.
</event>
<event>
 5   0  0.2129257E-02  0.8106181E+03  0.7818609E-02  0.9544774E-01
        1   -1    0    0  501    0  0.00000000000E+00  0.00000000000E+00  0.29656339762E+03  0.29656339766E+03  0.50400001928E-02 0. -1.
       -1   -1    0    0    0  501  0.00000000000E+00  0.00000000000E+00 -0.55393020292E+03  0.55393020294E+03  0.50400001928E-02 0.  1.
    10030    2    1    2    0    0  0.00000000000E+00  0.00000000000E+00 -0.25736680530E+03  0.85049360060E+03  0.81061809269E+03 0.  0.
        3    1    3    3  502    0 -0.17753756611E+03  0.36435031789E+03 -0.13095104538E+03  0.42593300883E+03  0.10100000352E+00 0.  1.
       -3    1    3    3    0  502  0.17753756611E+03 -0.36435031789E+03 -0.12641575992E+03  0.42456059177E+03  0.10100000352E+00 0. -1.
</event>
<event>
 5   0  0.1989298E-02  0.8072987E+03  0.7818609E-02  0.9549512E-01
       -1   -1    0    0    0  501  0.00000000000E+00  0.00000000000E+00  0.78560817799E+02  0.78560817961E+02  0.50400001928E-02 0. -1.
        1   -1    0    0  501    0  0.00000000000E+00  0.00000000000E+00 -0.20739703267E+04  0.20739703267E+04  0.50400001928E-02 0.  1.
    10030    2    1    2    0    0  0.00000000000E+00  0.00000000000E+00 -0.19954095089E+04  0.21525311447E+04  0.80729871829E+03 0.  0.
        1    1    3    3  502    0 -0.26823319108E+03  0.13633170263E+03 -0.17151301524E+04  0.17413232950E+04  0.50400001928E-02 0.  1.
       -1    1    3    3    0  502  0.26823319108E+03 -0.13633170263E+03 -0.28027935649E+03  0.41120784968E+03  0.50400001928E-02 0. -1.
</event>
<event>
 5   0  0.3404132E-02  0.7403527E+03  0.7818609E-02  0.9650608E-01
        2   -1    0    0  501    0  0.00000000000E+00  0.00000000000E+00  0.26079102027E+03  0.26079102028E+03  0.25500000920E-02 0.  1.
       -2   -1    0    0    0  501  0.00000000000E+00  0.00000000000E+00 -0.52544193734E+03  0.52544193735E+03  0.25500000920E-02 0. -1.
    10030    2    1    2    0    0  0.00000000000E+00  0.00000000000E+00 -0.26465091707E+03  0.78623295763E+03  0.74035272388E+03 0.  0.
        5    1    3    3  502    0  0.13797587926E+02  0.16415304633E+03 -0.48433609829E+03  0.51160545556E+03  0.46999998093E+01 0. -1.
       -5    1    3    3    0  502 -0.13797587926E+02 -0.16415304633E+03  0.21968518122E+03  0.27462750207E+03  0.46999998093E+01 0.  1.
</event>
<event>
 5   0  0.3550586E-02  0.8060869E+03  0.7818609E-02  0.9551248E-01
        2   -1    0    0  501    0  0.00000000000E+00  0.00000000000E+00  0.35858503011E+03  0.35858503012E+03  0.25500000920E-02 0. -1.
       -2   -1    0    0    0  501  0.00000000000E+00  0.00000000000E+00 -0.45301396656E+03  0.45301396656E+03  0.25500000920E-02 0.  1.
    10030    2    1    2    0    0  0.00000000000E+00  0.00000000000E+00 -0.94428936443E+02  0.81159899669E+03  0.80608691057E+03 0.  0.
        3    1    3    3  502    0  0.65641496140E+02  0.37754088174E+03  0.78531882001E+02  0.39116900451E+03  0.10100000352E+00 0. -1.
       -3    1    3    3    0  502 -0.65641496140E+02 -0.37754088174E+03 -0.17296081844E+03  0.42042999217E+03  0.10100000352E+00 0.  1.
</event>
<event>
 5   0  0.3416160E-02  0.7976828E+03  0.7818609E-02  0.9563377E-01
        2   -1    0    0  501    0  0.00000000000E+00  0.00000000000E+00  0.29209811461E+03  0.29209811462E+03  0.25500000920E-02 0. -1.
       -2   -1    0    0    0  501  0.00000000000E+00  0.00000000000E+00 -0.54459259939E+03  0.54459259939E+03  0.25500000920E-02 0.  1.
    10030    2    1    2    0    0  0.00000000000E+00  0.00000000000E+00 -0.25249448478E+03  0.83669071401E+03  0.79768282298E+03 0.  0.
        1    1    3    3  502    0 -0.12569822774E+03 -0.35602506400E+03  0.85705976955E+01  0.37766035776E+03  0.50400001928E-02 0. -1.
       -1    1    3    3    0  502  0.12569822774E+03  0.35602506400E+03 -0.26106508248E+03  0.45903035626E+03  0.50400001928E-02 0.  1.
</event>
<event>
 5   0  0.2063692E-02  0.8027109E+03  0.7818609E-02  0.9556101E-01
       -1   -1    0    0    0  501  0.00000000000E+00  0.00000000000E+00  0.39910060175E+03  0.39910060178E+03  0.50400001928E-02 0.  1.
        1   -1    0    0  501    0  0.00000000000E+00  0.00000000000E+00 -0.40362307537E+03  0.40362307540E+03  0.50400001928E-02 0. -1.
    10030    2    1    2    0    0  0.00000000000E+00  0.00000000000E+00 -0.45224736222E+01  0.80272367718E+03  0.80271093747E+03 0.  0.
        2    1    3    3  502    0  0.58902523060E+02 -0.31569314563E+03 -0.24300255534E+03  0.40271815371E+03  0.25500000920E-02 0. -1.
       -2    1    3    3    0  502 -0.58902523060E+02  0.31569314563E+03  0.23848008172E+03  0.40000552347E+03  0.25500000920E-02 0.  1.
</event>
<event>
 5   0  0.1989298E-02  0.7905419E+03  0.7818609E-02  0.9573809E-01
       -1   -1    0    0    0  501  0.00000000000E+00  0.00000000000E+00  0.87668536276E+03  0.87668536277E+03  0.50400001928E-02 0.  1.
        1   -1    0    0  501    0  0.00000000000E+00  0.00000000000E+00 -0.17821573387E+03  0.17821573394E+03  0.50400001928E-02 0. -1.
    10030    2    1    2    0    0  0.00000000000E+00  0.00000000000E+00  0.69846962889E+03  0.10549010967E+04  0.79054190361E+03 0.  0.
        1    1    3    3  502    0  0.24581097951E+03  0.22015898374E+03  0.63958960642E+03  0.71969985441E+03  0.50400001928E-02 0.  1.
       -1    1    3    3    0  502 -0.24581097951E+03 -0.22015898374E+03  0.58880022472E+02  0.33520124230E+03  0.50400001928E-02 0. -1.
</event>
<event>
 5   0  0.3404132E-02  0.8286144E+03  0.7818609E-02  0.9519498E-01
        2   -1    0    0  501    0  0.00000000000E+00  0.00000000000E+00  0.92896914909E+03  0.92896914910E+03  0.25500000920E-02 0. -1.
       -2   -1    0    0    0  501  0.00000000000E+00  0.00000000000E+00 -0.18477517567E+03  0.18477517568E+03  0.25500000920E-02 0.  1.
    10030    2    1    2    0    0  0.00000000000E+00  0.00000000000E+00  0.74419397343E+03  0.11137443248E+04  0.82861435596E+03 0.  0.
        5    1    3    3  502    0 -0.36397440523E+03  0.15605836461E+03  0.20859747241E+03  0.44762325266E+03  0.46999998093E+01 0.  1.
       -5    1    3    3    0  502  0.36397440523E+03 -0.15605836461E+03  0.53559650102E+03  0.66612107212E+03  0.46999998093E+01 0. -1.
</event>
<event>
 5   0  0.2129257E-02  0.7993809E+03  0.7818609E-02  0.9560914E-01
       -1   -1    0    0    0  501  0.00000000000E+00  0.00000000000E+00  0.27746457200E+03  0.27746457205E+03  0.50400001928E-02 0.  1.
        1   -1    0    0  501    0  0.00000000000E+00  0.00000000000E+00 -0.57575802349E+03  0.57575802352E+03  0.50400001928E-02 0. -1.
    10030    2    1    2    0    0  0.00000000000E+00  0.00000000000E+00 -0.29829345149E+03  0.85322259557E+03  0.79938089443E+03 0.  0.
        3    1    3    3  502    0  0.29160258537E+02 -0.39055764101E+03 -0.63979803425E+02  0.39683625978E+03  0.10100000352E+00 0. -1.
       -3    1    3    3    0  502 -0.29160258537E+02  0.39055764101E+03 -0.23431364806E+03  0.45638633579E+03  0.10100000352E+00 0.  1.
</event>
<event>
 5   0  0.2132540E-02  0.8637851E+03  0.7818609E-02  0.9472020E-01
        1   -1    0    0  501    0  0.00000000000E+00  0.00000000000E+00  0.63181228409E+03  0.63181228411E+03  0.50400001928E-02 0.  1.
       -1   -1    0    0    0  501  0.00000000000E+00  0.00000000000E+00 -0.29523193488E+03  0.29523193493E+03  0.50400001928E-02 0. -1.
    10030    2    1    2    0    0  0.00000000000E+00  0.00000000000E+00  0.33658034920E+03  0.92704421903E+03  0.86378507314E+03 0.  0.
        4    1    3    3  502    0  0.29919383574E+02  0.27685296598E+03 -0.18601846106E+03  0.33488388292E+03  0.12699999809E+01 0. -1.
       -4    1    3    3    0  502 -0.29919383574E+02 -0.27685296598E+03  0.52259881026E+03  0.59216033611E+03  0.12699999809E+01 0.  1.
</event>
<event>
 5   0  0.3404132E-02  0.7954522E+03  0.7818609E-02  0.9566623E-01
       -2   -1    0    0    0  501  0.00000000000E+00  0.00000000000E+00  0.19594396319E+03  0.19594396321E+03  0.25500000920E-02 0.  1.
        2   -1    0    0  501    0  0.00000000000E+00  0.00000000000E+00 -0.80730251707E+03  0.80730251708E+03  0.25500000920E-02 0. -1.
    10030    2    1    2    0    0  0.00000000000E+00  0.00000000000E+00 -0.61135855388E+03  0.10032464803E+04  0.79545221025E+03 0.  0.
        5    1    3    3  502    0 -0.42953234603E+02 -0.64211145017E+02  0.18635464749E+03  0.20178750245E+03  0.46999998093E+01 0.  1.
       -5    1    3    3    0  502  0.42953234603E+02  0.64211145017E+02 -0.79771320137E+03  0.80145897783E+03  0.46999998093E+01 0. -1.
</event>
<event>
 5   0  0.2077795E-02  0.7984124E+03  0.7818609E-02  0.9562318E-01
       -1   -1    0    0    0  501  0.00000000000E+00  0.00000000000E+00  0.44624443659E+03  0.44624443662E+03  0.50400001928E-02 0.  1.
        1   -1    0    0  501    0  0.00000000000E+00  0.00000000000E+00 -0.35712625721E+03  0.35712625725E+03  0.50400001928E-02 0. -1.
    10030    2    1    2    0    0  0.00000000000E+00  0.00000000000E+00  0.89118179382E+02  0.80337069387E+03  0.79841243845E+03 0.  0.
        5    1    3    3  502    0  0.12196366584E+03 -0.73368202117E+02 -0.33069859788E+03  0.36005788632E+03  0.46999998093E+01 0. -1.
       -5    1    3    3    0  502 -0.12196366584E+03  0.73368202117E+02  0.41981677726E+03  0.44331280755E+03  0.46999998093E+01 0.  1.
</event>
<event>
 5   0  0.3404132E-02  0.7821687E+03  0.7818609E-02  0.9586192E-01
        2   -1    0    0  501    0  0.00000000000E+00  0.00000000000E+00  0.10736294474E+04  0.10736294474E+04  0.25500000920E-02 0. -1.
       -2   -1    0    0    0  501  0.00000000000E+00  0.00000000000E+00 -0.14245788150E+03  0.14245788152E+03  0.25500000920E-02 0.  1.
    10030    2    1    2    0    0  0.00000000000E+00  0.00000000000E+00  0.93117156595E+03  0.12160873290E+04  0.78216871993E+03 0.  0.
        5    1    3    3  502    0 -0.33168070044E+03  0.18237370767E+03  0.61833787128E+03  0.72500763400E+03  0.46999998093E+01 0.  1.
       -5    1    3    3    0  502  0.33168070044E+03 -0.18237370767E+03  0.31283369467E+03  0.49107969497E+03  0.46999998093E+01 0. -1.
</event>
<event>
 5   0  0.3343036E-02  0.7876729E+03  0.7818609E-02  0.9578033E-01
       -2   -1    0    0    0  501  0.00000000000E+00  0.00000000000E+00  0.24368083647E+03  0.24368083649E+03  0.25500000920E-02 0.  1.
        2   -1    0    0  501    0  0.00000000000E+00  0.00000000000E+00 -0.63651771109E+03  0.63651771110E+03  0.25500000920E-02 0. -1.
    10030    2    1    2    0    0  0.00000000000E+00  0.00000000000E+00 -0.39283687462E+03  0.88019854759E+03  0.78767294806E+03 0.  0.
        4    1    3    3  502    0  0.34052604851E+03 -0.88683611443E+02 -0.39406415380E+03  0.52830951427E+03  0.12699999809E+01 0.  1.
       -4    1    3    3    0  502 -0.34052604851E+03  0.88683611443E+02  0.12272791818E+01  0.35188903332E+03  0.12699999809E+01 0. -1.
</event>
<event>
 5   0  0.3416160E-02  0.8015041E+03  0.7818609E-02  0.9557843E-01
        2   -1    0    0  501    0  0.00000000000E+00  0.00000000000E+00  0.98487800474E+03  0.98487800475E+03  0.25500000920E-02 0.  1.
       -2   -1    0    0    0  501  0.00000000000E+00  0.00000000000E+00 -0.16306811919E+03  0.16306811921E+03  0.25500000920E-02 0. -1.
    10030    2    1    2    0    0  0.00000000000E+00  0.00000000000E+00  0.82180988555E+03  0.11479461240E+04  0.80150409577E+03 0.  0.
        1    1    3    3  502    0  0.15624680087E+03  0.33802947181E+01  0.93943389301E+03  0.95234475298E+03  0.50400001928E-02 0.  1.
       -1    1    3    3    0  502 -0.15624680087E+03 -0.33802947181E+01 -0.11762400746E+03  0.19560137098E+03  0.50400001928E-02 0. -1.
</event>
<event>
 5   0  0.3416160E-02  0.8229778E+03  0.7818609E-02  0.9527341E-01
        2   -1    0    0  501    0  0.00000000000E+00  0.00000000000E+00  0.25942980125E+03  0.25942980126E+03  0.25500000920E-02 0.  1.
       -2   -1    0    0    0  501  0.00000000000E+00  0.00000000000E+00 -0.65267404505E+03  0.65267404506E+03  0.25500000920E-02 0. -1.
    10030    2    1    2    0    0  0.00000000000E+00  0.00000000000E+00 -0.39324424381E+03  0.91210384632E+03  0.82297775862E+03 0.  0.
        1    1    3    3  502    0 -0.18440737433E+03 -0.64768637527E+02  0.20470086901E+03  0.28302562059E+03  0.50400001928E-02 0.  1.
       -1    1    3    3    0  502  0.18440737433E+03  0.64768637527E+02 -0.59794511282E+03  0.62907822572E+03  0.50400001928E-02 0. -1.
</event>
<event>
 5   0  0.2063692E-02  0.8177936E+03  0.7818609E-02  0.9534613E-01
        1   -1    0    0  501    0  0.00000000000E+00  0.00000000000E+00  0.13606235498E+04  0.13606235498E+04  0.50400001928E-02 0.  1.
       -1   -1    0    0    0  501  0.00000000000E+00  0.00000000000E+00 -0.12288234504E+03  0.12288234514E+03  0.50400001928E-02 0. -1.
    10030    2    1    2    0    0  0.00000000000E+00  0.00000000000E+00  0.12377412047E+04  0.14835058949E+04  0.81779364779E+03 0.  0.
        2    1    3    3  502    0  0.17114735731E+03 -0.18124930299E+03  0.30905429610E+02  0.25119290064E+03  0.25500000920E-02 0. -1.
       -2    1    3    3    0  502 -0.17114735731E+03  0.18124930299E+03  0.12068357751E+04  0.12323129943E+04  0.25500000920E-02 0.  1.
</event>
<event>
 5   0  0.3416160E-02  0.8040854E+03  0.7818609E-02  0.9554122E-01
        2   -1    0    0  501    0  0.00000000000E+00  0.00000000000E+00  0.63067576103E+03  0.63067576104E+03  0.25500000920E-02 0.  1.
       -2   -1    0    0    0  501  0.00000000000E+00  0.00000000000E+00 -0.25629388263E+03  0.25629388264E+03  0.25500000920E-02 0. -1.
    10030    2    1    2    0    0  0.00000000000E+00  0.00000000000E+00  0.37438187840E+03  0.88696964368E+03  0.80408541706E+03 0.  0.
        1    1    3    3  502    0 -0.31432891767E+03  0.77691609204E+02  0.45008424867E+03  0.55444971418E+03  0.50400001928E-02 0.  1.
       -1    1    3    3    0  502  0.31432891767E+03 -0.77691609204E+02 -0.75702370268E+02  0.33251992950E+03  0.50400001928E-02 0. -1.
</event>
<event>
 5   0  0.2077795E-02  0.7970450E+03  0.7818609E-02  0.9564304E-01
        1   -1    0    0  501    0  0.00000000000E+00  0.00000000000E+00  0.13154040174E+04  0.13154040174E+04  0.50400001928E-02 0.  1.
       -1   -1    0    0    0  501  0.00000000000E+00  0.00000000000E+00 -0.12073869891E+03  0.12073869902E+03  0.50400001928E-02 0. -1.
    10030    2    1    2    0    0  0.00000000000E+00  0.00000000000E+00  0.11946653185E+04  0.14361427165E+04  0.79704496659E+03 0.  0.
        5    1    3    3  502    0  0.19673124705E+03 -0.92129577975E+02 -0.46175443240E+01  0.21733489001E+03  0.46999998093E+01 0. -1.
       -5    1    3    3    0  502 -0.19673124705E+03  0.92129577975E+02  0.11992828628E+04  0.12188078264E+04  0.46999998093E+01 0.  1.
</event>
<event>
 5   0  0.2129257E-02  0.7839533E+03  0.7818609E-02  0.9583539E-01
       -1   -1    0    0    0  501  0.00000000000E+00  0.00000000000E+00  0.17586822975E+03  0.17586822983E+03  0.50400001928E-02 0.  1.
        1   -1    0    0  501    0  0.00000000000E+00  0.00000000000E+00 -0.87364107011E+03  0.87364107012E+03  0.50400001928E-02 0. -1.
    10030    2    1    2    0    0  0.00000000000E+00  0.00000000000E+00 -0.69777284035E+03  0.10495093000E+04  0.78395333659E+03 0.  0.
        3    1    3    3  502    0 -0.36789699269E+03 -0.13090872608E+03 -0.30328260748E+03  0.49443466909E+03  0.10100000352E+00 0.  1.
       -3    1    3    3    0  502  0.36789699269E+03  0.13090872608E+03 -0.39449023287E+03  0.55507463086E+03  0.10100000352E+00 0. -1.
</event>
<event>
 5   0  0.3343036E-02  0.7925070E+03  0.7818609E-02  0.9570927E-01
        2   -1    0    0  501    0  0.00000000000E+00  0.00000000000E+00  0.94718863593E+03  0.94718863593E+03  0.25500000920E-02 0. -1.
       -2   -1    0    0    0  501  0.00000000000E+00  0.00000000000E+00 -0.16577143853E+03  0.16577143855E+03  0.25500000920E-02 0.  1.
    10030    2    1    2    0    0  0.00000000000E+00  0.00000000000E+00  0.78141719740E+03  0.11129600745E+04  0.79250696591E+03 0.  0.
        4    1    3    3  502    0  0.17905216277E+03  0.26279681832E+03  0.58694423819E+02  0.32337051968E+03  0.12699999809E+01 0.  1.
       -4    1    3    3    0  502 -0.17905216277E+03 -0.26279681832E+03  0.72272277358E+03  0.78958955481E+03  0.12699999809E+01 0. -1.
</event>
<event>
 5   0  0.2132540E-02  0.7961470E+03  0.7818609E-02  0.9565611E-01
       -1   -1    0    0    0  501  0.00000000000E+00  0.00000000000E+00  0.27444583955E+03  0.27444583959E+03  0.50400001928E-02 0. -1.
        1   -1    0    0  501    0  0.00000000000E+00  0.00000000000E+00 -0.57739086996E+03  0.57739086998E+03  0.50400001928E-02 0.  1.
    10030    2    1    2    0    0  0.00000000000E+00  0.00000000000E+00 -0.30294503042E+03  0.85183670958E+03  0.79614702683E+03 0.  0.
        4    1    3    3  502    0  0.33463614919E+03  0.14100896023E+03  0.23017861864E+02  0.36386304302E+03  0.12699999809E+01 0. -1.
       -4    1    3    3    0  502 -0.33463614919E+03 -0.14100896023E+03 -0.32596289228E+03  0.48797366656E+03  0.12699999809E+01 0.  1.
</event>
<event>
 5   0  0.3550586E-02  0.8024491E+03  0.7818609E-02  0.9556479E-01
       -2   -1    0    0    0  501  0.00000000000E+00  0.00000000000E+00  0.28650803370E+03  0.28650803371E+03  0.25500000920E-02 0.  1.
        2   -1    0    0  501    0  0.00000000000E+00  0.00000000000E+00 -0.56187298659E+03  0.56187298660E+03  0.25500000920E-02 0. -1.
    10030    2    1    2    0    0  0.00000000000E+00  0.00000000000E+00 -0.27536495289E+03  0.84838102031E+03  0.80244906277E+03 0.  0.
        3    1    3    3  502    0  0.32523150701E+03 -0.29940543030E+02 -0.38406503068E+03  0.50416061653E+03  0.10100000352E+00 0. -1.
       -3    1    3    3    0  502 -0.32523150701E+03  0.29940543030E+02  0.10870007779E+03  0.34422040378E+03  0.10100000352E+00 0.  1.
</event>
<event>
 5   0  0.3550586E-02  0.7958013E+03  0.7818609E-02  0.9566115E-01
       -2   -1    0    0    0  501  0.00000000000E+00  0.00000000000E+00  0.19785479640E+03  0.19785479642E+03  0.25500000920E-02 0.  1.
        2   -1    0    0  501    0  0.00000000000E+00  0.00000000000E+00 -0.80020768236E+03  0.80020768237E+03  0.25500000920E-02 0. -1.
    10030    2    1    2    0    0  0.00000000000E+00  0.00000000000E+00 -0.60235288596E+03  0.99806247878E+03  0.79580130204E+03 0.  0.
        3    1    3    3  502    0  0.27135847698E+03 -0.24725116944E+03 -0.10868690935E+03  0.38285952813E+03  0.10100000352E+00 0.  1.
       -3    1    3    3    0  502 -0.27135847698E+03  0.24725116944E+03 -0.49366597661E+03  0.61520295065E+03  0.10100000352E+00 0. -1.
</event>
<event>
 5   0  0.3550586E-02  0.8086189E+03  0.7818609E-02  0.9547625E-01
       -2   -1    0    0    0  501  0.00000000000E+00  0.00000000000E+00  0.69400110535E+02  0.69400110582E+02  0.25500000920E-02 0.  1.
        2   -1    0    0  501    0  0.00000000000E+00  0.00000000000E+00 -0.23554160856E+04  0.23554160856E+04  0.25500000920E-02 0. -1.
    10030    2    1    2    0    0  0.00000000000E+00  0.00000000000E+00 -0.22860159750E+04  0.24248161962E+04  0.80861891334E+03 0.  0.
        3    1    3    3  502    0  0.62074809890E+02 -0.63298194772E+02 -0.23259088650E+04  0.23275979039E+04  0.10100000352E+00 0. -1.
       -3    1    3    3    0  502 -0.62074809890E+02  0.63298194772E+02  0.39892889983E+02  0.97218292293E+02  0.10100000352E+00 0.  1.
</event>
<event>
 5   0  0.2063692E-02  0.7860077E+03  0.7818609E-02  0.9580494E-01
        1   -1    0    0  501    0  0.00000000000E+00  0.00000000000E+00  0.10096876573E+04  0.10096876573E+04  0.50400001928E-02 0.  1.
       -1   -1    0    0    0  501  0.00000000000E+00  0.00000000000E+00 -0.15297009253E+03  0.15297009261E+03  0.50400001928E-02 0. -1.
    10030    2    1    2    0    0  0.00000000000E+00  0.00000000000E+00  0.85671756481E+03  0.11626577500E+04  0.78600767025E+03 0.  0.
        2    1    3    3  502    0  0.64623252440E+02 -0.31217650376E+03  0.76832143742E+03  0.83183421754E+03  0.25500000920E-02 0.  1.
       -2    1    3    3    0  502 -0.64623252440E+02  0.31217650376E+03  0.88396127382E+02  0.33082353242E+03  0.25500000920E-02 0. -1.
</event>
<event>
 5   0  0.3404132E-02  0.1011321E+04  0.7818609E-02  0.9296215E-01
        2   -1    0    0  501    0  0.00000000000E+00  0.00000000000E+00  0.24338725584E+04  0.24338725584E+04  0.25500000920E-02 0.  1.
       -2   -1    0    0    0  501  0.00000000000E+00  0.00000000000E+00 -0.10505584788E+03  0.10505584791E+03  0.25500000920E-02 0. -1.
    10030    2    1    2    0    0  0.00000000000E+00  0.00000000000E+00  0.23288167105E+04  0.25389284063E+04  0.10113210080E+04 0.  0.
        5    1    3    3  502    0 -0.22086615199E+03 -0.40936591440E+03  0.66666816689E+03  0.81291502859E+03  0.46999998093E+01 0.  1.
       -5    1    3    3    0  502  0.22086615199E+03  0.40936591440E+03  0.16621485436E+04  0.17260133777E+04  0.46999998093E+01 0. -1.
</event>
<event>
 5   0  0.3404132E-02  0.8021129E+03  0.7818609E-02  0.9556964E-01
       -2   -1    0    0    0  501  0.00000000000E+00  0.00000000000E+00  0.18478833609E+03  0.18478833611E+03  0.25500000920E-02 0. -1.
        2   -1    0    0  501    0  0.00000000000E+00  0.00000000000E+00 -0.87043520751E+03  0.87043520752E+03  0.25500000920E-02 0.  1.
    10030    2    1    2    0    0  0.00000000000E+00  0.00000000000E+00 -0.68564687143E+03  0.10552235436E+04  0.80211289400E+03 0.  0.
        5    1    3    3  502    0  0.65190981790E+02  0.34765185708E+03 -0.94213124667E+02  0.36607360011E+03  0.46999998093E+01 0. -1.
       -5    1    3    3    0  502 -0.65190981790E+02 -0.34765185708E+03 -0.59143374676E+03  0.68914994351E+03  0.46999998093E+01 0.  1.
</event>
<event>
 5   0  0.3343036E-02  0.7897135E+03  0.7818609E-02  0.9575027E-01
       -2   -1    0    0    0  501  0.00000000000E+00  0.00000000000E+00  0.38925892908E+03  0.38925892909E+03  0.25500000920E-02 0. -1.
        2   -1    0    0  501    0  0.00000000000E+00  0.00000000000E+00 -0.40053508531E+03  0.40053508532E+03  0.25500000920E-02 0.  1.
    10030    2    1    2    0    0  0.00000000000E+00  0.00000000000E+00 -0.11276156228E+02  0.78979401441E+03  0.78971351356E+03 0.  0.
        4    1    3    3  502    0  0.20582224563E+03  0.33690279819E+03 -0.12268478656E+02  0.39499167167E+03  0.12699999809E+01 0. -1.
       -4    1    3    3    0  502 -0.20582224563E+03 -0.33690279819E+03  0.99232242839E+00  0.39480234273E+03  0.12699999809E+01 0.  1.
</event>
<event>
 5   0  0.3343036E-02  0.8776777E+03  0.7818609E-02  0.9453924E-01
       -2   -1    0    0    0  501  0.00000000000E+00  0.00000000000E+00  0.15546594360E+03  0.15546594362E+03  0.25500000920E-02 0.  1.
        2   -1    0    0  501    0  0.00000000000E+00  0.00000000000E+00 -0.12387248637E+04  0.12387248637E+04  0.25500000920E-02 0. -1.
    10030    2    1    2    0    0  0.00000000000E+00  0.00000000000E+00 -0.10832589201E+04  0.13941908074E+04  0.87767768531E+03 0.  0.
        4    1    3    3  502    0  0.13549659500E+03  0.41345059242E+03 -0.63256600560E+03  0.76775131648E+03  0.12699999809E+01 0.  1.
       -4    1    3    3    0  502 -0.13549659500E+03 -0.41345059242E+03 -0.45069291454E+03  0.62643949089E+03  0.12699999809E+01 0. -1.
</event>
<event>
 5   0  0.2063692E-02  0.7647017E+03  0.7818609E-02  0.9612564E-01
        1   -1    0    0  501    0  0.00000000000E+00  0.00000000000E+00  0.50268728304E+03  0.50268728307E+03  0.50400001928E-02 0.  1.
       -1   -1    0    0    0  501  0.00000000000E+00  0.00000000000E+00 -0.29082132801E+03  0.29082132806E+03  0.50400001928E-02 0. -1.
    10030    2    1    2    0    0  0.00000000000E+00  0.00000000000E+00  0.21186595503E+03  0.79350861112E+03  0.76470172814E+03 0.  0.
        2    1    3    3  502    0 -0.37933898274E+03  0.15940098048E+02  0.59064792437E+02  0.38424055000E+03  0.25500000920E-02 0. -1.
       -2    1    3    3    0  502  0.37933898274E+03 -0.15940098048E+02  0.15280116259E+03  0.40926806112E+03  0.25500000920E-02 0.  1.
</event>
<event>
 5   0  0.3550586E-02  0.8086444E+03  0.7818609E-02  0.9547588E-01
        2   -1    0    0  501    0  0.00000000000E+00  0.00000000000E+00  0.49301811591E+03  0.49301811591E+03  0.25500000920E-02 0. -1.
       -2   -1    0    0    0  501  0.00000000000E+00  0.00000000000E+00 -0.33158302965E+03  0.33158302966E+03  0.25500000920E-02 0.  1.
    10030    2    1    2    0    0  0.00000000000E+00  0.00000000000E+00  0.16143508626E+03  0.82460114557E+03  0.80864439787E+03 0.  0.
        3    1    3    3  502    0 -0.24430735921E+03  0.13015116234E+03  0.38123784199E+03  0.47113449586E+03  0.10100000352E+00 0. -1.
       -3    1    3    3    0  502  0.24430735921E+03 -0.13015116234E+03 -0.21980275574E+03  0.35346664971E+03  0.10100000352E+00 0.  1.
</event>
<event>
 5   0  0.2132540E-02  0.8023025E+03  0.7818609E-02  0.9556690E-01
       -1   -1    0    0    0  501  0.00000000000E+00  0.00000000000E+00  0.58745599465E+03  0.58745599467E+03  0.50400001928E-02 0. -1.
        1   -1    0    0  501    0  0.00000000000E+00  0.00000000000E+00 -0.27393085688E+03  0.27393085693E+03  0.50400001928E-02 0.  1.
    10030    2    1    2    0    0  0.00000000000E+00  0.00000000000E+00  0.31352513777E+03  0.86138685160E+03  0.80230249663E+03 0.  0.
        4    1    3    3  502    0  0.94999461701E+02 -0.38719506209E+03  0.20448595912E+03  0.44806364973E+03  0.12699999809E+01 0.  1.
       -4    1    3    3    0  502 -0.94999461701E+02  0.38719506209E+03  0.10903917864E+03  0.41332320187E+03  0.12699999809E+01 0. -1.
</event>
<event>
 5   0  0.3416160E-02  0.8144926E+03  0.7818609E-02  0.9539273E-01
        2   -1    0    0  501    0  0.00000000000E+00  0.00000000000E+00  0.28050034349E+03  0.28050034351E+03  0.25500000920E-02 0.  1.
       -2   -1    0    0    0  501  0.00000000000E+00  0.00000000000E+00 -0.59126325979E+03  0.59126325979E+03  0.25500000920E-02 0. -1.
    10030    2    1    2    0    0  0.00000000000E+00  0.00000000000E+00 -0.31076291629E+03  0.87176360330E+03  0.81449259658E+03 0.  0.
        1    1    3    3  502    0  0.32473007633E+03 -0.11230415301E+03 -0.38935657140E+03  0.51928834473E+03  0.50400001928E-02 0. -1.
       -1    1    3    3    0  502 -0.32473007633E+03  0.11230415301E+03  0.78593655104E+02  0.35247525857E+03  0.50400001928E-02 0.  1.
</event>
<event>
 5   0  0.3467240E-02  0.8015415E+03  0.7818609E-02  0.9557788E-01
        2   -1    0    0  501    0  0.00000000000E+00  0.00000000000E+00  0.73562213928E+03  0.73562213929E+03  0.25500000920E-02 0. -1.
       -2   -1    0    0    0  501  0.00000000000E+00  0.00000000000E+00 -0.21834199900E+03  0.21834199901E+03  0.25500000920E-02 0.  1.
    10030    2    1    2    0    0  0.00000000000E+00  0.00000000000E+00  0.51728014028E+03  0.95396413830E+03  0.80154153581E+03 0.  0.
        2    1    3    3  502    0 -0.25259512509E+03  0.89193994998E+02 -0.96134658528E+02  0.28460804370E+03  0.25500000920E-02 0.  1.
       -2    1    3    3    0  502  0.25259512509E+03 -0.89193994998E+02  0.61341479881E+03  0.66935609460E+03  0.25500000920E-02 0. -1.
</event>
<event>
 5   0  0.2132540E-02  0.7840118E+03  0.7818609E-02  0.9583452E-01
       -1   -1    0    0    0  501  0.00000000000E+00  0.00000000000E+00  0.88854189925E+02  0.88854190068E+02  0.50400001928E-02 0. -1.
        1   -1    0    0  501    0  0.00000000000E+00  0.00000000000E+00 -0.17294472134E+04  0.17294472134E+04  0.50400001928E-02 0.  1.
    10030    2    1    2    0    0  0.00000000000E+00  0.00000000000E+00 -0.16405930235E+04  0.18183014035E+04  0.78401181445E+03 0.  0.
        4    1    3    3  502    0  0.99421972885E+02 -0.34478375667E+03 -0.45428125440E+03  0.57890727976E+03  0.12699999809E+01 0. -1.
       -4    1    3    3    0  502 -0.99421972885E+02  0.34478375667E+03 -0.11863117691E+04  0.12393941237E+04  0.12699999809E+01 0.  1.
</event>
<event>
 5   0  0.2063692E-02  0.8202010E+03  0.7818609E-02  0.9531229E-01
       -1   -1    0    0    0  501  0.00000000000E+00  0.00000000000E+00  0.21200680086E+03  0.21200680092E+03  0.50400001928E-02 0. -1.
        1   -1    0    0  501    0  0.00000000000E+00  0.00000000000E+00 -0.79328777555E+03  0.79328777556E+03  0.50400001928E-02 0.  1.
    10030    2    1    2    0    0  0.00000000000E+00  0.00000000000E+00 -0.58128097469E+03  0.10052945765E+04  0.82020095950E+03 0.  0.
        2    1    3    3  502    0  0.38005178689E+01 -0.41157309591E+02  0.20944738220E+03  0.21348670681E+03  0.25500000920E-02 0. -1.
       -2    1    3    3    0  502 -0.38005178689E+01  0.41157309591E+02 -0.79072835689E+03  0.79180786967E+03  0.25500000920E-02 0.  1.
</event>
<event>
 5   0  0.3343036E-02  0.7349786E+03  0.7818609E-02  0.9659216E-01
       -2   -1    0    0    0  501  0.00000000000E+00  0.00000000000E+00  0.21883386000E+03  0.21883386002E+03  0.25500000920E-02 0. -1.
        2   -1    0    0  501    0  0.00000000000E+00  0.00000000000E+00 -0.61712743345E+03  0.61712743346E+03  0.25500000920E-02 0.  1.
    10030    2    1    2    0    0  0.00000000000E+00  0.00000000000E+00 -0.39829357345E+03  0.83596129347E+03  0.73497858032E+03 0.  0.
        4    1    3    3  502    0  0.92559772071E+02 -0.32498144115E+03 -0.36344637243E+03  0.49626114802E+03  0.12699999809E+01 0.  1.
       -4    1    3    3    0  502 -0.92559772071E+02  0.32498144115E+03 -0.34847201019E+02  0.33970014545E+03  0.12699999809E+01 0. -1.
</event>
<event>
 5   0  0.3343036E-02  0.7918216E+03  0.7818609E-02  0.9571931E-01
       -2   -1    0    0    0  501  0.00000000000E+00  0.00000000000E+00  0.12322938648E+03  0.12322938651E+03  0.25500000920E-02 0.  1.
        2   -1    0    0  501    0  0.00000000000E+00  0.00000000000E+00 -0.12719802906E+04  0.12719802906E+04  0.25500000920E-02 0. -1.
    10030    2    1    2    0    0  0.00000000000E+00  0.00000000000E+00 -0.11487509042E+04  0.13952096772E+04  0.79182157297E+03 0.  0.
        4    1    3    3  502    0  0.15806140520E+03 -0.67312866827E+02 -0.12028761044E+04  0.12150831104E+04  0.12699999809E+01 0. -1.
       -4    1    3    3    0  502 -0.15806140520E+03  0.67312866827E+02  0.54125200198E+02  0.18012656675E+03  0.12699999809E+01 0.  1.
</event>
<event>
 5   0  0.2132540E-02  0.8005506E+03  0.7818609E-02  0.9559220E-01
       -1   -1    0    0    0  501  0.00000000000E+00  0.00000000000E+00  0.41059834823E+03  0.41059834826E+03  0.50400001928E-02 0.  1.
        1   -1    0    0  501    0  0.00000000000E+00  0.00000000000E+00 -0.39021181243E+03  0.39021181246E+03  0.50400001928E-02 0. -1.
    10030    2    1    2    0    0  0.00000000000E+00  0.00000000000E+00  0.20386535805E+02  0.80081016072E+03  0.80055062468E+03 0.  0.
        4    1    3    3  502    0 -0.94990900670E+01  0.11486516981E+03  0.39363786582E+03  0.41016657866E+03  0.12699999809E+01 0.  1.
       -4    1    3    3    0  502  0.94990900670E+01 -0.11486516981E+03 -0.37325133001E+03  0.39064358206E+03  0.12699999809E+01 0. -1.
</event>
<event>
 5   0  0.2063692E-02  0.8235824E+03  0.7818609E-02  0.9526496E-01
        1   -1    0    0  501    0  0.00000000000E+00  0.00000000000E+00  0.64893867868E+03  0.64893867870E+03  0.50400001928E-02 0. -1.
       -1   -1    0    0    0  501  0.00000000000E+00  0.00000000000E+00 -0.26130664870E+03  0.26130664875E+03  0.50400001928E-02 0.  1.
    10030    2    1    2    0    0  0.00000000000E+00  0.00000000000E+00  0.38763202998E+03  0.91024532745E+03  0.82358239750E+03 0.  0.
        2    1    3    3  502    0 -0.51226643203E+02 -0.29403410237E+03 -0.11974866562E+03  0.32158974681E+03  0.25500000920E-02 0.  1.
       -2    1    3    3    0  502  0.51226643203E+02  0.29403410237E+03  0.50738069560E+03  0.58865558063E+03  0.25500000920E-02 0. -1.
</event>
<event>
 5   0  0.3404132E-02  0.7904402E+03  0.7818609E-02  0.9573959E-01
        2   -1    0    0  501    0  0.00000000000E+00  0.00000000000E+00  0.12747226935E+04  0.12747226935E+04  0.25500000920E-02 0. -1.
       -2   -1    0    0    0  501  0.00000000000E+00  0.00000000000E+00 -0.12253560311E+03  0.12253560314E+03  0.25500000920E-02 0.  1.
    10030    2    1    2    0    0  0.00000000000E+00  0.00000000000E+00  0.11521870904E+04  0.13972582966E+04  0.79044016615E+03 0.  0.
        5    1    3    3  502    0  0.24992814439E+03 -0.18462775083E+03  0.14445210617E+03  0.34269517754E+03  0.46999998093E+01 0.  1.
       -5    1    3    3    0  502 -0.24992814439E+03  0.18462775083E+03  0.10077349842E+04  0.10545631191E+04  0.46999998093E+01 0. -1.
</event>
<event>
 5   0  0.3404132E-02  0.8147820E+03  0.7818609E-02  0.9538864E-01
       -2   -1    0    0    0  501  0.00000000000E+00  0.00000000000E+00  0.25964196301E+03  0.25964196302E+03  0.25500000920E-02 0. -1.
        2   -1    0    0  501    0  0.00000000000E+00  0.00000000000E+00 -0.63921644238E+03  0.63921644239E+03  0.25500000920E-02 0.  1.
    10030    2    1    2    0    0  0.00000000000E+00  0.00000000000E+00 -0.37957447937E+03  0.89885840541E+03  0.81478196322E+03 0.  0.
        5    1    3    3  502    0  0.33110853478E+03  0.41610582463E+02  0.67946158121E+02  0.34059223828E+03  0.46999998093E+01 0. -1.
       -5    1    3    3    0  502 -0.33110853478E+03 -0.41610582463E+02 -0.44752063749E+03  0.55826616713E+03  0.46999998093E+01 0.  1.
</event>
<event>
 5   0  0.2077795E-02  0.7810706E+03  0.7818609E-02  0.9587828E-01
        1   -1    0    0  501    0  0.00000000000E+00  0.00000000000E+00  0.50755335535E+03  0.50755335537E+03  0.50400001928E-02 0.  1.
       -1   -1    0    0    0  501  0.00000000000E+00  0.00000000000E+00 -0.30049613661E+03  0.30049613665E+03  0.50400001928E-02 0. -1.
    10030    2    1    2    0    0  0.00000000000E+00  0.00000000000E+00  0.20705721874E+03  0.80804949203E+03  0.78107060483E+03 0.  0.
        5    1    3    3  502    0  0.30735882522E+03  0.14231064273E+03 -0.97539854603E+02  0.35250231164E+03  0.46999998093E+01 0. -1.
       -5    1    3    3    0  502 -0.30735882522E+03 -0.14231064273E+03  0.30459707334E+03  0.45554718039E+03  0.46999998093E+01 0.  1.
</event>
<event>
 5   0  0.3467240E-02  0.7911639E+03  0.7818609E-02  0.9572896E-01
        2   -1    0    0  501    0  0.00000000000E+00  0.00000000000E+00  0.36791245802E+03  0.36791245803E+03  0.25500000920E-02 0.  1.
       -2   -1    0    0    0  501  0.00000000000E+00  0.00000000000E+00 -0.42533235666E+03  0.42533235667E+03  0.25500000920E-02 0. -1.
    10030    2    1    2    0    0  0.00000000000E+00  0.00000000000E+00 -0.57419898639E+02  0.79324481470E+03  0.79116388397E+03 0.  0.
        2    1    3    3  502    0  0.12198358511E+03  0.37407612250E+03  0.12289319679E+02  0.39365463016E+03  0.25500000920E-02 0. -1.
       -2    1    3    3    0  502 -0.12198358511E+03 -0.37407612250E+03 -0.69709218318E+02  0.39959018454E+03  0.25500000920E-02 0.  1.
</event>
<event>
 5   0  0.2132540E-02  0.8279943E+03  0.7818609E-02  0.9520358E-01
       -1   -1    0    0    0  501  0.00000000000E+00  0.00000000000E+00  0.18321247325E+03  0.18321247332E+03  0.50400001928E-02 0.  1.
        1   -1    0    0  501    0  0.00000000000E+00  0.00000000000E+00 -0.93549112383E+03  0.93549112385E+03  0.50400001928E-02 0. -1.
    10030    2    1    2    0    0  0.00000000000E+00  0.00000000000E+00 -0.75227865058E+03  0.11187035972E+04  0.82799430565E+03 0.  0.
        4    1    3    3  502    0 -0.13246466262E+03  0.83366349976E+02 -0.89397441848E+03  0.90757297720E+03  0.12699999809E+01 0. -1.
       -4    1    3    3    0  502  0.13246466262E+03 -0.83366349976E+02  0.14169576789E+03  0.21113061997E+03  0.12699999809E+01 0.  1.
</event>
<event>
 5   0  0.3550586E-02  0.7978731E+03  0.7818609E-02  0.9563101E-01
        2   -1    0    0  501    0  0.00000000000E+00  0.00000000000E+00  0.17919043264E+04  0.17919043264E+04  0.25500000920E-02 0.  1.
       -2   -1    0    0    0  501  0.00000000000E+00  0.00000000000E+00 -0.88816340799E+02  0.88816340836E+02  0.25500000920E-02 0. -1.
    10030    2    1    2    0    0  0.00000000000E+00  0.00000000000E+00  0.17030879856E+04  0.18807206672E+04  0.79787313621E+03 0.  0.
        3    1    3    3  502    0  0.27173736857E+03  0.22324260076E+03  0.40759528575E+03  0.53834225492E+03  0.10100000352E+00 0. -1.
       -3    1    3    3    0  502 -0.27173736857E+03 -0.22324260076E+03  0.12954926999E+04  0.13423784123E+04  0.10100000352E+00 0.  1.
</event>
<event>
 5   0  0.1358000E-02  0.7910909E+03  0.7818609E-02  0.9573003E-01
        4   -1    0    0  501    0  0.00000000000E+00  0.00000000000E+00  0.60966019710E+03  0.60966151988E+03  0.12699999809E+01 0.  1.
       -4   -1    0    0    0  501  0.00000000000E+00  0.00000000000E+00 -0.25662537702E+03  0.25662851952E+03  0.12699999809E+01 0. -1.
    10030    2    1    2    0    0  0.00000000000E+00  0.00000000000E+00  0.35303482008E+03  0.86629003940E+03  0.79109092282E+03 0.  0.
        2    1    3    3  502    0 -0.24176196617E+02 -0.27393350775E+03 -0.13481834761E+03  0.30626792521E+03  0.25500000920E-02 0. -1.
       -2    1    3    3    0  502  0.24176196617E+02  0.27393350775E+03  0.48785316769E+03  0.56002211419E+03  0.25500000920E-02 0.  1.
</event>
<event>
 5   0  0.3467240E-02  0.7859425E+03  0.7818609E-02  0.9580591E-01
        2   -1    0    0  501    0  0.00000000000E+00  0.00000000000E+00  0.15932040560E+04  0.15932040560E+04  0.25500000920E-02 0. -1.
       -2   -1    0    0    0  501  0.00000000000E+00  0.00000000000E+00 -0.96928207430E+02  0.96928207464E+02  0.25500000920E-02 0.  1.
    10030    2    1    2    0    0  0.00000000000E+00  0.00000000000E+00  0.14962758486E+04  0.16901322635E+04  0.78594252526E+03 0.  0.
        2    1    3    3  502    0 -0.22643695971E+03 -0.19354269852E+03  0.19695905406E+03  0.35710690536E+03  0.25500000920E-02 0.  1.
       -2    1    3    3    0  502  0.22643695971E+03  0.19354269852E+03  0.12993167945E+04  0.13330253581E+04  0.25500000920E-02 0. -1.
</event>
<event>
 5   0  0.2129257E-02  0.8144766E+03  0.7818609E-02  0.9539296E-01
       -1   -1    0    0    0  501  0.00000000000E+00  0.00000000000E+00  0.17622979542E+03  0.17622979550E+03  0.50400001928E-02 0.  1.
        1   -1    0    0  501    0  0.00000000000E+00  0.00000000000E+00 -0.94106123823E+03  0.94106123825E+03  0.50400001928E-02 0. -1.
    10030    2    1    2    0    0  0.00000000000E+00  0.00000000000E+00 -0.76483144281E+03  0.11172910337E+04  0.81447659154E+03 0.  0.
        3    1    3    3  502    0 -0.39876039727E+02 -0.34465372941E+03 -0.67492157086E+03  0.75887774295E+03  0.10100000352E+00 0. -1.
       -3    1    3    3    0  502  0.39876039727E+02  0.34465372941E+03 -0.89909871950E+02  0.35841329079E+03  0.10100000352E+00 0.  1.
</event>
<event>
 5   0  0.3467240E-02  0.7885973E+03  0.7818609E-02  0.9576670E-01
       -2   -1    0    0    0  501  0.00000000000E+00  0.00000000000E+00  0.12001077208E+03  0.12001077211E+03  0.25500000920E-02 0. -1.
        2   -1    0    0  501    0  0.00000000000E+00  0.00000000000E+00 -0.12954789187E+04  0.12954789187E+04  0.25500000920E-02 0.  1.
    10030    2    1    2    0    0  0.00000000000E+00  0.00000000000E+00 -0.11754681466E+04  0.14154896908E+04  0.78859729968E+03 0.  0.
        2    1    3    3  502    0 -0.23961519873E+02 -0.24274521208E+03 -0.11437967834E+04  0.11695171971E+04  0.25500000920E-02 0.  1.
       -2    1    3    3    0  502  0.23961519873E+02  0.24274521208E+03 -0.31671363179E+02  0.24597249374E+03  0.25500000920E-02 0. -1.
</event>
<event>
 5   0  0.2077795E-02  0.7986079E+03  0.7818609E-02  0.9562034E-01
        1   -1    0    0  501    0  0.00000000000E+00  0.00000000000E+00  0.82890514466E+03  0.82890514468E+03  0.50400001928E-02 0. -1.
       -1   -1    0    0    0  501  0.00000000000E+00  0.00000000000E+00 -0.19235451249E+03  0.19235451255E+03  0.50400001928E-02 0.  1.
    10030    2    1    2    0    0  0.00000000000E+00  0.00000000000E+00  0.63655063218E+03  0.10212596572E+04  0.79860790139E+03 0.  0.
        5    1    3    3  502    0  0.22772174333E+03 -0.32440294452E+03  0.25658608280E+03  0.47217896044E+03  0.46999998093E+01 0.  1.
       -5    1    3    3    0  502 -0.22772174333E+03  0.32440294452E+03  0.37996454938E+03  0.54908069679E+03  0.46999998093E+01 0. -1.
</event>
<event>
 5   0  0.2132540E-02  0.8112366E+03  0.7818609E-02  0.9543893E-01
       -1   -1    0    0    0  501  0.00000000000E+00  0.00000000000E+00  0.13570190766E+03  0.13570190775E+03  0.50400001928E-02 0.  1.
        1   -1    0    0  501    0  0.00000000000E+00  0.00000000000E+00 -0.12124090001E+04  0.12124090002E+04  0.50400001928E-02 0. -1.
    10030    2    1    2    0    0  0.00000000000E+00  0.00000000000E+00 -0.10767070925E+04  0.13481109079E+04  0.81123662207E+03 0.  0.
        4    1    3    3  502    0  0.22749637930E+03 -0.20304654970E+03 -0.93866704659E+02  0.31905340475E+03  0.12699999809E+01 0.  1.
       -4    1    3    3    0  502 -0.22749637930E+03  0.20304654970E+03 -0.98284038783E+03  0.10290575032E+04  0.12699999809E+01 0. -1.
</event>
<event>
 5   0  0.3550586E-02  0.7656220E+03  0.7818609E-02  0.9611156E-01
        2   -1    0    0  501    0  0.00000000000E+00  0.00000000000E+00  0.20914096332E+03  0.20914096334E+03  0.25500000920E-02 0.  1.
       -2   -1    0    0    0  501  0.00000000000E+00  0.00000000000E+00 -0.70069611997E+03  0.70069611998E+03  0.25500000920E-02 0. -1.
    10030    2    1    2    0    0  0.00000000000E+00  0.00000000000E+00 -0.49155515665E+03  0.90983708331E+03  0.76562199951E+03 0.  0.
        3    1    3    3  502    0 -0.81859636902E+02  0.21069121620E+03 -0.61292695780E+03  0.65327731825E+03  0.10100000352E+00 0. -1.
       -3    1    3    3    0  502  0.81859636902E+02 -0.21069121620E+03  0.12137180115E+03  0.25655976507E+03  0.10100000352E+00 0.  1.
</event>
<event>
 5   0  0.1989298E-02  0.7871689E+03  0.7818609E-02  0.9578778E-01
        1   -1    0    0  501    0  0.00000000000E+00  0.00000000000E+00  0.11246912897E+04  0.11246912897E+04  0.50400001928E-02 0.  1.
       -1   -1    0    0    0  501  0.00000000000E+00  0.00000000000E+00 -0.13773441913E+03  0.13773441922E+03  0.50400001928E-02 0. -1.
    10030    2    1    2    0    0  0.00000000000E+00  0.00000000000E+00  0.98695687056E+03  0.12624257089E+04  0.78716885494E+03 0.  0.
        1    1    3    3  502    0  0.16964992210E+03  0.16591336236E+03 -0.10111662237E+02  0.23750912744E+03  0.50400001928E-02 0. -1.
       -1    1    3    3    0  502 -0.16964992210E+03 -0.16591336236E+03  0.99706853279E+03  0.10249165815E+04  0.50400001928E-02 0.  1.
</event>
<event>
 5   0  0.2063692E-02  0.7997290E+03  0.7818609E-02  0.9560409E-01
        1   -1    0    0  501    0  0.00000000000E+00  0.00000000000E+00  0.13990610438E+03  0.13990610447E+03  0.50400001928E-02 0.  1.
       -1   -1    0    0    0  501  0.00000000000E+00  0.00000000000E+00 -0.11428494370E+04  0.11428494370E+04  0.50400001928E-02 0. -1.
    10030    2    1    2    0    0  0.00000000000E+00  0.00000000000E+00 -0.10029433326E+04  0.12827555415E+04  0.79972898582E+03 0.  0.
        2    1    3    3  502    0 -0.21972103338E+03  0.23742098726E+02  0.33045310249E+02  0.22345695849E+03  0.25500000920E-02 0.  1.
       -2    1    3    3    0  502  0.21972103338E+03 -0.23742098726E+02 -0.10359886429E+04  0.10592985830E+04  0.25500000920E-02 0. -1.
</event>
<event>
 5   0  0.2063692E-02  0.8091785E+03  0.7818609E-02  0.9546826E-01
       -1   -1    0    0    0  501  0.00000000000E+00  0.00000000000E+00  0.10657276186E+03  0.10657276198E+03  0.50400001928E-02 0. -1.
        1   -1    0    0  501    0  0.00000000000E+00  0.00000000000E+00 -0.15359691118E+04  0.15359691118E+04  0.50400001928E-02 0.  1.
    10030    2    1    2    0    0  0.00000000000E+00  0.00000000000E+00 -0.14293963499E+04  0.16425418738E+04  0.80917852290E+03 0.  0.
        2    1    3    3  502    0 -0.25812995874E+03  0.31149621670E+03 -0.70330512087E+03  0.81135630994E+03  0.25500000920E-02 0.  1.
       -2    1    3    3    0  502  0.25812995874E+03 -0.31149621670E+03 -0.72609122905E+03  0.83118556384E+03  0.25500000920E-02 0. -1.
</event>
<event>
 5   0  0.3343036E-02  0.8022618E+03  0.7818609E-02  0.9556749E-01
       -2   -1    0    0    0  501  0.00000000000E+00  0.00000000000E+00  0.12582900058E+03  0.12582900061E+03  0.25500000920E-02 0. -1.
        2   -1    0    0  501    0  0.00000000000E+00  0.00000000000E+00 -0.12787672212E+04  0.12787672212E+04  0.25500000920E-02 0.  1.
    10030    2    1    2    0    0  0.00000000000E+00  0.00000000000E+00 -0.11529382207E+04  0.14045962218E+04  0.80226180626E+03 0.  0.
        4    1    3    3  502    0  0.24554577069E+03  0.31716023394E+03 -0.56843659421E+03  0.69570476068E+03  0.12699999809E+01 0. -1.
       -4    1    3    3    0  502 -0.24554577069E+03 -0.31716023394E+03 -0.58450162644E+03  0.70889146117E+03  0.12699999809E+01 0.  1.
</event>
<event>
 5   0  0.2132540E-02  0.7933049E+03  0.7818609E-02  0.9569759E-01
       -1   -1    0    0    0  501  0.00000000000E+00  0.00000000000E+00  0.19907459719E+03  0.19907459726E+03  0.50400001928E-02 0. -1.
        1   -1    0    0  501    0  0.00000000000E+00  0.00000000000E+00 -0.79032258722E+03  0.79032258724E+03  0.50400001928E-02 0.  1.
    10030    2    1    2    0    0  0.00000000000E+00  0.00000000000E+00 -0.59124799003E+03  0.98939718449E+03  0.79330486131E+03 0.  0.
        4    1    3    3  502    0 -0.14310061027E+03 -0.17261161865E+03  0.11245299754E+03  0.25083828477E+03  0.12699999809E+01 0. -1.
       -4    1    3    3    0  502  0.14310061027E+03  0.17261161865E+03 -0.70370098757E+03  0.73855889972E+03  0.12699999809E+01 0.  1.
</event>
<event>
 5   0  0.1989298E-02  0.7333355E+03  0.7818609E-02  0.9661863E-01
       -1   -1    0    0    0  501  0.00000000000E+00  0.00000000000E+00  0.24906292568E+03  0.24906292573E+03  0.50400001928E-02 0. -1.
        1   -1    0    0  501    0  0.00000000000E+00  0.00000000000E+00 -0.53980424112E+03  0.53980424114E+03  0.50400001928E-02 0.  1.
    10030    2    1    2    0    0  0.00000000000E+00  0.00000000000E+00 -0.29074131544E+03  0.78886716687E+03  0.73333545834E+03 0.  0.
        1    1    3    3  502    0 -0.11055540451E+03  0.19085768281E+02 -0.52088716962E+03  0.53283225082E+03  0.50400001928E-02 0.  1.
       -1    1    3    3    0  502  0.11055540451E+03 -0.19085768281E+02  0.23014585418E+03  0.25603491605E+03  0.50400001928E-02 0. -1.
</event>
<event>
 5   0  0.3404132E-02  0.7748908E+03  0.7818609E-02  0.9597090E-01
       -2   -1    0    0    0  501  0.00000000000E+00  0.00000000000E+00  0.45516760927E+03  0.45516760928E+03  0.25500000920E-02 0. -1.
        2   -1    0    0  501    0  0.00000000000E+00  0.00000000000E+00 -0.32979924065E+03  0.32979924066E+03  0.25500000920E-02 0.  1.
    10030    2    1    2    0    0  0.00000000000E+00  0.00000000000E+00  0.12536836862E+03  0.78496684994E+03  0.77489078434E+03 0.  0.
        5    1    3    3  502    0 -0.72953093817E+02  0.32965289539E+03 -0.12978284378E+03  0.36174419397E+03  0.46999998093E+01 0. -1.
       -5    1    3    3    0  502  0.72953093817E+02 -0.32965289539E+03  0.25515121240E+03  0.42322265597E+03  0.46999998093E+01 0.  1.
</event>
<event>
 5   0  0.3416160E-02  0.7766772E+03  0.7818609E-02  0.9594403E-01
       -2   -1    0    0    0  501  0.00000000000E+00  0.00000000000E+00  0.99838170803E+02  0.99838170836E+02  0.25500000920E-02 0.  1.
        2   -1    0    0  501    0  0.00000000000E+00  0.00000000000E+00 -0.15105133163E+04  0.15105133163E+04  0.25500000920E-02 0. -1.
    10030    2    1    2    0    0  0.00000000000E+00  0.00000000000E+00 -0.14106751455E+04  0.16103514871E+04  0.77667724699E+03 0.  0.
        1    1    3    3  502    0 -0.32895009431E+03 -0.43182075347E+02 -0.28687291259E+03  0.43859881917E+03  0.50400001928E-02 0.  1.
       -1    1    3    3    0  502  0.32895009431E+03  0.43182075347E+02 -0.11238022329E+04  0.11717526679E+04  0.50400001928E-02 0. -1.
</event>
<event>
 5   0  0.3416160E-02  0.8286839E+03  0.7818609E-02  0.9519402E-01
       -2   -1    0    0    0  501  0.00000000000E+00  0.00000000000E+00  0.18642954324E+03  0.18642954326E+03  0.25500000920E-02 0. -1.
        2   -1    0    0  501    0  0.00000000000E+00  0.00000000000E+00 -0.92088008986E+03  0.92088008987E+03  0.25500000920E-02 0.  1.
    10030    2    1    2    0    0  0.00000000000E+00  0.00000000000E+00 -0.73445054663E+03  0.11073096331E+04  0.82868390727E+03 0.  0.
        1    1    3    3  502    0  0.27551914931E+03 -0.80011831884E+02 -0.76668011785E+03  0.81860313828E+03  0.50400001928E-02 0.  1.
       -1    1    3    3    0  502 -0.27551914931E+03  0.80011831884E+02  0.32229571223E+02  0.28870649484E+03  0.50400001928E-02 0. -1.
</event>
<event>
 5   0  0.1358000E-02  0.8199827E+03  0.7818609E-02  0.9531535E-01
        3   -1    0    0  501    0  0.00000000000E+00  0.00000000000E+00  0.30657603606E+03  0.30657605270E+03  0.10100000352E+00 0. -1.
       -3   -1    0    0    0  501  0.00000000000E+00  0.00000000000E+00 -0.54829108877E+03  0.54829109807E+03  0.10100000352E+00 0.  1.
    10030    2    1    2    0    0  0.00000000000E+00  0.00000000000E+00 -0.24171505271E+03  0.85486715077E+03  0.81998273077E+03 0.  0.
        5    1    3    3  502    0 -0.35034948541E+03  0.11515394064E+03  0.65829382130E+02  0.37464755374E+03  0.46999998093E+01 0.  1.
       -5    1    3    3    0  502  0.35034948541E+03 -0.11515394064E+03 -0.30754443484E+03  0.48021959703E+03  0.46999998093E+01 0. -1.
</event>
<event>
 5   0  0.2129257E-02  0.9643176E+03  0.7818609E-02  0.9348570E-01
       -1   -1    0    0    0  501  0.00000000000E+00  0.00000000000E+00  0.49170213462E+03  0.49170213465E+03  0.50400001928E-02 0. -1.
        1   -1    0    0  501    0  0.00000000000E+00  0.00000000000E+00 -0.47280073648E+03  0.47280073651E+03  0.50400001928E-02 0.  1.
    10030    2    1    2    0    0  0.00000000000E+00  0.00000000000E+00  0.18901398143E+02  0.96450287116E+03  0.96431764767E+03 0.  0.
        3    1    3    3  502    0  0.14364680502E+03  0.12263653212E+03 -0.43425934997E+03  0.47355603347E+03  0.10100000352E+00 0.  1.
       -3    1    3    3    0  502 -0.14364680502E+03 -0.12263653212E+03  0.45316074811E+03  0.49094683768E+03  0.10100000352E+00 0. -1.
</event>
<event>
 5   0  0.3404132E-02  0.6855607E+03  0.7818609E-02  0.9742249E-01
       -2   -1    0    0    0  501  0.00000000000E+00  0.00000000000E+00  0.95459918833E+03  0.95459918833E+03  0.25500000920E-02 0. -1.
        2   -1    0    0  501    0  0.00000000000E+00  0.00000000000E+00 -0.12308659325E+03  0.12308659328E+03  0.25500000920E-02 0.  1.
    10030    2    1    2    0    0  0.00000000000E+00  0.00000000000E+00  0.83151259507E+03  0.10776857816E+04  0.68556068157E+03 0.  0.
        5    1    3    3  502    0 -0.32720507773E+03  0.10202832697E+03  0.41862472902E+03  0.54105609334E+03  0.46999998093E+01 0. -1.
       -5    1    3    3    0  502  0.32720507773E+03 -0.10202832697E+03  0.41288786606E+03  0.53662968827E+03  0.46999998093E+01 0.  1.
</event>
<event>
 5   0  0.3467240E-02  0.8010342E+03  0.7818609E-02  0.9558521E-01
        2   -1    0    0  501    0  0.00000000000E+00  0.00000000000E+00  0.10537171213E+04  0.10537171213E+04  0.25500000920E-02 0. -1.
       -2   -1    0    0    0  501  0.00000000000E+00  0.00000000000E+00 -0.15223626683E+03  0.15223626685E+03  0.25500000920E-02 0.  1.
    10030    2    1    2    0    0  0.00000000000E+00  0.00000000000E+00  0.90148085447E+03  0.12059533882E+04  0.80103423363E+03 0.  0.
        2    1    3    3  502    0 -0.38023253206E+03 -0.62184406880E+02  0.61545485253E+03  0.72610491969E+03  0.25500000920E-02 0. -1.
       -2    1    3    3    0  502  0.38023253206E+03  0.62184406880E+02  0.28602600194E+03  0.47984846847E+03  0.25500000920E-02 0.  1.
</event>
<event>
 5   0  0.2077795E-02  0.7533886E+03  0.7818609E-02  0.9630049E-01
        1   -1    0    0  501    0  0.00000000000E+00  0.00000000000E+00  0.68092915055E+03  0.68092915057E+03  0.50400001928E-02 0. -1.
       -1   -1    0    0    0  501  0.00000000000E+00  0.00000000000E+00 -0.20838966418E+03  0.20838966425E+03  0.50400001928E-02 0.  1.
    10030    2    1    2    0    0  0.00000000000E+00  0.00000000000E+00  0.47253948637E+03  0.88931881482E+03  0.75338860372E+03 0.  0.
        5    1    3    3  502    0  0.13446686478E+03  0.12547151105E+03 -0.15175103130E+03  0.23848459763E+03  0.46999998093E+01 0.  1.
       -5    1    3    3    0  502 -0.13446686478E+03 -0.12547151105E+03  0.62429051767E+03  0.65083421719E+03  0.46999998093E+01 0. -1.
</event>
<event>
 5   0  0.3416160E-02  0.7987832E+03  0.7818609E-02  0.9561780E-01
        2   -1    0    0  501    0  0.00000000000E+00  0.00000000000E+00  0.10988652884E+04  0.10988652884E+04  0.25500000920E-02 0. -1.
       -2   -1    0    0    0  501  0.00000000000E+00  0.00000000000E+00 -0.14516216389E+03  0.14516216391E+03  0.25500000920E-02 0.  1.
    10030    2    1    2    0    0  0.00000000000E+00  0.00000000000E+00  0.95370312452E+03  0.12440274523E+04  0.79878323244E+03 0.  0.
        1    1    3    3  502    0 -0.35295202631E+03  0.77631737569E+02  0.21203879678E+03  0.41900151661E+03  0.50400001928E-02 0.  1.
       -1    1    3    3    0  502  0.35295202631E+03 -0.77631737569E+02  0.74166432774E+03  0.82502593572E+03  0.50400001928E-02 0. -1.
</event>
<event>
 5   0  0.3343036E-02  0.8666769E+03  0.7818609E-02  0.9468223E-01
        2   -1    0    0  501    0  0.00000000000E+00  0.00000000000E+00  0.85189576967E+03  0.85189576967E+03  0.25500000920E-02 0. -1.
       -2   -1    0    0    0  501  0.00000000000E+00  0.00000000000E+00 -0.22042864783E+03  0.22042864785E+03  0.25500000920E-02 0.  1.
    10030    2    1    2    0    0  0.00000000000E+00  0.00000000000E+00  0.63146712184E+03  0.10723244175E+04  0.86667694699E+03 0.  0.
        4    1    3    3  502    0  0.33184089885E+03  0.26717031199E+03  0.21766563930E+03  0.47841227115E+03  0.12699999809E+01 0.  1.
       -4    1    3    3    0  502 -0.33184089885E+03 -0.26717031199E+03  0.41380148253E+03  0.59391214637E+03  0.12699999809E+01 0. -1.
</event>
<event>
 5   0  0.3416160E-02  0.7975667E+03  0.7818609E-02  0.9563546E-01
        2   -1    0    0  501    0  0.00000000000E+00  0.00000000000E+00  0.12109675265E+04  0.12109675265E+04  0.25500000920E-02 0.  1.
       -2   -1    0    0    0  501  0.00000000000E+00  0.00000000000E+00 -0.13132323267E+03  0.13132323270E+03  0.25500000920E-02 0. -1.
    10030    2    1    2    0    0  0.00000000000E+00  0.00000000000E+00  0.10796442938E+04  0.13422907592E+04  0.79756672514E+03 0.  0.
        1    1    3    3  502    0  0.21162477332E+03 -0.31994005807E+03  0.35637332295E+03  0.52359204614E+03  0.50400001928E-02 0. -1.
       -1    1    3    3    0  502 -0.21162477332E+03  0.31994005807E+03  0.72327097089E+03  0.81869871308E+03  0.50400001928E-02 0.  1.
</event>
<event>
 5   0  0.3467240E-02  0.7886421E+03  0.7818609E-02  0.9576604E-01
       -2   -1    0    0    0  501  0.00000000000E+00  0.00000000000E+00  0.37532934848E+03  0.37532934849E+03  0.25500000920E-02 0. -1.
        2   -1    0    0  501    0  0.00000000000E+00  0.00000000000E+00 -0.41427372964E+03  0.41427372964E+03  0.25500000920E-02 0.  1.
    10030    2    1    2    0    0  0.00000000000E+00  0.00000000000E+00 -0.38944381153E+02  0.78960307814E+03  0.78864209638E+03 0.  0.
        2    1    3    3  502    0  0.19332545967E+02  0.67954230459E+02 -0.40788506169E+03  0.41395863118E+03  0.25500000920E-02 0.  1.
       -2    1    3    3    0  502 -0.19332545967E+02 -0.67954230459E+02  0.36894068053E+03  0.37564444696E+03  0.25500000920E-02 0. -1.
</event>
<event>
 5   0  0.2063692E-02  0.7928389E+03  0.7818609E-02  0.9570441E-01
       -1   -1    0    0    0  501  0.00000000000E+00  0.00000000000E+00  0.38111712625E+03  0.38111712629E+03  0.50400001928E-02 0.  1.
        1   -1    0    0  501    0  0.00000000000E+00  0.00000000000E+00 -0.41233620158E+03  0.41233620161E+03  0.50400001928E-02 0. -1.
    10030    2    1    2    0    0  0.00000000000E+00  0.00000000000E+00 -0.31219075331E+02  0.79345332790E+03  0.79283891989E+03 0.  0.
        2    1    3    3  502    0 -0.17164095500E+03 -0.17842857319E+03 -0.32544761069E+03  0.40891749837E+03  0.25500000920E-02 0. -1.
       -2    1    3    3    0  502  0.17164095500E+03  0.17842857319E+03  0.29422853536E+03  0.38453582953E+03  0.25500000920E-02 0.  1.
</event>
<event>
 5   0  0.2063692E-02  0.7943423E+03  0.7818609E-02  0.9568243E-01
        1   -1    0    0  501    0  0.00000000000E+00  0.00000000000E+00  0.48413608569E+03  0.48413608571E+03  0.50400001928E-02 0.  1.
       -1   -1    0    0    0  501  0.00000000000E+00  0.00000000000E+00 -0.32582767452E+03  0.32582767456E+03  0.50400001928E-02 0. -1.
    10030    2    1    2    0    0  0.00000000000E+00  0.00000000000E+00  0.15830841117E+03  0.80996376027E+03  0.79434233169E+03 0.  0.
        2    1    3    3  502    0 -0.26530559070E+03  0.29384225904E+03  0.46674921516E+02  0.39863376420E+03  0.25500000920E-02 0. -1.
       -2    1    3    3    0  502  0.26530559070E+03 -0.29384225904E+03  0.11163348965E+03  0.41132999608E+03  0.25500000920E-02 0.  1.
</event>
<event>
 5   0  0.3416160E-02  0.7803064E+03  0.7818609E-02  0.9588969E-01
       -2   -1    0    0    0  501  0.00000000000E+00  0.00000000000E+00  0.11733564156E+03  0.11733564159E+03  0.25500000920E-02 0.  1.
        2   -1    0    0  501    0  0.00000000000E+00  0.00000000000E+00 -0.12972999042E+04  0.12972999042E+04  0.25500000920E-02 0. -1.
    10030    2    1    2    0    0  0.00000000000E+00  0.00000000000E+00 -0.11799642627E+04  0.14146355458E+04  0.78030639258E+03 0.  0.
        1    1    3    3  502    0 -0.17050841125E+01 -0.38477644267E+03 -0.70696412905E+03  0.80489384265E+03  0.50400001928E-02 0. -1.
       -1    1    3    3    0  502  0.17050841125E+01  0.38477644267E+03 -0.47300013360E+03  0.60974170315E+03  0.50400001928E-02 0.  1.
</event>
<event>
 5   0  0.1989298E-02  0.6955918E+03  0.7818609E-02  0.9724801E-01
        1   -1    0    0  501    0  0.00000000000E+00  0.00000000000E+00  0.38334449814E+03  0.38334449818E+03  0.50400001928E-02 0. -1.
       -1   -1    0    0    0  501  0.00000000000E+00  0.00000000000E+00 -0.31554378109E+03  0.31554378113E+03  0.50400001928E-02 0.  1.
    10030    2    1    2    0    0  0.00000000000E+00  0.00000000000E+00  0.67800717057E+02  0.69888827930E+03  0.69559175506E+03 0.  0.
        1    1    3    3  502    0 -0.11229728863E+03 -0.32441618564E+03 -0.22090121917E+02  0.34401237776E+03  0.50400001928E-02 0. -1.
       -1    1    3    3    0  502  0.11229728863E+03  0.32441618564E+03  0.89890838974E+02  0.35487590154E+03  0.50400001928E-02 0.  1.
</event>
<event>
 5   0  0.2077795E-02  0.7621223E+03  0.7818609E-02  0.9616522E-01
        1   -1    0    0  501    0  0.00000000000E+00  0.00000000000E+00  0.31687331920E+03  0.31687331924E+03  0.50400001928E-02 0. -1.
       -1   -1    0    0    0  501  0.00000000000E+00  0.00000000000E+00 -0.45825128858E+03  0.45825128860E+03  0.50400001928E-02 0.  1.
    10030    2    1    2    0    0  0.00000000000E+00  0.00000000000E+00 -0.14137796937E+03  0.77512460784E+03  0.76212231791E+03 0.  0.
        5    1    3    3  502    0 -0.37344548564E+03 -0.17290397500E+02 -0.14560037339E+03  0.40122568128E+03  0.46999998093E+01 0.  1.
       -5    1    3    3    0  502  0.37344548564E+03  0.17290397500E+02  0.42224040142E+01  0.37389892656E+03  0.46999998093E+01 0. -1.
</event>
<event>
 5   0  0.3416160E-02  0.7802835E+03  0.7818609E-02  0.9589003E-01
        2   -1    0    0  501    0  0.00000000000E+00  0.00000000000E+00  0.10828650216E+04  0.10828650216E+04  0.25500000920E-02 0.  1.
       -2   -1    0    0    0  501  0.00000000000E+00  0.00000000000E+00 -0.14056282730E+03  0.14056282732E+03  0.25500000920E-02 0. -1.
    10030    2    1    2    0    0  0.00000000000E+00  0.00000000000E+00  0.94230219434E+03  0.12234278490E+04  0.78028345886E+03 0.  0.
        1    1    3    3  502    0 -0.93145997952E+02 -0.70310237419E+02  0.10548558917E+04  0.10612919762E+04  0.50400001928E-02 0.  1.
       -1    1    3    3    0  502  0.93145997952E+02  0.70310237419E+02 -0.11255369738E+03  0.16213587277E+03  0.50400001928E-02 0. -1.
</event>
<event>
 5   0  0.2132540E-02  0.8022181E+03  0.7818609E-02  0.9556812E-01
        1   -1    0    0  501    0  0.00000000000E+00  0.00000000000E+00  0.16351050817E+03  0.16351050825E+03  0.50400001928E-02 0.  1.
       -1   -1    0    0    0  501  0.00000000000E+00  0.00000000000E+00 -0.98396406223E+03  0.98396406224E+03  0.50400001928E-02 0. -1.
    10030    2    1    2    0    0  0.00000000000E+00  0.00000000000E+00 -0.82045355406E+03  0.11474745705E+04  0.80221808478E+03 0.  0.
        4    1    3    3  502    0 -0.38816421558E+03  0.73238752978E+02 -0.50985620699E+03  0.64497312959E+03  0.12699999809E+01 0.  1.
       -4    1    3    3    0  502  0.38816421558E+03 -0.73238752978E+02 -0.31059734707E+03  0.50250144090E+03  0.12699999809E+01 0. -1.
</event>
<event>
 5   0  0.3467240E-02  0.7698334E+03  0.7818609E-02  0.9604739E-01
        2   -1    0    0  501    0  0.00000000000E+00  0.00000000000E+00  0.30286261428E+03  0.30286261429E+03  0.25500000920E-02 0.  1.
       -2   -1    0    0    0  501  0.00000000000E+00  0.00000000000E+00 -0.48920155166E+03  0.48920155167E+03  0.25500000920E-02 0. -1.
    10030    2    1    2    0    0  0.00000000000E+00  0.00000000000E+00 -0.18633893738E+03  0.79206416595E+03  0.76983338678E+03 0.  0.
        2    1    3    3  502    0  0.18843371183E+03 -0.13931579538E+03 -0.40734742925E+03  0.46994476561E+03  0.25500000920E-02 0. -1.
       -2    1    3    3    0  502 -0.18843371183E+03  0.13931579538E+03  0.22100849187E+03  0.32211940035E+03  0.25500000920E-02 0.  1.
</event>
<event>
 5   0  0.2132540E-02  0.8401923E+03  0.7818609E-02  0.9503596E-01
       -1   -1    0    0    0  501  0.00000000000E+00  0.00000000000E+00  0.32420107580E+03  0.32420107584E+03  0.50400001928E-02 0.  1.
        1   -1    0    0  501    0  0.00000000000E+00  0.00000000000E+00 -0.54435594693E+03  0.54435594695E+03  0.50400001928E-02 0. -1.
    10030    2    1    2    0    0  0.00000000000E+00  0.00000000000E+00 -0.22015487112E+03  0.86855702279E+03  0.84019231999E+03 0.  0.
        4    1    3    3  502    0  0.18932614149E+03 -0.35122700945E+03 -0.24594655056E+03  0.46871752544E+03  0.12699999809E+01 0.  1.
       -4    1    3    3    0  502 -0.18932614149E+03  0.35122700945E+03  0.25791679440E+02  0.39983949736E+03  0.12699999809E+01 0. -1.
</event>
<event>
 5   0  0.1989298E-02  0.7995219E+03  0.7818609E-02  0.9560709E-01
       -1   -1    0    0    0  501  0.00000000000E+00  0.00000000000E+00  0.19626524225E+03  0.19626524231E+03  0.50400001928E-02 0. -1.
        1   -1    0    0  501    0  0.00000000000E+00  0.00000000000E+00 -0.81424920329E+03  0.81424920331E+03  0.50400001928E-02 0.  1.
    10030    2    1    2    0    0  0.00000000000E+00  0.00000000000E+00 -0.61798396105E+03  0.10105144456E+04  0.79952190007E+03 0.  0.
        1    1    3    3  502    0 -0.26936191669E+03  0.11628965979E+03  0.34197024836E+02  0.29537867843E+03  0.50400001928E-02 0. -1.
       -1    1    3    3    0  502  0.26936191669E+03 -0.11628965979E+03 -0.65218098588E+03  0.71513576719E+03  0.50400001928E-02 0.  1.
</event>
<event>
 5   0  0.3404132E-02  0.7614301E+03  0.7818609E-02  0.9617587E-01
        2   -1    0    0  501    0  0.00000000000E+00  0.00000000000E+00  0.37816019936E+03  0.37816019937E+03  0.25500000920E-02 0.  1.
       -2   -1    0    0    0  501  0.00000000000E+00  0.00000000000E+00 -0.38328720750E+03  0.38328720751E+03  0.25500000920E-02 0. -1.
    10030    2    1    2    0    0  0.00000000000E+00  0.00000000000E+00 -0.51270081384E+01  0.76144740689E+03  0.76143014600E+03 0.  0.
        5    1    3    3  502    0 -0.32613276518E+02 -0.22027549064E+02 -0.38121841084E+03  0.38327327781E+03  0.46999998093E+01 0. -1.
       -5    1    3    3    0  502  0.32613276518E+02  0.22027549064E+02  0.37609140270E+03  0.37817412908E+03  0.46999998093E+01 0.  1.
</event>
<event>
 5   0  0.2129257E-02  0.8158678E+03  0.7818609E-02  0.9537329E-01
       -1   -1    0    0    0  501  0.00000000000E+00  0.00000000000E+00  0.15569634885E+03  0.15569634893E+03  0.50400001928E-02 0.  1.
        1   -1    0    0  501    0  0.00000000000E+00  0.00000000000E+00 -0.10688114931E+04  0.10688114931E+04  0.50400001928E-02 0. -1.
    10030    2    1    2    0    0  0.00000000000E+00  0.00000000000E+00 -0.91311514427E+03  0.12245078421E+04  0.81586775190E+03 0.  0.
        3    1    3    3  502    0  0.13476088940E+03 -0.23625103466E+03 -0.91286758484E+03  0.95252416576E+03  0.10100000352E+00 0. -1.
       -3    1    3    3    0  502 -0.13476088940E+03  0.23625103466E+03 -0.24755942258E+00  0.27198367631E+03  0.10100000352E+00 0.  1.
</event>
<event>
 5   0  0.2129257E-02  0.8061008E+03  0.7818609E-02  0.9551228E-01
       -1   -1    0    0    0  501  0.00000000000E+00  0.00000000000E+00  0.13211013837E+04  0.13211013837E+04  0.50400001928E-02 0. -1.
        1   -1    0    0  501    0  0.00000000000E+00  0.00000000000E+00 -0.12296528812E+03  0.12296528822E+03  0.50400001928E-02 0.  1.
    10030    2    1    2    0    0  0.00000000000E+00  0.00000000000E+00  0.11981360956E+04  0.14440666719E+04  0.80610076880E+03 0.  0.
        3    1    3    3  502    0  0.40124940366E+01  0.37984660755E+03  0.35772382701E+03  0.52179104245E+03  0.10100000352E+00 0.  1.
       -3    1    3    3    0  502 -0.40124940366E+01 -0.37984660755E+03  0.84041226856E+03  0.92227562947E+03  0.10100000352E+00 0. -1.
</event>
<event>
 5   0  0.3467240E-02  0.8044304E+03  0.7818609E-02  0.9553626E-01
        2   -1    0    0  501    0  0.00000000000E+00  0.00000000000E+00  0.10725815209E+04  0.10725815209E+04  0.25500000920E-02 0. -1.
       -2   -1    0    0    0  501  0.00000000000E+00  0.00000000000E+00 -0.15082962111E+03  0.15082962113E+03  0.25500000920E-02 0.  1.
    10030    2    1    2    0    0  0.00000000000E+00  0.00000000000E+00  0.92175189981E+03  0.12234111420E+04  0.80443039331E+03 0.  0.
        2    1    3    3  502    0 -0.37233567803E+03 -0.17757796607E+02  0.69065828382E+03  0.78482995706E+03  0.25500000920E-02 0. -1.
       -2    1    3    3    0  502  0.37233567803E+03  0.17757796607E+02  0.23109361599E+03  0.43858118499E+03  0.25500000920E-02 0.  1.
</event>
<event>
 5   0  0.3343036E-02  0.8363627E+03  0.7818609E-02  0.9508825E-01
        2   -1    0    0  501    0  0.00000000000E+00  0.00000000000E+00  0.14723387699E+03  0.14723387702E+03  0.25500000920E-02 0.  1.
       -2   -1    0    0    0  501  0.00000000000E+00  0.00000000000E+00 -0.11877404993E+04  0.11877404993E+04  0.25500000920E-02 0. -1.
    10030    2    1    2    0    0  0.00000000000E+00  0.00000000000E+00 -0.10405066223E+04  0.13349743763E+04  0.83636269307E+03 0.  0.
        4    1    3    3  502    0  0.27432860076E+03 -0.67595443584E+02 -0.10123510498E+04  0.10510383371E+04  0.12699999809E+01 0. -1.
       -4    1    3    3    0  502 -0.27432860076E+03  0.67595443584E+02 -0.28155572517E+02  0.28393603920E+03  0.12699999809E+01 0.  1.
</event>
<event>
 5   0  0.2129257E-02  0.7974770E+03  0.7818609E-02  0.9563676E-01
       -1   -1    0    0    0  501  0.00000000000E+00  0.00000000000E+00  0.37369126701E+03  0.37369126704E+03  0.50400001928E-02 0.  1.
        1   -1    0    0  501    0  0.00000000000E+00  0.00000000000E+00 -0.42546454204E+03  0.42546454207E+03  0.50400001928E-02 0. -1.
    10030    2    1    2    0    0  0.00000000000E+00  0.00000000000E+00 -0.51773275028E+02  0.79915580911E+03  0.79747698100E+03 0.  0.
        3    1    3    3  502    0  0.39413838125E+03 -0.17847029703E+02 -0.83703794972E+02  0.40332358664E+03  0.10100000352E+00 0.  1.
       -3    1    3    3    0  502 -0.39413838125E+03  0.17847029703E+02  0.31930519944E+02  0.39583222247E+03  0.10100000352E+00 0. -1.
</event>
<event>
 5   0  0.3467240E-02  0.8027889E+03  0.7818609E-02  0.9555989E-01
       -2   -1    0    0    0  501  0.00000000000E+00  0.00000000000E+00  0.13407478756E+03  0.13407478758E+03  0.25500000920E-02 0.  1.
        2   -1    0    0  501    0  0.00000000000E+00  0.00000000000E+00 -0.12016986001E+04  0.12016986001E+04  0.25500000920E-02 0. -1.
    10030    2    1    2    0    0  0.00000000000E+00  0.00000000000E+00 -0.10676238125E+04  0.13357733877E+04  0.80278885027E+03 0.  0.
        2    1    3    3  502    0 -0.14272400035E+03 -0.15254781863E+03  0.36492816139E+02  0.21206768467E+03  0.25500000920E-02 0.  1.
       -2    1    3    3    0  502  0.14272400035E+03  0.15254781863E+03 -0.11041166287E+04  0.11237057030E+04  0.25500000920E-02 0. -1.
</event>
<event>
 5   0  0.3343036E-02  0.8027865E+03  0.7818609E-02  0.9555992E-01
       -2   -1    0    0    0  501  0.00000000000E+00  0.00000000000E+00  0.44552257214E+03  0.44552257215E+03  0.25500000920E-02 0.  1.
        2   -1    0    0  501    0  0.00000000000E+00  0.00000000000E+00 -0.36163499486E+03  0.36163499487E+03  0.25500000920E-02 0. -1.
    10030    2    1    2    0    0  0.00000000000E+00  0.00000000000E+00  0.83887577280E+02  0.80715756702E+03  0.80278652976E+03 0.  0.
        4    1    3    3  502    0 -0.34535159160E+03  0.78533333300E+02  0.23186306614E+03  0.42331702139E+03  0.12699999809E+01 0.  1.
       -4    1    3    3    0  502  0.34535159160E+03 -0.78533333300E+02 -0.14797548886E+03  0.38384054562E+03  0.12699999809E+01 0. -1.
</event>
<event>
 5   0  0.3550586E-02  0.7703480E+03  0.7818609E-02  0.9603957E-01
       -2   -1    0    0    0  501  0.00000000000E+00  0.00000000000E+00  0.49196126857E+03  0.49196126858E+03  0.25500000920E-02 0.  1.
        2   -1    0    0  501    0  0.00000000000E+00  0.00000000000E+00 -0.30156645300E+03  0.30156645301E+03  0.25500000920E-02 0. -1.
    10030    2    1    2    0    0  0.00000000000E+00  0.00000000000E+00  0.19039481558E+03  0.79352772159E+03  0.77034801170E+03 0.  0.
        3    1    3    3  502    0 -0.95509880536E+02  0.26188204797E+03 -0.17861022054E+03  0.33106791662E+03  0.10100000352E+00 0. -1.
       -3    1    3    3    0  502  0.95509880536E+02 -0.26188204797E+03  0.36900503612E+03  0.46245980497E+03  0.10100000352E+00 0.  1.
</event>
<event>
 5   0  0.2129257E-02  0.8068477E+03  0.7818609E-02  0.9550158E-01
       -1   -1    0    0    0  501  0.00000000000E+00  0.00000000000E+00  0.24639833764E+03  0.24639833770E+03  0.50400001928E-02 0.  1.
        1   -1    0    0  501    0  0.00000000000E+00  0.00000000000E+00 -0.66051909907E+03  0.66051909909E+03  0.50400001928E-02 0. -1.
    10030    2    1    2    0    0  0.00000000000E+00  0.00000000000E+00 -0.41412076143E+03  0.90691743679E+03  0.80684771308E+03 0.  0.
        3    1    3    3  502    0  0.15080398979E+03  0.37176895977E+03 -0.15941449003E+03  0.43170243527E+03  0.10100000352E+00 0. -1.
       -3    1    3    3    0  502 -0.15080398979E+03 -0.37176895977E+03 -0.25470627140E+03  0.47521500152E+03  0.10100000352E+00 0.  1.
</event>
<event>
 5   0  0.3467240E-02  0.8042246E+03  0.7818609E-02  0.9553922E-01
        2   -1    0    0  501    0  0.00000000000E+00  0.00000000000E+00  0.14245632944E+04  0.14245632944E+04  0.25500000920E-02 0. -1.
       -2   -1    0    0    0  501  0.00000000000E+00  0.00000000000E+00 -0.11350448253E+03  0.11350448256E+03  0.25500000920E-02 0.  1.
    10030    2    1    2    0    0  0.00000000000E+00  0.00000000000E+00  0.13110588118E+04  0.15380677769E+04  0.80422464419E+03 0.  0.
        2    1    3    3  502    0  0.31972929035E+03  0.21031831938E+03  0.89157770048E+03  0.97024296471E+03  0.25500000920E-02 0.  1.
       -2    1    3    3    0  502 -0.31972929035E+03 -0.21031831938E+03  0.41948111134E+03  0.56782481220E+03  0.25500000920E-02 0. -1.
</event>
<event>
 5   0  0.2077795E-02  0.7867189E+03  0.7818609E-02  0.9579442E-01
        1   -1    0    0  501    0  0.00000000000E+00  0.00000000000E+00  0.25476679373E+03  0.25476679378E+03  0.50400001928E-02 0.  1.
       -1   -1    0    0    0  501  0.00000000000E+00  0.00000000000E+00 -0.60734619581E+03  0.60734619583E+03  0.50400001928E-02 0. -1.
    10030    2    1    2    0    0  0.00000000000E+00  0.00000000000E+00 -0.35257940208E+03  0.86211298961E+03  0.78671886471E+03 0.  0.
        5    1    3    3  502    0 -0.22927223555E+03  0.40572354969E+02  0.17110456071E+03  0.28898223938E+03  0.46999998093E+01 0.  1.
       -5    1    3    3    0  502  0.22927223555E+03 -0.40572354969E+02 -0.52368396279E+03  0.57313075023E+03  0.46999998093E+01 0. -1.
</event>
<event>
 5   0  0.2132540E-02  0.7959880E+03  0.7818609E-02  0.9565842E-01
       -1   -1    0    0    0  501  0.00000000000E+00  0.00000000000E+00  0.29531975709E+03  0.29531975713E+03  0.50400001928E-02 0. -1.
        1   -1    0    0  501    0  0.00000000000E+00  0.00000000000E+00 -0.53636519790E+03  0.53636519792E+03  0.50400001928E-02 0.  1.
    10030    2    1    2    0    0  0.00000000000E+00  0.00000000000E+00 -0.24104544081E+03  0.83168495506E+03  0.79598804007E+03 0.  0.
        4    1    3    3  502    0 -0.10348042930E+03  0.37250606593E+03 -0.21793566878E+02  0.38722802179E+03  0.12699999809E+01 0.  1.
       -4    1    3    3    0  502  0.10348042930E+03 -0.37250606593E+03 -0.21925187393E+03  0.44445693327E+03  0.12699999809E+01 0. -1.
</event>
<event>
 5   0  0.3467240E-02  0.7950351E+03  0.7818609E-02  0.9567232E-01
        2   -1    0    0  501    0  0.00000000000E+00  0.00000000000E+00  0.11952533095E+04  0.11952533095E+04  0.25500000920E-02 0.  1.
       -2   -1    0    0    0  501  0.00000000000E+00  0.00000000000E+00 -0.13220645209E+03  0.13220645212E+03  0.25500000920E-02 0. -1.
    10030    2    1    2    0    0  0.00000000000E+00  0.00000000000E+00  0.10630468574E+04  0.13274597616E+04  0.79503509210E+03 0.  0.
        2    1    3    3  502    0 -0.39720524409E+02 -0.37312107939E+03  0.31239878332E+03  0.48825204533E+03  0.25500000920E-02 0. -1.
       -2    1    3    3    0  502  0.39720524409E+02  0.37312107939E+03  0.75064807407E+03  0.83920771628E+03  0.25500000920E-02 0.  1.
</event>
<event>
 5   0  0.2077795E-02  0.7877186E+03  0.7818609E-02  0.9577966E-01
       -1   -1    0    0    0  501  0.00000000000E+00  0.00000000000E+00  0.22189152882E+03  0.22189152887E+03  0.50400001928E-02 0. -1.
        1   -1    0    0  501    0  0.00000000000E+00  0.00000000000E+00 -0.69910354874E+03  0.69910354876E+03  0.50400001928E-02 0.  1.
    10030    2    1    2    0    0  0.00000000000E+00  0.00000000000E+00 -0.47721201992E+03  0.92099507763E+03  0.78771861795E+03 0.  0.
        5    1    3    3  502    0  0.78764498340E+02  0.11593018720E+03 -0.66892527534E+03  0.68346672815E+03  0.46999998093E+01 0.  1.
       -5    1    3    3    0  502 -0.78764498340E+02 -0.11593018720E+03  0.19171325542E+03  0.23752834948E+03  0.46999998093E+01 0. -1.
</event>
<event>
 5   0  0.2129257E-02  0.8084989E+03  0.7818609E-02  0.9547796E-01
       -1   -1    0    0    0  501  0.00000000000E+00  0.00000000000E+00  0.37442663843E+03  0.37442663847E+03  0.50400001928E-02 0. -1.
        1   -1    0    0  501    0  0.00000000000E+00  0.00000000000E+00 -0.43644765434E+03  0.43644765437E+03  0.50400001928E-02 0.  1.
    10030    2    1    2    0    0  0.00000000000E+00  0.00000000000E+00 -0.62021015910E+02  0.81087429284E+03  0.80849892540E+03 0.  0.
        3    1    3    3  502    0 -0.51527860517E+02 -0.24166724024E+03  0.28986608748E+03  0.38089438732E+03  0.10100000352E+00 0. -1.
       -3    1    3    3    0  502  0.51527860517E+02  0.24166724024E+03 -0.35188710339E+03  0.42997990552E+03  0.10100000352E+00 0.  1.
</event>
<event>
 5   0  0.2129257E-02  0.8285750E+03  0.7818609E-02  0.9519553E-01
       -1   -1    0    0    0  501  0.00000000000E+00  0.00000000000E+00  0.71342109991E+03  0.71342109993E+03  0.50400001928E-02 0. -1.
        1   -1    0    0  501    0  0.00000000000E+00  0.00000000000E+00 -0.24057899573E+03  0.24057899578E+03  0.50400001928E-02 0.  1.
    10030    2    1    2    0    0  0.00000000000E+00  0.00000000000E+00  0.47284210418E+03  0.95400009571E+03  0.82857499789E+03 0.  0.
        3    1    3    3  502    0  0.27682914958E+03 -0.29754192099E+03  0.14381912546E+03  0.43110268366E+03  0.10100000352E+00 0.  1.
       -3    1    3    3    0  502 -0.27682914958E+03  0.29754192099E+03  0.32902297871E+03  0.52289741205E+03  0.10100000352E+00 0. -1.
</event>
<event>
 5   0  0.2063692E-02  0.8101900E+03  0.7818609E-02  0.9545384E-01
       -1   -1    0    0    0  501  0.00000000000E+00  0.00000000000E+00  0.24129641230E+03  0.24129641236E+03  0.50400001928E-02 0. -1.
        1   -1    0    0  501    0  0.00000000000E+00  0.00000000000E+00 -0.68008455335E+03  0.68008455337E+03  0.50400001928E-02 0.  1.
    10030    2    1    2    0    0  0.00000000000E+00  0.00000000000E+00 -0.43878814105E+03  0.92138096572E+03  0.81019000937E+03 0.  0.
        2    1    3    3  502    0  0.13943812136E+03 -0.16974485656E+03 -0.60646649323E+03  0.64502551379E+03  0.25500000920E-02 0.  1.
       -2    1    3    3    0  502 -0.13943812136E+03  0.16974485656E+03  0.16767835219E+03  0.27635545194E+03  0.25500000920E-02 0. -1.
</event>
<event>
 5   0  0.3404132E-02  0.8019641E+03  0.7818609E-02  0.9557179E-01
       -2   -1    0    0    0  501  0.00000000000E+00  0.00000000000E+00  0.12283367970E+03  0.12283367973E+03  0.25500000920E-02 0.  1.
        2   -1    0    0  501    0  0.00000000000E+00  0.00000000000E+00 -0.13089780087E+04  0.13089780087E+04  0.25500000920E-02 0. -1.
    10030    2    1    2    0    0  0.00000000000E+00  0.00000000000E+00 -0.11861443290E+04  0.14318116884E+04  0.80196405275E+03 0.  0.
        5    1    3    3  502    0  0.25288450514E+03 -0.12748039912E+03 -0.10998270310E+04  0.11357127336E+04  0.46999998093E+01 0. -1.
       -5    1    3    3    0  502 -0.25288450514E+03  0.12748039912E+03 -0.86317297922E+02  0.29609895478E+03  0.46999998093E+01 0.  1.
</event>
<event>
 5   0  0.2132540E-02  0.8306744E+03  0.7818609E-02  0.9516649E-01
        1   -1    0    0  501    0  0.00000000000E+00  0.00000000000E+00  0.42148484040E+03  0.42148484043E+03  0.50400001928E-02 0. -1.
       -1   -1    0    0    0  501  0.00000000000E+00  0.00000000000E+00 -0.40927923124E+03  0.40927923127E+03  0.50400001928E-02 0.  1.
    10030    2    1    2    0    0  0.00000000000E+00  0.00000000000E+00  0.12205609164E+02  0.83076407170E+03  0.83067440428E+03 0.  0.
        4    1    3    3  502    0  0.27667288666E+03  0.64811696270E+02 -0.29684066622E+03  0.41093118183E+03  0.12699999809E+01 0.  1.
       -4    1    3    3    0  502 -0.27667288666E+03 -0.64811696270E+02  0.30904627538E+03  0.41983288986E+03  0.12699999809E+01 0. -1.
</event>
<event>
 5   0  0.2129257E-02  0.7972926E+03  0.7818609E-02  0.9563944E-01
        1   -1    0    0  501    0  0.00000000000E+00  0.00000000000E+00  0.92969660706E+03  0.92969660707E+03  0.50400001928E-02 0.  1.
       -1   -1    0    0    0  501  0.00000000000E+00  0.00000000000E+00 -0.17093628333E+03  0.17093628340E+03  0.50400001928E-02 0. -1.
    10030    2    1    2    0    0  0.00000000000E+00  0.00000000000E+00  0.75876032373E+03  0.11006328905E+04  0.79729262554E+03 0.  0.
        3    1    3    3  502    0  0.48457971934E+02  0.35293125352E+03  0.13239599033E+03  0.38004914579E+03  0.10100000352E+00 0. -1.
       -3    1    3    3    0  502 -0.48457971934E+02 -0.35293125352E+03  0.62636433339E+03  0.72058374469E+03  0.10100000352E+00 0.  1.
</event>
<event>
 5   0  0.3467240E-02  0.7715842E+03  0.7818609E-02  0.9602084E-01
       -2   -1    0    0    0  501  0.00000000000E+00  0.00000000000E+00  0.69890598811E+02  0.69890598857E+02  0.25500000920E-02 0. -1.
        2   -1    0    0  501    0  0.00000000000E+00  0.00000000000E+00 -0.21295505317E+04  0.21295505317E+04  0.25500000920E-02 0.  1.
    10030    2    1    2    0    0  0.00000000000E+00  0.00000000000E+00 -0.20596599329E+04  0.21994411305E+04  0.77158424532E+03 0.  0.
        2    1    3    3  502    0  0.66532176597E+02  0.20794141952E+03 -0.19365089990E+04  0.19487773777E+04  0.25500000920E-02 0.  1.
       -2    1    3    3    0  502 -0.66532176597E+02 -0.20794141952E+03 -0.12315093383E+03  0.25066375283E+03  0.25500000920E-02 0. -1.
</event>
<event>
 5   0  0.1358000E-02  0.7902302E+03  0.7818609E-02  0.9574267E-01
        4   -1    0    0  501    0  0.00000000000E+00  0.00000000000E+00  0.66161326500E+03  0.66161448391E+03  0.12699999809E+01 0. -1.
       -4   -1    0    0    0  501  0.00000000000E+00  0.00000000000E+00 -0.23595941378E+03  0.23596283150E+03  0.12699999809E+01 0.  1.
    10030    2    1    2    0    0  0.00000000000E+00  0.00000000000E+00  0.42565385122E+03  0.89757731541E+03  0.79023024245E+03 0.  0.
        1    1    3    3  502    0 -0.55104336111E+02  0.96565640750E+02 -0.21782760328E+03  0.24456139436E+03  0.50400001928E-02 0.  1.
       -1    1    3    3    0  502  0.55104336111E+02 -0.96565640750E+02  0.64348145451E+03  0.65301592106E+03  0.50400001928E-02 0. -1.
</event>
<event>
 5   0  0.3404132E-02  0.7991931E+03  0.7818609E-02  0.9561186E-01
        2   -1    0    0  501    0  0.00000000000E+00  0.00000000000E+00  0.14678612016E+04  0.14678612016E+04  0.25500000920E-02 0. -1.
       -2   -1    0    0    0  501  0.00000000000E+00  0.00000000000E+00 -0.10878236218E+03  0.10878236221E+03  0.25500000920E-02 0.  1.
    10030    2    1    2    0    0  0.00000000000E+00  0.00000000000E+00  0.13590788394E+04  0.15766435638E+04  0.79919311530E+03 0.  0.
        5    1    3    3  502    0 -0.37943574059E+03 -0.37551582947E+02  0.91523439177E+03  0.99149265478E+03  0.46999998093E+01 0. -1.
       -5    1    3    3    0  502  0.37943574059E+03  0.37551582947E+02  0.44384444760E+03  0.58515090898E+03  0.46999998093E+01 0.  1.
</event>
<event>
 5   0  0.1989298E-02  0.7893133E+03  0.7818609E-02  0.9575616E-01
       -1   -1    0    0    0  501  0.00000000000E+00  0.00000000000E+00  0.22218694997E+03  0.22218695002E+03  0.50400001928E-02 0.  1.
        1   -1    0    0  501    0  0.00000000000E+00  0.00000000000E+00 -0.70100375360E+03  0.70100375361E+03  0.50400001928E-02 0. -1.
    10030    2    1    2    0    0  0.00000000000E+00  0.00000000000E+00 -0.47881680363E+03  0.92319070364E+03  0.78931333693E+03 0.  0.
        1    1    3    3  502    0  0.30791374538E+03  0.21875910280E+03 -0.37321260909E+03  0.53099347573E+03  0.50400001928E-02 0. -1.
       -1    1    3    3    0  502 -0.30791374538E+03 -0.21875910280E+03 -0.10560419454E+03  0.39219722791E+03  0.50400001928E-02 0.  1.
</event>
<event>
 5   0  0.3550586E-02  0.8037484E+03  0.7818609E-02  0.9554607E-01
        2   -1    0    0  501    0  0.00000000000E+00  0.00000000000E+00  0.18483670302E+04  0.18483670302E+04  0.25500000920E-02 0.  1.
       -2   -1    0    0    0  501  0.00000000000E+00  0.00000000000E+00 -0.87375968280E+02  0.87375968318E+02  0.25500000920E-02 0. -1.
    10030    2    1    2    0    0  0.00000000000E+00  0.00000000000E+00  0.17609910619E+04  0.19357429985E+04  0.80374836619E+03 0.  0.
        3    1    3    3  502    0 -0.67887349023E+02  0.12944992009E+01 -0.73461161832E+02  0.10003459594E+03  0.10100000352E+00 0. -1.
       -3    1    3    3    0  502  0.67887349023E+02 -0.12944992009E+01  0.18344522237E+04  0.18357084026E+04  0.10100000352E+00 0.  1.
</event>
<event>
 5   0  0.3404132E-02  0.8215570E+03  0.7818609E-02  0.9529328E-01
        2   -1    0    0  501    0  0.00000000000E+00  0.00000000000E+00  0.26488046723E+04  0.26488046723E+04  0.25500000920E-02 0.  1.
       -2   -1    0    0    0  501  0.00000000000E+00  0.00000000000E+00 -0.63703826947E+02  0.63703826998E+02  0.25500000920E-02 0. -1.
    10030    2    1    2    0    0  0.00000000000E+00  0.00000000000E+00  0.25851008454E+04  0.27125084993E+04  0.82155704497E+03 0.  0.
        5    1    3    3  502    0 -0.31807303783E+03 -0.70243656165E+02  0.21187084532E+04  0.21436072934E+04  0.46999998093E+01 0.  1.
       -5    1    3    3    0  502  0.31807303783E+03  0.70243656165E+02  0.46639239216E+03  0.56890120591E+03  0.46999998093E+01 0. -1.
</event>
<event>
 5   0  0.1989298E-02  0.7858635E+03  0.7818609E-02  0.9580707E-01
       -1   -1    0    0    0  501  0.00000000000E+00  0.00000000000E+00  0.57002560901E+03  0.57002560903E+03  0.50400001928E-02 0.  1.
        1   -1    0    0  501    0  0.00000000000E+00  0.00000000000E+00 -0.27085691219E+03  0.27085691223E+03  0.50400001928E-02 0. -1.
    10030    2    1    2    0    0  0.00000000000E+00  0.00000000000E+00  0.29916869682E+03  0.84088252126E+03  0.78586354121E+03 0.  0.
        1    1    3    3  502    0  0.12841594794E+03 -0.11146068557E+03  0.52861783348E+03  0.55529357461E+03  0.50400001928E-02 0.  1.
       -1    1    3    3    0  502 -0.12841594794E+03  0.11146068557E+03 -0.22944913665E+03  0.28558894665E+03  0.50400001928E-02 0. -1.
</event>
<event>
 5   0  0.3467240E-02  0.8006704E+03  0.7818609E-02  0.9559047E-01
        2   -1    0    0  501    0  0.00000000000E+00  0.00000000000E+00  0.16740722168E+04  0.16740722168E+04  0.25500000920E-02 0.  1.
       -2   -1    0    0    0  501  0.00000000000E+00  0.00000000000E+00 -0.95735581738E+02  0.95735581772E+02  0.25500000920E-02 0. -1.
    10030    2    1    2    0    0  0.00000000000E+00  0.00000000000E+00  0.15783366350E+04  0.17698077986E+04  0.80067041303E+03 0.  0.
        2    1    3    3  502    0  0.13715872625E+03 -0.11921189496E+03  0.15776497444E+04  0.15880814551E+04  0.25500000920E-02 0.  1.
       -2    1    3    3    0  502 -0.13715872625E+03  0.11921189496E+03  0.68689068088E+00  0.18172634347E+03  0.25500000920E-02 0. -1.
</event>
<event>
 5   0  0.3404132E-02  0.9147046E+03  0.7818609E-02  0.9407384E-01
       -2   -1    0    0    0  501  0.00000000000E+00  0.00000000000E+00  0.42880494758E+03  0.42880494758E+03  0.25500000920E-02 0.  1.
        2   -1    0    0  501    0  0.00000000000E+00  0.00000000000E+00 -0.48780019733E+03  0.48780019733E+03  0.25500000920E-02 0. -1.
    10030    2    1    2    0    0  0.00000000000E+00  0.00000000000E+00 -0.58995249749E+02  0.91660514492E+03  0.91470462565E+03 0.  0.
        5    1    3    3  502    0  0.17895781009E+03  0.40090995378E+02 -0.44931421940E+03  0.48532313303E+03  0.46999998093E+01 0. -1.
       -5    1    3    3    0  502 -0.17895781009E+03 -0.40090995378E+02  0.39031896965E+03  0.43128201188E+03  0.46999998093E+01 0.  1.
</event>
<event>
 5   0  0.2063692E-02  0.8314804E+03  0.7818609E-02  0.9515536E-01
       -1   -1    0    0    0  501  0.00000000000E+00  0.00000000000E+00  0.14171080066E+03  0.14171080075E+03  0.50400001928E-02 0.  1.
        1   -1    0    0  501    0  0.00000000000E+00  0.00000000000E+00 -0.12196666188E+04  0.12196666188E+04  0.50400001928E-02 0. -1.
    10030    2    1    2    0    0  0.00000000000E+00  0.00000000000E+00 -0.10779558181E+04  0.13613774195E+04  0.83148044632E+03 0.  0.
        2    1    3    3  502    0 -0.28818366309E+03 -0.15684662966E+02 -0.49035546263E+02  0.29274616501E+03  0.25500000920E-02 0.  1.
       -2    1    3    3    0  502  0.28818366309E+03  0.15684662966E+02 -0.10289202718E+04  0.10686312545E+04  0.25500000920E-02 0. -1.
</event>
<event>
 5   0  0.3404132E-02  0.8016137E+03  0.7818609E-02  0.9557684E-01
        2   -1    0    0  501    0  0.00000000000E+00  0.00000000000E+00  0.13529113558E+04  0.13529113558E+04  0.25500000920E-02 0.  1.
       -2   -1    0    0    0  501  0.00000000000E+00  0.00000000000E+00 -0.11874106293E+03  0.11874106296E+03  0.25500000920E-02 0. -1.
    10030    2    1    2    0    0  0.00000000000E+00  0.00000000000E+00  0.12341702928E+04  0.14716524187E+04  0.80161370362E+03 0.  0.
        5    1    3    3  502    0 -0.10362242945E+03  0.26425111716E+03  0.97637369861E+02  0.30020227647E+03  0.46999998093E+01 0. -1.
       -5    1    3    3    0  502  0.10362242945E+03 -0.26425111716E+03  0.11365329230E+04  0.11714501423E+04  0.46999998093E+01 0.  1.
</event>
<event>
 5   0  0.2132540E-02  0.8095514E+03  0.7818609E-02  0.9546294E-01
        1   -1    0    0  501    0  0.00000000000E+00  0.00000000000E+00  0.21649765532E+04  0.21649765532E+04  0.50400001928E-02 0. -1.
       -1   -1    0    0    0  501  0.00000000000E+00  0.00000000000E+00 -0.75679041165E+02  0.75679041333E+02  0.50400001928E-02 0.  1.
    10030    2    1    2    0    0  0.00000000000E+00  0.00000000000E+00  0.20892975120E+04  0.22406555945E+04  0.80955135695E+03 0.  0.
        4    1    3    3  502    0  0.15718680137E+03 -0.16687083026E+02  0.13283771429E+02  0.15863234458E+03  0.12699999809E+01 0.  1.
       -4    1    3    3    0  502 -0.15718680137E+03  0.16687083026E+02  0.20760137406E+04  0.20820232499E+04  0.12699999809E+01 0. -1.
</event>
<event>
 5   0  0.2077795E-02  0.7629241E+03  0.7818609E-02  0.9615290E-01
        1   -1    0    0  501    0  0.00000000000E+00  0.00000000000E+00  0.16269054512E+04  0.16269054512E+04  0.50400001928E-02 0.  1.
       -1   -1    0    0    0  501  0.00000000000E+00  0.00000000000E+00 -0.89441754442E+02  0.89441754584E+02  0.50400001928E-02 0. -1.
    10030    2    1    2    0    0  0.00000000000E+00  0.00000000000E+00  0.15374636968E+04  0.17163472058E+04  0.76292405388E+03 0.  0.
        5    1    3    3  502    0  0.28004020149E+03 -0.59743218617E+02  0.13356348069E+04  0.13659920183E+04  0.46999998093E+01 0.  1.
       -5    1    3    3    0  502 -0.28004020149E+03  0.59743218617E+02  0.20182888983E+03  0.35035518748E+03  0.46999998093E+01 0. -1.
</event>
<event>
 5   0  0.2077795E-02  0.8166424E+03  0.7818609E-02  0.9536236E-01
        1   -1    0    0  501    0  0.00000000000E+00  0.00000000000E+00  0.44096397618E+03  0.44096397621E+03  0.50400001928E-02 0.  1.
       -1   -1    0    0    0  501  0.00000000000E+00  0.00000000000E+00 -0.37809479069E+03  0.37809479072E+03  0.50400001928E-02 0. -1.
    10030    2    1    2    0    0  0.00000000000E+00  0.00000000000E+00  0.62869185495E+02  0.81905876694E+03  0.81664235086E+03 0.  0.
        5    1    3    3  502    0  0.13325890272E+03 -0.64620945271E+02 -0.35017816718E+03  0.38023761057E+03  0.46999998093E+01 0. -1.
       -5    1    3    3    0  502 -0.13325890272E+03  0.64620945271E+02  0.41304735268E+03  0.43882115637E+03  0.46999998093E+01 0.  1.
</event>
<event>
 5   0  0.2077795E-02  0.8015874E+03  0.7818609E-02  0.9557722E-01
       -1   -1    0    0    0  501  0.00000000000E+00  0.00000000000E+00  0.11359200900E+03  0.11359200911E+03  0.50400001928E-02 0. -1.
        1   -1    0    0  501    0  0.00000000000E+00  0.00000000000E+00 -0.14141451940E+04  0.14141451940E+04  0.50400001928E-02 0.  1.
    10030    2    1    2    0    0  0.00000000000E+00  0.00000000000E+00 -0.13005531850E+04  0.15277372031E+04  0.80158740932E+03 0.  0.
        5    1    3    3  502    0 -0.19235384275E+03 -0.10956005012E+03 -0.13555095346E+02  0.22183154873E+03  0.46999998093E+01 0. -1.
       -5    1    3    3    0  502  0.19235384275E+03  0.10956005012E+03 -0.12869980897E+04  0.13059056544E+04  0.46999998093E+01 0.  1.
</event>
<event>
 5   0  0.3550586E-02  0.7949309E+03  0.7818609E-02  0.9567384E-01
       -2   -1    0    0    0  501  0.00000000000E+00  0.00000000000E+00  0.11429874241E+03  0.11429874244E+03  0.25500000920E-02 0. -1.
        2   -1    0    0  501    0  0.00000000000E+00  0.00000000000E+00 -0.13821567085E+04  0.13821567085E+04  0.25500000920E-02 0.  1.
    10030    2    1    2    0    0  0.00000000000E+00  0.00000000000E+00 -0.12678579661E+04  0.14964554509E+04  0.79493087402E+03 0.  0.
        3    1    3    3  502    0 -0.12915174877E+03 -0.24494719881E+03 -0.97171317185E+02  0.29346478409E+03  0.10100000352E+00 0. -1.
       -3    1    3    3    0  502  0.12915174877E+03  0.24494719881E+03 -0.11706866489E+04  0.12029906668E+04  0.10100000352E+00 0.  1.
</event>
<event>
 5   0  0.2077795E-02  0.7961530E+03  0.7818609E-02  0.9565602E-01
       -1   -1    0    0    0  501  0.00000000000E+00  0.00000000000E+00  0.13939901113E+03  0.13939901122E+03  0.50400001928E-02 0.  1.
        1   -1    0    0  501    0  0.00000000000E+00  0.00000000000E+00 -0.11367720020E+04  0.11367720020E+04  0.50400001928E-02 0. -1.
    10030    2    1    2    0    0  0.00000000000E+00  0.00000000000E+00 -0.99737299084E+03  0.12761710132E+04  0.79615298283E+03 0.  0.
        5    1    3    3  502    0  0.16477767397E+03 -0.15894906742E+03 -0.10206248155E+04  0.10459988489E+04  0.46999998093E+01 0. -1.
       -5    1    3    3    0  502 -0.16477767397E+03  0.15894906742E+03  0.23251824659E+02  0.23017216431E+03  0.46999998093E+01 0.  1.
</event>
<event>
 5   0  0.2077795E-02  0.7953065E+03  0.7818609E-02  0.9566836E-01
       -1   -1    0    0    0  501  0.00000000000E+00  0.00000000000E+00  0.85110313396E+02  0.85110313545E+02  0.50400001928E-02 0. -1.
        1   -1    0    0  501    0  0.00000000000E+00  0.00000000000E+00 -0.18579195294E+04  0.18579195294E+04  0.50400001928E-02 0.  1.
    10030    2    1    2    0    0  0.00000000000E+00  0.00000000000E+00 -0.17728092160E+04  0.19430298430E+04  0.79530651592E+03 0.  0.
        5    1    3    3  502    0  0.80125761752E+02 -0.17791850784E+03 -0.17328353810E+04  0.17437934743E+04  0.46999998093E+01 0.  1.
       -5    1    3    3    0  502 -0.80125761752E+02  0.17791850784E+03 -0.39973834976E+02  0.19923636869E+03  0.46999998093E+01 0. -1.
</event>
<event>
 5   0  0.3550586E-02  0.8136734E+03  0.7818609E-02  0.9540434E-01
       -2   -1    0    0    0  501  0.00000000000E+00  0.00000000000E+00  0.71403496286E+02  0.71403496331E+02  0.25500000920E-02 0.  1.
        2   -1    0    0  501    0  0.00000000000E+00  0.00000000000E+00 -0.23180391547E+04  0.23180391547E+04  0.25500000920E-02 0. -1.
    10030    2    1    2    0    0  0.00000000000E+00  0.00000000000E+00 -0.22466356584E+04  0.23894426510E+04  0.81367339941E+03 0.  0.
        3    1    3    3  502    0  0.36290849656E+03 -0.16058080654E+03 -0.86021124304E+03  0.94733951947E+03  0.10100000352E+00 0.  1.
       -3    1    3    3    0  502 -0.36290849656E+03  0.16058080654E+03 -0.13864244154E+04  0.14421031316E+04  0.10100000352E+00 0. -1.
</event>
<event>
 5   0  0.3416160E-02  0.8121156E+03  0.7818609E-02  0.9542644E-01
       -2   -1    0    0    0  501  0.00000000000E+00  0.00000000000E+00  0.10134347705E+03  0.10134347708E+03  0.25500000920E-02 0.  1.
        2   -1    0    0  501    0  0.00000000000E+00  0.00000000000E+00 -0.16269713286E+04  0.16269713286E+04  0.25500000920E-02 0. -1.
    10030    2    1    2    0    0  0.00000000000E+00  0.00000000000E+00 -0.15256278516E+04  0.17283148057E+04  0.81211558667E+03 0.  0.
        1    1    3    3  502    0 -0.31231807728E+03  0.12503115422E+03 -0.12467433501E+04  0.12913343300E+04  0.50400001928E-02 0. -1.
       -1    1    3    3    0  502  0.31231807728E+03 -0.12503115422E+03 -0.27888450150E+03  0.43698047568E+03  0.50400001928E-02 0.  1.
</event>
<event>
 5   0  0.3343036E-02  0.8266694E+03  0.7818609E-02  0.9522197E-01
       -2   -1    0    0    0  501  0.00000000000E+00  0.00000000000E+00  0.38948186871E+03  0.38948186872E+03  0.25500000920E-02 0.  1.
        2   -1    0    0  501    0  0.00000000000E+00  0.00000000000E+00 -0.43864834552E+03  0.43864834552E+03  0.25500000920E-02 0. -1.
    10030    2    1    2    0    0  0.00000000000E+00  0.00000000000E+00 -0.49166476807E+02  0.82813021424E+03  0.82666940750E+03 0.  0.
        4    1    3    3  502    0 -0.34157105247E+03  0.23179105185E+03 -0.34251010497E+01  0.41280893864E+03  0.12699999809E+01 0.  1.
       -4    1    3    3    0  502  0.34157105247E+03 -0.23179105185E+03 -0.45741375758E+02  0.41532127560E+03  0.12699999809E+01 0. -1.
</event>
<event>
 5   0  0.2063692E-02  0.7704818E+03  0.7818609E-02  0.9603754E-01
       -1   -1    0    0    0  501  0.00000000000E+00  0.00000000000E+00  0.81685457046E+02  0.81685457201E+02  0.50400001928E-02 0. -1.
        1   -1    0    0  501    0  0.00000000000E+00  0.00000000000E+00 -0.18168540478E+04  0.18168540479E+04  0.50400001928E-02 0.  1.
    10030    2    1    2    0    0  0.00000000000E+00  0.00000000000E+00 -0.17351685908E+04  0.18985395051E+04  0.77048180624E+03 0.  0.
        2    1    3    3  502    0  0.50578100232E+02  0.31057695364E+03 -0.14152252945E+04  0.14497857850E+04  0.25500000920E-02 0.  1.
       -2    1    3    3    0  502 -0.50578100232E+02 -0.31057695364E+03 -0.31994329631E+03  0.44875372000E+03  0.25500000920E-02 0. -1.
</event>
<event>
 5   0  0.3404132E-02  0.8049822E+03  0.7818609E-02  0.9552833E-01
        2   -1    0    0  501    0  0.00000000000E+00  0.00000000000E+00  0.76307696844E+03  0.76307696844E+03  0.25500000920E-02 0.  1.
       -2   -1    0    0    0  501  0.00000000000E+00  0.00000000000E+00 -0.21229717221E+03  0.21229717223E+03  0.25500000920E-02 0. -1.
    10030    2    1    2    0    0  0.00000000000E+00  0.00000000000E+00  0.55077979623E+03  0.97537414067E+03  0.80498219257E+03 0.  0.
        5    1    3    3  502    0 -0.10395905629E+03  0.20815564368E+03  0.67329213818E+03  0.71237676177E+03  0.46999998093E+01 0.  1.
       -5    1    3    3    0  502  0.10395905629E+03 -0.20815564368E+03 -0.12251234195E+03  0.26299737890E+03  0.46999998093E+01 0. -1.
</event>
<event>
 5   0  0.2132540E-02  0.8080071E+03  0.7818609E-02  0.9548499E-01
       -1   -1    0    0    0  501  0.00000000000E+00  0.00000000000E+00  0.61815977094E+03  0.61815977097E+03  0.50400001928E-02 0. -1.
        1   -1    0    0  501    0  0.00000000000E+00  0.00000000000E+00 -0.26403991141E+03  0.26403991146E+03  0.50400001928E-02 0.  1.
    10030    2    1    2    0    0  0.00000000000E+00  0.00000000000E+00  0.35411985953E+03  0.88219968242E+03  0.80800705737E+03 0.  0.
        4    1    3    3  502    0 -0.12133674327E+03  0.32225679150E+03 -0.53635556416E+02  0.34849738988E+03  0.12699999809E+01 0. -1.
       -4    1    3    3    0  502  0.12133674327E+03 -0.32225679150E+03  0.40775541595E+03  0.53370229255E+03  0.12699999809E+01 0.  1.
</event>
<event>
 5   0  0.3416160E-02  0.7943336E+03  0.7818609E-02  0.9568255E-01
       -2   -1    0    0    0  501  0.00000000000E+00  0.00000000000E+00  0.19323925037E+03  0.19323925039E+03  0.25500000920E-02 0. -1.
        2   -1    0    0  501    0  0.00000000000E+00  0.00000000000E+00 -0.81630135725E+03  0.81630135725E+03  0.25500000920E-02 0.  1.
    10030    2    1    2    0    0  0.00000000000E+00  0.00000000000E+00 -0.62306210687E+03  0.10095406076E+04  0.79433358827E+03 0.  0.
        1    1    3    3  502    0 -0.80025167165E+02 -0.29767232210E+03  0.67814841667E+01  0.30831611583E+03  0.50400001928E-02 0. -1.
       -1    1    3    3    0  502  0.80025167165E+02  0.29767232210E+03 -0.62984359104E+03  0.70122449182E+03  0.50400001928E-02 0.  1.
</event>
<event>
 5   0  0.3404132E-02  0.9578425E+03  0.7818609E-02  0.9356031E-01
       -2   -1    0    0    0  501  0.00000000000E+00  0.00000000000E+00  0.67064416771E+03  0.67064416771E+03  0.25500000920E-02 0.  1.
        2   -1    0    0  501    0  0.00000000000E+00  0.00000000000E+00 -0.34200783926E+03  0.34200783927E+03  0.25500000920E-02 0. -1.
    10030    2    1    2    0    0  0.00000000000E+00  0.00000000000E+00  0.32863632844E+03  0.10126520070E+04  0.95784249795E+03 0.  0.
        5    1    3    3  502    0  0.45936059198E+03  0.47660538375E+02  0.30339362763E+02  0.46284581376E+03  0.46999998093E+01 0. -1.
       -5    1    3    3    0  502 -0.45936059198E+03 -0.47660538375E+02  0.29829696568E+03  0.54980619323E+03  0.46999998093E+01 0.  1.
</event>
<event>
 5   0  0.3467240E-02  0.8203783E+03  0.7818609E-02  0.9530980E-01
        2   -1    0    0  501    0  0.00000000000E+00  0.00000000000E+00  0.48661061891E+03  0.48661061891E+03  0.25500000920E-02 0. -1.
       -2   -1    0    0    0  501  0.00000000000E+00  0.00000000000E+00 -0.34576954334E+03  0.34576954335E+03  0.25500000920E-02 0.  1.
    10030    2    1    2    0    0  0.00000000000E+00  0.00000000000E+00  0.14084107556E+03  0.83238016226E+03  0.82037828224E+03 0.  0.
        2    1    3    3  502    0  0.68919221831E+01  0.39487965755E+03  0.18284631011E+03  0.43521283950E+03  0.25500000920E-02 0. -1.
       -2    1    3    3    0  502 -0.68919221831E+01 -0.39487965755E+03 -0.42005234545E+02  0.39716732277E+03  0.25500000920E-02 0.  1.
</event>
<event>
 5   0  0.1989298E-02  0.8146566E+03  0.7818609E-02  0.9539041E-01
        1   -1    0    0  501    0  0.00000000000E+00  0.00000000000E+00  0.66138410695E+03  0.66138410697E+03  0.50400001928E-02 0. -1.
       -1   -1    0    0    0  501  0.00000000000E+00  0.00000000000E+00 -0.25086229219E+03  0.25086229224E+03  0.50400001928E-02 0.  1.
    10030    2    1    2    0    0  0.00000000000E+00  0.00000000000E+00  0.41052181476E+03  0.91224639921E+03  0.81465657333E+03 0.  0.
        1    1    3    3  502    0  0.37936775535E+02 -0.15277749848E+03 -0.21542382988E+03  0.26681002508E+03  0.50400001928E-02 0.  1.
       -1    1    3    3    0  502 -0.37936775535E+02  0.15277749848E+03  0.62594564464E+03  0.64543637412E+03  0.50400001928E-02 0. -1.
</event>
<event>
 5   0  0.2132540E-02  0.8041860E+03  0.7818609E-02  0.9553978E-01
       -1   -1    0    0    0  501  0.00000000000E+00  0.00000000000E+00  0.51758381698E+03  0.51758381701E+03  0.50400001928E-02 0.  1.
        1   -1    0    0  501    0  0.00000000000E+00  0.00000000000E+00 -0.31237217560E+03  0.31237217564E+03  0.50400001928E-02 0. -1.
    10030    2    1    2    0    0  0.00000000000E+00  0.00000000000E+00  0.20521164139E+03  0.82995599264E+03  0.80418600582E+03 0.  0.
        4    1    3    3  502    0  0.17130873187E+03 -0.72318491113E+02  0.47054177166E+03  0.50595238664E+03  0.12699999809E+01 0.  1.
       -4    1    3    3    0  502 -0.17130873187E+03  0.72318491113E+02 -0.26533013027E+03  0.32400360600E+03  0.12699999809E+01 0. -1.
</event>
<event>
 5   0  0.3467240E-02  0.8028285E+03  0.7818609E-02  0.9555932E-01
        2   -1    0    0  501    0  0.00000000000E+00  0.00000000000E+00  0.11821155729E+04  0.11821155729E+04  0.25500000920E-02 0.  1.
       -2   -1    0    0    0  501  0.00000000000E+00  0.00000000000E+00 -0.13630932896E+03  0.13630932898E+03  0.25500000920E-02 0. -1.
    10030    2    1    2    0    0  0.00000000000E+00  0.00000000000E+00  0.10458062439E+04  0.13184249018E+04  0.80282845118E+03 0.  0.
        2    1    3    3  502    0  0.31291774714E+03  0.21406382915E+03  0.73948103331E+03  0.83100724308E+03  0.25500000920E-02 0.  1.
       -2    1    3    3    0  502 -0.31291774714E+03 -0.21406382915E+03  0.30632521059E+03  0.48741765876E+03  0.25500000920E-02 0. -1.
</event>
<event>
 5   0  0.3404132E-02  0.7948567E+03  0.7818609E-02  0.9567492E-01
       -2   -1    0    0    0  501  0.00000000000E+00  0.00000000000E+00  0.32034330440E+03  0.32034330441E+03  0.25500000920E-02 0. -1.
        2   -1    0    0  501    0  0.00000000000E+00  0.00000000000E+00 -0.49306251344E+03  0.49306251345E+03  0.25500000920E-02 0.  1.
    10030    2    1    2    0    0  0.00000000000E+00  0.00000000000E+00 -0.17271920904E+03  0.81340581785E+03  0.79485665333E+03 0.  0.
        5    1    3    3  502    0  0.31381649628E+02  0.14777294390E+03 -0.46250437620E+03  0.48657377538E+03  0.46999998093E+01 0.  1.
       -5    1    3    3    0  502 -0.31381649628E+02 -0.14777294390E+03  0.28978516716E+03  0.32683204247E+03  0.46999998093E+01 0. -1.
</event>
<event>
 5   0  0.2132540E-02  0.7813027E+03  0.7818609E-02  0.9587482E-01
        1   -1    0    0  501    0  0.00000000000E+00  0.00000000000E+00  0.25090817117E+04  0.25090817117E+04  0.50400001928E-02 0. -1.
       -1   -1    0    0    0  501  0.00000000000E+00  0.00000000000E+00 -0.60822443273E+02  0.60822443482E+02  0.50400001928E-02 0.  1.
    10030    2    1    2    0    0  0.00000000000E+00  0.00000000000E+00  0.24482592684E+04  0.25699041552E+04  0.78130270792E+03 0.  0.
        4    1    3    3  502    0  0.13261399350E+03  0.33534062529E+03  0.73000659901E+03  0.81421806277E+03  0.12699999809E+01 0. -1.
       -4    1    3    3    0  502 -0.13261399350E+03 -0.33534062529E+03  0.17182526694E+04  0.17556860924E+04  0.12699999809E+01 0.  1.
</event>
<event>
 5   0  0.2063692E-02  0.8010770E+03  0.7818609E-02  0.9558460E-01
       -1   -1    0    0    0  501  0.00000000000E+00  0.00000000000E+00  0.30011131769E+03  0.30011131774E+03  0.50400001928E-02 0. -1.
        1   -1    0    0  501    0  0.00000000000E+00  0.00000000000E+00 -0.53457193926E+03  0.53457193929E+03  0.50400001928E-02 0.  1.
    10030    2    1    2    0    0  0.00000000000E+00  0.00000000000E+00 -0.23446062157E+03  0.83468325703E+03  0.80107699785E+03 0.  0.
        2    1    3    3  502    0  0.24754482373E+03  0.30304951615E+03 -0.20633780555E+03  0.44237172039E+03  0.25500000920E-02 0.  1.
       -2    1    3    3    0  502 -0.24754482373E+03 -0.30304951615E+03 -0.28122816018E+02  0.39231153664E+03  0.25500000920E-02 0. -1.
</event>
<event>
 5   0  0.1358000E-02  0.7962632E+03  0.7818609E-02  0.9565442E-01
        3   -1    0    0  501    0  0.00000000000E+00  0.00000000000E+00  0.30082324075E+03  0.30082325770E+03  0.10100000352E+00 0. -1.
       -3   -1    0    0    0  501  0.00000000000E+00  0.00000000000E+00 -0.52691654199E+03  0.52691655167E+03  0.10100000352E+00 0.  1.
    10030    2    1    2    0    0  0.00000000000E+00  0.00000000000E+00 -0.22609330124E+03  0.82773980937E+03  0.79626315446E+03 0.  0.
        3    1    3    3  502    0  0.73373642211E+02  0.19885825727E+03 -0.46338606934E+03  0.50956349684E+03  0.10100000352E+00 0.  1.
       -3    1    3    3    0  502 -0.73373642211E+02 -0.19885825727E+03  0.23729276810E+03  0.31817631252E+03  0.10100000352E+00 0. -1.
</event>
<event>
 5   0  0.3343036E-02  0.8052316E+03  0.7818609E-02  0.9552475E-01
        2   -1    0    0  501    0  0.00000000000E+00  0.00000000000E+00  0.16291955920E+04  0.16291955920E+04  0.25500000920E-02 0. -1.
       -2   -1    0    0    0  501  0.00000000000E+00  0.00000000000E+00 -0.99496644282E+02  0.99496644315E+02  0.25500000920E-02 0.  1.
    10030    2    1    2    0    0  0.00000000000E+00  0.00000000000E+00  0.15296989477E+04  0.17286922363E+04  0.80523162956E+03 0.  0.
        4    1    3    3  502    0 -0.15290813774E+03 -0.18399876442E+03  0.69657484067E+02  0.24917909600E+03  0.12699999809E+01 0.  1.
       -4    1    3    3    0  502  0.15290813774E+03  0.18399876442E+03  0.14600414636E+04  0.14795131403E+04  0.12699999809E+01 0. -1.
</event>
<event>
 5   0  0.2077795E-02  0.8027885E+03  0.7818609E-02  0.9555990E-01
       -1   -1    0    0    0  501  0.00000000000E+00  0.00000000000E+00  0.40835740657E+03  0.40835740660E+03  0.50400001928E-02 0. -1.
        1   -1    0    0  501    0  0.00000000000E+00  0.00000000000E+00 -0.39454987333E+03  0.39454987336E+03  0.50400001928E-02 0.  1.
    10030    2    1    2    0    0  0.00000000000E+00  0.00000000000E+00  0.13807533239E+02  0.80290727996E+03  0.80278854765E+03 0.  0.
        5    1    3    3  502    0  0.34882688225E+03  0.15474914305E+03  0.13129169895E+03  0.40359272945E+03  0.46999998093E+01 0. -1.
       -5    1    3    3    0  502 -0.34882688225E+03 -0.15474914305E+03 -0.11748416571E+03  0.39931455051E+03  0.46999998093E+01 0.  1.
</event>
<event>
 5   0  0.3343036E-02  0.8045248E+03  0.7818609E-02  0.9553491E-01
        2   -1    0    0  501    0  0.00000000000E+00  0.00000000000E+00  0.10057734755E+04  0.10057734755E+04  0.25500000920E-02 0.  1.
       -2   -1    0    0    0  501  0.00000000000E+00  0.00000000000E+00 -0.16088614632E+03  0.16088614634E+03  0.25500000920E-02 0. -1.
    10030    2    1    2    0    0  0.00000000000E+00  0.00000000000E+00  0.84488732917E+03  0.11666596218E+04  0.80452475055E+03 0.  0.
        4    1    3    3  502    0 -0.24887911634E+03  0.93080526433E+02 -0.15504457662E+02  0.26617062208E+03  0.12699999809E+01 0. -1.
       -4    1    3    3    0  502  0.24887911634E+03 -0.93080526433E+02  0.86039178683E+03  0.90048899976E+03  0.12699999809E+01 0.  1.
</event>
<event>
 5   0  0.3343036E-02  0.8037275E+03  0.7818609E-02  0.9554637E-01
        2   -1    0    0  501    0  0.00000000000E+00  0.00000000000E+00  0.42598149123E+03  0.42598149123E+03  0.25500000920E-02 0. -1.
       -2   -1    0    0    0  501  0.00000000000E+00  0.00000000000E+00 -0.37911148267E+03  0.37911148268E+03  0.25500000920E-02 0.  1.
    10030    2    1    2    0    0  0.00000000000E+00  0.00000000000E+00  0.46870008552E+02  0.80509297392E+03  0.80372750292E+03 0.  0.
        4    1    3    3  502    0  0.17381136550E+03  0.11000309799E+03 -0.32237866638E+03  0.38241429077E+03  0.12699999809E+01 0.  1.
       -4    1    3    3    0  502 -0.17381136550E+03 -0.11000309799E+03  0.36924867494E+03  0.42267868315E+03  0.12699999809E+01 0. -1.
</event>
<event>
 5   0  0.3550586E-02  0.7993146E+03  0.7818609E-02  0.9561010E-01
        2   -1    0    0  501    0  0.00000000000E+00  0.00000000000E+00  0.11691188419E+04  0.11691188419E+04  0.25500000920E-02 0. -1.
       -2   -1    0    0    0  501  0.00000000000E+00  0.00000000000E+00 -0.13662081643E+03  0.13662081645E+03  0.25500000920E-02 0.  1.
    10030    2    1    2    0    0  0.00000000000E+00  0.00000000000E+00  0.10324980255E+04  0.13057396584E+04  0.79931463318E+03 0.  0.
        3    1    3    3  502    0  0.33912167207E+03 -0.53952473476E+02  0.85028029022E+03  0.91700106870E+03  0.10100000352E+00 0. -1.
       -3    1    3    3    0  502 -0.33912167207E+03  0.53952473476E+02  0.18221773529E+03  0.38873858969E+03  0.10100000352E+00 0.  1.
</event>
<event>
 5   0  0.2063692E-02  0.8017487E+03  0.7818609E-02  0.9557489E-01
        1   -1    0    0  501    0  0.00000000000E+00  0.00000000000E+00  0.20129473876E+03  0.20129473883E+03  0.50400001928E-02 0. -1.
       -1   -1    0    0    0  501  0.00000000000E+00  0.00000000000E+00 -0.79833301921E+03  0.79833301923E+03  0.50400001928E-02 0.  1.
    10030    2    1    2    0    0  0.00000000000E+00  0.00000000000E+00 -0.59703828045E+03  0.99962775806E+03  0.80174868029E+03 0.  0.
        2    1    3    3  502    0 -0.11731738031E+03  0.27707335730E+03 -0.62878767492E+03  0.69707026417E+03  0.25500000920E-02 0.  1.
       -2    1    3    3    0  502  0.11731738031E+03 -0.27707335730E+03  0.31749394472E+02  0.30255749388E+03  0.25500000920E-02 0. -1.
</event>
<event>
 5   0  0.2132540E-02  0.8118854E+03  0.7818609E-02  0.9542971E-01
        1   -1    0    0  501    0  0.00000000000E+00  0.00000000000E+00  0.60063027313E+03  0.60063027315E+03  0.50400001928E-02 0. -1.
       -1   -1    0    0    0  501  0.00000000000E+00  0.00000000000E+00 -0.27436093765E+03  0.27436093770E+03  0.50400001928E-02 0.  1.
    10030    2    1    2    0    0  0.00000000000E+00  0.00000000000E+00  0.32626933548E+03  0.87499121085E+03  0.81188542282E+03 0.  0.
        4    1    3    3  502    0  0.17746398213E+03 -0.33302468870E+03  0.32439440355E+03  0.49762661724E+03  0.12699999809E+01 0. -1.
       -4    1    3    3    0  502 -0.17746398213E+03  0.33302468870E+03  0.18749319295E+01  0.37736459361E+03  0.12699999809E+01 0.  1.
</event>
<event>
 5   0  0.2077795E-02  0.7773485E+03  0.7818609E-02  0.9593396E-01
       -1   -1    0    0    0  501  0.00000000000E+00  0.00000000000E+00  0.42482465714E+03  0.42482465716E+03  0.50400001928E-02 0. -1.
        1   -1    0    0  501    0  0.00000000000E+00  0.00000000000E+00 -0.35560007708E+03  0.35560007711E+03  0.50400001928E-02 0.  1.
    10030    2    1    2    0    0  0.00000000000E+00  0.00000000000E+00  0.69224580060E+02  0.78042473428E+03  0.77734852118E+03 0.  0.
        5    1    3    3  502    0  0.18273581422E+02 -0.38242616854E+03  0.10167402867E+03  0.39616082122E+03  0.46999998093E+01 0.  1.
       -5    1    3    3    0  502 -0.18273581422E+02  0.38242616854E+03 -0.32449448608E+02  0.38426391306E+03  0.46999998093E+01 0. -1.
</event>
<event>
 5   0  0.3416160E-02  0.7978567E+03  0.7818609E-02  0.9563125E-01
        2   -1    0    0  501    0  0.00000000000E+00  0.00000000000E+00  0.14848309358E+04  0.14848309358E+04  0.25500000920E-02 0. -1.
       -2   -1    0    0    0  501  0.00000000000E+00  0.00000000000E+00 -0.10717976802E+03  0.10717976805E+03  0.25500000920E-02 0.  1.
    10030    2    1    2    0    0  0.00000000000E+00  0.00000000000E+00  0.13776511678E+04  0.15920107038E+04  0.79785671714E+03 0.  0.
        1    1    3    3  502    0  0.27045993797E+03  0.20938883592E+03  0.27916142592E+03  0.44150126206E+03  0.50400001928E-02 0.  1.
       -1    1    3    3    0  502 -0.27045993797E+03 -0.20938883592E+03  0.10984897418E+04  0.11505094418E+04  0.50400001928E-02 0. -1.
</event>
<event>
 5   0  0.3404132E-02  0.7950699E+03  0.7818609E-02  0.9567181E-01
       -2   -1    0    0    0  501  0.00000000000E+00  0.00000000000E+00  0.18945321202E+03  0.18945321203E+03  0.25500000920E-02 0.  1.
        2   -1    0    0  501    0  0.00000000000E+00  0.00000000000E+00 -0.83415861152E+03  0.83415861152E+03  0.25500000920E-02 0. -1.
    10030    2    1    2    0    0  0.00000000000E+00  0.00000000000E+00 -0.64470539950E+03  0.10236118236E+04  0.79506987943E+03 0.  0.
        5    1    3    3  502    0 -0.26285754383E+03 -0.26696625184E+03 -0.15132602967E+03  0.40408752174E+03  0.46999998093E+01 0.  1.
       -5    1    3    3    0  502  0.26285754383E+03  0.26696625184E+03 -0.49337936984E+03  0.61952430182E+03  0.46999998093E+01 0. -1.
</event>
<event>
 5   0  0.3343036E-02  0.8174200E+03  0.7818609E-02  0.9535139E-01
       -2   -1    0    0    0  501  0.00000000000E+00  0.00000000000E+00  0.26785480249E+03  0.26785480251E+03  0.25500000920E-02 0.  1.
        2   -1    0    0  501    0  0.00000000000E+00  0.00000000000E+00 -0.62363580015E+03  0.62363580015E+03  0.25500000920E-02 0. -1.
    10030    2    1    2    0    0  0.00000000000E+00  0.00000000000E+00 -0.35578099765E+03  0.89149060266E+03  0.81741995103E+03 0.  0.
        4    1    3    3  502    0  0.81465126712E+02  0.58433403959E+02 -0.61001530016E+03  0.61820005573E+03  0.12699999809E+01 0. -1.
       -4    1    3    3    0  502 -0.81465126712E+02 -0.58433403959E+02  0.25423430251E+03  0.27329054693E+03  0.12699999809E+01 0.  1.
</event>
<event>
 5   0  0.2077795E-02  0.8882886E+03  0.7818609E-02  0.9440341E-01
        1   -1    0    0  501    0  0.00000000000E+00  0.00000000000E+00  0.39758667527E+03  0.39758667531E+03  0.50400001928E-02 0. -1.
       -1   -1    0    0    0  501  0.00000000000E+00  0.00000000000E+00 -0.49615380036E+03  0.49615380039E+03  0.50400001928E-02 0.  1.
    10030    2    1    2    0    0  0.00000000000E+00  0.00000000000E+00 -0.98567125091E+02  0.89374047570E+03  0.88828855658E+03 0.  0.
        5    1    3    3  502    0  0.11678762596E+03 -0.23216271517E+03  0.31307010505E+03  0.40690767573E+03  0.46999998093E+01 0. -1.
       -5    1    3    3    0  502 -0.11678762596E+03  0.23216271517E+03 -0.41163723014E+03  0.48683279997E+03  0.46999998093E+01 0.  1.
</event>
<event>
 5   0  0.1989298E-02  0.7575716E+03  0.7818609E-02  0.9623546E-01
        1   -1    0    0  501    0  0.00000000000E+00  0.00000000000E+00  0.64990350588E+03  0.64990350590E+03  0.50400001928E-02 0. -1.
       -1   -1    0    0    0  501  0.00000000000E+00  0.00000000000E+00 -0.22076919075E+03  0.22076919081E+03  0.50400001928E-02 0.  1.
    10030    2    1    2    0    0  0.00000000000E+00  0.00000000000E+00  0.42913431513E+03  0.87067269671E+03  0.75757157046E+03 0.  0.
        1    1    3    3  502    0  0.30110920776E+03  0.13739820577E+03  0.28546384798E+01  0.33098817340E+03  0.50400001928E-02 0.  1.
       -1    1    3    3    0  502 -0.30110920776E+03 -0.13739820577E+03  0.42627967665E+03  0.53968452331E+03  0.50400001928E-02 0. -1.
</event>
<event>
 5   0  0.1358000E-02  0.7984765E+03  0.7818609E-02  0.9562225E-01
        4   -1    0    0  501    0  0.00000000000E+00  0.00000000000E+00  0.21926504303E+04  0.21926507981E+04  0.12699999809E+01 0.  1.
       -4   -1    0    0    0  501  0.00000000000E+00  0.00000000000E+00 -0.72687457649E+02  0.72698551564E+02  0.12699999809E+01 0. -1.
    10030    2    1    2    0    0  0.00000000000E+00  0.00000000000E+00  0.21199629727E+04  0.22653493497E+04  0.79847646841E+03 0.  0.
        5    1    3    3  502    0 -0.64806381655E+02  0.31221556971E+03  0.17414185872E+04  0.17703782688E+04  0.46999998093E+01 0.  1.
       -5    1    3    3    0  502  0.64806381655E+02 -0.31221556971E+03  0.37854438551E+03  0.49497108084E+03  0.46999998093E+01 0. -1.
</event>
<event>
 5   0  0.2063692E-02  0.6291927E+03  0.7818609E-02  0.9846626E-01
        1   -1    0    0  501    0  0.00000000000E+00  0.00000000000E+00  0.81432838413E+03  0.81432838414E+03  0.50400001928E-02 0. -1.
       -1   -1    0    0    0  501  0.00000000000E+00  0.00000000000E+00 -0.12153678559E+03  0.12153678569E+03  0.50400001928E-02 0.  1.
    10030    2    1    2    0    0  0.00000000000E+00  0.00000000000E+00  0.69279159854E+03  0.93586516984E+03  0.62919267090E+03 0.  0.
        2    1    3    3  502    0 -0.27696626630E+03  0.56843816330E+02  0.55157875819E+03  0.61982308655E+03  0.25500000920E-02 0. -1.
       -2    1    3    3    0  502  0.27696626630E+03 -0.56843816330E+02  0.14121284035E+03  0.31604208329E+03  0.25500000920E-02 0.  1.
</event>
<event>
 5   0  0.2129257E-02  0.8041243E+03  0.7818609E-02  0.9554067E-01
        1   -1    0    0  501    0  0.00000000000E+00  0.00000000000E+00  0.87281730711E+03  0.87281730713E+03  0.50400001928E-02 0. -1.
       -1   -1    0    0    0  501  0.00000000000E+00  0.00000000000E+00 -0.18520938488E+03  0.18520938495E+03  0.50400001928E-02 0.  1.
    10030    2    1    2    0    0  0.00000000000E+00  0.00000000000E+00  0.68760792223E+03  0.10580266921E+04  0.80412426057E+03 0.  0.
        3    1    3    3  502    0 -0.86005593241E+02 -0.10049471650E+03  0.84336956263E+03  0.85367931888E+03  0.10100000352E+00 0. -1.
       -3    1    3    3    0  502  0.86005593241E+02  0.10049471650E+03 -0.15576164040E+03  0.20434737320E+03  0.10100000352E+00 0.  1.
</event>
<event>
 5   0  0.3416160E-02  0.8062552E+03  0.7818609E-02  0.9551007E-01
       -2   -1    0    0    0  501  0.00000000000E+00  0.00000000000E+00  0.95477214175E+03  0.95477214175E+03  0.25500000920E-02 0. -1.
        2   -1    0    0  501    0  0.00000000000E+00  0.00000000000E+00 -0.17021011276E+03  0.17021011278E+03  0.25500000920E-02 0.  1.
    10030    2    1    2    0    0  0.00000000000E+00  0.00000000000E+00  0.78456202899E+03  0.11249822545E+04  0.80625522986E+03 0.  0.
        1    1    3    3  502    0  0.22603833145E+03  0.33376875517E+03  0.39802807719E+03  0.56649912575E+03  0.50400001928E-02 0. -1.
       -1    1    3    3    0  502 -0.22603833145E+03 -0.33376875517E+03  0.38653395180E+03  0.55848312878E+03  0.50400001928E-02 0.  1.
</event>
<event>
 5   0  0.2063692E-02  0.8035418E+03  0.7818609E-02  0.9554905E-01
       -1   -1    0    0    0  501  0.00000000000E+00  0.00000000000E+00  0.34995607640E+03  0.34995607644E+03  0.50400001928E-02 0.  1.
        1   -1    0    0  501    0  0.00000000000E+00  0.00000000000E+00 -0.46125751736E+03  0.46125751739E+03  0.50400001928E-02 0. -1.
    10030    2    1    2    0    0  0.00000000000E+00  0.00000000000E+00 -0.11130144095E+03  0.81121359383E+03  0.80354183715E+03 0.  0.
        2    1    3    3  502    0 -0.25940675345E+03  0.12059879601E+03  0.22914892070E+03  0.36653125542E+03  0.25500000920E-02 0.  1.
       -2    1    3    3    0  502  0.25940675345E+03 -0.12059879601E+03 -0.34045036166E+03  0.44468233841E+03  0.25500000920E-02 0. -1.
</event>
<event>
 5   0  0.2132540E-02  0.8245466E+03  0.7818609E-02  0.9525151E-01
        1   -1    0    0  501    0  0.00000000000E+00  0.00000000000E+00  0.67404884504E+03  0.67404884506E+03  0.50400001928E-02 0.  1.
       -1   -1    0    0    0  501  0.00000000000E+00  0.00000000000E+00 -0.25216165064E+03  0.25216165069E+03  0.50400001928E-02 0. -1.
    10030    2    1    2    0    0  0.00000000000E+00  0.00000000000E+00  0.42188719441E+03  0.92621049575E+03  0.82454658912E+03 0.  0.
        4    1    3    3  502    0 -0.11173364626E+03  0.32923803980E+03 -0.37925734897E+02  0.34974572023E+03  0.12699999809E+01 0. -1.
       -4    1    3    3    0  502  0.11173364626E+03 -0.32923803980E+03  0.45981292930E+03  0.57646477552E+03  0.12699999809E+01 0.  1.
</event>
<event>
 5   0  0.3343036E-02  0.8068905E+03  0.7818609E-02  0.9550097E-01
        2   -1    0    0  501    0  0.00000000000E+00  0.00000000000E+00  0.40589950043E+03  0.40589950044E+03  0.25500000920E-02 0.  1.
       -2   -1    0    0    0  501  0.00000000000E+00  0.00000000000E+00 -0.40100579193E+03  0.40100579194E+03  0.25500000920E-02 0. -1.
    10030    2    1    2    0    0  0.00000000000E+00  0.00000000000E+00  0.48937085004E+01  0.80690529237E+03  0.80689045259E+03 0.  0.
        4    1    3    3  502    0  0.13357287254E+02 -0.38724783709E+03  0.11481943868E+03  0.40413416194E+03  0.12699999809E+01 0. -1.
       -4    1    3    3    0  502 -0.13357287254E+02  0.38724783709E+03 -0.10992573018E+03  0.40277113043E+03  0.12699999809E+01 0.  1.
</event>
<event>
 5   0  0.2077795E-02  0.8081889E+03  0.7818609E-02  0.9548239E-01
        1   -1    0    0  501    0  0.00000000000E+00  0.00000000000E+00  0.55301998898E+03  0.55301998901E+03  0.50400001928E-02 0.  1.
       -1   -1    0    0    0  501  0.00000000000E+00  0.00000000000E+00 -0.29527379973E+03  0.29527379978E+03  0.50400001928E-02 0. -1.
    10030    2    1    2    0    0  0.00000000000E+00  0.00000000000E+00  0.25774618925E+03  0.84829378878E+03  0.80818887274E+03 0.  0.
        5    1    3    3  502    0  0.13310511858E+03 -0.13668238695E+02  0.52906240431E+03  0.54574069941E+03  0.46999998093E+01 0.  1.
       -5    1    3    3    0  502 -0.13310511858E+03  0.13668238695E+02 -0.27131621506E+03  0.30255308938E+03  0.46999998093E+01 0. -1.
</event>
<event>
 5   0  0.2077795E-02  0.8026417E+03  0.7818609E-02  0.9556201E-01
       -1   -1    0    0    0  501  0.00000000000E+00  0.00000000000E+00  0.39887842461E+03  0.39887842465E+03  0.50400001928E-02 0.  1.
        1   -1    0    0  501    0  0.00000000000E+00  0.00000000000E+00 -0.40377822259E+03  0.40377822262E+03  0.50400001928E-02 0. -1.
    10030    2    1    2    0    0  0.00000000000E+00  0.00000000000E+00 -0.48997979789E+01  0.80265664727E+03  0.80264169178E+03 0.  0.
        5    1    3    3  502    0  0.14642240702E+02  0.90744564179E+02 -0.39308149849E+03  0.40371292473E+03  0.46999998093E+01 0. -1.
       -5    1    3    3    0  502 -0.14642240702E+02 -0.90744564179E+02  0.38818170051E+03  0.39894372254E+03  0.46999998093E+01 0.  1.
</event>
<event>
 5   0  0.1358000E-02  0.8202466E+03  0.7818609E-02  0.9531165E-01
       -3   -1    0    0    0  501  0.00000000000E+00  0.00000000000E+00  0.60638704496E+03  0.60638705338E+03  0.10100000352E+00 0.  1.
        3   -1    0    0  501    0  0.00000000000E+00  0.00000000000E+00 -0.27738241506E+03  0.27738243344E+03  0.10100000352E+00 0. -1.
    10030    2    1    2    0    0  0.00000000000E+00  0.00000000000E+00  0.32900462991E+03  0.88376948682E+03  0.82024658447E+03 0.  0.
        5    1    3    3  502    0 -0.29646724730E+03 -0.95028671989E+02  0.45211267307E+03  0.54895467606E+03  0.46999998093E+01 0.  1.
       -5    1    3    3    0  502  0.29646724730E+03  0.95028671989E+02 -0.12310804316E+03  0.33481481076E+03  0.46999998093E+01 0. -1.
</event>
<event>
 5   0  0.2063692E-02  0.8021351E+03  0.7818609E-02  0.9556932E-01
        1   -1    0    0  501    0  0.00000000000E+00  0.00000000000E+00  0.92823460594E+03  0.92823460595E+03  0.50400001928E-02 0. -1.
       -1   -1    0    0    0  501  0.00000000000E+00  0.00000000000E+00 -0.17329151633E+03  0.17329151641E+03  0.50400001928E-02 0.  1.
    10030    2    1    2    0    0  0.00000000000E+00  0.00000000000E+00  0.75494308961E+03  0.11015261224E+04  0.80213510689E+03 0.  0.
        2    1    3    3  502    0 -0.19677869073E+03 -0.34931241739E+03  0.39214432885E+03  0.56081921572E+03  0.25500000920E-02 0. -1.
       -2    1    3    3    0  502  0.19677869073E+03  0.34931241739E+03  0.36279876076E+03  0.54070690664E+03  0.25500000920E-02 0.  1.
</event>
<event>
 5   0  0.3416160E-02  0.6582429E+03  0.7818609E-02  0.9791434E-01
        2   -1    0    0  501    0  0.00000000000E+00  0.00000000000E+00  0.65092291379E+03  0.65092291380E+03  0.25500000920E-02 0.  1.
       -2   -1    0    0    0  501  0.00000000000E+00  0.00000000000E+00 -0.16641131989E+03  0.16641131991E+03  0.25500000920E-02 0. -1.
    10030    2    1    2    0    0  0.00000000000E+00  0.00000000000E+00  0.48451159390E+03  0.81733423371E+03  0.65824293765E+03 0.  0.
        1    1    3    3  502    0 -0.72890924546E+01 -0.19917863680E+03  0.56746428126E+03  0.60144905916E+03  0.50400001928E-02 0.  1.
       -1    1    3    3    0  502  0.72890924546E+01  0.19917863680E+03 -0.82952687361E+02  0.21588517455E+03  0.50400001928E-02 0. -1.
</event>
<event>
 5   0  0.2063692E-02  0.7788952E+03  0.7818609E-02  0.9591078E-01
       -1   -1    0    0    0  501  0.00000000000E+00  0.00000000000E+00  0.24471201463E+03  0.24471201468E+03  0.50400001928E-02 0. -1.
        1   -1    0    0  501    0  0.00000000000E+00  0.00000000000E+00 -0.61978749890E+03  0.61978749892E+03  0.50400001928E-02 0.  1.
    10030    2    1    2    0    0  0.00000000000E+00  0.00000000000E+00 -0.37507548427E+03  0.86449951361E+03  0.77889523694E+03 0.  0.
        2    1    3    3  502    0 -0.35001419433E+03  0.94524849126E+02 -0.34538072926E+03  0.50073219537E+03  0.25500000920E-02 0.  1.
       -2    1    3    3    0  502  0.35001419433E+03 -0.94524849126E+02 -0.29694755018E+02  0.36376731824E+03  0.25500000920E-02 0. -1.
</event>
<event>
 5   0  0.3416160E-02  0.8114315E+03  0.7818609E-02  0.9543616E-01
       -2   -1    0    0    0  501  0.00000000000E+00  0.00000000000E+00  0.41724861251E+03  0.41724861252E+03  0.25500000920E-02 0. -1.
        2   -1    0    0  501    0  0.00000000000E+00  0.00000000000E+00 -0.39450166332E+03  0.39450166333E+03  0.25500000920E-02 0.  1.
    10030    2    1    2    0    0  0.00000000000E+00  0.00000000000E+00  0.22746949194E+02  0.81175027585E+03  0.81143150459E+03 0.  0.
        1    1    3    3  502    0  0.38364941626E+03 -0.86614451671E+02 -0.88246436102E+02  0.40308357861E+03  0.50400001928E-02 0.  1.
       -1    1    3    3    0  502 -0.38364941626E+03  0.86614451671E+02  0.11099338530E+03  0.40866669724E+03  0.50400001928E-02 0. -1.
</event>
<event>
 5   0  0.3550586E-02  0.7906069E+03  0.7818609E-02  0.9573714E-01
        2   -1    0    0  501    0  0.00000000000E+00  0.00000000000E+00  0.12101533312E+04  0.12101533312E+04  0.25500000920E-02 0.  1.
       -2   -1    0    0    0  501  0.00000000000E+00  0.00000000000E+00 -0.12912810741E+03  0.12912810744E+03  0.25500000920E-02 0. -1.
    10030    2    1    2    0    0  0.00000000000E+00  0.00000000000E+00  0.10810252238E+04  0.13392814386E+04  0.79060687918E+03 0.  0.
        3    1    3    3  502    0 -0.18652210226E+03  0.30573663165E+03  0.25705654800E+03  0.44084403322E+03  0.10100000352E+00 0. -1.
       -3    1    3    3    0  502  0.18652210226E+03 -0.30573663165E+03  0.82396867578E+03  0.89843740540E+03  0.10100000352E+00 0.  1.
</event>
<event>
 5   0  0.3550586E-02  0.8085057E+03  0.7818609E-02  0.9547786E-01
       -2   -1    0    0    0  501  0.00000000000E+00  0.00000000000E+00  0.38587121898E+03  0.38587121899E+03  0.25500000920E-02 0. -1.
        2   -1    0    0  501    0  0.00000000000E+00  0.00000000000E+00 -0.42351013747E+03  0.42351013747E+03  0.25500000920E-02 0.  1.
    10030    2    1    2    0    0  0.00000000000E+00  0.00000000000E+00 -0.37638918488E+02  0.80938135646E+03  0.80850571550E+03 0.  0.
        3    1    3    3  502    0  0.55207056535E+02 -0.33197411996E+03 -0.24303910339E+03  0.41511763561E+03  0.10100000352E+00 0.  1.
       -3    1    3    3    0  502 -0.55207056535E+02  0.33197411996E+03  0.20540018490E+03  0.39426372085E+03  0.10100000352E+00 0. -1.
</event>
<event>
 5   0  0.1989298E-02  0.7944522E+03  0.7818609E-02  0.9568082E-01
       -1   -1    0    0    0  501  0.00000000000E+00  0.00000000000E+00  0.30437789268E+03  0.30437789272E+03  0.50400001928E-02 0. -1.
        1   -1    0    0  501    0  0.00000000000E+00  0.00000000000E+00 -0.51839690602E+03  0.51839690604E+03  0.50400001928E-02 0.  1.
    10030    2    1    2    0    0  0.00000000000E+00  0.00000000000E+00 -0.21401901334E+03  0.82277479877E+03  0.79445215804E+03 0.  0.
        1    1    3    3  502    0  0.40897123118E+02  0.36491446671E+03 -0.26391454437E+03  0.45220131518E+03  0.50400001928E-02 0.  1.
       -1    1    3    3    0  502 -0.40897123118E+02 -0.36491446671E+03  0.49895531036E+02  0.37057348359E+03  0.50400001928E-02 0. -1.
</event>
<event>
 5   0  0.2077795E-02  0.7878192E+03  0.7818609E-02  0.9577818E-01
        1   -1    0    0  501    0  0.00000000000E+00  0.00000000000E+00  0.29221124897E+03  0.29221124902E+03  0.50400001928E-02 0.  1.
       -1   -1    0    0    0  501  0.00000000000E+00  0.00000000000E+00 -0.53100200487E+03  0.53100200489E+03  0.50400001928E-02 0. -1.
    10030    2    1    2    0    0  0.00000000000E+00  0.00000000000E+00 -0.23879075590E+03  0.82321325391E+03  0.78781916473E+03 0.  0.
        5    1    3    3  502    0 -0.24899273599E+03  0.93812408831E+02 -0.42286431549E+03  0.49963433623E+03  0.46999998093E+01 0. -1.
       -5    1    3    3    0  502  0.24899273599E+03 -0.93812408831E+02  0.18407355959E+03  0.32357891768E+03  0.46999998093E+01 0.  1.
</event>
<event>
 5   0  0.3550586E-02  0.8066000E+03  0.7818609E-02  0.9550513E-01
       -2   -1    0    0    0  501  0.00000000000E+00  0.00000000000E+00  0.20215320274E+03  0.20215320275E+03  0.25500000920E-02 0. -1.
        2   -1    0    0  501    0  0.00000000000E+00  0.00000000000E+00 -0.80459228039E+03  0.80459228040E+03  0.25500000920E-02 0.  1.
    10030    2    1    2    0    0  0.00000000000E+00  0.00000000000E+00 -0.60243907766E+03  0.10067454831E+04  0.80660004064E+03 0.  0.
        3    1    3    3  502    0  0.23710062867E+03 -0.12007839431E+03  0.77390070347E+02  0.27681178097E+03  0.10100000352E+00 0. -1.
       -3    1    3    3    0  502 -0.23710062867E+03  0.12007839431E+03 -0.67982914800E+03  0.72993370218E+03  0.10100000352E+00 0.  1.
</event>
<event>
 5   0  0.2077795E-02  0.7724423E+03  0.7818609E-02  0.9600785E-01
       -1   -1    0    0    0  501  0.00000000000E+00  0.00000000000E+00  0.78955651800E+03  0.78955651801E+03  0.50400001928E-02 0. -1.
        1   -1    0    0  501    0  0.00000000000E+00  0.00000000000E+00 -0.18892477802E+03  0.18892477809E+03  0.50400001928E-02 0.  1.
    10030    2    1    2    0    0  0.00000000000E+00  0.00000000000E+00  0.60063173997E+03  0.97848129610E+03  0.77244233426E+03 0.  0.
        5    1    3    3  502    0 -0.10296973368E+03  0.30288127060E+03  0.26264497362E+02  0.32101673469E+03  0.46999998093E+01 0.  1.
       -5    1    3    3    0  502  0.10296973368E+03 -0.30288127060E+03  0.57436724261E+03  0.65746456141E+03  0.46999998093E+01 0. -1.
</event>
<event>
 5   0  0.3467240E-02  0.7968925E+03  0.7818609E-02  0.9564526E-01
        2   -1    0    0  501    0  0.00000000000E+00  0.00000000000E+00  0.20619347047E+04  0.20619347047E+04  0.25500000920E-02 0. -1.
       -2   -1    0    0    0  501  0.00000000000E+00  0.00000000000E+00 -0.76995368355E+02  0.76995368398E+02  0.25500000920E-02 0.  1.
    10030    2    1    2    0    0  0.00000000000E+00  0.00000000000E+00  0.19849393363E+04  0.21389300731E+04  0.79689252013E+03 0.  0.
        2    1    3    3  502    0 -0.85234156067E+02  0.82399583413E+02  0.20134994480E+04  0.20169865095E+04  0.25500000920E-02 0. -1.
       -2    1    3    3    0  502  0.85234156067E+02 -0.82399583413E+02 -0.28560111634E+02  0.12194356355E+03  0.25500000920E-02 0.  1.
</event>
<event>
 5   0  0.1989298E-02  0.7553590E+03  0.7818609E-02  0.9626980E-01
        1   -1    0    0  501    0  0.00000000000E+00  0.00000000000E+00  0.15582963377E+04  0.15582963377E+04  0.50400001928E-02 0.  1.
       -1   -1    0    0    0  501  0.00000000000E+00  0.00000000000E+00 -0.91537018953E+02  0.91537019092E+02  0.50400001928E-02 0. -1.
    10030    2    1    2    0    0  0.00000000000E+00  0.00000000000E+00  0.14667593188E+04  0.16498333568E+04  0.75535899153E+03 0.  0.
        1    1    3    3  502    0 -0.68404720084E+02 -0.23273301467E+02 -0.76299850177E+02  0.10508339285E+03  0.50400001928E-02 0. -1.
       -1    1    3    3    0  502  0.68404720084E+02  0.23273301467E+02  0.15430591689E+04  0.15447499640E+04  0.50400001928E-02 0.  1.
</event>
<event>
 5   0  0.1989298E-02  0.7915488E+03  0.7818609E-02  0.9572331E-01
        1   -1    0    0  501    0  0.00000000000E+00  0.00000000000E+00  0.10036453464E+04  0.10036453464E+04  0.50400001928E-02 0. -1.
       -1   -1    0    0    0  501  0.00000000000E+00  0.00000000000E+00 -0.15606846120E+03  0.15606846129E+03  0.50400001928E-02 0.  1.
    10030    2    1    2    0    0  0.00000000000E+00  0.00000000000E+00  0.84757688520E+03  0.11597138077E+04  0.79154882316E+03 0.  0.
        1    1    3    3  502    0  0.32734505118E+03  0.11402053967E+03  0.70362983743E+03  0.78437899905E+03  0.50400001928E-02 0. -1.
       -1    1    3    3    0  502 -0.32734505118E+03 -0.11402053967E+03  0.14394704777E+03  0.37533480865E+03  0.50400001928E-02 0.  1.
</event>
<event>
 5   0  0.2063692E-02  0.7859522E+03  0.7818609E-02  0.9580576E-01
       -1   -1    0    0    0  501  0.00000000000E+00  0.00000000000E+00  0.63065708523E+03  0.63065708525E+03  0.50400001928E-02 0. -1.
        1   -1    0    0  501    0  0.00000000000E+00  0.00000000000E+00 -0.24487194120E+03  0.24487194125E+03  0.50400001928E-02 0.  1.
    10030    2    1    2    0    0  0.00000000000E+00  0.00000000000E+00  0.38578514402E+03  0.87552902650E+03  0.78595222431E+03 0.  0.
        2    1    3    3  502    0  0.11688708864E+03 -0.71870931740E+02  0.60310401699E+03  0.61851635196E+03  0.25500000920E-02 0. -1.
       -2    1    3    3    0  502 -0.11688708864E+03  0.71870931740E+02 -0.21731887297E+03  0.25701267454E+03  0.25500000920E-02 0.  1.
</event>
<event>
 5   0  0.3343036E-02  0.7895157E+03  0.7818609E-02  0.9575318E-01
        2   -1    0    0  501    0  0.00000000000E+00  0.00000000000E+00  0.46517803019E+03  0.46517803020E+03  0.25500000920E-02 0.  1.
       -2   -1    0    0    0  501  0.00000000000E+00  0.00000000000E+00 -0.33499809979E+03  0.33499809980E+03  0.25500000920E-02 0. -1.
    10030    2    1    2    0    0  0.00000000000E+00  0.00000000000E+00  0.13017993041E+03  0.80017613000E+03  0.78951568999E+03 0.  0.
        4    1    3    3  502    0  0.20436527528E+03 -0.17420124830E+03 -0.22816257161E+03  0.35237907519E+03  0.12699999809E+01 0. -1.
       -4    1    3    3    0  502 -0.20436527528E+03  0.17420124830E+03  0.35834250201E+03  0.44779705481E+03  0.12699999809E+01 0.  1.
</event>
<event>
 5   0  0.2129257E-02  0.8099793E+03  0.7818609E-02  0.9545684E-01
       -1   -1    0    0    0  501  0.00000000000E+00  0.00000000000E+00  0.24291572770E+03  0.24291572775E+03  0.50400001928E-02 0. -1.
        1   -1    0    0  501    0  0.00000000000E+00  0.00000000000E+00 -0.67519962118E+03  0.67519962120E+03  0.50400001928E-02 0.  1.
    10030    2    1    2    0    0  0.00000000000E+00  0.00000000000E+00 -0.43228389349E+03  0.91811534895E+03  0.80997927715E+03 0.  0.
        3    1    3    3  502    0 -0.22361302848E+02  0.29553807733E+03  0.96700872558E+02  0.31175928530E+03  0.10100000352E+00 0. -1.
       -3    1    3    3    0  502  0.22361302848E+02 -0.29553807733E+03 -0.52898476604E+03  0.60635606365E+03  0.10100000352E+00 0.  1.
</event>
<event>
 5   0  0.2077795E-02  0.8046346E+03  0.7818609E-02  0.9553333E-01
        1   -1    0    0  501    0  0.00000000000E+00  0.00000000000E+00  0.47585744451E+03  0.47585744454E+03  0.50400001928E-02 0. -1.
       -1   -1    0    0    0  501  0.00000000000E+00  0.00000000000E+00 -0.34014222625E+03  0.34014222629E+03  0.50400001928E-02 0.  1.
    10030    2    1    2    0    0  0.00000000000E+00  0.00000000000E+00  0.13571521826E+03  0.81599967082E+03  0.80463460174E+03 0.  0.
        5    1    3    3  502    0  0.30988509549E+03 -0.15966762987E+03 -0.13576332981E+03  0.37413406174E+03  0.46999998093E+01 0.  1.
       -5    1    3    3    0  502 -0.30988509549E+03  0.15966762987E+03  0.27147854807E+03  0.44186560909E+03  0.46999998093E+01 0. -1.
</event>
<event>
 5   0  0.2063692E-02  0.8135129E+03  0.7818609E-02  0.9540661E-01
        1   -1    0    0  501    0  0.00000000000E+00  0.00000000000E+00  0.13452613653E+04  0.13452613653E+04  0.50400001928E-02 0. -1.
       -1   -1    0    0    0  501  0.00000000000E+00  0.00000000000E+00 -0.12298785588E+03  0.12298785598E+03  0.50400001928E-02 0.  1.
    10030    2    1    2    0    0  0.00000000000E+00  0.00000000000E+00  0.12222735094E+04  0.14682492213E+04  0.81351290338E+03 0.  0.
        2    1    3    3  502    0 -0.15209991521E+03 -0.13966409699E+03  0.12436255665E+04  0.12606526063E+04  0.25500000920E-02 0. -1.
       -2    1    3    3    0  502  0.15209991521E+03  0.13966409699E+03 -0.21352057072E+02  0.20759661496E+03  0.25500000920E-02 0.  1.
</event>
<event>
 5   0  0.3467240E-02  0.7944749E+03  0.7818609E-02  0.9568049E-01
        2   -1    0    0  501    0  0.00000000000E+00  0.00000000000E+00  0.13330218645E+04  0.13330218645E+04  0.25500000920E-02 0. -1.
       -2   -1    0    0    0  501  0.00000000000E+00  0.00000000000E+00 -0.11837585900E+03  0.11837585902E+03  0.25500000920E-02 0.  1.
    10030    2    1    2    0    0  0.00000000000E+00  0.00000000000E+00  0.12146460055E+04  0.14513977235E+04  0.79447494181E+03 0.  0.
        2    1    3    3  502    0  0.43405576302E+02  0.15635502067E+02 -0.11346480925E+03  0.12248581928E+03  0.25500000920E-02 0.  1.
       -2    1    3    3    0  502 -0.43405576302E+02 -0.15635502067E+02  0.13281108148E+04  0.13289119042E+04  0.25500000920E-02 0. -1.
</event>
<event>
 5   0  0.1358000E-02  0.8097251E+03  0.7818609E-02  0.9546046E-01
        3   -1    0    0  501    0  0.00000000000E+00  0.00000000000E+00  0.13540014974E+03  0.13540018741E+03  0.10100000352E+00 0. -1.
       -3   -1    0    0    0  501  0.00000000000E+00  0.00000000000E+00 -0.12105869638E+04  0.12105869680E+04  0.10100000352E+00 0.  1.
    10030    2    1    2    0    0  0.00000000000E+00  0.00000000000E+00 -0.10751868140E+04  0.13459871554E+04  0.80972509989E+03 0.  0.
        1    1    3    3  502    0  0.84092944638E+02 -0.27444080714E+03 -0.62972500407E+02  0.29386206934E+03  0.50400001928E-02 0. -1.
       -1    1    3    3    0  502 -0.84092944638E+02  0.27444080714E+03 -0.10122143136E+04  0.10521250860E+04  0.50400001928E-02 0.  1.
</event>
<event>
 5   0  0.3343036E-02  0.7814077E+03  0.7818609E-02  0.9587325E-01
       -2   -1    0    0    0  501  0.00000000000E+00  0.00000000000E+00  0.90486735598E+03  0.90486735598E+03  0.25500000920E-02 0. -1.
        2   -1    0    0  501    0  0.00000000000E+00  0.00000000000E+00 -0.16869822519E+03  0.16869822521E+03  0.25500000920E-02 0.  1.
    10030    2    1    2    0    0  0.00000000000E+00  0.00000000000E+00  0.73616913079E+03  0.10735655812E+04  0.78140774760E+03 0.  0.
        4    1    3    3  502    0 -0.25233071573E+03 -0.15290141535E+03  0.71996657493E+03  0.77807654819E+03  0.12699999809E+01 0. -1.
       -4    1    3    3    0  502  0.25233071573E+03  0.15290141535E+03  0.16202555852E+02  0.29548903301E+03  0.12699999809E+01 0.  1.
</event>
<event>
 5   0  0.3343036E-02  0.9159911E+03  0.7818609E-02  0.9405810E-01
        2   -1    0    0  501    0  0.00000000000E+00  0.00000000000E+00  0.99284484335E+03  0.99284484335E+03  0.25500000920E-02 0.  1.
       -2   -1    0    0    0  501  0.00000000000E+00  0.00000000000E+00 -0.21127162440E+03  0.21127162442E+03  0.25500000920E-02 0. -1.
    10030    2    1    2    0    0  0.00000000000E+00  0.00000000000E+00  0.78157321895E+03  0.12041164678E+04  0.91599114153E+03 0.  0.
        4    1    3    3  502    0  0.21736590421E+03 -0.15380983551E+03  0.88062717020E+03  0.92000610194E+03  0.12699999809E+01 0.  1.
       -4    1    3    3    0  502 -0.21736590421E+03  0.15380983551E+03 -0.99053951247E+02  0.28411036583E+03  0.12699999809E+01 0. -1.
</event>
<event>
 5   0  0.2132540E-02  0.7873955E+03  0.7818609E-02  0.9578443E-01
       -1   -1    0    0    0  501  0.00000000000E+00  0.00000000000E+00  0.20781512587E+03  0.20781512593E+03  0.50400001928E-02 0.  1.
        1   -1    0    0  501    0  0.00000000000E+00  0.00000000000E+00 -0.74584515611E+03  0.74584515612E+03  0.50400001928E-02 0. -1.
    10030    2    1    2    0    0  0.00000000000E+00  0.00000000000E+00 -0.53803003024E+03  0.95366028205E+03  0.78739546616E+03 0.  0.
        4    1    3    3  502    0 -0.10763305184E+02  0.35667732982E+03 -0.67577469283E+02  0.36318437962E+03  0.12699999809E+01 0.  1.
       -4    1    3    3    0  502  0.10763305184E+02 -0.35667732982E+03 -0.47045256096E+03  0.59047590243E+03  0.12699999809E+01 0. -1.
</event>
<event>
 5   0  0.3467240E-02  0.8072537E+03  0.7818609E-02  0.9549577E-01
        2   -1    0    0  501    0  0.00000000000E+00  0.00000000000E+00  0.53445479148E+03  0.53445479149E+03  0.25500000920E-02 0.  1.
       -2   -1    0    0    0  501  0.00000000000E+00  0.00000000000E+00 -0.30482400877E+03  0.30482400878E+03  0.25500000920E-02 0. -1.
    10030    2    1    2    0    0  0.00000000000E+00  0.00000000000E+00  0.22963078271E+03  0.83927880027E+03  0.80725374463E+03 0.  0.
        2    1    3    3  502    0 -0.12685077447E+03 -0.35613987161E+03  0.26180276824E+03  0.45985586502E+03  0.25500000920E-02 0.  1.
       -2    1    3    3    0  502  0.12685077447E+03  0.35613987161E+03 -0.32171985531E+02  0.37942293525E+03  0.25500000920E-02 0. -1.
</event>
<event>
 5   0  0.1358000E-02  0.7894922E+03  0.7818609E-02  0.9575352E-01
       -3   -1    0    0    0  501  0.00000000000E+00  0.00000000000E+00  0.96606437499E+03  0.96606438027E+03  0.10100000352E+00 0.  1.
        3   -1    0    0  501    0  0.00000000000E+00  0.00000000000E+00 -0.16129823858E+03  0.16129827020E+03  0.10100000352E+00 0. -1.
    10030    2    1    2    0    0  0.00000000000E+00  0.00000000000E+00  0.80476613642E+03  0.11273626505E+04  0.78949224909E+03 0.  0.
        3    1    3    3  502    0  0.64727205463E+02 -0.37114994150E+03  0.23413456269E+03  0.44357738203E+03  0.10100000352E+00 0. -1.
       -3    1    3    3    0  502 -0.64727205463E+02  0.37114994150E+03  0.57063157373E+03  0.68378526844E+03  0.10100000352E+00 0.  1.
</event>
<event>
 5   0  0.3343036E-02  0.8068677E+03  0.7818609E-02  0.9550129E-01
       -2   -1    0    0    0  501  0.00000000000E+00  0.00000000000E+00  0.14745610683E+03  0.14745610685E+03  0.25500000920E-02 0.  1.
        2   -1    0    0  501    0  0.00000000000E+00  0.00000000000E+00 -0.11037784869E+04  0.11037784869E+04  0.25500000920E-02 0. -1.
    10030    2    1    2    0    0  0.00000000000E+00  0.00000000000E+00 -0.95632238007E+03  0.12512345937E+04  0.80686771777E+03 0.  0.
        4    1    3    3  502    0  0.29851061884E+03 -0.23130232469E+03 -0.25804529194E+03  0.45738205098E+03  0.12699999809E+01 0.  1.
       -4    1    3    3    0  502 -0.29851061884E+03  0.23130232469E+03 -0.69827708813E+03  0.79385254277E+03  0.12699999809E+01 0. -1.
</event>
<event>
 5   0  0.3404132E-02  0.7118059E+03  0.7818609E-02  0.9697253E-01
        2   -1    0    0  501    0  0.00000000000E+00  0.00000000000E+00  0.36704224818E+03  0.36704224819E+03  0.25500000920E-02 0.  1.
       -2   -1    0    0    0  501  0.00000000000E+00  0.00000000000E+00 -0.34510168582E+03  0.34510168583E+03  0.25500000920E-02 0. -1.
    10030    2    1    2    0    0  0.00000000000E+00  0.00000000000E+00  0.21940562357E+02  0.71214393402E+03  0.71180586853E+03 0.  0.
        5    1    3    3  502    0  0.17743135546E+03  0.29844706109E+03 -0.67119812674E+02  0.35366607616E+03  0.46999998093E+01 0.  1.
       -5    1    3    3    0  502 -0.17743135546E+03 -0.29844706109E+03  0.89060375030E+02  0.35847785786E+03  0.46999998093E+01 0. -1.
</event>
<event>
 5   0  0.1358000E-02  0.7988996E+03  0.7818609E-02  0.9561611E-01
       -4   -1    0    0    0  501  0.00000000000E+00  0.00000000000E+00  0.36677215974E+03  0.36677435851E+03  0.12699999809E+01 0.  1.
        4   -1    0    0  501    0  0.00000000000E+00  0.00000000000E+00 -0.43503441547E+03  0.43503626922E+03  0.12699999809E+01 0. -1.
    10030    2    1    2    0    0  0.00000000000E+00  0.00000000000E+00 -0.68262255725E+02  0.80181062774E+03  0.79889958517E+03 0.  0.
        4    1    3    3  502    0 -0.26418871032E+02  0.22706477168E+02 -0.43350694737E+03  0.43490622802E+03  0.12699999809E+01 0. -1.
       -4    1    3    3    0  502  0.26418871032E+02 -0.22706477168E+02  0.36524469165E+03  0.36690439971E+03  0.12699999809E+01 0.  1.
</event>
<event>
 5   0  0.3404132E-02  0.8066823E+03  0.7818609E-02  0.9550395E-01
       -2   -1    0    0    0  501  0.00000000000E+00  0.00000000000E+00  0.29253138039E+03  0.29253138040E+03  0.25500000920E-02 0.  1.
        2   -1    0    0  501    0  0.00000000000E+00  0.00000000000E+00 -0.55612522061E+03  0.55612522062E+03  0.25500000920E-02 0. -1.
    10030    2    1    2    0    0  0.00000000000E+00  0.00000000000E+00 -0.26359384023E+03  0.84865660102E+03  0.80668228805E+03 0.  0.
        5    1    3    3  502    0  0.20749506145E+03 -0.34565783180E+03 -0.14372027988E+03  0.42803171151E+03  0.46999998093E+01 0. -1.
       -5    1    3    3    0  502 -0.20749506145E+03  0.34565783180E+03 -0.11987356034E+03  0.42062488951E+03  0.46999998093E+01 0.  1.
</event>
<event>
 5   0  0.2077795E-02  0.8010538E+03  0.7818609E-02  0.9558493E-01
       -1   -1    0    0    0  501  0.00000000000E+00  0.00000000000E+00  0.15659969964E+03  0.15659969972E+03  0.50400001928E-02 0. -1.
        1   -1    0    0  501    0  0.00000000000E+00  0.00000000000E+00 -0.10244067168E+04  0.10244067169E+04  0.50400001928E-02 0.  1.
    10030    2    1    2    0    0  0.00000000000E+00  0.00000000000E+00 -0.86780701720E+03  0.11810064166E+04  0.80105376655E+03 0.  0.
        5    1    3    3  502    0  0.26558879496E+03 -0.15565772189E+03 -0.81160750967E+03  0.86804122836E+03  0.46999998093E+01 0.  1.
       -5    1    3    3    0  502 -0.26558879496E+03  0.15565772189E+03 -0.56199507535E+02  0.31296518822E+03  0.46999998093E+01 0. -1.
</event>
<event>
 5   0  0.2063692E-02  0.7889154E+03  0.7818609E-02  0.9576202E-01
        1   -1    0    0  501    0  0.00000000000E+00  0.00000000000E+00  0.72512175346E+03  0.72512175348E+03  0.50400001928E-02 0. -1.
       -1   -1    0    0    0  501  0.00000000000E+00  0.00000000000E+00 -0.21458034132E+03  0.21458034137E+03  0.50400001928E-02 0.  1.
    10030    2    1    2    0    0  0.00000000000E+00  0.00000000000E+00  0.51054141215E+03  0.93970209485E+03  0.78891539062E+03 0.  0.
        2    1    3    3  502    0  0.19448224795E+03  0.21927896471E+03  0.56971652326E+03  0.64068988287E+03  0.25500000920E-02 0. -1.
       -2    1    3    3    0  502 -0.19448224795E+03 -0.21927896471E+03 -0.59175111115E+02  0.29901221198E+03  0.25500000920E-02 0.  1.
</event>
<event>
 5   0  0.3416160E-02  0.7960755E+03  0.7818609E-02  0.9565715E-01
        2   -1    0    0  501    0  0.00000000000E+00  0.00000000000E+00  0.11175957798E+04  0.11175957798E+04  0.25500000920E-02 0. -1.
       -2   -1    0    0    0  501  0.00000000000E+00  0.00000000000E+00 -0.14176327723E+03  0.14176327725E+03  0.25500000920E-02 0.  1.
    10030    2    1    2    0    0  0.00000000000E+00  0.00000000000E+00  0.97583250258E+03  0.12593590571E+04  0.79607547476E+03 0.  0.
        1    1    3    3  502    0 -0.20996663215E+03 -0.29209020040E+03  0.75745988578E+03  0.83853929566E+03  0.50400001928E-02 0. -1.
       -1    1    3    3    0  502  0.20996663215E+03  0.29209020040E+03  0.21837261681E+03  0.42081976140E+03  0.50400001928E-02 0.  1.
</event>
<event>
 5   0  0.2132540E-02  0.7991212E+03  0.7818609E-02  0.9561290E-01
       -1   -1    0    0    0  501  0.00000000000E+00  0.00000000000E+00  0.14941731312E+03  0.14941731320E+03  0.50400001928E-02 0. -1.
        1   -1    0    0  501    0  0.00000000000E+00  0.00000000000E+00 -0.10684751483E+04  0.10684751483E+04  0.50400001928E-02 0.  1.
    10030    2    1    2    0    0  0.00000000000E+00  0.00000000000E+00 -0.91905783521E+03  0.12178924615E+04  0.79912123199E+03 0.  0.
        4    1    3    3  502    0 -0.19323502530E+03  0.29110058598E+03 -0.75492439831E+03  0.83186043674E+03  0.12699999809E+01 0.  1.
       -4    1    3    3    0  502  0.19323502530E+03 -0.29110058598E+03 -0.16413343690E+03  0.38603202479E+03  0.12699999809E+01 0. -1.
</event>
<event>
 5   0  0.3550586E-02  0.7823100E+03  0.7818609E-02  0.9585982E-01
        2   -1    0    0  501    0  0.00000000000E+00  0.00000000000E+00  0.22995864572E+04  0.22995864572E+04  0.25500000920E-02 0.  1.
       -2   -1    0    0    0  501  0.00000000000E+00  0.00000000000E+00 -0.66534669298E+02  0.66534669346E+02  0.25500000920E-02 0. -1.
    10030    2    1    2    0    0  0.00000000000E+00  0.00000000000E+00  0.22330517879E+04  0.23661211266E+04  0.78230997568E+03 0.  0.
        3    1    3    3  502    0  0.59636176695E+02 -0.20495801799E+03  0.12515317223E+03  0.24744209308E+03  0.10100000352E+00 0. -1.
       -3    1    3    3    0  502 -0.59636176695E+02  0.20495801799E+03  0.21078986157E+04  0.21186790335E+04  0.10100000352E+00 0.  1.
</event>
<event>
 5   0  0.2077795E-02  0.7953324E+03  0.7818609E-02  0.9566798E-01
       -1   -1    0    0    0  501  0.00000000000E+00  0.00000000000E+00  0.12903957702E+03  0.12903957712E+03  0.50400001928E-02 0.  1.
        1   -1    0    0  501    0  0.00000000000E+00  0.00000000000E+00 -0.12255032705E+04  0.12255032705E+04  0.50400001928E-02 0. -1.
    10030    2    1    2    0    0  0.00000000000E+00  0.00000000000E+00 -0.10964636935E+04  0.13545428477E+04  0.79533244304E+03 0.  0.
        5    1    3    3  502    0 -0.99892459842E+02 -0.35908274765E+03 -0.31225718337E+03  0.48625668300E+03  0.46999998093E+01 0.  1.
       -5    1    3    3    0  502  0.99892459842E+02  0.35908274765E+03 -0.78420651014E+03  0.86828616466E+03  0.46999998093E+01 0. -1.
</event>
<event>
 5   0  0.2129257E-02  0.8059031E+03  0.7818609E-02  0.9551512E-01
       -1   -1    0    0    0  501  0.00000000000E+00  0.00000000000E+00  0.63200122879E+03  0.63200122881E+03  0.50400001928E-02 0. -1.
        1   -1    0    0  501    0  0.00000000000E+00  0.00000000000E+00 -0.25691399656E+03  0.25691399661E+03  0.50400001928E-02 0.  1.
    10030    2    1    2    0    0  0.00000000000E+00  0.00000000000E+00  0.37508723224E+03  0.88891522542E+03  0.80590312457E+03 0.  0.
        3    1    3    3  502    0  0.20430028273E+03 -0.14452804558E+02 -0.19522053577E+03  0.28294620844E+03  0.10100000352E+00 0.  1.
       -3    1    3    3    0  502 -0.20430028273E+03  0.14452804558E+02  0.57030776801E+03  0.60596901698E+03  0.10100000352E+00 0. -1.
</event>
<event>
 5   0  0.2077795E-02  0.7787628E+03  0.7818609E-02  0.9591276E-01
       -1   -1    0    0    0  501  0.00000000000E+00  0.00000000000E+00  0.32782607143E+03  0.32782607147E+03  0.50400001928E-02 0. -1.
        1   -1    0    0  501    0  0.00000000000E+00  0.00000000000E+00 -0.46249485293E+03  0.46249485295E+03  0.50400001928E-02 0.  1.
    10030    2    1    2    0    0  0.00000000000E+00  0.00000000000E+00 -0.13466878150E+03  0.79032092442E+03  0.77876278986E+03 0.  0.
        5    1    3    3  502    0 -0.25044856999E+03  0.36812121537E+02 -0.36755632622E+03  0.44631755673E+03  0.46999998093E+01 0.  1.
       -5    1    3    3    0  502  0.25044856999E+03 -0.36812121537E+02  0.23288754472E+03  0.34400336770E+03  0.46999998093E+01 0. -1.
</event>
<event>
 5   0  0.3467240E-02  0.7883078E+03  0.7818609E-02  0.9577097E-01
       -2   -1    0    0    0  501  0.00000000000E+00  0.00000000000E+00  0.22410868825E+03  0.22410868827E+03  0.25500000920E-02 0.  1.
        2   -1    0    0  501    0  0.00000000000E+00  0.00000000000E+00 -0.69322293525E+03  0.69322293526E+03  0.25500000920E-02 0. -1.
    10030    2    1    2    0    0  0.00000000000E+00  0.00000000000E+00 -0.46911424700E+03  0.91733162353E+03  0.78830776400E+03 0.  0.
        2    1    3    3  502    0 -0.40036110213E+02  0.33397163477E+03  0.45409039096E+01  0.33639346422E+03  0.25500000920E-02 0.  1.
       -2    1    3    3    0  502  0.40036110213E+02 -0.33397163477E+03 -0.47365515091E+03  0.58093815931E+03  0.25500000920E-02 0. -1.
</event>
<event>
 5   0  0.3404132E-02  0.8017189E+03  0.7818609E-02  0.9557532E-01
        2   -1    0    0  501    0  0.00000000000E+00  0.00000000000E+00  0.99652773989E+03  0.99652773990E+03  0.25500000920E-02 0.  1.
       -2   -1    0    0    0  501  0.00000000000E+00  0.00000000000E+00 -0.16124818277E+03  0.16124818279E+03  0.25500000920E-02 0. -1.
    10030    2    1    2    0    0  0.00000000000E+00  0.00000000000E+00  0.83527955712E+03  0.11577759227E+04  0.80171887131E+03 0.  0.
        5    1    3    3  502    0  0.33899228430E+03 -0.20941054949E+03  0.48054844463E+03  0.62427353355E+03  0.46999998093E+01 0.  1.
       -5    1    3    3    0  502 -0.33899228430E+03  0.20941054949E+03  0.35473111249E+03  0.53350238914E+03  0.46999998093E+01 0. -1.
</event>
<event>
 5   0  0.2132540E-02  0.7839607E+03  0.7818609E-02  0.9583528E-01
        1   -1    0    0  501    0  0.00000000000E+00  0.00000000000E+00  0.10743806258E+04  0.10743806258E+04  0.50400001928E-02 0. -1.
       -1   -1    0    0    0  501  0.00000000000E+00  0.00000000000E+00 -0.14301132228E+03  0.14301132237E+03  0.50400001928E-02 0.  1.
    10030    2    1    2    0    0  0.00000000000E+00  0.00000000000E+00  0.93136930350E+03  0.12173919482E+04  0.78396069795E+03 0.  0.
        4    1    3    3  502    0  0.20632617330E+03  0.30911477480E+03  0.27220040707E+03  0.46067028155E+03  0.12699999809E+01 0.  1.
       -4    1    3    3    0  502 -0.20632617330E+03 -0.30911477480E+03  0.65916889642E+03  0.75672166660E+03  0.12699999809E+01 0. -1.
</event>
<event>
 5   0  0.3343036E-02  0.7889348E+03  0.7818609E-02  0.9576173E-01
        2   -1    0    0  501    0  0.00000000000E+00  0.00000000000E+00  0.11714406080E+04  0.11714406081E+04  0.25500000920E-02 0. -1.
       -2   -1    0    0    0  501  0.00000000000E+00  0.00000000000E+00 -0.13283178116E+03  0.13283178119E+03  0.25500000920E-02 0.  1.
    10030    2    1    2    0    0  0.00000000000E+00  0.00000000000E+00  0.10386088269E+04  0.13042723892E+04  0.78893483257E+03 0.  0.
        4    1    3    3  502    0  0.10447273530E+03  0.37730395485E+02 -0.10643989759E+03  0.15384797647E+03  0.12699999809E+01 0.  1.
       -4    1    3    3    0  502 -0.10447273530E+03 -0.37730395485E+02  0.11450487245E+04  0.11504244128E+04  0.12699999809E+01 0. -1.
</event>
<event>
 5   0  0.2077795E-02  0.7824648E+03  0.7818609E-02  0.9585751E-01
       -1   -1    0    0    0  501  0.00000000000E+00  0.00000000000E+00  0.51730165570E+03  0.51730165573E+03  0.50400001928E-02 0.  1.
        1   -1    0    0  501    0  0.00000000000E+00  0.00000000000E+00 -0.29588692578E+03  0.29588692582E+03  0.50400001928E-02 0. -1.
    10030    2    1    2    0    0  0.00000000000E+00  0.00000000000E+00  0.22141472993E+03  0.81318858155E+03  0.78246481489E+03 0.  0.
        5    1    3    3  502    0 -0.27223541521E+03  0.19366546116E+03 -0.10080873263E+03  0.34900275459E+03  0.46999998093E+01 0. -1.
       -5    1    3    3    0  502  0.27223541521E+03 -0.19366546116E+03  0.32222346255E+03  0.46418582696E+03  0.46999998093E+01 0.  1.
</event>
<event>
 5   0  0.3467240E-02  0.8015127E+03  0.7818609E-02  0.9557830E-01
       -2   -1    0    0    0  501  0.00000000000E+00  0.00000000000E+00  0.81172480664E+03  0.81172480664E+03  0.25500000920E-02 0. -1.
        2   -1    0    0  501    0  0.00000000000E+00  0.00000000000E+00 -0.19785728222E+03  0.19785728223E+03  0.25500000920E-02 0.  1.
    10030    2    1    2    0    0  0.00000000000E+00  0.00000000000E+00  0.61386752442E+03  0.10095820889E+04  0.80151273018E+03 0.  0.
        2    1    3    3  502    0 -0.39207572995E+03 -0.65713969048E+02  0.24315341636E+03  0.46600996517E+03  0.25500000920E-02 0.  1.
       -2    1    3    3    0  502  0.39207572995E+03  0.65713969048E+02  0.37071410806E+03  0.54357212370E+03  0.25500000920E-02 0. -1.
</event>
<event>
 5   0  0.3550586E-02  0.7886502E+03  0.7818609E-02  0.9576592E-01
       -2   -1    0    0    0  501  0.00000000000E+00  0.00000000000E+00  0.30412841273E+03  0.30412841274E+03  0.25500000920E-02 0. -1.
        2   -1    0    0  501    0  0.00000000000E+00  0.00000000000E+00 -0.51127175279E+03  0.51127175279E+03  0.25500000920E-02 0.  1.
    10030    2    1    2    0    0  0.00000000000E+00  0.00000000000E+00 -0.20714334006E+03  0.81540016554E+03  0.78865015478E+03 0.  0.
        3    1    3    3  502    0  0.26083252076E+03  0.28582965571E+03 -0.25102343650E+02  0.38776582344E+03  0.10100000352E+00 0. -1.
       -3    1    3    3    0  502 -0.26083252076E+03 -0.28582965571E+03 -0.18204099641E+03  0.42763434210E+03  0.10100000352E+00 0.  1.
</event>
<event>
 5   0  0.2063692E-02  0.8091912E+03  0.7818609E-02  0.9546808E-01
        1   -1    0    0  501    0  0.00000000000E+00  0.00000000000E+00  0.63573287645E+03  0.63573287647E+03  0.50400001928E-02 0.  1.
       -1   -1    0    0    0  501  0.00000000000E+00  0.00000000000E+00 -0.25749430709E+03  0.25749430714E+03  0.50400001928E-02 0. -1.
    10030    2    1    2    0    0  0.00000000000E+00  0.00000000000E+00  0.37823856935E+03  0.89322718361E+03  0.80919119261E+03 0.  0.
        2    1    3    3  502    0  0.46932618455E+02 -0.13845949130E+03  0.60555665449E+03  0.62295470398E+03  0.25500000920E-02 0.  1.
       -2    1    3    3    0  502 -0.46932618455E+02  0.13845949130E+03 -0.22731808514E+03  0.27027247963E+03  0.25500000920E-02 0. -1.
</event>
<event>
 5   0  0.2077795E-02  0.8011510E+03  0.7818609E-02  0.9558353E-01
       -1   -1    0    0    0  501  0.00000000000E+00  0.00000000000E+00  0.28328339014E+03  0.28328339019E+03  0.50400001928E-02 0. -1.
        1   -1    0    0  501    0  0.00000000000E+00  0.00000000000E+00 -0.56643181824E+03  0.56643181826E+03  0.50400001928E-02 0.  1.
    10030    2    1    2    0    0  0.00000000000E+00  0.00000000000E+00 -0.28314842810E+03  0.84971520845E+03  0.80115098648E+03 0.  0.
        5    1    3    3  502    0  0.22869623595E+03 -0.26934605650E+03 -0.34166134894E+03  0.49153212901E+03  0.46999998093E+01 0.  1.
       -5    1    3    3    0  502 -0.22869623595E+03  0.26934605650E+03  0.58512920843E+02  0.35818307944E+03  0.46999998093E+01 0. -1.
</event>
<event>
 5   0  0.3550586E-02  0.8003913E+03  0.7818609E-02  0.9559451E-01
        2   -1    0    0  501    0  0.00000000000E+00  0.00000000000E+00  0.20773326466E+04  0.20773326466E+04  0.25500000920E-02 0. -1.
       -2   -1    0    0    0  501  0.00000000000E+00  0.00000000000E+00 -0.77097217358E+02  0.77097217400E+02  0.25500000920E-02 0.  1.
    10030    2    1    2    0    0  0.00000000000E+00  0.00000000000E+00  0.20002354292E+04  0.21544298640E+04  0.80039132086E+03 0.  0.
        3    1    3    3  502    0 -0.51592309063E+02  0.12605672622E+02  0.20678045463E+04  0.20684864808E+04  0.10100000352E+00 0. -1.
       -3    1    3    3    0  502  0.51592309063E+02 -0.12605672622E+02 -0.67569117055E+02  0.85943383208E+02  0.10100000352E+00 0.  1.
</event>
<event>
 5   0  0.3550586E-02  0.6734016E+03  0.7818609E-02  0.9763832E-01
       -2   -1    0    0    0  501  0.00000000000E+00  0.00000000000E+00  0.11432122499E+03  0.11432122502E+03  0.25500000920E-02 0. -1.
        2   -1    0    0  501    0  0.00000000000E+00  0.00000000000E+00 -0.99165694687E+03  0.99165694687E+03  0.25500000920E-02 0.  1.
    10030    2    1    2    0    0  0.00000000000E+00  0.00000000000E+00 -0.87733572187E+03  0.11059781719E+04  0.67340162446E+03 0.  0.
        3    1    3    3  502    0  0.74608550361E+02 -0.57812943355E+02 -0.96948460010E+03  0.97406836117E+03  0.10100000352E+00 0.  1.
       -3    1    3    3    0  502 -0.74608550361E+02  0.57812943355E+02  0.92148878224E+02  0.13190981072E+03  0.10100000352E+00 0. -1.
</event>
<event>
 5   0  0.3467240E-02  0.8020300E+03  0.7818609E-02  0.9557083E-01
        2   -1    0    0  501    0  0.00000000000E+00  0.00000000000E+00  0.67985293026E+03  0.67985293027E+03  0.25500000920E-02 0. -1.
       -2   -1    0    0    0  501  0.00000000000E+00  0.00000000000E+00 -0.23654092012E+03  0.23654092013E+03  0.25500000920E-02 0.  1.
    10030    2    1    2    0    0  0.00000000000E+00  0.00000000000E+00  0.44331201015E+03  0.91639385040E+03  0.80203001858E+03 0.  0.
        2    1    3    3  502    0 -0.21898771671E+03  0.32977953734E+03  0.29484329253E+03  0.49360179343E+03  0.25500000920E-02 0. -1.
       -2    1    3    3    0  502  0.21898771671E+03 -0.32977953734E+03  0.14846871762E+03  0.42279205697E+03  0.25500000920E-02 0.  1.
</event>
<event>
 5   0  0.1989298E-02  0.8335395E+03  0.7818609E-02  0.9512700E-01
       -1   -1    0    0    0  501  0.00000000000E+00  0.00000000000E+00  0.12885036444E+03  0.12885036453E+03  0.50400001928E-02 0.  1.
        1   -1    0    0  501    0  0.00000000000E+00  0.00000000000E+00 -0.13480522351E+04  0.13480522351E+04  0.50400001928E-02 0. -1.
    10030    2    1    2    0    0  0.00000000000E+00  0.00000000000E+00 -0.12192018707E+04  0.14769025997E+04  0.83353949361E+03 0.  0.
        1    1    3    3  502    0  0.34914556568E+03  0.17041217241E+03 -0.87687411665E+03  0.95908870863E+03  0.50400001928E-02 0.  1.
       -1    1    3    3    0  502 -0.34914556568E+03 -0.17041217241E+03 -0.34232775403E+03  0.51781389103E+03  0.50400001928E-02 0. -1.
</event>
<event>
 5   0  0.3343036E-02  0.7839106E+03  0.7818609E-02  0.9583602E-01
        2   -1    0    0  501    0  0.00000000000E+00  0.00000000000E+00  0.13710461297E+04  0.13710461297E+04  0.25500000920E-02 0. -1.
       -2   -1    0    0    0  501  0.00000000000E+00  0.00000000000E+00 -0.11205236690E+03  0.11205236693E+03  0.25500000920E-02 0.  1.
    10030    2    1    2    0    0  0.00000000000E+00  0.00000000000E+00  0.12589937628E+04  0.14830984966E+04  0.78391061732E+03 0.  0.
        4    1    3    3  502    0 -0.14636021356E+03 -0.22249703045E+02  0.13161137275E+04  0.13244143302E+04  0.12699999809E+01 0. -1.
       -4    1    3    3    0  502  0.14636021356E+03  0.22249703045E+02 -0.57119964733E+02  0.15868416641E+03  0.12699999809E+01 0.  1.
</event>
<event>
 5   0  0.3550586E-02  0.8042535E+03  0.7818609E-02  0.9553881E-01
        2   -1    0    0  501    0  0.00000000000E+00  0.00000000000E+00  0.40758197710E+03  0.40758197711E+03  0.25500000920E-02 0. -1.
       -2   -1    0    0    0  501  0.00000000000E+00  0.00000000000E+00 -0.39674454295E+03  0.39674454296E+03  0.25500000920E-02 0.  1.
    10030    2    1    2    0    0  0.00000000000E+00  0.00000000000E+00  0.10837434148E+02  0.80432652007E+03  0.80425350537E+03 0.  0.
        3    1    3    3  502    0  0.11204354662E+03  0.10958800398E+03  0.37578006815E+03  0.40715348061E+03  0.10100000352E+00 0. -1.
       -3    1    3    3    0  502 -0.11204354662E+03 -0.10958800398E+03 -0.36494263400E+03  0.39717303946E+03  0.10100000352E+00 0.  1.
</event>
<event>
 5   0  0.1358000E-02  0.8085392E+03  0.7818609E-02  0.9547739E-01
       -4   -1    0    0    0  501  0.00000000000E+00  0.00000000000E+00  0.43418846614E+03  0.43419032351E+03  0.12699999809E+01 0.  1.
        4   -1    0    0  501    0  0.00000000000E+00  0.00000000000E+00 -0.37640864839E+03  0.37641079087E+03  0.12699999809E+01 0. -1.
    10030    2    1    2    0    0  0.00000000000E+00  0.00000000000E+00  0.57779817752E+02  0.81060111438E+03  0.80853921320E+03 0.  0.
        3    1    3    3  502    0 -0.22801767170E+03  0.36937855661E+02 -0.30373538481E+03  0.38159095636E+03  0.10100000352E+00 0. -1.
       -3    1    3    3    0  502  0.22801767170E+03 -0.36937855661E+02  0.36151520257E+03  0.42901015801E+03  0.10100000352E+00 0.  1.
</event>
<event>
 5   0  0.1989298E-02  0.7759089E+03  0.7818609E-02  0.9595558E-01
        1   -1    0    0  501    0  0.00000000000E+00  0.00000000000E+00  0.10414351971E+04  0.10414351971E+04  0.50400001928E-02 0.  1.
       -1   -1    0    0    0  501  0.00000000000E+00  0.00000000000E+00 -0.14452042352E+03  0.14452042360E+03  0.50400001928E-02 0. -1.
    10030    2    1    2    0    0  0.00000000000E+00  0.00000000000E+00  0.89691477356E+03  0.11859556207E+04  0.77590890137E+03 0.  0.
        1    1    3    3  502    0  0.20073059350E+03  0.30666331879E+03  0.25407378591E+03  0.44596933860E+03  0.50400001928E-02 0. -1.
       -1    1    3    3    0  502 -0.20073059350E+03 -0.30666331879E+03  0.64284098765E+03  0.73998628209E+03  0.50400001928E-02 0.  1.
</event>
<event>
 5   0  0.3416160E-02  0.8231194E+03  0.7818609E-02  0.9527143E-01
       -2   -1    0    0    0  501  0.00000000000E+00  0.00000000000E+00  0.85814919411E+02  0.85814919449E+02  0.25500000920E-02 0. -1.
        2   -1    0    0  501    0  0.00000000000E+00  0.00000000000E+00 -0.19737987990E+04  0.19737987990E+04  0.25500000920E-02 0.  1.
    10030    2    1    2    0    0  0.00000000000E+00  0.00000000000E+00 -0.18879838795E+04  0.20596137184E+04  0.82311939573E+03 0.  0.
        1    1    3    3  502    0 -0.17598771274E+03 -0.13128064787E+03 -0.72968913207E+02  0.23136712355E+03  0.50400001928E-02 0. -1.
       -1    1    3    3    0  502  0.17598771274E+03  0.13128064787E+03 -0.18150149663E+04  0.18282465949E+04  0.50400001928E-02 0.  1.
</event>
<event>
 5   0  0.2077795E-02  0.7998818E+03  0.7818609E-02  0.9560188E-01
       -1   -1    0    0    0  501  0.00000000000E+00  0.00000000000E+00  0.15629775711E+03  0.15629775719E+03  0.50400001928E-02 0.  1.
        1   -1    0    0  501    0  0.00000000000E+00  0.00000000000E+00 -0.10233845603E+04  0.10233845604E+04  0.50400001928E-02 0. -1.
    10030    2    1    2    0    0  0.00000000000E+00  0.00000000000E+00 -0.86708680324E+03  0.11796823175E+04  0.79988177000E+03 0.  0.
        5    1    3    3  502    0 -0.13101851251E+03 -0.18572543054E+02 -0.99011943924E+03  0.99893412393E+03  0.46999998093E+01 0. -1.
       -5    1    3    3    0  502  0.13101851251E+03  0.18572543054E+02  0.12303263601E+03  0.18074819362E+03  0.46999998093E+01 0.  1.
</event>
<event>
 5   0  0.2132540E-02  0.8188987E+03  0.7818609E-02  0.9533058E-01
       -1   -1    0    0    0  501  0.00000000000E+00  0.00000000000E+00  0.28487951138E+03  0.28487951142E+03  0.50400001928E-02 0. -1.
        1   -1    0    0  501    0  0.00000000000E+00  0.00000000000E+00 -0.58849008106E+03  0.58849008108E+03  0.50400001928E-02 0.  1.
    10030    2    1    2    0    0  0.00000000000E+00  0.00000000000E+00 -0.30361056968E+03  0.87336959251E+03  0.81889869160E+03 0.  0.
        4    1    3    3  502    0  0.84206819507E+02 -0.95696705909E+02  0.26317616603E+03  0.29242427266E+03  0.12699999809E+01 0. -1.
       -4    1    3    3    0  502 -0.84206819507E+02  0.95696705909E+02 -0.56678673571E+03  0.58094531985E+03  0.12699999809E+01 0.  1.
</event>
<event>
 5   0  0.3550586E-02  0.7950144E+03  0.7818609E-02  0.9567262E-01
        2   -1    0    0  501    0  0.00000000000E+00  0.00000000000E+00  0.51182328167E+03  0.51182328168E+03  0.25500000920E-02 0. -1.
       -2   -1    0    0    0  501  0.00000000000E+00  0.00000000000E+00 -0.30872366579E+03  0.30872366580E+03  0.25500000920E-02 0.  1.
    10030    2    1    2    0    0  0.00000000000E+00  0.00000000000E+00  0.20309961588E+03  0.82054694748E+03  0.79501436405E+03 0.  0.
        3    1    3    3  502    0 -0.11695294765E+01  0.35518012724E+03 -0.82669602581E+02  0.36467597121E+03  0.10100000352E+00 0. -1.
       -3    1    3    3    0  502  0.11695294765E+01 -0.35518012724E+03  0.28576921846E+03  0.45587097627E+03  0.10100000352E+00 0.  1.
</event>
<event>
 5   0  0.2132540E-02  0.8661799E+03  0.7818609E-02  0.9468874E-01
       -1   -1    0    0    0  501  0.00000000000E+00  0.00000000000E+00  0.35108409024E+03  0.35108409028E+03  0.50400001928E-02 0.  1.
        1   -1    0    0  501    0  0.00000000000E+00  0.00000000000E+00 -0.53425069907E+03  0.53425069909E+03  0.50400001928E-02 0. -1.
    10030    2    1    2    0    0  0.00000000000E+00  0.00000000000E+00 -0.18316660883E+03  0.88533478937E+03  0.86617993666E+03 0.  0.
        4    1    3    3  502    0 -0.94314650250E+02 -0.12572733533E+03  0.32090364674E+03  0.35732811181E+03  0.12699999809E+01 0.  1.
       -4    1    3    3    0  502  0.94314650250E+02  0.12572733533E+03 -0.50407025556E+03  0.52800667756E+03  0.12699999809E+01 0. -1.
</event>
<event>
 5   0  0.1989298E-02  0.7845545E+03  0.7818609E-02  0.9582647E-01
        1   -1    0    0  501    0  0.00000000000E+00  0.00000000000E+00  0.76993309109E+03  0.76993309110E+03  0.50400001928E-02 0.  1.
       -1   -1    0    0    0  501  0.00000000000E+00  0.00000000000E+00 -0.19986337956E+03  0.19986337962E+03  0.50400001928E-02 0. -1.
    10030    2    1    2    0    0  0.00000000000E+00  0.00000000000E+00  0.57006971153E+03  0.96979647073E+03  0.78455447142E+03 0.  0.
        1    1    3    3  502    0  0.22293280674E+01  0.33940491417E+03  0.41923626712E+02  0.34199160248E+03  0.50400001928E-02 0. -1.
       -1    1    3    3    0  502 -0.22293280674E+01 -0.33940491417E+03  0.52814608482E+03  0.62780486825E+03  0.50400001928E-02 0.  1.
</event>
<event>
 5   0  0.2063692E-02  0.7882036E+03  0.7818609E-02  0.9577251E-01
        1   -1    0    0  501    0  0.00000000000E+00  0.00000000000E+00  0.83767241954E+03  0.83767241955E+03  0.50400001928E-02 0.  1.
       -1   -1    0    0    0  501  0.00000000000E+00  0.00000000000E+00 -0.18541405860E+03  0.18541405866E+03  0.50400001928E-02 0. -1.
    10030    2    1    2    0    0  0.00000000000E+00  0.00000000000E+00  0.65225836094E+03  0.10230864782E+04  0.78820363644E+03 0.  0.
        2    1    3    3  502    0 -0.43121588955E+00  0.70030445608E+02  0.82953108699E+03  0.83248199593E+03  0.25500000920E-02 0.  1.
       -2    1    3    3    0  502  0.43121588955E+00 -0.70030445608E+02 -0.17727272605E+03  0.19060448228E+03  0.25500000920E-02 0. -1.
</event>
<event>
 5   0  0.3416160E-02  0.7996032E+03  0.7818609E-02  0.9560592E-01
        2   -1    0    0  501    0  0.00000000000E+00  0.00000000000E+00  0.20613132837E+04  0.20613132837E+04  0.25500000920E-02 0.  1.
       -2   -1    0    0    0  501  0.00000000000E+00  0.00000000000E+00 -0.77543444984E+02  0.77543445026E+02  0.25500000920E-02 0. -1.
    10030    2    1    2    0    0  0.00000000000E+00  0.00000000000E+00  0.19837698387E+04  0.21388567287E+04  0.79960323475E+03 0.  0.
        1    1    3    3  502    0  0.27992525262E+03  0.27046126009E+03  0.74769309964E+03  0.84294270952E+03  0.50400001928E-02 0.  1.
       -1    1    3    3    0  502 -0.27992525262E+03 -0.27046126009E+03  0.12360767391E+04  0.12959140192E+04  0.50400001928E-02 0. -1.
</event>
<event>
 5   0  0.2077795E-02  0.7911832E+03  0.7818609E-02  0.9572867E-01
       -1   -1    0    0    0  501  0.00000000000E+00  0.00000000000E+00  0.21298738079E+03  0.21298738085E+03  0.50400001928E-02 0.  1.
        1   -1    0    0  501    0  0.00000000000E+00  0.00000000000E+00 -0.73475114785E+03  0.73475114787E+03  0.50400001928E-02 0. -1.
    10030    2    1    2    0    0  0.00000000000E+00  0.00000000000E+00 -0.52176376706E+03  0.94773852872E+03  0.79118322164E+03 0.  0.
        5    1    3    3  502    0 -0.83323426627E+02 -0.90641648744E+02 -0.71118078004E+03  0.72177482209E+03  0.46999998093E+01 0. -1.
       -5    1    3    3    0  502  0.83323426627E+02  0.90641648744E+02  0.18941701297E+03  0.22596370663E+03  0.46999998093E+01 0.  1.
</event>
<event>
 5   0  0.3550586E-02  0.8130626E+03  0.7818609E-02  0.9541300E-01
       -2   -1    0    0    0  501  0.00000000000E+00  0.00000000000E+00  0.26095140485E+03  0.26095140486E+03  0.25500000920E-02 0. -1.
        2   -1    0    0  501    0  0.00000000000E+00  0.00000000000E+00 -0.63332743933E+03  0.63332743934E+03  0.25500000920E-02 0.  1.
    10030    2    1    2    0    0  0.00000000000E+00  0.00000000000E+00 -0.37237603449E+03  0.89427884420E+03  0.81306256839E+03 0.  0.
        3    1    3    3  502    0  0.83252925306E+02 -0.37779955004E+03 -0.48793721277E+02  0.38992869479E+03  0.10100000352E+00 0.  1.
       -3    1    3    3    0  502 -0.83252925306E+02  0.37779955004E+03 -0.32358231321E+03  0.50435014941E+03  0.10100000352E+00 0. -1.
</event>
<event>
 5   0  0.3467240E-02  0.7894726E+03  0.7818609E-02  0.9575381E-01
        2   -1    0    0  501    0  0.00000000000E+00  0.00000000000E+00  0.48667315903E+03  0.48667315904E+03  0.25500000920E-02 0. -1.
       -2   -1    0    0    0  501  0.00000000000E+00  0.00000000000E+00 -0.32016711297E+03  0.32016711298E+03  0.25500000920E-02 0.  1.
    10030    2    1    2    0    0  0.00000000000E+00  0.00000000000E+00  0.16650604607E+03  0.80684027202E+03  0.78947258418E+03 0.  0.
        2    1    3    3  502    0  0.13858461489E+03 -0.78781129517E+02  0.45231298608E+03  0.47958231747E+03  0.25500000920E-02 0. -1.
       -2    1    3    3    0  502 -0.13858461489E+03  0.78781129517E+02 -0.28580694001E+03  0.32725795455E+03  0.25500000920E-02 0.  1.
</event>
<event>
 5   0  0.3343036E-02  0.7961289E+03  0.7818609E-02  0.9565637E-01
       -2   -1    0    0    0  501  0.00000000000E+00  0.00000000000E+00  0.55094323564E+03  0.55094323565E+03  0.25500000920E-02 0. -1.
        2   -1    0    0  501    0  0.00000000000E+00  0.00000000000E+00 -0.28760730221E+03  0.28760730222E+03  0.25500000920E-02 0.  1.
    10030    2    1    2    0    0  0.00000000000E+00  0.00000000000E+00  0.26333593343E+03  0.83855053787E+03  0.79612887821E+03 0.  0.
        4    1    3    3  502    0 -0.36620920454E+03  0.14571995988E+03  0.72927176531E+02  0.40082848473E+03  0.12699999809E+01 0.  1.
       -4    1    3    3    0  502  0.36620920454E+03 -0.14571995988E+03  0.19040875690E+03  0.43772205313E+03  0.12699999809E+01 0. -1.
</event>
<event>
 5   0  0.3550586E-02  0.7916901E+03  0.7818609E-02  0.9572124E-01
        2   -1    0    0  501    0  0.00000000000E+00  0.00000000000E+00  0.10145205710E+04  0.10145205710E+04  0.25500000920E-02 0.  1.
       -2   -1    0    0    0  501  0.00000000000E+00  0.00000000000E+00 -0.15445060775E+03  0.15445060777E+03  0.25500000920E-02 0. -1.
    10030    2    1    2    0    0  0.00000000000E+00  0.00000000000E+00  0.86006996326E+03  0.11689711788E+04  0.79169013833E+03 0.  0.
        3    1    3    3  502    0  0.24057435324E+03  0.11704503738E+03 -0.74809317599E+00  0.26753715641E+03  0.10100000352E+00 0. -1.
       -3    1    3    3    0  502 -0.24057435324E+03 -0.11704503738E+03  0.86081805644E+03  0.90143402238E+03  0.10100000352E+00 0.  1.
</event>
<event>
 5   0  0.1989298E-02  0.7950261E+03  0.7818609E-02  0.9567245E-01
        1   -1    0    0  501    0  0.00000000000E+00  0.00000000000E+00  0.86275223970E+03  0.86275223971E+03  0.50400001928E-02 0. -1.
       -1   -1    0    0    0  501  0.00000000000E+00  0.00000000000E+00 -0.18315412145E+03  0.18315412152E+03  0.50400001928E-02 0.  1.
    10030    2    1    2    0    0  0.00000000000E+00  0.00000000000E+00  0.67959811825E+03  0.10459063612E+04  0.79502610909E+03 0.  0.
        1    1    3    3  502    0 -0.14965542242E+03 -0.23554779280E+03  0.71221501461E+03  0.76493773290E+03  0.50400001928E-02 0. -1.
       -1    1    3    3    0  502  0.14965542242E+03  0.23554779280E+03 -0.32616896364E+02  0.28096862833E+03  0.50400001928E-02 0.  1.
</event>
<event>
 5   0  0.2077795E-02  0.7930900E+03  0.7818609E-02  0.9570073E-01
        1   -1    0    0  501    0  0.00000000000E+00  0.00000000000E+00  0.14727381165E+03  0.14727381173E+03  0.50400001928E-02 0.  1.
       -1   -1    0    0    0  501  0.00000000000E+00  0.00000000000E+00 -0.10677251022E+04  0.10677251022E+04  0.50400001928E-02 0. -1.
    10030    2    1    2    0    0  0.00000000000E+00  0.00000000000E+00 -0.92045129053E+03  0.12149989139E+04  0.79309002174E+03 0.  0.
        5    1    3    3  502    0  0.36589642105E+03  0.15034833570E+03 -0.50192938589E+03  0.63909311637E+03  0.46999998093E+01 0. -1.
       -5    1    3    3    0  502 -0.36589642105E+03 -0.15034833570E+03 -0.41852190465E+03  0.57590579755E+03  0.46999998093E+01 0.  1.
</event>
<event>
 5   0  0.1358000E-02  0.7962244E+03  0.7818609E-02  0.9565498E-01
       -3   -1    0    0    0  501  0.00000000000E+00  0.00000000000E+00  0.16425836476E+03  0.16425839581E+03  0.10100000352E+00 0.  1.
        3   -1    0    0  501    0  0.00000000000E+00  0.00000000000E+00 -0.96490259406E+03  0.96490259935E+03  0.10100000352E+00 0. -1.
    10030    2    1    2    0    0  0.00000000000E+00  0.00000000000E+00 -0.80064422930E+03  0.11291609952E+04  0.79622444767E+03 0.  0.
        4    1    3    3  502    0  0.25414704311E+03  0.16254446798E+02 -0.83427606778E+03  0.87228040029E+03  0.12699999809E+01 0. -1.
       -4    1    3    3    0  502 -0.25414704311E+03 -0.16254446798E+02  0.33631838472E+02  0.25688059487E+03  0.12699999809E+01 0.  1.
</event>
<event>
 5   0  0.3343036E-02  0.8002323E+03  0.7818609E-02  0.9559681E-01
        2   -1    0    0  501    0  0.00000000000E+00  0.00000000000E+00  0.86854728068E+03  0.86854728069E+03  0.25500000920E-02 0. -1.
       -2   -1    0    0    0  501  0.00000000000E+00  0.00000000000E+00 -0.18432264876E+03  0.18432264877E+03  0.25500000920E-02 0.  1.
    10030    2    1    2    0    0  0.00000000000E+00  0.00000000000E+00  0.68422463193E+03  0.10528699295E+04  0.80023230466E+03 0.  0.
        4    1    3    3  502    0  0.38928772892E+01 -0.80135577418E+02 -0.17362816873E+03  0.19127263040E+03  0.12699999809E+01 0.  1.
       -4    1    3    3    0  502 -0.38928772892E+01  0.80135577418E+02  0.85785280066E+03  0.86159729907E+03  0.12699999809E+01 0. -1.
</event>
<event>
 5   0  0.3467240E-02  0.7877759E+03  0.7818609E-02  0.9577881E-01
       -2   -1    0    0    0  501  0.00000000000E+00  0.00000000000E+00  0.12228137179E+03  0.12228137182E+03  0.25500000920E-02 0. -1.
        2   -1    0    0  501    0  0.00000000000E+00  0.00000000000E+00 -0.12687764087E+04  0.12687764087E+04  0.25500000920E-02 0.  1.
    10030    2    1    2    0    0  0.00000000000E+00  0.00000000000E+00 -0.11464950369E+04  0.13910577805E+04  0.78777590666E+03 0.  0.
        2    1    3    3  502    0  0.10038050643E+03 -0.69151394076E+02  0.88138712871E+02  0.15042138840E+03  0.25500000920E-02 0. -1.
       -2    1    3    3    0  502 -0.10038050643E+03  0.69151394076E+02 -0.12346337498E+04  0.12406363921E+04  0.25500000920E-02 0.  1.
</event>
<event>
 5   0  0.2063692E-02  0.6801902E+03  0.7818609E-02  0.9751722E-01
        1   -1    0    0  501    0  0.00000000000E+00  0.00000000000E+00  0.72674111728E+03  0.72674111730E+03  0.50400001928E-02 0.  1.
       -1   -1    0    0    0  501  0.00000000000E+00  0.00000000000E+00 -0.15915528155E+03  0.15915528163E+03  0.50400001928E-02 0. -1.
    10030    2    1    2    0    0  0.00000000000E+00  0.00000000000E+00  0.56758583573E+03  0.88589639893E+03  0.68019022980E+03 0.  0.
        2    1    3    3  502    0 -0.32369940991E+03  0.52658328576E+02  0.40108692295E+03  0.51809741102E+03  0.25500000920E-02 0.  1.
       -2    1    3    3    0  502  0.32369940991E+03 -0.52658328576E+02  0.16649891279E+03  0.36779898791E+03  0.25500000920E-02 0. -1.
</event>
<event>
 5   0  0.1358000E-02  0.6599406E+03  0.7818609E-02  0.9788303E-01
        4   -1    0    0  501    0  0.00000000000E+00  0.00000000000E+00  0.15924932080E+03  0.15925438480E+03  0.12699999809E+01 0. -1.
       -4   -1    0    0    0  501  0.00000000000E+00  0.00000000000E+00 -0.68369384994E+03  0.68369502949E+03  0.12699999809E+01 0.  1.
    10030    2    1    2    0    0  0.00000000000E+00  0.00000000000E+00 -0.52444452914E+03  0.84294941428E+03  0.65994064195E+03 0.  0.
        4    1    3    3  502    0  0.10173846982E+03  0.82092990039E+01  0.13857807241E+03  0.17211508907E+03  0.12699999809E+01 0. -1.
       -4    1    3    3    0  502 -0.10173846982E+03 -0.82092990039E+01 -0.66302260154E+03  0.67083432522E+03  0.12699999809E+01 0.  1.
</event>
<event>
 5   0  0.3416160E-02  0.8100638E+03  0.7818609E-02  0.9545563E-01
        2   -1    0    0  501    0  0.00000000000E+00  0.00000000000E+00  0.13889413821E+04  0.13889413821E+04  0.25500000920E-02 0. -1.
       -2   -1    0    0    0  501  0.00000000000E+00  0.00000000000E+00 -0.11811214635E+03  0.11811214638E+03  0.25500000920E-02 0.  1.
    10030    2    1    2    0    0  0.00000000000E+00  0.00000000000E+00  0.12708292357E+04  0.15070535285E+04  0.81006381925E+03 0.  0.
        1    1    3    3  502    0  0.14150018170E+03 -0.36630708338E+03  0.45079573410E+03  0.59784611286E+03  0.50400001928E-02 0.  1.
       -1    1    3    3    0  502 -0.14150018170E+03  0.36630708338E+03  0.82003350162E+03  0.90920741559E+03  0.50400001928E-02 0. -1.
</event>
<event>
 5   0  0.2132540E-02  0.7963506E+03  0.7818609E-02  0.9565315E-01
        1   -1    0    0  501    0  0.00000000000E+00  0.00000000000E+00  0.55081173052E+03  0.55081173054E+03  0.50400001928E-02 0. -1.
       -1   -1    0    0    0  501  0.00000000000E+00  0.00000000000E+00 -0.28783621109E+03  0.28783621114E+03  0.50400001928E-02 0.  1.
    10030    2    1    2    0    0  0.00000000000E+00  0.00000000000E+00  0.26297551943E+03  0.83864794168E+03  0.79635058000E+03 0.  0.
        4    1    3    3  502    0  0.22910858755E+02 -0.39265487685E+03  0.66235564689E+02  0.39886278680E+03  0.12699999809E+01 0. -1.
       -4    1    3    3    0  502 -0.22910858755E+02  0.39265487685E+03  0.19673995474E+03  0.43978515488E+03  0.12699999809E+01 0.  1.
</event>
<event>
 5   0  0.2077795E-02  0.8029580E+03  0.7818609E-02  0.9555745E-01
        1   -1    0    0  501    0  0.00000000000E+00  0.00000000000E+00  0.18924758237E+03  0.18924758244E+03  0.50400001928E-02 0.  1.
       -1   -1    0    0    0  501  0.00000000000E+00  0.00000000000E+00 -0.85171712160E+03  0.85171712162E+03  0.50400001928E-02 0. -1.
    10030    2    1    2    0    0  0.00000000000E+00  0.00000000000E+00 -0.66246953923E+03  0.10409647041E+04  0.80295804665E+03 0.  0.
        5    1    3    3  502    0 -0.31863822065E+03 -0.23179166175E+03 -0.43086155595E+03  0.58388480072E+03  0.46999998093E+01 0. -1.
       -5    1    3    3    0  502  0.31863822065E+03  0.23179166175E+03 -0.23160798328E+03  0.45707990333E+03  0.46999998093E+01 0.  1.
</event>
<event>
 5   0  0.1989298E-02  0.8077323E+03  0.7818609E-02  0.9548892E-01
        1   -1    0    0  501    0  0.00000000000E+00  0.00000000000E+00  0.38724643788E+03  0.38724643792E+03  0.50400001928E-02 0. -1.
       -1   -1    0    0    0  501  0.00000000000E+00  0.00000000000E+00 -0.42119912757E+03  0.42119912760E+03  0.50400001928E-02 0.  1.
    10030    2    1    2    0    0  0.00000000000E+00  0.00000000000E+00 -0.33952689691E+02  0.80844556552E+03  0.80773228688E+03 0.  0.
        1    1    3    3  502    0  0.14214758915E+03  0.34861731057E+03 -0.16328304507E+03  0.41036729787E+03  0.50400001928E-02 0.  1.
       -1    1    3    3    0  502 -0.14214758915E+03 -0.34861731057E+03  0.12933035538E+03  0.39807826765E+03  0.50400001928E-02 0. -1.
</event>
<event>
 5   0  0.2129257E-02  0.7789727E+03  0.7818609E-02  0.9590962E-01
       -1   -1    0    0    0  501  0.00000000000E+00  0.00000000000E+00  0.57411683978E+03  0.57411683980E+03  0.50400001928E-02 0. -1.
        1   -1    0    0  501    0  0.00000000000E+00  0.00000000000E+00 -0.26423124244E+03  0.26423124249E+03  0.50400001928E-02 0.  1.
    10030    2    1    2    0    0  0.00000000000E+00  0.00000000000E+00  0.30988559733E+03  0.83834808229E+03  0.77897267195E+03 0.  0.
        3    1    3    3  502    0  0.28474433823E+03  0.26547720786E+03  0.14211317380E+03  0.41443171985E+03  0.10100000352E+00 0. -1.
       -3    1    3    3    0  502 -0.28474433823E+03 -0.26547720786E+03  0.16777242353E+03  0.42391636244E+03  0.10100000352E+00 0.  1.
</event>
<event>
 5   0  0.3550586E-02  0.8042780E+03  0.7818609E-02  0.9553845E-01
        2   -1    0    0  501    0  0.00000000000E+00  0.00000000000E+00  0.47302751009E+03  0.47302751010E+03  0.25500000920E-02 0. -1.
       -2   -1    0    0    0  501  0.00000000000E+00  0.00000000000E+00 -0.34187393332E+03  0.34187393333E+03  0.25500000920E-02 0.  1.
    10030    2    1    2    0    0  0.00000000000E+00  0.00000000000E+00  0.13115357677E+03  0.81490144343E+03  0.80427800032E+03 0.  0.
        3    1    3    3  502    0 -0.20332258518E+03  0.61970045857E+02  0.41145869362E+03  0.46311837254E+03  0.10100000352E+00 0. -1.
       -3    1    3    3    0  502  0.20332258518E+03 -0.61970045857E+02 -0.28030511685E+03  0.35178307089E+03  0.10100000352E+00 0.  1.
</event>
<event>
 5   0  0.3416160E-02  0.8035469E+03  0.7818609E-02  0.9554897E-01
       -2   -1    0    0    0  501  0.00000000000E+00  0.00000000000E+00  0.20260204785E+03  0.20260204786E+03  0.25500000920E-02 0. -1.
        2   -1    0    0  501    0  0.00000000000E+00  0.00000000000E+00 -0.79674360601E+03  0.79674360602E+03  0.25500000920E-02 0.  1.
    10030    2    1    2    0    0  0.00000000000E+00  0.00000000000E+00 -0.59414155816E+03  0.99934565388E+03  0.80354685289E+03 0.  0.
        1    1    3    3  502    0 -0.31924646194E+03 -0.22840218089E+03 -0.19054984440E+03  0.43634287312E+03  0.50400001928E-02 0. -1.
       -1    1    3    3    0  502  0.31924646194E+03  0.22840218089E+03 -0.40359171376E+03  0.56300278076E+03  0.50400001928E-02 0.  1.
</event>
<event>
 5   0  0.1358000E-02  0.8190007E+03  0.7818609E-02  0.9532914E-01
       -3   -1    0    0    0  501  0.00000000000E+00  0.00000000000E+00  0.24607613598E+03  0.24607615670E+03  0.10100000352E+00 0. -1.
        3   -1    0    0  501    0  0.00000000000E+00  0.00000000000E+00 -0.68145789052E+03  0.68145789801E+03  0.10100000352E+00 0.  1.
    10030    2    1    2    0    0  0.00000000000E+00  0.00000000000E+00 -0.43538175455E+03  0.92753405471E+03  0.81900070235E+03 0.  0.
        2    1    3    3  502    0  0.40192349914E+03  0.77020716856E+02 -0.20105218380E+03  0.45595687362E+03  0.25500000920E-02 0.  1.
       -2    1    3    3    0  502 -0.40192349914E+03 -0.77020716856E+02 -0.23432957075E+03  0.47157718109E+03  0.25500000920E-02 0. -1.
</event>
<event>
 5   0  0.3343036E-02  0.7921047E+03  0.7818609E-02  0.9571516E-01
        2   -1    0    0  501    0  0.00000000000E+00  0.00000000000E+00  0.29932350328E+03  0.29932350329E+03  0.25500000920E-02 0.  1.
       -2   -1    0    0    0  501  0.00000000000E+00  0.00000000000E+00 -0.52403995827E+03  0.52403995828E+03  0.25500000920E-02 0. -1.
    10030    2    1    2    0    0  0.00000000000E+00  0.00000000000E+00 -0.22471645500E+03  0.82336346157E+03  0.79210473089E+03 0.  0.
        4    1    3    3  502    0 -0.13222261133E+03  0.35039937663E+01 -0.50040068486E+03  0.51758821009E+03  0.12699999809E+01 0. -1.
       -4    1    3    3    0  502  0.13222261133E+03 -0.35039937663E+01  0.27568422986E+03  0.30577525147E+03  0.12699999809E+01 0.  1.
</event>
<event>
 5   0  0.2063692E-02  0.7899077E+03  0.7818609E-02  0.9574741E-01
        1   -1    0    0  501    0  0.00000000000E+00  0.00000000000E+00  0.33134598264E+03  0.33134598268E+03  0.50400001928E-02 0. -1.
       -1   -1    0    0    0  501  0.00000000000E+00  0.00000000000E+00 -0.47077236344E+03  0.47077236347E+03  0.50400001928E-02 0.  1.
    10030    2    1    2    0    0  0.00000000000E+00  0.00000000000E+00 -0.13942638080E+03  0.80211834615E+03  0.78990766901E+03 0.  0.
        2    1    3    3  502    0 -0.89942851581E+02 -0.92254083457E+02 -0.44883154519E+03  0.46695855109E+03  0.25500000920E-02 0.  1.
       -2    1    3    3    0  502  0.89942851581E+02  0.92254083457E+02  0.30940516440E+03  0.33515979506E+03  0.25500000920E-02 0. -1.
</event>
<event>
 5   0  0.3404132E-02  0.7959052E+03  0.7818609E-02  0.9565963E-01
       -2   -1    0    0    0  501  0.00000000000E+00  0.00000000000E+00  0.76466047982E+02  0.76466048024E+02  0.25500000920E-02 0. -1.
        2   -1    0    0  501    0  0.00000000000E+00  0.00000000000E+00 -0.20710665008E+04  0.20710665008E+04  0.25500000920E-02 0.  1.
    10030    2    1    2    0    0  0.00000000000E+00  0.00000000000E+00 -0.19946004528E+04  0.21475325488E+04  0.79590519654E+03 0.  0.
        5    1    3    3  502    0 -0.28504977231E+03 -0.23401708579E+02 -0.25079710053E+03  0.38042382718E+03  0.46999998093E+01 0. -1.
       -5    1    3    3    0  502  0.28504977231E+03  0.23401708579E+02 -0.17438033523E+04  0.17671087216E+04  0.46999998093E+01 0.  1.
</event>
<event>
 5   0  0.3404132E-02  0.7993186E+03  0.7818609E-02  0.9561004E-01
        2   -1    0    0  501    0  0.00000000000E+00  0.00000000000E+00  0.10935536419E+04  0.10935536419E+04  0.25500000920E-02 0. -1.
       -2   -1    0    0    0  501  0.00000000000E+00  0.00000000000E+00 -0.14606285868E+03  0.14606285870E+03  0.25500000920E-02 0.  1.
    10030    2    1    2    0    0  0.00000000000E+00  0.00000000000E+00  0.94749078322E+03  0.12396165006E+04  0.79931863752E+03 0.  0.
        5    1    3    3  502    0 -0.36460907535E+03 -0.16248345926E+03  0.50336722358E+03  0.64244945648E+03  0.46999998093E+01 0.  1.
       -5    1    3    3    0  502  0.36460907535E+03  0.16248345926E+03  0.44412355964E+03  0.59716704412E+03  0.46999998093E+01 0. -1.
</event>
<event>
 5   0  0.3550586E-02  0.8290345E+03  0.7818609E-02  0.9518916E-01
        2   -1    0    0  501    0  0.00000000000E+00  0.00000000000E+00  0.13600471365E+04  0.13600471365E+04  0.25500000920E-02 0. -1.
       -2   -1    0    0    0  501  0.00000000000E+00  0.00000000000E+00 -0.12633721033E+03  0.12633721036E+03  0.25500000920E-02 0.  1.
    10030    2    1    2    0    0  0.00000000000E+00  0.00000000000E+00  0.12337099262E+04  0.14863843468E+04  0.82903452561E+03 0.  0.
        3    1    3    3  502    0  0.31378903927E+03  0.85577778845E+02  0.15611742311E+03  0.36077663089E+03  0.10100000352E+00 0.  1.
       -3    1    3    3    0  502 -0.31378903927E+03 -0.85577778845E+02  0.10775925030E+04  0.11256077160E+04  0.10100000352E+00 0. -1.
</event>
<event>
 5   0  0.3404132E-02  0.8008531E+03  0.7818609E-02  0.9558783E-01
        2   -1    0    0  501    0  0.00000000000E+00  0.00000000000E+00  0.15951636326E+03  0.15951636328E+03  0.25500000920E-02 0. -1.
       -2   -1    0    0    0  501  0.00000000000E+00  0.00000000000E+00 -0.10051722892E+04  0.10051722892E+04  0.25500000920E-02 0.  1.
    10030    2    1    2    0    0  0.00000000000E+00  0.00000000000E+00 -0.84565592597E+03  0.11646886525E+04  0.80085311521E+03 0.  0.
        5    1    3    3  502    0  0.37658421566E+03  0.13369808968E+03 -0.38636892090E+03  0.55587218288E+03  0.46999998093E+01 0.  1.
       -5    1    3    3    0  502 -0.37658421566E+03 -0.13369808968E+03 -0.45928700508E+03  0.60881646963E+03  0.46999998093E+01 0. -1.
</event>
<event>
 5   0  0.3467240E-02  0.8167768E+03  0.7818609E-02  0.9536046E-01
       -2   -1    0    0    0  501  0.00000000000E+00  0.00000000000E+00  0.14042640877E+03  0.14042640879E+03  0.25500000920E-02 0.  1.
        2   -1    0    0  501    0  0.00000000000E+00  0.00000000000E+00 -0.11876759999E+04  0.11876759999E+04  0.25500000920E-02 0. -1.
    10030    2    1    2    0    0  0.00000000000E+00  0.00000000000E+00 -0.10472495911E+04  0.13281024087E+04  0.81677677604E+03 0.  0.
        2    1    3    3  502    0 -0.31484484300E+02  0.28894372256E+03 -0.57146324561E+02  0.29621858479E+03  0.25500000920E-02 0.  1.
       -2    1    3    3    0  502  0.31484484300E+02 -0.28894372256E+03 -0.99010326658E+03  0.10318838239E+04  0.25500000920E-02 0. -1.
</event>
<event>
 5   0  0.3404132E-02  0.8087550E+03  0.7818609E-02  0.9547430E-01
        2   -1    0    0  501    0  0.00000000000E+00  0.00000000000E+00  0.12525083887E+04  0.12525083887E+04  0.25500000920E-02 0.  1.
       -2   -1    0    0    0  501  0.00000000000E+00  0.00000000000E+00 -0.13055492978E+03  0.13055492980E+03  0.25500000920E-02 0. -1.
    10030    2    1    2    0    0  0.00000000000E+00  0.00000000000E+00  0.11219534589E+04  0.13830633185E+04  0.80875495609E+03 0.  0.
        5    1    3    3  502    0  0.35643767706E+03  0.70323155299E+02  0.25743319212E+03  0.44529439947E+03  0.46999998093E+01 0. -1.
       -5    1    3    3    0  502 -0.35643767706E+03 -0.70323155299E+02  0.86452026677E+03  0.93776891901E+03  0.46999998093E+01 0.  1.
</event>
<event>
 5   0  0.3467240E-02  0.8029778E+03  0.7818609E-02  0.9555717E-01
        2   -1    0    0  501    0  0.00000000000E+00  0.00000000000E+00  0.74197194218E+03  0.74197194218E+03  0.25500000920E-02 0. -1.
       -2   -1    0    0    0  501  0.00000000000E+00  0.00000000000E+00 -0.21724990552E+03  0.21724990553E+03  0.25500000920E-02 0.  1.
    10030    2    1    2    0    0  0.00000000000E+00  0.00000000000E+00  0.52472203666E+03  0.95922184772E+03  0.80297779383E+03 0.  0.
        2    1    3    3  502    0 -0.17632752425E+03 -0.19528867114E+03  0.62462495219E+03  0.67777975168E+03  0.25500000920E-02 0. -1.
       -2    1    3    3    0  502  0.17632752425E+03  0.19528867114E+03 -0.99902915534E+02  0.28144209604E+03  0.25500000920E-02 0.  1.
</event>
<event>
 5   0  0.3343036E-02  0.8043120E+03  0.7818609E-02  0.9553796E-01
       -2   -1    0    0    0  501  0.00000000000E+00  0.00000000000E+00  0.36943971254E+03  0.36943971255E+03  0.25500000920E-02 0.  1.
        2   -1    0    0  501    0  0.00000000000E+00  0.00000000000E+00 -0.43776957415E+03  0.43776957415E+03  0.25500000920E-02 0. -1.
    10030    2    1    2    0    0  0.00000000000E+00  0.00000000000E+00 -0.68329861606E+02  0.80720928670E+03  0.80431204302E+03 0.  0.
        4    1    3    3  502    0  0.16457589645E+03 -0.24542996528E+03 -0.30792353178E+03  0.42677817174E+03  0.12699999809E+01 0. -1.
       -4    1    3    3    0  502 -0.16457589645E+03  0.24542996528E+03  0.23959367017E+03  0.38043111497E+03  0.12699999809E+01 0.  1.
</event>
<event>
 5   0  0.3416160E-02  0.7833381E+03  0.7818609E-02  0.9584453E-01
        2   -1    0    0  501    0  0.00000000000E+00  0.00000000000E+00  0.27172193476E+03  0.27172193477E+03  0.25500000920E-02 0. -1.
       -2   -1    0    0    0  501  0.00000000000E+00  0.00000000000E+00 -0.56456485697E+03  0.56456485698E+03  0.25500000920E-02 0.  1.
    10030    2    1    2    0    0  0.00000000000E+00  0.00000000000E+00 -0.29284292221E+03  0.83628679175E+03  0.78333812684E+03 0.  0.
        1    1    3    3  502    0 -0.16051314925E+03 -0.27427859430E+03 -0.39083148045E+03  0.50372856234E+03  0.50400001928E-02 0.  1.
       -1    1    3    3    0  502  0.16051314925E+03  0.27427859430E+03  0.97988558243E+02  0.33255822941E+03  0.50400001928E-02 0. -1.
</event>
<event>
 5   0  0.1989298E-02  0.7978890E+03  0.7818609E-02  0.9563078E-01
        1   -1    0    0  501    0  0.00000000000E+00  0.00000000000E+00  0.24725957977E+03  0.24725957982E+03  0.50400001928E-02 0. -1.
       -1   -1    0    0    0  501  0.00000000000E+00  0.00000000000E+00 -0.64368274257E+03  0.64368274258E+03  0.50400001928E-02 0.  1.
    10030    2    1    2    0    0  0.00000000000E+00  0.00000000000E+00 -0.39642316279E+03  0.89094232241E+03  0.79788902603E+03 0.  0.
        1    1    3    3  502    0  0.24300465497E+03 -0.16641381410E+03 -0.49868916840E+03  0.57916811598E+03  0.50400001928E-02 0.  1.
       -1    1    3    3    0  502 -0.24300465497E+03  0.16641381410E+03  0.10226600561E+03  0.31177420642E+03  0.50400001928E-02 0. -1.
</event>
<event>
 5   0  0.2077795E-02  0.8189598E+03  0.7818609E-02  0.9532972E-01
       -1   -1    0    0    0  501  0.00000000000E+00  0.00000000000E+00  0.12356834664E+03  0.12356834674E+03  0.50400001928E-02 0. -1.
        1   -1    0    0  501    0  0.00000000000E+00  0.00000000000E+00 -0.13569316442E+04  0.13569316442E+04  0.50400001928E-02 0.  1.
    10030    2    1    2    0    0  0.00000000000E+00  0.00000000000E+00 -0.12333632976E+04  0.14804999910E+04  0.81895982774E+03 0.  0.
        5    1    3    3  502    0  0.13572424777E+03 -0.29258488976E+03 -0.16068804104E+03  0.36037442429E+03  0.46999998093E+01 0. -1.
       -5    1    3    3    0  502 -0.13572424777E+03  0.29258488976E+03 -0.10726752566E+04  0.11201255667E+04  0.46999998093E+01 0.  1.
</event>
<event>
 5   0  0.2063692E-02  0.8139580E+03  0.7818609E-02  0.9540030E-01
        1   -1    0    0  501    0  0.00000000000E+00  0.00000000000E+00  0.80903272235E+03  0.80903272236E+03  0.50400001928E-02 0.  1.
       -1   -1    0    0    0  501  0.00000000000E+00  0.00000000000E+00 -0.20472833645E+03  0.20472833651E+03  0.50400001928E-02 0. -1.
    10030    2    1    2    0    0  0.00000000000E+00  0.00000000000E+00  0.60430438590E+03  0.10137610589E+04  0.81395804172E+03 0.  0.
        2    1    3    3  502    0  0.65476342538E+02  0.18582097704E+03  0.74567859330E+03  0.77126723738E+03  0.25500000920E-02 0.  1.
       -2    1    3    3    0  502 -0.65476342538E+02 -0.18582097704E+03 -0.14137420740E+03  0.24249382150E+03  0.25500000920E-02 0. -1.
</event>
<event>
 5   0  0.2077795E-02  0.8193750E+03  0.7818609E-02  0.9532388E-01
        1   -1    0    0  501    0  0.00000000000E+00  0.00000000000E+00  0.14296387496E+03  0.14296387505E+03  0.50400001928E-02 0. -1.
       -1   -1    0    0    0  501  0.00000000000E+00  0.00000000000E+00 -0.11740299112E+04  0.11740299112E+04  0.50400001928E-02 0.  1.
    10030    2    1    2    0    0  0.00000000000E+00  0.00000000000E+00 -0.10310660362E+04  0.13169937862E+04  0.81937504352E+03 0.  0.
        5    1    3    3  502    0  0.15963596978E+03 -0.30015264275E+02  0.88948245757E+02  0.18525236667E+03  0.46999998093E+01 0. -1.
       -5    1    3    3    0  502 -0.15963596978E+03  0.30015264275E+02 -0.11200142820E+04  0.11317414196E+04  0.46999998093E+01 0.  1.
</event>
<event>
 5   0  0.3416160E-02  0.8785817E+03  0.7818609E-02  0.9452759E-01
        2   -1    0    0  501    0  0.00000000000E+00  0.00000000000E+00  0.10283320446E+04  0.10283320446E+04  0.25500000920E-02 0.  1.
       -2   -1    0    0    0  501  0.00000000000E+00  0.00000000000E+00 -0.18765965807E+03  0.18765965808E+03  0.25500000920E-02 0. -1.
    10030    2    1    2    0    0  0.00000000000E+00  0.00000000000E+00  0.84067238651E+03  0.12159917027E+04  0.87858167492E+03 0.  0.
        1    1    3    3  502    0 -0.34018491496E+02  0.37885450385E+03  0.11619861044E+03  0.39773120313E+03  0.50400001928E-02 0. -1.
       -1    1    3    3    0  502  0.34018491496E+02 -0.37885450385E+03  0.72447377608E+03  0.81826049954E+03  0.50400001928E-02 0.  1.
</event>
<event>
 5   0  0.3343036E-02  0.7814394E+03  0.7818609E-02  0.9587278E-01
       -2   -1    0    0    0  501  0.00000000000E+00  0.00000000000E+00  0.99249198581E+02  0.99249198613E+02  0.25500000920E-02 0.  1.
        2   -1    0    0  501    0  0.00000000000E+00  0.00000000000E+00 -0.15381675191E+04  0.15381675191E+04  0.25500000920E-02 0. -1.
    10030    2    1    2    0    0  0.00000000000E+00  0.00000000000E+00 -0.14389183205E+04  0.16374167177E+04  0.78143942461E+03 0.  0.
        4    1    3    3  502    0  0.15986381355E+03  0.23509255592E+03 -0.15785158976E+03  0.32518254261E+03  0.12699999809E+01 0.  1.
       -4    1    3    3    0  502 -0.15986381355E+03 -0.23509255592E+03 -0.12810667308E+04  0.13122341751E+04  0.12699999809E+01 0. -1.
</event>
<event>
 5   0  0.2132540E-02  0.8131182E+03  0.7818609E-02  0.9541221E-01
       -1   -1    0    0    0  501  0.00000000000E+00  0.00000000000E+00  0.32223429595E+03  0.32223429599E+03  0.50400001928E-02 0. -1.
        1   -1    0    0  501    0  0.00000000000E+00  0.00000000000E+00 -0.51295064195E+03  0.51295064197E+03  0.50400001928E-02 0.  1.
    10030    2    1    2    0    0  0.00000000000E+00  0.00000000000E+00 -0.19071634600E+03  0.83518493796E+03  0.81311816851E+03 0.  0.
        4    1    3    3  502    0  0.32263202589E+03 -0.11808168922E+03  0.12792095300E+03  0.36660618186E+03  0.12699999809E+01 0. -1.
       -4    1    3    3    0  502 -0.32263202589E+03  0.11808168922E+03 -0.31863729899E+03  0.46857875610E+03  0.12699999809E+01 0.  1.
</event>
<event>
 5   0  0.2063692E-02  0.8148621E+03  0.7818609E-02  0.9538751E-01
       -1   -1    0    0    0  501  0.00000000000E+00  0.00000000000E+00  0.23966177174E+03  0.23966177179E+03  0.50400001928E-02 0.  1.
        1   -1    0    0  501    0  0.00000000000E+00  0.00000000000E+00 -0.69264304863E+03  0.69264304865E+03  0.50400001928E-02 0. -1.
    10030    2    1    2    0    0  0.00000000000E+00  0.00000000000E+00 -0.45298127689E+03  0.93230482044E+03  0.81486209938E+03 0.  0.
        2    1    3    3  502    0 -0.30108543684E+03  0.27267443035E+03 -0.19037765014E+03  0.44860610219E+03  0.25500000920E-02 0.  1.
       -2    1    3    3    0  502  0.30108543684E+03 -0.27267443035E+03 -0.26260362675E+03  0.48369871825E+03  0.25500000920E-02 0. -1.
</event>
<event>
 5   0  0.2063692E-02  0.9057037E+03  0.7818609E-02  0.9418479E-01
       -1   -1    0    0    0  501  0.00000000000E+00  0.00000000000E+00  0.83120470297E+02  0.83120470450E+02  0.50400001928E-02 0. -1.
        1   -1    0    0  501    0  0.00000000000E+00  0.00000000000E+00 -0.24671997708E+04  0.24671997708E+04  0.50400001928E-02 0.  1.
    10030    2    1    2    0    0  0.00000000000E+00  0.00000000000E+00 -0.23840793005E+04  0.25503202413E+04  0.90570371639E+03 0.  0.
        2    1    3    3  502    0 -0.37594083244E+03  0.19796149036E+03 -0.16332792758E+04  0.16876378326E+04  0.25500000920E-02 0. -1.
       -2    1    3    3    0  502  0.37594083244E+03 -0.19796149036E+03 -0.75080002472E+03  0.86268240870E+03  0.25500000920E-02 0.  1.
</event>
<event>
 5   0  0.3467240E-02  0.7740835E+03  0.7818609E-02  0.9598307E-01
       -2   -1    0    0    0  501  0.00000000000E+00  0.00000000000E+00  0.61606130657E+03  0.61606130657E+03  0.25500000920E-02 0. -1.
        2   -1    0    0  501    0  0.00000000000E+00  0.00000000000E+00 -0.24315974692E+03  0.24315974693E+03  0.25500000920E-02 0.  1.
    10030    2    1    2    0    0  0.00000000000E+00  0.00000000000E+00  0.37290155965E+03  0.85922105351E+03  0.77408348749E+03 0.  0.
        2    1    3    3  502    0 -0.70998332908E+01 -0.25072084768E+03 -0.14074063982E+03  0.28760959441E+03  0.25500000920E-02 0.  1.
       -2    1    3    3    0  502  0.70998332908E+01  0.25072084768E+03  0.51364219946E+03  0.57161145910E+03  0.25500000920E-02 0. -1.
</event>
<event>
 5   0  0.1989298E-02  0.8213041E+03  0.7818609E-02  0.9529682E-01
        1   -1    0    0  501    0  0.00000000000E+00  0.00000000000E+00  0.27261413211E+03  0.27261413216E+03  0.50400001928E-02 0. -1.
       -1   -1    0    0    0  501  0.00000000000E+00  0.00000000000E+00 -0.61858527257E+03  0.61858527259E+03  0.50400001928E-02 0.  1.
    10030    2    1    2    0    0  0.00000000000E+00  0.00000000000E+00 -0.34597114046E+03  0.89119940475E+03  0.82130405392E+03 0.  0.
        1    1    3    3  502    0 -0.31404732013E+03  0.16971103274E+03  0.47286396986E+02  0.36008826318E+03  0.50400001928E-02 0. -1.
       -1    1    3    3    0  502  0.31404732013E+03 -0.16971103274E+03 -0.39325753745E+03  0.53111114157E+03  0.50400001928E-02 0.  1.
</event>
<event>
 5   0  0.2063692E-02  0.1094821E+04  0.7818609E-02  0.9210254E-01
       -1   -1    0    0    0  501  0.00000000000E+00  0.00000000000E+00  0.26132761509E+03  0.26132761514E+03  0.50400001928E-02 0.  1.
        1   -1    0    0  501    0  0.00000000000E+00  0.00000000000E+00 -0.11466773897E+04  0.11466773897E+04  0.50400001928E-02 0. -1.
    10030    2    1    2    0    0  0.00000000000E+00  0.00000000000E+00 -0.88534977458E+03  0.14080050048E+04  0.10948213874E+04 0.  0.
        2    1    3    3  502    0  0.25686985452E+03  0.54937959931E+02  0.17497923315E+03  0.31562324636E+03  0.25500000920E-02 0.  1.
       -2    1    3    3    0  502 -0.25686985452E+03 -0.54937959931E+02 -0.10603290077E+04  0.10923817585E+04  0.25500000920E-02 0. -1.
</event>
<event>
 5   0  0.2129257E-02  0.8020472E+03  0.7818609E-02  0.9557059E-01
        1   -1    0    0  501    0  0.00000000000E+00  0.00000000000E+00  0.95351556321E+03  0.95351556322E+03  0.50400001928E-02 0.  1.
       -1   -1    0    0    0  501  0.00000000000E+00  0.00000000000E+00 -0.16865998654E+03  0.16865998661E+03  0.50400001928E-02 0. -1.
    10030    2    1    2    0    0  0.00000000000E+00  0.00000000000E+00  0.78485557667E+03  0.11221755498E+04  0.80204718590E+03 0.  0.
        3    1    3    3  502    0 -0.63084169568E+02  0.39339536879E+03  0.32861135056E+03  0.51645421729E+03  0.10100000352E+00 0. -1.
       -3    1    3    3    0  502  0.63084169568E+02 -0.39339536879E+03  0.45624422611E+03  0.60572133254E+03  0.10100000352E+00 0.  1.
</event>
<event>
 5   0  0.2132540E-02  0.8146850E+03  0.7818609E-02  0.9539001E-01
       -1   -1    0    0    0  501  0.00000000000E+00  0.00000000000E+00  0.17280589961E+03  0.17280589969E+03  0.50400001928E-02 0. -1.
        1   -1    0    0  501    0  0.00000000000E+00  0.00000000000E+00 -0.96019821231E+03  0.96019821232E+03  0.50400001928E-02 0.  1.
    10030    2    1    2    0    0  0.00000000000E+00  0.00000000000E+00 -0.78739231270E+03  0.11330041120E+04  0.81468500890E+03 0.  0.
        4    1    3    3  502    0  0.22557179593E+03  0.30398717526E+03 -0.60293218735E+03  0.71191268656E+03  0.12699999809E+01 0.  1.
       -4    1    3    3    0  502 -0.22557179593E+03 -0.30398717526E+03 -0.18446012534E+03  0.42109142544E+03  0.12699999809E+01 0. -1.
</event>
<event>
 5   0  0.3343036E-02  0.8072339E+03  0.7818609E-02  0.9549605E-01
       -2   -1    0    0    0  501  0.00000000000E+00  0.00000000000E+00  0.50797183499E+03  0.50797183500E+03  0.25500000920E-02 0. -1.
        2   -1    0    0  501    0  0.00000000000E+00  0.00000000000E+00 -0.32070016568E+03  0.32070016569E+03  0.25500000920E-02 0.  1.
    10030    2    1    2    0    0  0.00000000000E+00  0.00000000000E+00  0.18727166931E+03  0.82867200069E+03  0.80723392310E+03 0.  0.
        4    1    3    3  502    0 -0.76446975946E+01 -0.38773897192E+03 -0.21160129374E+02  0.38839324881E+03  0.12699999809E+01 0.  1.
       -4    1    3    3    0  502  0.76446975946E+01  0.38773897192E+03  0.20843179868E+03  0.44027875187E+03  0.12699999809E+01 0. -1.
</event>
<event>
 5   0  0.3467240E-02  0.7875329E+03  0.7818609E-02  0.9578240E-01
        2   -1    0    0  501    0  0.00000000000E+00  0.00000000000E+00  0.18234842260E+04  0.18234842260E+04  0.25500000920E-02 0.  1.
       -2   -1    0    0    0  501  0.00000000000E+00  0.00000000000E+00 -0.85030633372E+02  0.85030633411E+02  0.25500000920E-02 0. -1.
    10030    2    1    2    0    0  0.00000000000E+00  0.00000000000E+00  0.17384535926E+04  0.19085148594E+04  0.78753290400E+03 0.  0.
        2    1    3    3  502    0  0.16021334788E+03 -0.28324544957E+03  0.14065231037E+04  0.14436770909E+04  0.25500000920E-02 0.  1.
       -2    1    3    3    0  502 -0.16021334788E+03  0.28324544957E+03  0.33193048890E+03  0.46483776849E+03  0.25500000920E-02 0. -1.
</event>
<event>
 5   0  0.3404132E-02  0.8071095E+03  0.7818609E-02  0.9549783E-01
        2   -1    0    0  501    0  0.00000000000E+00  0.00000000000E+00  0.39739571745E+03  0.39739571745E+03  0.25500000920E-02 0. -1.
       -2   -1    0    0    0  501  0.00000000000E+00  0.00000000000E+00 -0.40980920931E+03  0.40980920932E+03  0.25500000920E-02 0.  1.
    10030    2    1    2    0    0  0.00000000000E+00  0.00000000000E+00 -0.12413491868E+02  0.80720492678E+03  0.80710947153E+03 0.  0.
        5    1    3    3  502    0 -0.40067936117E+02 -0.27390591020E+03 -0.29984740946E+03  0.40811817665E+03  0.46999998093E+01 0.  1.
       -5    1    3    3    0  502  0.40067936117E+02  0.27390591020E+03  0.28743391760E+03  0.39908675013E+03  0.46999998093E+01 0. -1.
</event>
<event>
 5   0  0.3550586E-02  0.7923291E+03  0.7818609E-02  0.9571187E-01
       -2   -1    0    0    0  501  0.00000000000E+00  0.00000000000E+00  0.14018260502E+03  0.14018260504E+03  0.25500000920E-02 0. -1.
        2   -1    0    0  501    0  0.00000000000E+00  0.00000000000E+00 -0.11195850118E+04  0.11195850118E+04  0.25500000920E-02 0.  1.
    10030    2    1    2    0    0  0.00000000000E+00  0.00000000000E+00 -0.97940240680E+03  0.12597676169E+04  0.79232908191E+03 0.  0.
        3    1    3    3  502    0 -0.22343384709E+03  0.32599554686E+03 -0.44614245001E+03  0.59601919138E+03  0.10100000352E+00 0. -1.
       -3    1    3    3    0  502  0.22343384709E+03 -0.32599554686E+03 -0.53325995680E+03  0.66374842548E+03  0.10100000352E+00 0.  1.
</event>
<event>
 5   0  0.3416160E-02  0.7916754E+03  0.7818609E-02  0.9572145E-01
        2   -1    0    0  501    0  0.00000000000E+00  0.00000000000E+00  0.96677499708E+03  0.96677499708E+03  0.25500000920E-02 0.  1.
       -2   -1    0    0    0  501  0.00000000000E+00  0.00000000000E+00 -0.16207232703E+03  0.16207232705E+03  0.25500000920E-02 0. -1.
    10030    2    1    2    0    0  0.00000000000E+00  0.00000000000E+00  0.80470267004E+03  0.11288473241E+04  0.79167537162E+03 0.  0.
        1    1    3    3  502    0 -0.28363225340E+03  0.74267851954E+02  0.78155543989E+03  0.83474060321E+03  0.50400001928E-02 0.  1.
       -1    1    3    3    0  502  0.28363225340E+03 -0.74267851954E+02  0.23147230150E+02  0.29410672092E+03  0.50400001928E-02 0. -1.
</event>
<event>
 5   0  0.2129257E-02  0.7998491E+03  0.7818609E-02  0.9560236E-01
       -1   -1    0    0    0  501  0.00000000000E+00  0.00000000000E+00  0.12052103548E+03  0.12052103559E+03  0.50400001928E-02 0.  1.
        1   -1    0    0  501    0  0.00000000000E+00  0.00000000000E+00 -0.13270681551E+04  0.13270681551E+04  0.50400001928E-02 0. -1.
    10030    2    1    2    0    0  0.00000000000E+00  0.00000000000E+00 -0.12065471196E+04  0.14475891907E+04  0.79984905647E+03 0.  0.
        3    1    3    3  502    0 -0.33107987981E+03  0.19276862394E+03 -0.39560821053E+03  0.55070817647E+03  0.10100000352E+00 0.  1.
       -3    1    3    3    0  502  0.33107987981E+03 -0.19276862394E+03 -0.81093890904E+03  0.89688101418E+03  0.10100000352E+00 0. -1.
</event>
<event>
 5   0  0.2129257E-02  0.7566751E+03  0.7818609E-02  0.9624936E-01
       -1   -1    0    0    0  501  0.00000000000E+00  0.00000000000E+00  0.36586771033E+03  0.36586771036E+03  0.50400001928E-02 0.  1.
        1   -1    0    0  501    0  0.00000000000E+00  0.00000000000E+00 -0.39123235525E+03  0.39123235529E+03  0.50400001928E-02 0. -1.
    10030    2    1    2    0    0  0.00000000000E+00  0.00000000000E+00 -0.25364644928E+02  0.75710006565E+03  0.75667505852E+03 0.  0.
        3    1    3    3  502    0  0.10081027587E+03 -0.39567308601E+02 -0.37539247505E+03  0.39070168179E+03  0.10100000352E+00 0. -1.
       -3    1    3    3    0  502 -0.10081027587E+03  0.39567308601E+02  0.35002783012E+03  0.36639838385E+03  0.10100000352E+00 0.  1.
</event>
<event>
 5   0  0.3404132E-02  0.7335185E+03  0.7818609E-02  0.9661568E-01
        2   -1    0    0  501    0  0.00000000000E+00  0.00000000000E+00  0.70899533189E+03  0.70899533189E+03  0.25500000920E-02 0. -1.
       -2   -1    0    0    0  501  0.00000000000E+00  0.00000000000E+00 -0.18972244878E+03  0.18972244880E+03  0.25500000920E-02 0.  1.
    10030    2    1    2    0    0  0.00000000000E+00  0.00000000000E+00  0.51927288311E+03  0.89871778069E+03  0.73351845390E+03 0.  0.
        5    1    3    3  502    0 -0.41182115345E+02  0.13097777491E+03  0.67627996425E+03  0.69009262001E+03  0.46999998093E+01 0. -1.
       -5    1    3    3    0  502  0.41182115345E+02 -0.13097777491E+03 -0.15700708114E+03  0.20862516069E+03  0.46999998093E+01 0.  1.
</event>
<event>
 5   0  0.2063692E-02  0.7805132E+03  0.7818609E-02  0.9588660E-01
        1   -1    0    0  501    0  0.00000000000E+00  0.00000000000E+00  0.32877889690E+03  0.32877889694E+03  0.50400001928E-02 0.  1.
       -1   -1    0    0    0  501  0.00000000000E+00  0.00000000000E+00 -0.46322985470E+03  0.46322985473E+03  0.50400001928E-02 0. -1.
    10030    2    1    2    0    0  0.00000000000E+00  0.00000000000E+00 -0.13445095780E+03  0.79200875167E+03  0.78051316623E+03 0.  0.
        2    1    3    3  502    0  0.10820173370E+03 -0.13970770324E+03  0.28585670805E+03  0.33606534344E+03  0.25500000920E-02 0.  1.
       -2    1    3    3    0  502 -0.10820173370E+03  0.13970770324E+03 -0.42030766585E+03  0.45594340822E+03  0.25500000920E-02 0. -1.
</event>
<event>
 5   0  0.3416160E-02  0.7966176E+03  0.7818609E-02  0.9564926E-01
       -2   -1    0    0    0  501  0.00000000000E+00  0.00000000000E+00  0.11993429539E+03  0.11993429541E+03  0.25500000920E-02 0.  1.
        2   -1    0    0  501    0  0.00000000000E+00  0.00000000000E+00 -0.13228069531E+04  0.13228069531E+04  0.25500000920E-02 0. -1.
    10030    2    1    2    0    0  0.00000000000E+00  0.00000000000E+00 -0.12028726577E+04  0.14427412485E+04  0.79661764951E+03 0.  0.
        1    1    3    3  502    0 -0.21569420085E+02 -0.34807551387E+03 -0.25293508238E+03  0.43081081598E+03  0.50400001928E-02 0.  1.
       -1    1    3    3    0  502  0.21569420085E+02  0.34807551387E+03 -0.94993757536E+03  0.10119304326E+04  0.50400001928E-02 0. -1.
</event>
<event>
 5   0  0.3550586E-02  0.7864740E+03  0.7818609E-02  0.9579804E-01
       -2   -1    0    0    0  501  0.00000000000E+00  0.00000000000E+00  0.29937931029E+03  0.29937931030E+03  0.25500000920E-02 0. -1.
        2   -1    0    0  501    0  0.00000000000E+00  0.00000000000E+00 -0.51651976900E+03  0.51651976901E+03  0.25500000920E-02 0.  1.
    10030    2    1    2    0    0  0.00000000000E+00  0.00000000000E+00 -0.21714045871E+03  0.81589907931E+03  0.78647398483E+03 0.  0.
        3    1    3    3  502    0 -0.36258430752E+03  0.12969707857E+03 -0.19121644629E+03  0.42994470782E+03  0.10100000352E+00 0. -1.
       -3    1    3    3    0  502  0.36258430752E+03 -0.12969707857E+03 -0.25924012420E+02  0.38595437149E+03  0.10100000352E+00 0.  1.
</event>
<event>
 5   0  0.1358000E-02  0.7984673E+03  0.7818609E-02  0.9562238E-01
        3   -1    0    0  501    0  0.00000000000E+00  0.00000000000E+00  0.47845822827E+03  0.47845823893E+03  0.10100000352E+00 0.  1.
       -3   -1    0    0    0  501  0.00000000000E+00  0.00000000000E+00 -0.33312728702E+03  0.33312730233E+03  0.10100000352E+00 0. -1.
    10030    2    1    2    0    0  0.00000000000E+00  0.00000000000E+00  0.14533094125E+03  0.81158554125E+03  0.79846728692E+03 0.  0.
        3    1    3    3  502    0  0.25932850436E+03 -0.28654791687E+03  0.17444303878E+03  0.42401811968E+03  0.10100000352E+00 0.  1.
       -3    1    3    3    0  502 -0.25932850436E+03  0.28654791687E+03 -0.29112097535E+02  0.38756742157E+03  0.10100000352E+00 0. -1.
</event>
<event>
 5   0  0.1989298E-02  0.7970496E+03  0.7818609E-02  0.9564298E-01
        1   -1    0    0  501    0  0.00000000000E+00  0.00000000000E+00  0.26257290408E+04  0.26257290408E+04  0.50400001928E-02 0.  1.
       -1   -1    0    0    0  501  0.00000000000E+00  0.00000000000E+00 -0.60486827717E+02  0.60486827927E+02  0.50400001928E-02 0. -1.
    10030    2    1    2    0    0  0.00000000000E+00  0.00000000000E+00  0.25652422131E+04  0.26862158687E+04  0.79704961053E+03 0.  0.
        1    1    3    3  502    0 -0.29285222255E+02  0.20368425707E+03  0.13241447413E+03  0.24470082510E+03  0.50400001928E-02 0. -1.
       -1    1    3    3    0  502  0.29285222255E+02 -0.20368425707E+03  0.24328277390E+04  0.24415150436E+04  0.50400001928E-02 0.  1.
</event>
<event>
 5   0  0.3550586E-02  0.7451026E+03  0.7818609E-02  0.9643065E-01
       -2   -1    0    0    0  501  0.00000000000E+00  0.00000000000E+00  0.91905970760E+02  0.91905970795E+02  0.25500000920E-02 0.  1.
        2   -1    0    0  501    0  0.00000000000E+00  0.00000000000E+00 -0.15101790448E+04  0.15101790448E+04  0.25500000920E-02 0. -1.
    10030    2    1    2    0    0  0.00000000000E+00  0.00000000000E+00 -0.14182730741E+04  0.16020850156E+04  0.74510260009E+03 0.  0.
        3    1    3    3  502    0  0.83712639392E+02 -0.35775503394E+02  0.67621932482E+02  0.11340382970E+03  0.10100000352E+00 0.  1.
       -3    1    3    3    0  502 -0.83712639392E+02  0.35775503394E+02 -0.14858950066E+04  0.14886811859E+04  0.10100000352E+00 0. -1.
</event>
<event>
 5   0  0.3416160E-02  0.7935975E+03  0.7818609E-02  0.9569331E-01
       -2   -1    0    0    0  501  0.00000000000E+00  0.00000000000E+00  0.12127553997E+03  0.12127553999E+03  0.25500000920E-02 0. -1.
        2   -1    0    0  501    0  0.00000000000E+00  0.00000000000E+00 -0.12982771085E+04  0.12982771085E+04  0.25500000920E-02 0.  1.
    10030    2    1    2    0    0  0.00000000000E+00  0.00000000000E+00 -0.11770015685E+04  0.14195526485E+04  0.79359752364E+03 0.  0.
        1    1    3    3  502    0 -0.33943415748E+03  0.18273651632E+03 -0.42030939620E+03  0.57032286489E+03  0.50400001928E-02 0. -1.
       -1    1    3    3    0  502  0.33943415748E+03 -0.18273651632E+03 -0.75669217234E+03  0.84922978361E+03  0.50400001928E-02 0.  1.
</event>
<event>
 5   0  0.2063692E-02  0.7980463E+03  0.7818609E-02  0.9562849E-01
        1   -1    0    0  501    0  0.00000000000E+00  0.00000000000E+00  0.37268564551E+03  0.37268564555E+03  0.50400001928E-02 0. -1.
       -1   -1    0    0    0  501  0.00000000000E+00  0.00000000000E+00 -0.42722189669E+03  0.42722189672E+03  0.50400001928E-02 0.  1.
    10030    2    1    2    0    0  0.00000000000E+00  0.00000000000E+00 -0.54536251178E+02  0.79990754227E+03  0.79804628530E+03 0.  0.
        2    1    3    3  502    0  0.32857788428E+03 -0.12360919248E+03  0.16284978679E+03  0.38699187532E+03  0.25500000920E-02 0. -1.
       -2    1    3    3    0  502 -0.32857788428E+03  0.12360919248E+03 -0.21738603797E+03  0.41291566695E+03  0.25500000920E-02 0.  1.
</event>
<event>
 5   0  0.3343036E-02  0.8029034E+03  0.7818609E-02  0.9555824E-01
        2   -1    0    0  501    0  0.00000000000E+00  0.00000000000E+00  0.97916040961E+03  0.97916040962E+03  0.25500000920E-02 0.  1.
       -2   -1    0    0    0  501  0.00000000000E+00  0.00000000000E+00 -0.16459353393E+03  0.16459353395E+03  0.25500000920E-02 0. -1.
    10030    2    1    2    0    0  0.00000000000E+00  0.00000000000E+00  0.81456687568E+03  0.11437539436E+04  0.80290341167E+03 0.  0.
        4    1    3    3  502    0 -0.26635966185E+03  0.29152813024E+03  0.51026113133E+03  0.64521636311E+03  0.12699999809E+01 0.  1.
       -4    1    3    3    0  502  0.26635966185E+03 -0.29152813024E+03  0.30430574435E+03  0.49853758046E+03  0.12699999809E+01 0. -1.
</event>
<event>
 5   0  0.3467240E-02  0.8104008E+03  0.7818609E-02  0.9545083E-01
        2   -1    0    0  501    0  0.00000000000E+00  0.00000000000E+00  0.14707524716E+04  0.14707524716E+04  0.25500000920E-02 0. -1.
       -2   -1    0    0    0  501  0.00000000000E+00  0.00000000000E+00 -0.11163495259E+03  0.11163495262E+03  0.25500000920E-02 0.  1.
    10030    2    1    2    0    0  0.00000000000E+00  0.00000000000E+00  0.13591175190E+04  0.15823874242E+04  0.81040084517E+03 0.  0.
        2    1    3    3  502    0 -0.14610352365E+03 -0.53516127743E+02 -0.50977097172E+02  0.16373417479E+03  0.25500000920E-02 0.  1.
       -2    1    3    3    0  502  0.14610352365E+03  0.53516127743E+02  0.14100946162E+04  0.14186532494E+04  0.25500000920E-02 0. -1.
</event>
<event>
 5   0  0.2129257E-02  0.8052138E+03  0.7818609E-02  0.9552501E-01
       -1   -1    0    0    0  501  0.00000000000E+00  0.00000000000E+00  0.22026080499E+03  0.22026080505E+03  0.50400001928E-02 0.  1.
        1   -1    0    0  501    0  0.00000000000E+00  0.00000000000E+00 -0.73591076986E+03  0.73591076987E+03  0.50400001928E-02 0. -1.
    10030    2    1    2    0    0  0.00000000000E+00  0.00000000000E+00 -0.51564996486E+03  0.95617157492E+03  0.80521375698E+03 0.  0.
        3    1    3    3  502    0 -0.83655822510E+02  0.11766183298E+03 -0.70411624711E+03  0.71876442818E+03  0.10100000352E+00 0. -1.
       -3    1    3    3    0  502  0.83655822510E+02 -0.11766183298E+03  0.18846628224E+03  0.23740714674E+03  0.10100000352E+00 0.  1.
</event>
<event>
 5   0  0.2132540E-02  0.8078803E+03  0.7818609E-02  0.9548680E-01
        1   -1    0    0  501    0  0.00000000000E+00  0.00000000000E+00  0.25764885476E+04  0.25764885476E+04  0.50400001928E-02 0.  1.
       -1   -1    0    0    0  501  0.00000000000E+00  0.00000000000E+00 -0.63329465997E+02  0.63329466198E+02  0.50400001928E-02 0. -1.
    10030    2    1    2    0    0  0.00000000000E+00  0.00000000000E+00  0.25131590816E+04  0.26398180138E+04  0.80788029841E+03 0.  0.
        4    1    3    3  502    0 -0.16816745702E+03 -0.11277850053E+03  0.11448126308E+03  0.23260880524E+03  0.12699999809E+01 0. -1.
       -4    1    3    3    0  502  0.16816745702E+03  0.11277850053E+03  0.23986778186E+04  0.24072092086E+04  0.12699999809E+01 0.  1.
</event>
<event>
 5   0  0.2077795E-02  0.8092223E+03  0.7818609E-02  0.9546763E-01
        1   -1    0    0  501    0  0.00000000000E+00  0.00000000000E+00  0.71431074804E+03  0.71431074806E+03  0.50400001928E-02 0.  1.
       -1   -1    0    0    0  501  0.00000000000E+00  0.00000000000E+00 -0.22918620807E+03  0.22918620813E+03  0.50400001928E-02 0. -1.
    10030    2    1    2    0    0  0.00000000000E+00  0.00000000000E+00  0.48512453997E+03  0.94349695619E+03  0.80922227296E+03 0.  0.
        5    1    3    3  502    0  0.78679233350E+02  0.83831891019E+02  0.69483192982E+03  0.70429518557E+03  0.46999998093E+01 0.  1.
       -5    1    3    3    0  502 -0.78679233350E+02 -0.83831891019E+02 -0.20970738985E+03  0.23920177062E+03  0.46999998093E+01 0. -1.
</event>
<event>
 5   0  0.2132540E-02  0.7931181E+03  0.7818609E-02  0.9570032E-01
       -1   -1    0    0    0  501  0.00000000000E+00  0.00000000000E+00  0.24653985430E+03  0.24653985435E+03  0.50400001928E-02 0.  1.
        1   -1    0    0  501    0  0.00000000000E+00  0.00000000000E+00 -0.63786476233E+03  0.63786476235E+03  0.50400001928E-02 0. -1.
    10030    2    1    2    0    0  0.00000000000E+00  0.00000000000E+00 -0.39132490803E+03  0.88440461671E+03  0.79311811378E+03 0.  0.
        4    1    3    3  502    0 -0.13818793226E+03 -0.29284035051E+02 -0.60885715965E+03  0.62502968977E+03  0.12699999809E+01 0. -1.
       -4    1    3    3    0  502  0.13818793226E+03  0.29284035051E+02  0.21753225162E+03  0.25937492694E+03  0.12699999809E+01 0.  1.
</event>
<event>
 5   0  0.1989298E-02  0.7887699E+03  0.7818609E-02  0.9576416E-01
       -1   -1    0    0    0  501  0.00000000000E+00  0.00000000000E+00  0.24706591903E+03  0.24706591908E+03  0.50400001928E-02 0.  1.
        1   -1    0    0  501    0  0.00000000000E+00  0.00000000000E+00 -0.62954656751E+03  0.62954656753E+03  0.50400001928E-02 0. -1.
    10030    2    1    2    0    0  0.00000000000E+00  0.00000000000E+00 -0.38248064849E+03  0.87661248661E+03  0.78876993174E+03 0.  0.
        1    1    3    3  502    0 -0.29927226692E+03 -0.72377762534E+02  0.82654753908E+02  0.31880125255E+03  0.50400001928E-02 0.  1.
       -1    1    3    3    0  502  0.29927226692E+03  0.72377762534E+02 -0.46513540240E+03  0.55781123406E+03  0.50400001928E-02 0. -1.
</event>
<event>
 5   0  0.3404132E-02  0.8205654E+03  0.7818609E-02  0.9530717E-01
        2   -1    0    0  501    0  0.00000000000E+00  0.00000000000E+00  0.89197901232E+03  0.89197901232E+03  0.25500000920E-02 0. -1.
       -2   -1    0    0    0  501  0.00000000000E+00  0.00000000000E+00 -0.18871733161E+03  0.18871733163E+03  0.25500000920E-02 0.  1.
    10030    2    1    2    0    0  0.00000000000E+00  0.00000000000E+00  0.70326168071E+03  0.10806963440E+04  0.82056541256E+03 0.  0.
        5    1    3    3  502    0  0.20513950856E+03  0.35514662120E+03  0.36469974683E+03  0.54885274515E+03  0.46999998093E+01 0. -1.
       -5    1    3    3    0  502 -0.20513950856E+03 -0.35514662120E+03  0.33856193388E+03  0.53184359881E+03  0.46999998093E+01 0.  1.
</event>
<event>
 5   0  0.2132540E-02  0.7869440E+03  0.7818609E-02  0.9579110E-01
       -1   -1    0    0    0  501  0.00000000000E+00  0.00000000000E+00  0.48174108052E+03  0.48174108055E+03  0.50400001928E-02 0.  1.
        1   -1    0    0  501    0  0.00000000000E+00  0.00000000000E+00 -0.32137638650E+03  0.32137638654E+03  0.50400001928E-02 0. -1.
    10030    2    1    2    0    0  0.00000000000E+00  0.00000000000E+00  0.16036469402E+03  0.80311746709E+03  0.78694398203E+03 0.  0.
        4    1    3    3  502    0 -0.27630196833E+03  0.10869414769E+01 -0.20570827333E+03  0.34447273587E+03  0.12699999809E+01 0. -1.
       -4    1    3    3    0  502  0.27630196833E+03 -0.10869414769E+01  0.36607296735E+03  0.45864473121E+03  0.12699999809E+01 0.  1.
</event>
<event>
 5   0  0.1358000E-02  0.7977739E+03  0.7818609E-02  0.9563245E-01
       -4   -1    0    0    0  501  0.00000000000E+00  0.00000000000E+00  0.32474402896E+03  0.32474651229E+03  0.12699999809E+01 0.  1.
        4   -1    0    0  501    0  0.00000000000E+00  0.00000000000E+00 -0.48995237704E+03  0.48995402301E+03  0.12699999809E+01 0. -1.
    10030    2    1    2    0    0  0.00000000000E+00  0.00000000000E+00 -0.16520834808E+03  0.81470053530E+03  0.79777388021E+03 0.  0.
        2    1    3    3  502    0  0.31221654266E+03  0.16563714781E+03 -0.27144920773E+03  0.44564504556E+03  0.25500000920E-02 0. -1.
       -2    1    3    3    0  502 -0.31221654266E+03 -0.16563714781E+03  0.10624085965E+03  0.36905548975E+03  0.25500000920E-02 0.  1.
</event>
<event>
 5   0  0.3550586E-02  0.8237322E+03  0.7818609E-02  0.9526287E-01
        2   -1    0    0  501    0  0.00000000000E+00  0.00000000000E+00  0.11851147320E+04  0.11851147320E+04  0.25500000920E-02 0. -1.
       -2   -1    0    0    0  501  0.00000000000E+00  0.00000000000E+00 -0.14313692041E+03  0.14313692043E+03  0.25500000920E-02 0.  1.
    10030    2    1    2    0    0  0.00000000000E+00  0.00000000000E+00  0.10419778116E+04  0.13282516524E+04  0.82373217270E+03 0.  0.
        3    1    3    3  502    0  0.36811027181E+03  0.37972654242E+02  0.22946176099E+03  0.43543059681E+03  0.10100000352E+00 0.  1.
       -3    1    3    3    0  502 -0.36811027181E+03 -0.37972654242E+02  0.81251605059E+03  0.89282105561E+03  0.10100000352E+00 0. -1.
</event>
<event>
 5   0  0.3550586E-02  0.7540616E+03  0.7818609E-02  0.9629000E-01
       -2   -1    0    0    0  501  0.00000000000E+00  0.00000000000E+00  0.30657689978E+03  0.30657689979E+03  0.25500000920E-02 0. -1.
        2   -1    0    0  501    0  0.00000000000E+00  0.00000000000E+00 -0.46367563233E+03  0.46367563234E+03  0.25500000920E-02 0.  1.
    10030    2    1    2    0    0  0.00000000000E+00  0.00000000000E+00 -0.15709873254E+03  0.77025253213E+03  0.75406163640E+03 0.  0.
        3    1    3    3  502    0 -0.56307154829E+02  0.19144049347E+03  0.24821342055E+03  0.31848056545E+03  0.10100000352E+00 0. -1.
       -3    1    3    3    0  502  0.56307154829E+02 -0.19144049347E+03 -0.40531215310E+03  0.45177196668E+03  0.10100000352E+00 0.  1.
</event>
<event>
 5   0  0.2077795E-02  0.8102042E+03  0.7818609E-02  0.9545363E-01
        1   -1    0    0  501    0  0.00000000000E+00  0.00000000000E+00  0.11405118673E+04  0.11405118673E+04  0.50400001928E-02 0.  1.
       -1   -1    0    0    0  501  0.00000000000E+00  0.00000000000E+00 -0.14388953733E+03  0.14388953742E+03  0.50400001928E-02 0. -1.
    10030    2    1    2    0    0  0.00000000000E+00  0.00000000000E+00  0.99662232996E+03  0.12844014047E+04  0.81020423344E+03 0.  0.
        5    1    3    3  502    0  0.67142208421E+02  0.38312890243E+03  0.67759378502E+03  0.78131380349E+03  0.46999998093E+01 0.  1.
       -5    1    3    3    0  502 -0.67142208421E+02 -0.38312890243E+03  0.31902854494E+03  0.50308760123E+03  0.46999998093E+01 0. -1.
</event>
<event>
 5   0  0.3404132E-02  0.8003523E+03  0.7818609E-02  0.9559507E-01
        2   -1    0    0  501    0  0.00000000000E+00  0.00000000000E+00  0.11073289550E+04  0.11073289550E+04  0.25500000920E-02 0.  1.
       -2   -1    0    0    0  501  0.00000000000E+00  0.00000000000E+00 -0.14461913781E+03  0.14461913783E+03  0.25500000920E-02 0. -1.
    10030    2    1    2    0    0  0.00000000000E+00  0.00000000000E+00  0.96270981715E+03  0.12519480928E+04  0.80035231930E+03 0.  0.
        5    1    3    3  502    0 -0.20079567247E+03  0.15407633984E+03 -0.34616220020E+01  0.25316495296E+03  0.46999998093E+01 0. -1.
       -5    1    3    3    0  502  0.20079567247E+03 -0.15407633984E+03  0.96617143915E+03  0.99878313983E+03  0.46999998093E+01 0.  1.
</event>
<event>
 5   0  0.3550586E-02  0.7954950E+03  0.7818609E-02  0.9566561E-01
        2   -1    0    0  501    0  0.00000000000E+00  0.00000000000E+00  0.76044013613E+03  0.76044013614E+03  0.25500000920E-02 0. -1.
       -2   -1    0    0    0  501  0.00000000000E+00  0.00000000000E+00 -0.20804147821E+03  0.20804147823E+03  0.25500000920E-02 0.  1.
    10030    2    1    2    0    0  0.00000000000E+00  0.00000000000E+00  0.55239865792E+03  0.96848161436E+03  0.79549504089E+03 0.  0.
        3    1    3    3  502    0  0.27643138033E+03  0.17862883928E+03  0.54810567555E+03  0.63932965834E+03  0.10100000352E+00 0. -1.
       -3    1    3    3    0  502 -0.27643138033E+03 -0.17862883928E+03  0.42929823687E+01  0.32915195602E+03  0.10100000352E+00 0.  1.
</event>
<event>
 5   0  0.1989298E-02  0.7903794E+03  0.7818609E-02  0.9574048E-01
        1   -1    0    0  501    0  0.00000000000E+00  0.00000000000E+00  0.12062668356E+03  0.12062668367E+03  0.50400001928E-02 0.  1.
       -1   -1    0    0    0  501  0.00000000000E+00  0.00000000000E+00 -0.12946962727E+04  0.12946962727E+04  0.50400001928E-02 0. -1.
    10030    2    1    2    0    0  0.00000000000E+00  0.00000000000E+00 -0.11740695891E+04  0.14153229564E+04  0.79037944729E+03 0.  0.
        1    1    3    3  502    0  0.88845963401E+02  0.96179169877E+01 -0.12763654855E+04  0.12794901180E+04  0.50400001928E-02 0. -1.
       -1    1    3    3    0  502 -0.88845963401E+02 -0.96179169877E+01  0.10229589635E+03  0.13583283835E+03  0.50400001928E-02 0.  1.
</event>
<event>
 5   0  0.2129257E-02  0.7906073E+03  0.7818609E-02  0.9573713E-01
        1   -1    0    0  501    0  0.00000000000E+00  0.00000000000E+00  0.76404154593E+03  0.76404154595E+03  0.50400001928E-02 0.  1.
       -1   -1    0    0    0  501  0.00000000000E+00  0.00000000000E+00 -0.20452420345E+03  0.20452420352E+03  0.50400001928E-02 0. -1.
    10030    2    1    2    0    0  0.00000000000E+00  0.00000000000E+00  0.55951734248E+03  0.96856574946E+03  0.79060733269E+03 0.  0.
        3    1    3    3  502    0  0.32543313575E+02 -0.39373820748E+03  0.26349976722E+03  0.47489049350E+03  0.10100000352E+00 0. -1.
       -3    1    3    3    0  502 -0.32543313575E+02  0.39373820748E+03  0.29601757526E+03  0.49367525597E+03  0.10100000352E+00 0.  1.
</event>
<event>
 5   0  0.2132540E-02  0.8637742E+03  0.7818609E-02  0.9472034E-01
        1   -1    0    0  501    0  0.00000000000E+00  0.00000000000E+00  0.17748639884E+04  0.17748639884E+04  0.50400001928E-02 0.  1.
       -1   -1    0    0    0  501  0.00000000000E+00  0.00000000000E+00 -0.10509337606E+03  0.10509337618E+03  0.50400001928E-02 0. -1.
    10030    2    1    2    0    0  0.00000000000E+00  0.00000000000E+00  0.16697706124E+04  0.18799573646E+04  0.86377415732E+03 0.  0.
        4    1    3    3  502    0  0.28191622013E+03  0.24953038386E+03  0.12954628678E+04  0.13490618305E+04  0.12699999809E+01 0. -1.
       -4    1    3    3    0  502 -0.28191622013E+03 -0.24953038386E+03  0.37430774453E+03  0.53089553413E+03  0.12699999809E+01 0.  1.
</event>
<event>
 5   0  0.1358000E-02  0.8030483E+03  0.7818609E-02  0.9555615E-01
        3   -1    0    0  501    0  0.00000000000E+00  0.00000000000E+00  0.48554190222E+03  0.48554191273E+03  0.10100000352E+00 0. -1.
       -3   -1    0    0    0  501  0.00000000000E+00  0.00000000000E+00 -0.33204472556E+03  0.33204474092E+03  0.10100000352E+00 0.  1.
    10030    2    1    2    0    0  0.00000000000E+00  0.00000000000E+00  0.15349717666E+03  0.81758665365E+03  0.80304828808E+03 0.  0.
        3    1    3    3  502    0  0.23737011117E+03  0.22553622197E+03  0.31335750923E+03  0.45321528647E+03  0.10100000352E+00 0. -1.
       -3    1    3    3    0  502 -0.23737011117E+03 -0.22553622197E+03 -0.15986033256E+03  0.36437136718E+03  0.10100000352E+00 0.  1.
</event>
<event>
 5   0  0.3416160E-02  0.8074229E+03  0.7818609E-02  0.9549334E-01
        2   -1    0    0  501    0  0.00000000000E+00  0.00000000000E+00  0.11508606167E+04  0.11508606167E+04  0.25500000920E-02 0. -1.
       -2   -1    0    0    0  501  0.00000000000E+00  0.00000000000E+00 -0.14161831910E+03  0.14161831912E+03  0.25500000920E-02 0.  1.
    10030    2    1    2    0    0  0.00000000000E+00  0.00000000000E+00  0.10092422976E+04  0.12924789358E+04  0.80742292777E+03 0.  0.
        1    1    3    3  502    0 -0.17392304954E+03 -0.59614663702E+02 -0.70712425189E+02  0.19698574160E+03  0.50400001928E-02 0.  1.
       -1    1    3    3    0  502  0.17392304954E+03  0.59614663702E+02  0.10799547228E+04  0.10954931942E+04  0.50400001928E-02 0. -1.
</event>
<event>
 5   0  0.3404132E-02  0.7964004E+03  0.7818609E-02  0.9565242E-01
        2   -1    0    0  501    0  0.00000000000E+00  0.00000000000E+00  0.55985145894E+03  0.55985145895E+03  0.25500000920E-02 0. -1.
       -2   -1    0    0    0  501  0.00000000000E+00  0.00000000000E+00 -0.28322407653E+03  0.28322407654E+03  0.25500000920E-02 0.  1.
    10030    2    1    2    0    0  0.00000000000E+00  0.00000000000E+00  0.27662738241E+03  0.84307553548E+03  0.79640043309E+03 0.  0.
        5    1    3    3  502    0  0.21752815882E+03 -0.30465966637E+03  0.28193092946E+03  0.46866101947E+03  0.46999998093E+01 0. -1.
       -5    1    3    3    0  502 -0.21752815882E+03  0.30465966637E+03 -0.53035470483E+01  0.37441451601E+03  0.46999998093E+01 0.  1.
</event>
<event>
 5   0  0.3467240E-02  0.7890463E+03  0.7818609E-02  0.9576009E-01
       -2   -1    0    0    0  501  0.00000000000E+00  0.00000000000E+00  0.33935789297E+03  0.33935789298E+03  0.25500000920E-02 0. -1.
        2   -1    0    0  501    0  0.00000000000E+00  0.00000000000E+00 -0.45865596254E+03  0.45865596254E+03  0.25500000920E-02 0.  1.
    10030    2    1    2    0    0  0.00000000000E+00  0.00000000000E+00 -0.11929806957E+03  0.79801385552E+03  0.78904631309E+03 0.  0.
        2    1    3    3  502    0 -0.18476625252E+03 -0.34568382251E+03 -0.10502144305E+03  0.40578981841E+03  0.25500000920E-02 0.  1.
       -2    1    3    3    0  502  0.18476625252E+03  0.34568382251E+03 -0.14276626514E+02  0.39222403711E+03  0.25500000920E-02 0. -1.
</event>
<event>
 5   0  0.3550586E-02  0.7925479E+03  0.7818609E-02  0.9570867E-01
        2   -1    0    0  501    0  0.00000000000E+00  0.00000000000E+00  0.37938337210E+03  0.37938337210E+03  0.25500000920E-02 0. -1.
       -2   -1    0    0    0  501  0.00000000000E+00  0.00000000000E+00 -0.41391655011E+03  0.41391655011E+03  0.25500000920E-02 0.  1.
    10030    2    1    2    0    0  0.00000000000E+00  0.00000000000E+00 -0.34533178010E+02  0.79329992222E+03  0.79254793307E+03 0.  0.
        3    1    3    3  502    0 -0.20183635887E+03 -0.18584196713E+02 -0.35810363896E+03  0.41148695553E+03  0.10100000352E+00 0.  1.
       -3    1    3    3    0  502  0.20183635887E+03  0.18584196713E+02  0.32357046095E+03  0.38181296669E+03  0.10100000352E+00 0. -1.
</event>
<event>
 5   0  0.2063692E-02  0.7751920E+03  0.7818609E-02  0.9596636E-01
        1   -1    0    0  501    0  0.00000000000E+00  0.00000000000E+00  0.15605133721E+04  0.15605133721E+04  0.50400001928E-02 0.  1.
       -1   -1    0    0    0  501  0.00000000000E+00  0.00000000000E+00 -0.96270024597E+02  0.96270024729E+02  0.50400001928E-02 0. -1.
    10030    2    1    2    0    0  0.00000000000E+00  0.00000000000E+00  0.14642433475E+04  0.16567833969E+04  0.77519200418E+03 0.  0.
        2    1    3    3  502    0  0.14459983029E+03 -0.16635721781E+03  0.14135236052E+04  0.14306057519E+04  0.25500000920E-02 0.  1.
       -2    1    3    3    0  502 -0.14459983029E+03  0.16635721781E+03  0.50719742365E+02  0.22617764502E+03  0.25500000920E-02 0. -1.
</event>
<event>
 5   0  0.1989298E-02  0.7911802E+03  0.7818609E-02  0.9572872E-01
        1   -1    0    0  501    0  0.00000000000E+00  0.00000000000E+00  0.82705840620E+03  0.82705840621E+03  0.50400001928E-02 0.  1.
       -1   -1    0    0    0  501  0.00000000000E+00  0.00000000000E+00 -0.18921461936E+03  0.18921461943E+03  0.50400001928E-02 0. -1.
    10030    2    1    2    0    0  0.00000000000E+00  0.00000000000E+00  0.63784378684E+03  0.10162730256E+04  0.79118023625E+03 0.  0.
        1    1    3    3  502    0 -0.38323477449E+03 -0.56763201093E+02  0.42168681858E+03  0.57263489797E+03  0.50400001928E-02 0. -1.
       -1    1    3    3    0  502  0.38323477449E+03  0.56763201093E+02  0.21615696825E+03  0.44363812767E+03  0.50400001928E-02 0.  1.
</event>
<event>
 5   0  0.3550586E-02  0.7534524E+03  0.7818609E-02  0.9629950E-01
        2   -1    0    0  501    0  0.00000000000E+00  0.00000000000E+00  0.83915736610E+03  0.83915736610E+03  0.25500000920E-02 0. -1.
       -2   -1    0    0    0  501  0.00000000000E+00  0.00000000000E+00 -0.16912514894E+03  0.16912514896E+03  0.25500000920E-02 0.  1.
    10030    2    1    2    0    0  0.00000000000E+00  0.00000000000E+00  0.67003221715E+03  0.10082825151E+04  0.75345235958E+03 0.  0.
        3    1    3    3  502    0  0.24293191851E+03 -0.28317735873E+03  0.26525828845E+03  0.45778521527E+03  0.10100000352E+00 0.  1.
       -3    1    3    3    0  502 -0.24293191851E+03  0.28317735873E+03  0.40477392870E+03  0.55049729980E+03  0.10100000352E+00 0. -1.
</event>
<event>
 5   0  0.3404132E-02  0.8166715E+03  0.7818609E-02  0.9536194E-01
        2   -1    0    0  501    0  0.00000000000E+00  0.00000000000E+00  0.86050798084E+03  0.86050798085E+03  0.25500000920E-02 0.  1.
       -2   -1    0    0    0  501  0.00000000000E+00  0.00000000000E+00 -0.19376704928E+03  0.19376704929E+03  0.25500000920E-02 0. -1.
    10030    2    1    2    0    0  0.00000000000E+00  0.00000000000E+00  0.66674093156E+03  0.10542750301E+04  0.81667151864E+03 0.  0.
        5    1    3    3  502    0 -0.21459749484E+03  0.52175290665E+02 -0.10997280660E+03  0.24675991153E+03  0.46999998093E+01 0. -1.
       -5    1    3    3    0  502  0.21459749484E+03 -0.52175290665E+02  0.77671373816E+03  0.80751511862E+03  0.46999998093E+01 0.  1.
</event>
<event>
 5   0  0.2129257E-02  0.8210066E+03  0.7818609E-02  0.9530099E-01
        1   -1    0    0  501    0  0.00000000000E+00  0.00000000000E+00  0.79096433975E+03  0.79096433977E+03  0.50400001928E-02 0. -1.
       -1   -1    0    0    0  501  0.00000000000E+00  0.00000000000E+00 -0.21304748012E+03  0.21304748018E+03  0.50400001928E-02 0.  1.
    10030    2    1    2    0    0  0.00000000000E+00  0.00000000000E+00  0.57791685963E+03  0.10040118199E+04  0.82100660042E+03 0.  0.
        3    1    3    3  502    0  0.12625126112E+03  0.19764217436E+03  0.70097190325E+03  0.73916400708E+03  0.10100000352E+00 0. -1.
       -3    1    3    3    0  502 -0.12625126112E+03 -0.19764217436E+03 -0.12305504362E+03  0.26484781286E+03  0.10100000352E+00 0.  1.
</event>
<event>
 5   0  0.2063692E-02  0.7912698E+03  0.7818609E-02  0.9572740E-01
        1   -1    0    0  501    0  0.00000000000E+00  0.00000000000E+00  0.21027682174E+03  0.21027682180E+03  0.50400001928E-02 0. -1.
       -1   -1    0    0    0  501  0.00000000000E+00  0.00000000000E+00 -0.74438533113E+03  0.74438533115E+03  0.50400001928E-02 0.  1.
    10030    2    1    2    0    0  0.00000000000E+00  0.00000000000E+00 -0.53410850939E+03  0.95466215295E+03  0.79126981901E+03 0.  0.
        2    1    3    3  502    0  0.11130298247E+03  0.15284503762E+03  0.15223840872E+03  0.24274779613E+03  0.25500000920E-02 0. -1.
       -2    1    3    3    0  502 -0.11130298247E+03 -0.15284503762E+03 -0.68634691811E+03  0.71191435681E+03  0.25500000920E-02 0.  1.
</event>
<event>
 5   0  0.2063692E-02  0.6998156E+03  0.7818609E-02  0.9717548E-01
        1   -1    0    0  501    0  0.00000000000E+00  0.00000000000E+00  0.11681876277E+04  0.11681876277E+04  0.50400001928E-02 0. -1.
       -1   -1    0    0    0  501  0.00000000000E+00  0.00000000000E+00 -0.10480805230E+03  0.10480805242E+03  0.50400001928E-02 0.  1.
    10030    2    1    2    0    0  0.00000000000E+00  0.00000000000E+00  0.10633795754E+04  0.12729956801E+04  0.69981560445E+03 0.  0.
        2    1    3    3  502    0 -0.22958473331E+03  0.98000076129E+02  0.97771675791E+03  0.10090803850E+04  0.25500000920E-02 0. -1.
       -2    1    3    3    0  502  0.22958473331E+03 -0.98000076129E+02  0.85662817472E+02  0.26391529511E+03  0.25500000920E-02 0.  1.
</event>
<event>
 5   0  0.3343036E-02  0.7732647E+03  0.7818609E-02  0.9599542E-01
       -2   -1    0    0    0  501  0.00000000000E+00  0.00000000000E+00  0.14114005111E+03  0.14114005113E+03  0.25500000920E-02 0. -1.
        2   -1    0    0  501    0  0.00000000000E+00  0.00000000000E+00 -0.10591222854E+04  0.10591222854E+04  0.25500000920E-02 0.  1.
    10030    2    1    2    0    0  0.00000000000E+00  0.00000000000E+00 -0.91798223434E+03  0.12002623366E+04  0.77326469856E+03 0.  0.
        4    1    3    3  502    0  0.59522780368E+02 -0.86629915800E+02 -0.10365168634E+04  0.10418332519E+04  0.12699999809E+01 0.  1.
       -4    1    3    3    0  502 -0.59522780368E+02  0.86629915800E+02  0.11853462906E+03  0.15842908471E+03  0.12699999809E+01 0. -1.
</event>
<event>
 5   0  0.2077795E-02  0.7649418E+03  0.7818609E-02  0.9612196E-01
       -1   -1    0    0    0  501  0.00000000000E+00  0.00000000000E+00  0.74098896606E+03  0.74098896607E+03  0.50400001928E-02 0. -1.
        1   -1    0    0  501    0  0.00000000000E+00  0.00000000000E+00 -0.19741724836E+03  0.19741724843E+03  0.50400001928E-02 0.  1.
    10030    2    1    2    0    0  0.00000000000E+00  0.00000000000E+00  0.54357171769E+03  0.93840621450E+03  0.76494183513E+03 0.  0.
        5    1    3    3  502    0  0.36938370716E+03  0.92704281829E+02  0.22887517074E+03  0.44434709492E+03  0.46999998093E+01 0. -1.
       -5    1    3    3    0  502 -0.36938370716E+03 -0.92704281829E+02  0.31469654695E+03  0.49405911958E+03  0.46999998093E+01 0.  1.
</event>
<event>
 5   0  0.3404132E-02  0.8123273E+03  0.7818609E-02  0.9542343E-01
       -2   -1    0    0    0  501  0.00000000000E+00  0.00000000000E+00  0.33331546852E+03  0.33331546853E+03  0.25500000920E-02 0. -1.
        2   -1    0    0  501    0  0.00000000000E+00  0.00000000000E+00 -0.49493328219E+03  0.49493328220E+03  0.25500000920E-02 0.  1.
    10030    2    1    2    0    0  0.00000000000E+00  0.00000000000E+00 -0.16161781367E+03  0.82824875073E+03  0.81232732036E+03 0.  0.
        5    1    3    3  502    0  0.26048094714E+03 -0.16796937570E+03  0.18679047542E+03  0.36190717967E+03  0.46999998093E+01 0. -1.
       -5    1    3    3    0  502 -0.26048094714E+03  0.16796937570E+03 -0.34840828909E+03  0.46634157106E+03  0.46999998093E+01 0.  1.
</event>
<event>
 5   0  0.2063692E-02  0.7480244E+03  0.7818609E-02  0.9638455E-01
        1   -1    0    0  501    0  0.00000000000E+00  0.00000000000E+00  0.70151518869E+03  0.70151518871E+03  0.50400001928E-02 0. -1.
       -1   -1    0    0    0  501  0.00000000000E+00  0.00000000000E+00 -0.19940426954E+03  0.19940426960E+03  0.50400001928E-02 0.  1.
    10030    2    1    2    0    0  0.00000000000E+00  0.00000000000E+00  0.50211091915E+03  0.90091945832E+03  0.74802439482E+03 0.  0.
        2    1    3    3  502    0 -0.85196771040E+02 -0.35196522223E+03  0.13841286192E+03  0.38768044548E+03  0.25500000920E-02 0. -1.
       -2    1    3    3    0  502  0.85196771040E+02  0.35196522223E+03  0.36369805723E+03  0.51323901284E+03  0.25500000920E-02 0.  1.
</event>
<event>
 5   0  0.3416160E-02  0.8063856E+03  0.7818609E-02  0.9550820E-01
       -2   -1    0    0    0  501  0.00000000000E+00  0.00000000000E+00  0.11112634943E+04  0.11112634943E+04  0.25500000920E-02 0.  1.
        2   -1    0    0  501    0  0.00000000000E+00  0.00000000000E+00 -0.14628792504E+03  0.14628792506E+03  0.25500000920E-02 0. -1.
    10030    2    1    2    0    0  0.00000000000E+00  0.00000000000E+00  0.96497556925E+03  0.12575514193E+04  0.80638559205E+03 0.  0.
        1    1    3    3  502    0  0.31724667398E+03  0.53753664545E+02  0.10359387366E+03  0.33803342925E+03  0.50400001928E-02 0. -1.
       -1    1    3    3    0  502 -0.31724667398E+03 -0.53753664545E+02  0.86138169559E+03  0.91951799010E+03  0.50400001928E-02 0.  1.
</event>
<event>
 5   0  0.2077795E-02  0.7427887E+03  0.7818609E-02  0.9646732E-01
       -1   -1    0    0    0  501  0.00000000000E+00  0.00000000000E+00  0.16472800804E+03  0.16472800812E+03  0.50400001928E-02 0.  1.
        1   -1    0    0  501    0  0.00000000000E+00  0.00000000000E+00 -0.83734258924E+03  0.83734258925E+03  0.50400001928E-02 0. -1.
    10030    2    1    2    0    0  0.00000000000E+00  0.00000000000E+00 -0.67261458120E+03  0.10020705974E+04  0.74278873664E+03 0.  0.
        5    1    3    3  502    0  0.86353545863E+02 -0.32822156254E+03 -0.13293659470E+03  0.36452785519E+03  0.46999998093E+01 0.  1.
       -5    1    3    3    0  502 -0.86353545863E+02  0.32822156254E+03 -0.53967798650E+03  0.63754274219E+03  0.46999998093E+01 0. -1.
</event>
<event>
 5   0  0.1358000E-02  0.7690735E+03  0.7818609E-02  0.9605893E-01
       -4   -1    0    0    0  501  0.00000000000E+00  0.00000000000E+00  0.74721568625E+03  0.74721676552E+03  0.12699999809E+01 0.  1.
        4   -1    0    0  501    0  0.00000000000E+00  0.00000000000E+00 -0.19788941596E+03  0.19789349118E+03  0.12699999809E+01 0. -1.
    10030    2    1    2    0    0  0.00000000000E+00  0.00000000000E+00  0.54932627028E+03  0.94511025670E+03  0.76907349849E+03 0.  0.
        1    1    3    3  502    0  0.30498572721E+03  0.23712476413E+02 -0.11671771585E+02  0.30612874026E+03  0.50400001928E-02 0. -1.
       -1    1    3    3    0  502 -0.30498572721E+03 -0.23712476413E+02  0.56099804187E+03  0.63898151643E+03  0.50400001928E-02 0.  1.
</event>
<event>
 5   0  0.3467240E-02  0.7879679E+03  0.7818609E-02  0.9577598E-01
        2   -1    0    0  501    0  0.00000000000E+00  0.00000000000E+00  0.99250078034E+03  0.99250078034E+03  0.25500000920E-02 0. -1.
       -2   -1    0    0    0  501  0.00000000000E+00  0.00000000000E+00 -0.15639619448E+03  0.15639619450E+03  0.25500000920E-02 0.  1.
    10030    2    1    2    0    0  0.00000000000E+00  0.00000000000E+00  0.83610458586E+03  0.11488969748E+04  0.78796788024E+03 0.  0.
        2    1    3    3  502    0  0.14376393679E+03  0.32086560323E+02  0.95084104618E+03  0.96218309691E+03  0.25500000920E-02 0. -1.
       -2    1    3    3    0  502 -0.14376393679E+03 -0.32086560323E+02 -0.11473646032E+03  0.18671387792E+03  0.25500000920E-02 0.  1.
</event>
<event>
 5   0  0.3467240E-02  0.8028557E+03  0.7818609E-02  0.9555893E-01
        2   -1    0    0  501    0  0.00000000000E+00  0.00000000000E+00  0.24397638960E+04  0.24397638960E+04  0.25500000920E-02 0.  1.
       -2   -1    0    0    0  501  0.00000000000E+00  0.00000000000E+00 -0.66049137063E+02  0.66049137112E+02  0.25500000920E-02 0. -1.
    10030    2    1    2    0    0  0.00000000000E+00  0.00000000000E+00  0.23737147589E+04  0.25058130331E+04  0.80285565335E+03 0.  0.
        2    1    3    3  502    0 -0.22743785966E+03  0.31896440480E+03  0.14603439803E+04  0.15119757976E+04  0.25500000920E-02 0.  1.
       -2    1    3    3    0  502  0.22743785966E+03 -0.31896440480E+03  0.91337077860E+03  0.99383723554E+03  0.25500000920E-02 0. -1.
</event>
<event>
 5   0  0.3343036E-02  0.8008749E+03  0.7818609E-02  0.9558752E-01
        2   -1    0    0  501    0  0.00000000000E+00  0.00000000000E+00  0.15592624100E+03  0.15592624102E+03  0.25500000920E-02 0.  1.
       -2   -1    0    0    0  501  0.00000000000E+00  0.00000000000E+00 -0.10283718208E+04  0.10283718208E+04  0.25500000920E-02 0. -1.
    10030    2    1    2    0    0  0.00000000000E+00  0.00000000000E+00 -0.87244557975E+03  0.11842980618E+04  0.80087490253E+03 0.  0.
        4    1    3    3  502    0  0.41949396549E+02 -0.27925611563E+03 -0.16389557878E+02  0.28286739030E+03  0.12699999809E+01 0.  1.
       -4    1    3    3    0  502 -0.41949396549E+02  0.27925611563E+03 -0.85605602187E+03  0.90143067147E+03  0.12699999809E+01 0. -1.
</event>
<event>
 5   0  0.3467240E-02  0.8088945E+03  0.7818609E-02  0.9547231E-01
       -2   -1    0    0    0  501  0.00000000000E+00  0.00000000000E+00  0.12976951172E+03  0.12976951175E+03  0.25500000920E-02 0. -1.
        2   -1    0    0  501    0  0.00000000000E+00  0.00000000000E+00 -0.12605239451E+04  0.12605239451E+04  0.25500000920E-02 0.  1.
    10030    2    1    2    0    0  0.00000000000E+00  0.00000000000E+00 -0.11307544334E+04  0.13902934569E+04  0.80889449718E+03 0.  0.
        2    1    3    3  502    0 -0.15563122781E+03  0.28400205330E+03 -0.14895760423E+03  0.35646404196E+03  0.25500000920E-02 0. -1.
       -2    1    3    3    0  502  0.15563122781E+03 -0.28400205330E+03 -0.98179682917E+03  0.10338294149E+04  0.25500000920E-02 0.  1.
</event>
<event>
 5   0  0.3467240E-02  0.8021211E+03  0.7818609E-02  0.9556952E-01
        2   -1    0    0  501    0  0.00000000000E+00  0.00000000000E+00  0.12363431354E+03  0.12363431357E+03  0.25500000920E-02 0.  1.
       -2   -1    0    0    0  501  0.00000000000E+00  0.00000000000E+00 -0.13010107763E+04  0.13010107763E+04  0.25500000920E-02 0. -1.
    10030    2    1    2    0    0  0.00000000000E+00  0.00000000000E+00 -0.11773764628E+04  0.14246450899E+04  0.80212112368E+03 0.  0.
        2    1    3    3  502    0 -0.28035240402E+03  0.23464787314E+02 -0.10963585435E+04  0.11318790230E+04  0.25500000920E-02 0. -1.
       -2    1    3    3    0  502  0.28035240402E+03 -0.23464787314E+02 -0.81017919236E+02  0.29276606690E+03  0.25500000920E-02 0.  1.
</event>
<event>
 5   0  0.3550586E-02  0.7994567E+03  0.7818609E-02  0.9560804E-01
        2   -1    0    0  501    0  0.00000000000E+00  0.00000000000E+00  0.11308403126E+04  0.11308403126E+04  0.25500000920E-02 0. -1.
       -2   -1    0    0    0  501  0.00000000000E+00  0.00000000000E+00 -0.14129558605E+03  0.14129558608E+03  0.25500000920E-02 0.  1.
    10030    2    1    2    0    0  0.00000000000E+00  0.00000000000E+00  0.98954472656E+03  0.12721358987E+04  0.79945667730E+03 0.  0.
        3    1    3    3  502    0 -0.31998307327E+03  0.23311222650E+03  0.40686016560E+03  0.56768449149E+03  0.10100000352E+00 0. -1.
       -3    1    3    3    0  502  0.31998307327E+03 -0.23311222650E+03  0.58268456097E+03  0.70445140721E+03  0.10100000352E+00 0.  1.
</event>
<event>
 5   0  0.2063692E-02  0.7997227E+03  0.7818609E-02  0.9560419E-01
        1   -1    0    0  501    0  0.00000000000E+00  0.00000000000E+00  0.74371819321E+03  0.74371819322E+03  0.50400001928E-02 0.  1.
       -1   -1    0    0    0  501  0.00000000000E+00  0.00000000000E+00 -0.21498612207E+03  0.21498612213E+03  0.50400001928E-02 0. -1.
    10030    2    1    2    0    0  0.00000000000E+00  0.00000000000E+00  0.52873207114E+03  0.95870431535E+03  0.79972267770E+03 0.  0.
        2    1    3    3  502    0  0.77456465338E+02 -0.33959009915E+03  0.49979488450E+03  0.60919279874E+03  0.25500000920E-02 0.  1.
       -2    1    3    3    0  502 -0.77456465338E+02  0.33959009915E+03  0.28937186637E+02  0.34951151661E+03  0.25500000920E-02 0. -1.
</event>
<event>
 5   0  0.1989298E-02  0.7789868E+03  0.7818609E-02  0.9590941E-01
       -1   -1    0    0    0  501  0.00000000000E+00  0.00000000000E+00  0.66925204690E+02  0.66925204880E+02  0.50400001928E-02 0.  1.
        1   -1    0    0  501    0  0.00000000000E+00  0.00000000000E+00 -0.22667861474E+04  0.22667861474E+04  0.50400001928E-02 0. -1.
    10030    2    1    2    0    0  0.00000000000E+00  0.00000000000E+00 -0.21998609427E+04  0.23337113523E+04  0.77898684747E+03 0.  0.
        1    1    3    3  502    0 -0.22420885796E+03  0.21376599385E+03 -0.18072228788E+04  0.18335812079E+04  0.50400001928E-02 0. -1.
       -1    1    3    3    0  502  0.22420885796E+03 -0.21376599385E+03 -0.39263806394E+03  0.50013014446E+03  0.50400001928E-02 0.  1.
</event>
<event>
 5   0  0.2129257E-02  0.8234057E+03  0.7818609E-02  0.9526743E-01
        1   -1    0    0  501    0  0.00000000000E+00  0.00000000000E+00  0.10954522057E+04  0.10954522057E+04  0.50400001928E-02 0.  1.
       -1   -1    0    0    0  501  0.00000000000E+00  0.00000000000E+00 -0.15472993004E+03  0.15472993013E+03  0.50400001928E-02 0. -1.
    10030    2    1    2    0    0  0.00000000000E+00  0.00000000000E+00  0.94072227566E+03  0.12501821358E+04  0.82340571583E+03 0.  0.
        3    1    3    3  502    0 -0.89230864694E+02  0.20519012123E+03  0.99507626164E+03  0.10199225018E+04  0.10100000352E+00 0.  1.
       -3    1    3    3    0  502  0.89230864694E+02 -0.20519012123E+03 -0.54353985978E+02  0.23025963401E+03  0.10100000352E+00 0. -1.
</event>
<event>
 5   0  0.1358000E-02  0.8086977E+03  0.7818609E-02  0.9547512E-01
        3   -1    0    0  501    0  0.00000000000E+00  0.00000000000E+00  0.21918511981E+03  0.21918514308E+03  0.10100000352E+00 0.  1.
       -3   -1    0    0    0  501  0.00000000000E+00  0.00000000000E+00 -0.74593554093E+03  0.74593554776E+03  0.10100000352E+00 0. -1.
    10030    2    1    2    0    0  0.00000000000E+00  0.00000000000E+00 -0.52675042112E+03  0.96512069084E+03  0.80869768254E+03 0.  0.
        3    1    3    3  502    0 -0.20093277555E+03  0.22098587763E+03  0.61905549637E+02  0.30502630326E+03  0.10100000352E+00 0.  1.
       -3    1    3    3    0  502  0.20093277555E+03 -0.22098587763E+03 -0.58865597076E+03  0.66009438758E+03  0.10100000352E+00 0. -1.
</event>
<event>
 5   0  0.2063692E-02  0.7983270E+03  0.7818609E-02  0.9562442E-01
        1   -1    0    0  501    0  0.00000000000E+00  0.00000000000E+00  0.21318576479E+03  0.21318576484E+03  0.50400001928E-02 0. -1.
       -1   -1    0    0    0  501  0.00000000000E+00  0.00000000000E+00 -0.74738339085E+03  0.74738339087E+03  0.50400001928E-02 0.  1.
    10030    2    1    2    0    0  0.00000000000E+00  0.00000000000E+00 -0.53419762607E+03  0.96056915571E+03  0.79832700018E+03 0.  0.
        2    1    3    3  502    0  0.35171967089E+02  0.34734090343E+03 -0.34254110063E+02  0.35079354972E+03  0.25500000920E-02 0. -1.
       -2    1    3    3    0  502 -0.35171967089E+02 -0.34734090343E+03 -0.49994351600E+03  0.60977560599E+03  0.25500000920E-02 0.  1.
</event>
<event>
 5   0  0.1989298E-02  0.7999563E+03  0.7818609E-02  0.9560080E-01
       -1   -1    0    0    0  501  0.00000000000E+00  0.00000000000E+00  0.30016899587E+03  0.30016899591E+03  0.50400001928E-02 0.  1.
        1   -1    0    0  501    0  0.00000000000E+00  0.00000000000E+00 -0.53297485526E+03  0.53297485529E+03  0.50400001928E-02 0. -1.
    10030    2    1    2    0    0  0.00000000000E+00  0.00000000000E+00 -0.23280585940E+03  0.83314385120E+03  0.79995631669E+03 0.  0.
        1    1    3    3  502    0  0.29375255577E+03  0.21930028939E+03  0.50232811697E+02  0.37000880577E+03  0.50400001928E-02 0. -1.
       -1    1    3    3    0  502 -0.29375255577E+03 -0.21930028939E+03 -0.28303867109E+03  0.46313504543E+03  0.50400001928E-02 0.  1.
</event>
<event>
 5   0  0.3343036E-02  0.7932345E+03  0.7818609E-02  0.9569862E-01
       -2   -1    0    0    0  501  0.00000000000E+00  0.00000000000E+00  0.25242717000E+03  0.25242717001E+03  0.25500000920E-02 0.  1.
        2   -1    0    0  501    0  0.00000000000E+00  0.00000000000E+00 -0.62317084038E+03  0.62317084039E+03  0.25500000920E-02 0. -1.
    10030    2    1    2    0    0  0.00000000000E+00  0.00000000000E+00 -0.37074367038E+03  0.87559801040E+03  0.79323452187E+03 0.  0.
        4    1    3    3  502    0  0.24832078984E+03  0.15484660828E+03  0.11012341643E+03  0.31268109394E+03  0.12699999809E+01 0.  1.
       -4    1    3    3    0  502 -0.24832078984E+03 -0.15484660828E+03 -0.48086708681E+03  0.56291691646E+03  0.12699999809E+01 0. -1.
</event>
<event>
 5   0  0.3343036E-02  0.8051627E+03  0.7818609E-02  0.9552574E-01
        2   -1    0    0  501    0  0.00000000000E+00  0.00000000000E+00  0.10253008417E+04  0.10253008417E+04  0.25500000920E-02 0.  1.
       -2   -1    0    0    0  501  0.00000000000E+00  0.00000000000E+00 -0.15807237243E+03  0.15807237245E+03  0.25500000920E-02 0. -1.
    10030    2    1    2    0    0  0.00000000000E+00  0.00000000000E+00  0.86722846925E+03  0.11833732141E+04  0.80516268297E+03 0.  0.
        4    1    3    3  502    0 -0.20367728635E+03  0.24174901232E+02 -0.75518476557E+02  0.21857153526E+03  0.12699999809E+01 0. -1.
       -4    1    3    3    0  502  0.20367728635E+03 -0.24174901232E+02  0.94274694581E+03  0.96480167887E+03  0.12699999809E+01 0.  1.
</event>
<event>
 5   0  0.3467240E-02  0.8000679E+03  0.7818609E-02  0.9559919E-01
       -2   -1    0    0    0  501  0.00000000000E+00  0.00000000000E+00  0.15401402312E+03  0.15401402314E+03  0.25500000920E-02 0. -1.
        2   -1    0    0  501    0  0.00000000000E+00  0.00000000000E+00 -0.10390428998E+04  0.10390428998E+04  0.25500000920E-02 0.  1.
    10030    2    1    2    0    0  0.00000000000E+00  0.00000000000E+00 -0.88502887670E+03  0.11930569230E+04  0.80006794013E+03 0.  0.
        2    1    3    3  502    0  0.24126209572E+03  0.22510659046E+03 -0.10527097836E+03  0.34635582107E+03  0.25500000920E-02 0. -1.
       -2    1    3    3    0  502 -0.24126209572E+03 -0.22510659046E+03 -0.77975789834E+03  0.84670110188E+03  0.25500000920E-02 0.  1.
</event>
<event>
 5   0  0.2077795E-02  0.8307888E+03  0.7818609E-02  0.9516491E-01
       -1   -1    0    0    0  501  0.00000000000E+00  0.00000000000E+00  0.64209612241E+03  0.64209612243E+03  0.50400001928E-02 0.  1.
        1   -1    0    0  501    0  0.00000000000E+00  0.00000000000E+00 -0.26873312198E+03  0.26873312202E+03  0.50400001928E-02 0. -1.
    10030    2    1    2    0    0  0.00000000000E+00  0.00000000000E+00  0.37336300043E+03  0.91082924445E+03  0.83078877126E+03 0.  0.
        5    1    3    3  502    0 -0.43482262609E+02 -0.39369179426E+03  0.49544536947E+02  0.39920005908E+03  0.46999998093E+01 0. -1.
       -5    1    3    3    0  502  0.43482262609E+02  0.39369179426E+03  0.32381846348E+03  0.51162918537E+03  0.46999998093E+01 0.  1.
</event>
<event>
 5   0  0.2132540E-02  0.7296260E+03  0.7818609E-02  0.9667867E-01
       -1   -1    0    0    0  501  0.00000000000E+00  0.00000000000E+00  0.13684487739E+03  0.13684487749E+03  0.50400001928E-02 0. -1.
        1   -1    0    0  501    0  0.00000000000E+00  0.00000000000E+00 -0.97255035827E+03  0.97255035828E+03  0.50400001928E-02 0.  1.
    10030    2    1    2    0    0  0.00000000000E+00  0.00000000000E+00 -0.83570548087E+03  0.11093952358E+04  0.72962602638E+03 0.  0.
        4    1    3    3  502    0  0.33763555725E+02  0.34946696599E+03 -0.26717921856E+03  0.44119551872E+03  0.12699999809E+01 0. -1.
       -4    1    3    3    0  502 -0.33763555725E+02 -0.34946696599E+03 -0.56852626232E+03  0.66819971704E+03  0.12699999809E+01 0.  1.
</event>
<event>
 5   0  0.2129257E-02  0.7773408E+03  0.7818609E-02  0.9593407E-01
       -1   -1    0    0    0  501  0.00000000000E+00  0.00000000000E+00  0.21438527472E+03  0.21438527477E+03  0.50400001928E-02 0.  1.
        1   -1    0    0  501    0  0.00000000000E+00  0.00000000000E+00 -0.70464105209E+03  0.70464105211E+03  0.50400001928E-02 0. -1.
    10030    2    1    2    0    0  0.00000000000E+00  0.00000000000E+00 -0.49025577738E+03  0.91902632688E+03  0.77734076328E+03 0.  0.
        3    1    3    3  502    0 -0.37712119627E+03 -0.61073920705E+02 -0.16057920594E+03  0.41441055977E+03  0.10100000352E+00 0.  1.
       -3    1    3    3    0  502  0.37712119627E+03  0.61073920705E+02 -0.32967657143E+03  0.50461576711E+03  0.10100000352E+00 0. -1.
</event>
<event>
 5   0  0.1358000E-02  0.7840121E+03  0.7818609E-02  0.9583452E-01
       -3   -1    0    0    0  501  0.00000000000E+00  0.00000000000E+00  0.51093370702E+03  0.51093371700E+03  0.10100000352E+00 0. -1.
        3   -1    0    0  501    0  0.00000000000E+00  0.00000000000E+00 -0.30076061063E+03  0.30076062759E+03  0.10100000352E+00 0.  1.
    10030    2    1    2    0    0  0.00000000000E+00  0.00000000000E+00  0.21017309639E+03  0.81169434459E+03  0.78401210360E+03 0.  0.
        1    1    3    3  502    0 -0.33557941418E+03  0.19437614210E+03  0.16431774431E+03  0.42118398469E+03  0.50400001928E-02 0. -1.
       -1    1    3    3    0  502  0.33557941418E+03 -0.19437614210E+03  0.45855352076E+02  0.39051035989E+03  0.50400001928E-02 0.  1.
</event>
<event>
 5   0  0.2132540E-02  0.7978337E+03  0.7818609E-02  0.9563158E-01
       -1   -1    0    0    0  501  0.00000000000E+00  0.00000000000E+00  0.12221293345E+03  0.12221293355E+03  0.50400001928E-02 0. -1.
        1   -1    0    0  501    0  0.00000000000E+00  0.00000000000E+00 -0.13021095983E+04  0.13021095983E+04  0.50400001928E-02 0.  1.
    10030    2    1    2    0    0  0.00000000000E+00  0.00000000000E+00 -0.11798966649E+04  0.14243225319E+04  0.79783365124E+03 0.  0.
        4    1    3    3  502    0  0.39675730120E+03  0.35549414766E+02 -0.55195573089E+03  0.68068851813E+03  0.12699999809E+01 0. -1.
       -4    1    3    3    0  502 -0.39675730120E+03 -0.35549414766E+02 -0.62794093396E+03  0.74363401374E+03  0.12699999809E+01 0.  1.
</event>
<event>
 5   0  0.2063692E-02  0.8176884E+03  0.7818609E-02  0.9534761E-01
        1   -1    0    0  501    0  0.00000000000E+00  0.00000000000E+00  0.22076304962E+04  0.22076304962E+04  0.50400001928E-02 0. -1.
       -1   -1    0    0    0  501  0.00000000000E+00  0.00000000000E+00 -0.75716289435E+02  0.75716289603E+02  0.50400001928E-02 0.  1.
    10030    2    1    2    0    0  0.00000000000E+00  0.00000000000E+00  0.21319142068E+04  0.22833467858E+04  0.81768842432E+03 0.  0.
        2    1    3    3  502    0  0.23202270769E+03  0.21132353544E+03  0.17976694859E+04  0.18248582833E+04  0.25500000920E-02 0. -1.
       -2    1    3    3    0  502 -0.23202270769E+03 -0.21132353544E+03  0.33424472087E+03  0.45848850253E+03  0.25500000920E-02 0.  1.
</event>
<event>
 5   0  0.3416160E-02  0.7804125E+03  0.7818609E-02  0.9588810E-01
        2   -1    0    0  501    0  0.00000000000E+00  0.00000000000E+00  0.21630543301E+04  0.21630543301E+04  0.25500000920E-02 0. -1.
       -2   -1    0    0    0  501  0.00000000000E+00  0.00000000000E+00 -0.70391637278E+02  0.70391637325E+02  0.25500000920E-02 0.  1.
    10030    2    1    2    0    0  0.00000000000E+00  0.00000000000E+00  0.20926626929E+04  0.22334459675E+04  0.78041254699E+03 0.  0.
        1    1    3    3  502    0  0.23748190065E+03 -0.27367559196E+03  0.14607107439E+04  0.15049823454E+04  0.50400001928E-02 0. -1.
       -1    1    3    3    0  502 -0.23748190065E+03  0.27367559196E+03  0.63195194901E+03  0.72846362205E+03  0.50400001928E-02 0.  1.
</event>
<event>
 5   0  0.3467240E-02  0.8193312E+03  0.7818609E-02  0.9532450E-01
       -2   -1    0    0    0  501  0.00000000000E+00  0.00000000000E+00  0.42911335781E+03  0.42911335782E+03  0.25500000920E-02 0. -1.
        2   -1    0    0  501    0  0.00000000000E+00  0.00000000000E+00 -0.39109921274E+03  0.39109921275E+03  0.25500000920E-02 0.  1.
    10030    2    1    2    0    0  0.00000000000E+00  0.00000000000E+00  0.38014145072E+02  0.82021257056E+03  0.81933118193E+03 0.  0.
        2    1    3    3  502    0 -0.27547270647E+03  0.11505333761E+03 -0.26183600475E+03  0.39709013573E+03  0.25500000920E-02 0.  1.
       -2    1    3    3    0  502  0.27547270647E+03 -0.11505333761E+03  0.29985014982E+03  0.42312243483E+03  0.25500000920E-02 0. -1.
</event>
<event>
 5   0  0.3550586E-02  0.8149389E+03  0.7818609E-02  0.9538642E-01
        2   -1    0    0  501    0  0.00000000000E+00  0.00000000000E+00  0.33143940266E+03  0.33143940267E+03  0.25500000920E-02 0.  1.
       -2   -1    0    0    0  501  0.00000000000E+00  0.00000000000E+00 -0.50094027625E+03  0.50094027625E+03  0.25500000920E-02 0. -1.
    10030    2    1    2    0    0  0.00000000000E+00  0.00000000000E+00 -0.16950087359E+03  0.83237967892E+03  0.81493888343E+03 0.  0.
        3    1    3    3  502    0 -0.21695079653E+03 -0.15213214465E+03  0.23142154049E+03  0.35180644843E+03  0.10100000352E+00 0.  1.
       -3    1    3    3    0  502  0.21695079653E+03  0.15213214465E+03 -0.40092241408E+03  0.48057323049E+03  0.10100000352E+00 0. -1.
</event>
<event>
 5   0  0.3404132E-02  0.7929910E+03  0.7818609E-02  0.9570218E-01
        2   -1    0    0  501    0  0.00000000000E+00  0.00000000000E+00  0.16880447336E+04  0.16880447336E+04  0.25500000920E-02 0. -1.
       -2   -1    0    0    0  501  0.00000000000E+00  0.00000000000E+00 -0.93130644990E+02  0.93130645024E+02  0.25500000920E-02 0.  1.
    10030    2    1    2    0    0  0.00000000000E+00  0.00000000000E+00  0.15949140886E+04  0.17811753786E+04  0.79299103360E+03 0.  0.
        5    1    3    3  502    0 -0.27426416081E+03  0.28426673756E+03  0.87389861423E+03  0.95903560202E+03  0.46999998093E+01 0. -1.
       -5    1    3    3    0  502  0.27426416081E+03 -0.28426673756E+03  0.72101547435E+03  0.82213977658E+03  0.46999998093E+01 0.  1.
</event>
<event>
 5   0  0.1358000E-02  0.8047720E+03  0.7818609E-02  0.9553135E-01
        3   -1    0    0  501    0  0.00000000000E+00  0.00000000000E+00  0.30202398828E+03  0.30202400517E+03  0.10100000352E+00 0.  1.
       -3   -1    0    0    0  501  0.00000000000E+00  0.00000000000E+00 -0.53609804226E+03  0.53609805177E+03  0.10100000352E+00 0. -1.
    10030    2    1    2    0    0  0.00000000000E+00  0.00000000000E+00 -0.23407405398E+03  0.83812205694E+03  0.80477196744E+03 0.  0.
        5    1    3    3  502    0 -0.27343227454E+02 -0.36854770386E+03 -0.28274498371E+03  0.46534060420E+03  0.46999998093E+01 0. -1.
       -5    1    3    3    0  502  0.27343227454E+02  0.36854770386E+03  0.48670929727E+02  0.37278145274E+03  0.46999998093E+01 0.  1.
</event>
<event>
 5   0  0.2077795E-02  0.7916784E+03  0.7818609E-02  0.9572141E-01
        1   -1    0    0  501    0  0.00000000000E+00  0.00000000000E+00  0.10053309762E+04  0.10053309762E+04  0.50400001928E-02 0.  1.
       -1   -1    0    0    0  501  0.00000000000E+00  0.00000000000E+00 -0.15585780593E+03  0.15585780601E+03  0.50400001928E-02 0. -1.
    10030    2    1    2    0    0  0.00000000000E+00  0.00000000000E+00  0.84947317024E+03  0.11611887822E+04  0.79167842015E+03 0.  0.
        5    1    3    3  502    0 -0.27217747537E+03  0.19672422204E+03  0.11747023033E+03  0.35581222948E+03  0.46999998093E+01 0. -1.
       -5    1    3    3    0  502  0.27217747537E+03 -0.19672422204E+03  0.73200293990E+03  0.80537655271E+03  0.46999998093E+01 0.  1.
</event>
<event>
 5   0  0.2063692E-02  0.8141303E+03  0.7818609E-02  0.9539786E-01
       -1   -1    0    0    0  501  0.00000000000E+00  0.00000000000E+00  0.37370893274E+03  0.37370893277E+03  0.50400001928E-02 0.  1.
        1   -1    0    0  501    0  0.00000000000E+00  0.00000000000E+00 -0.44339860844E+03  0.44339860846E+03  0.50400001928E-02 0. -1.
    10030    2    1    2    0    0  0.00000000000E+00  0.00000000000E+00 -0.69689675698E+02  0.81710754123E+03  0.81413026172E+03 0.  0.
        2    1    3    3  502    0  0.56144817186E+02 -0.14195886844E+03 -0.41358071037E+03  0.44085549199E+03  0.25500000920E-02 0. -1.
       -2    1    3    3    0  502 -0.56144817186E+02  0.14195886844E+03  0.34389103467E+03  0.37625204924E+03  0.25500000920E-02 0.  1.
</event>
<event>
 5   0  0.2077795E-02  0.7939570E+03  0.7818609E-02  0.9568806E-01
       -1   -1    0    0    0  501  0.00000000000E+00  0.00000000000E+00  0.91873702505E+02  0.91873702643E+02  0.50400001928E-02 0. -1.
        1   -1    0    0  501    0  0.00000000000E+00  0.00000000000E+00 -0.17153104371E+04  0.17153104371E+04  0.50400001928E-02 0.  1.
    10030    2    1    2    0    0  0.00000000000E+00  0.00000000000E+00 -0.16234367346E+04  0.18071841398E+04  0.79395697852E+03 0.  0.
        5    1    3    3  502    0  0.21098872768E+03 -0.93920282770E+02 -0.15465826771E+04  0.15637382549E+04  0.46999998093E+01 0.  1.
       -5    1    3    3    0  502 -0.21098872768E+03  0.93920282770E+02 -0.76854057564E+02  0.24344588492E+03  0.46999998093E+01 0. -1.
</event>
<event>
 5   0  0.3467240E-02  0.8526349E+03  0.7818609E-02  0.9486807E-01
        2   -1    0    0  501    0  0.00000000000E+00  0.00000000000E+00  0.87103887219E+03  0.87103887220E+03  0.25500000920E-02 0.  1.
       -2   -1    0    0    0  501  0.00000000000E+00  0.00000000000E+00 -0.20865495594E+03  0.20865495596E+03  0.25500000920E-02 0. -1.
    10030    2    1    2    0    0  0.00000000000E+00  0.00000000000E+00  0.66238391625E+03  0.10796938282E+04  0.85263492191E+03 0.  0.
        2    1    3    3  502    0 -0.18126017066E+03  0.19952365866E+03  0.74942017205E+03  0.79642672865E+03  0.25500000920E-02 0.  1.
       -2    1    3    3    0  502  0.18126017066E+03 -0.19952365866E+03 -0.87036255802E+02  0.28326709950E+03  0.25500000920E-02 0. -1.
</event>
<event>
 5   0  0.3416160E-02  0.8233673E+03  0.7818609E-02  0.9526796E-01
        2   -1    0    0  501    0  0.00000000000E+00  0.00000000000E+00  0.56165884030E+03  0.56165884031E+03  0.25500000920E-02 0.  1.
       -2   -1    0    0    0  501  0.00000000000E+00  0.00000000000E+00 -0.30175510723E+03  0.30175510724E+03  0.25500000920E-02 0. -1.
    10030    2    1    2    0    0  0.00000000000E+00  0.00000000000E+00  0.25990373307E+03  0.86341394755E+03  0.82336729007E+03 0.  0.
        1    1    3    3  502    0 -0.71523071149E+02  0.27199402947E+03 -0.18531528931E+03  0.33680566838E+03  0.50400001928E-02 0. -1.
       -1    1    3    3    0  502  0.71523071149E+02 -0.27199402947E+03  0.44521902238E+03  0.52660827917E+03  0.50400001928E-02 0.  1.
</event>
<event>
 5   0  0.3416160E-02  0.8044983E+03  0.7818609E-02  0.9553529E-01
       -2   -1    0    0    0  501  0.00000000000E+00  0.00000000000E+00  0.11512111763E+03  0.11512111765E+03  0.25500000920E-02 0.  1.
        2   -1    0    0  501    0  0.00000000000E+00  0.00000000000E+00 -0.14055143546E+04  0.14055143546E+04  0.25500000920E-02 0. -1.
    10030    2    1    2    0    0  0.00000000000E+00  0.00000000000E+00 -0.12903932370E+04  0.15206354723E+04  0.80449831165E+03 0.  0.
        1    1    3    3  502    0  0.10159121160E+03  0.15022670580E+02 -0.13803179993E+04  0.13841330261E+04  0.50400001928E-02 0. -1.
       -1    1    3    3    0  502 -0.10159121160E+03 -0.15022670580E+02  0.89924762277E+02  0.13650244614E+03  0.50400001928E-02 0.  1.
</event>
<event>
 5   0  0.3550586E-02  0.7925721E+03  0.7818609E-02  0.9570831E-01
       -2   -1    0    0    0  501  0.00000000000E+00  0.00000000000E+00  0.11310413537E+03  0.11310413540E+03  0.25500000920E-02 0.  1.
        2   -1    0    0  501    0  0.00000000000E+00  0.00000000000E+00 -0.13884781753E+04  0.13884781753E+04  0.25500000920E-02 0. -1.
    10030    2    1    2    0    0  0.00000000000E+00  0.00000000000E+00 -0.12753740399E+04  0.15015823107E+04  0.79257207501E+03 0.  0.
        3    1    3    3  502    0  0.31357911161E+03 -0.88549389078E+02 -0.10649942294E+04  0.11137259862E+04  0.10100000352E+00 0. -1.
       -3    1    3    3    0  502 -0.31357911161E+03  0.88549389078E+02 -0.21037981050E+03  0.38785632444E+03  0.10100000352E+00 0.  1.
</event>
<event>
 5   0  0.2132540E-02  0.8012186E+03  0.7818609E-02  0.9558255E-01
       -1   -1    0    0    0  501  0.00000000000E+00  0.00000000000E+00  0.24340123620E+03  0.24340123625E+03  0.50400001928E-02 0.  1.
        1   -1    0    0  501    0  0.00000000000E+00  0.00000000000E+00 -0.65935496274E+03  0.65935496276E+03  0.50400001928E-02 0. -1.
    10030    2    1    2    0    0  0.00000000000E+00  0.00000000000E+00 -0.41595372654E+03  0.90275619902E+03  0.80121860453E+03 0.  0.
        4    1    3    3  502    0 -0.28149982004E+03  0.13544639980E+03 -0.49055528273E+03  0.58157886329E+03  0.12699999809E+01 0. -1.
       -4    1    3    3    0  502  0.28149982004E+03 -0.13544639980E+03  0.74601556192E+02  0.32117733573E+03  0.12699999809E+01 0.  1.
</event>
<event>
 5   0  0.3550586E-02  0.7967018E+03  0.7818609E-02  0.9564803E-01
       -2   -1    0    0    0  501  0.00000000000E+00  0.00000000000E+00  0.74484151779E+02  0.74484151823E+02  0.25500000920E-02 0.  1.
        2   -1    0    0  501    0  0.00000000000E+00  0.00000000000E+00 -0.21304320661E+04  0.21304320661E+04  0.25500000920E-02 0. -1.
    10030    2    1    2    0    0  0.00000000000E+00  0.00000000000E+00 -0.20559479143E+04  0.22049162179E+04  0.79670176456E+03 0.  0.
        3    1    3    3  502    0  0.39743035827E+02  0.22292341207E+03 -0.19349937578E+04  0.19481979390E+04  0.10100000352E+00 0. -1.
       -3    1    3    3    0  502 -0.39743035827E+02 -0.22292341207E+03 -0.12095415647E+03  0.25671827889E+03  0.10100000352E+00 0.  1.
</event>
<event>
 5   0  0.2063692E-02  0.7982106E+03  0.7818609E-02  0.9562611E-01
       -1   -1    0    0    0  501  0.00000000000E+00  0.00000000000E+00  0.81820629945E+02  0.81820630100E+02  0.50400001928E-02 0.  1.
        1   -1    0    0  501    0  0.00000000000E+00  0.00000000000E+00 -0.19467590475E+04  0.19467590475E+04  0.50400001928E-02 0. -1.
    10030    2    1    2    0    0  0.00000000000E+00  0.00000000000E+00 -0.18649384176E+04  0.20285796776E+04  0.79821062830E+03 0.  0.
        2    1    3    3  502    0 -0.44436154254E+02 -0.68459686093E+02  0.60385331507E+02  0.10152678805E+03  0.25500000920E-02 0.  1.
       -2    1    3    3    0  502  0.44436154254E+02  0.68459686093E+02 -0.19253237491E+04  0.19270528896E+04  0.25500000920E-02 0. -1.
</event>
<event>
 5   0  0.3404132E-02  0.7987428E+03  0.7818609E-02  0.9561839E-01
        2   -1    0    0  501    0  0.00000000000E+00  0.00000000000E+00  0.14220930067E+03  0.14220930069E+03  0.25500000920E-02 0. -1.
       -2   -1    0    0    0  501  0.00000000000E+00  0.00000000000E+00 -0.11215687644E+04  0.11215687644E+04  0.25500000920E-02 0.  1.
    10030    2    1    2    0    0  0.00000000000E+00  0.00000000000E+00 -0.97935946370E+03  0.12637780651E+04  0.79874278626E+03 0.  0.
        5    1    3    3  502    0  0.14226637845E+03  0.26786868072E+03 -0.78664371052E+02  0.31337441794E+03  0.46999998093E+01 0. -1.
       -5    1    3    3    0  502 -0.14226637845E+03 -0.26786868072E+03 -0.90069509265E+03  0.95040364713E+03  0.46999998093E+01 0.  1.
</event>
<event>
 5   0  0.3550586E-02  0.8206020E+03  0.7818609E-02  0.9530666E-01
        2   -1    0    0  501    0  0.00000000000E+00  0.00000000000E+00  0.82431888336E+03  0.82431888337E+03  0.25500000920E-02 0. -1.
       -2   -1    0    0    0  501  0.00000000000E+00  0.00000000000E+00 -0.20422546417E+03  0.20422546419E+03  0.25500000920E-02 0.  1.
    10030    2    1    2    0    0  0.00000000000E+00  0.00000000000E+00  0.62009341919E+03  0.10285443476E+04  0.82060199022E+03 0.  0.
        3    1    3    3  502    0  0.19628255302E+03  0.91120101662E+01  0.76150998361E+03  0.78645237280E+03  0.10100000352E+00 0. -1.
       -3    1    3    3    0  502 -0.19628255302E+03 -0.91120101662E+01 -0.14141656442E+03  0.24209197475E+03  0.10100000352E+00 0.  1.
</event>
<event>
 5   0  0.2063692E-02  0.9301339E+03  0.7818609E-02  0.9388677E-01
        1   -1    0    0  501    0  0.00000000000E+00  0.00000000000E+00  0.42128805016E+03  0.42128805019E+03  0.50400001928E-02 0. -1.
       -1   -1    0    0    0  501  0.00000000000E+00  0.00000000000E+00 -0.51339519839E+03  0.51339519841E+03  0.50400001928E-02 0.  1.
    10030    2    1    2    0    0  0.00000000000E+00  0.00000000000E+00 -0.92107148224E+02  0.93468324860E+03  0.93013388738E+03 0.  0.
        2    1    3    3  502    0  0.43778408966E+03  0.14874261411E+03  0.42711836769E+01  0.46238243633E+03  0.25500000920E-02 0.  1.
       -2    1    3    3    0  502 -0.43778408966E+03 -0.14874261411E+03 -0.96378331901E+02  0.47230081227E+03  0.25500000920E-02 0. -1.
</event>
<event>
 5   0  0.2063692E-02  0.7746693E+03  0.7818609E-02  0.9597424E-01
       -1   -1    0    0    0  501  0.00000000000E+00  0.00000000000E+00  0.24242418892E+03  0.24242418897E+03  0.50400001928E-02 0.  1.
        1   -1    0    0  501    0  0.00000000000E+00  0.00000000000E+00 -0.61886613550E+03  0.61886613552E+03  0.50400001928E-02 0. -1.
    10030    2    1    2    0    0  0.00000000000E+00  0.00000000000E+00 -0.37644194658E+03  0.86129032449E+03  0.77466927389E+03 0.  0.
        2    1    3    3  502    0  0.20192054653E+03 -0.32806538450E+03 -0.14334270610E+03  0.41103033345E+03  0.25500000920E-02 0.  1.
       -2    1    3    3    0  502 -0.20192054653E+03  0.32806538450E+03 -0.23309924048E+03  0.45025999104E+03  0.25500000920E-02 0. -1.
</event>
<event>
 5   0  0.1358000E-02  0.7881178E+03  0.7818609E-02  0.9577377E-01
       -3   -1    0    0    0  501  0.00000000000E+00  0.00000000000E+00  0.18223420464E+03  0.18223423263E+03  0.10100000352E+00 0.  1.
        3   -1    0    0  501    0  0.00000000000E+00  0.00000000000E+00 -0.85210341795E+03  0.85210342394E+03  0.10100000352E+00 0. -1.
    10030    2    1    2    0    0  0.00000000000E+00  0.00000000000E+00 -0.66986921331E+03  0.10343376566E+04  0.78811777347E+03 0.  0.
        5    1    3    3  502    0 -0.70830224220E+02 -0.27238271839E+03  0.26994759646E+02  0.28277212201E+03  0.46999998093E+01 0.  1.
       -5    1    3    3    0  502  0.70830224220E+02  0.27238271839E+03 -0.69686397296E+03  0.75156553456E+03  0.46999998093E+01 0. -1.
</event>
<event>
 5   0  0.2077795E-02  0.8234448E+03  0.7818609E-02  0.9526688E-01
       -1   -1    0    0    0  501  0.00000000000E+00  0.00000000000E+00  0.22660738813E+03  0.22660738819E+03  0.50400001928E-02 0.  1.
        1   -1    0    0  501    0  0.00000000000E+00  0.00000000000E+00 -0.74805740643E+03  0.74805740645E+03  0.50400001928E-02 0. -1.
    10030    2    1    2    0    0  0.00000000000E+00  0.00000000000E+00 -0.52145001830E+03  0.97466479463E+03  0.82344480101E+03 0.  0.
        5    1    3    3  502    0 -0.37723412437E+02  0.14763880703E+03 -0.71341702006E+03  0.72952464502E+03  0.46999998093E+01 0. -1.
       -5    1    3    3    0  502  0.37723412437E+02 -0.14763880703E+03  0.19196700176E+03  0.24514014961E+03  0.46999998093E+01 0.  1.
</event>
<event>
 5   0  0.3467240E-02  0.7959130E+03  0.7818609E-02  0.9565952E-01
        2   -1    0    0  501    0  0.00000000000E+00  0.00000000000E+00  0.36166563972E+03  0.36166563973E+03  0.25500000920E-02 0.  1.
       -2   -1    0    0    0  501  0.00000000000E+00  0.00000000000E+00 -0.43788890442E+03  0.43788890442E+03  0.25500000920E-02 0. -1.
    10030    2    1    2    0    0  0.00000000000E+00  0.00000000000E+00 -0.76223264699E+02  0.79955454415E+03  0.79591298707E+03 0.  0.
        2    1    3    3  502    0 -0.38323738458E+03 -0.91463234912E+02  0.18117262262E+02  0.39441684989E+03  0.25500000920E-02 0.  1.
       -2    1    3    3    0  502  0.38323738458E+03  0.91463234912E+02 -0.94340526961E+02  0.40513769426E+03  0.25500000920E-02 0. -1.
</event>
<event>
 5   0  0.3467240E-02  0.7896830E+03  0.7818609E-02  0.9575072E-01
        2   -1    0    0  501    0  0.00000000000E+00  0.00000000000E+00  0.12726620669E+04  0.12726620669E+04  0.25500000920E-02 0.  1.
       -2   -1    0    0    0  501  0.00000000000E+00  0.00000000000E+00 -0.12249898319E+03  0.12249898322E+03  0.25500000920E-02 0. -1.
    10030    2    1    2    0    0  0.00000000000E+00  0.00000000000E+00  0.11501630837E+04  0.13951610501E+04  0.78968299757E+03 0.  0.
        2    1    3    3  502    0 -0.80574179051E+02 -0.35941893327E+03  0.32382191793E+03  0.49044347530E+03  0.25500000920E-02 0. -1.
       -2    1    3    3    0  502  0.80574179051E+02  0.35941893327E+03  0.82634116579E+03  0.90471757484E+03  0.25500000920E-02 0.  1.
</event>
<event>
 5   0  0.2129257E-02  0.8066896E+03  0.7818609E-02  0.9550384E-01
       -1   -1    0    0    0  501  0.00000000000E+00  0.00000000000E+00  0.27868683737E+03  0.27868683741E+03  0.50400001928E-02 0. -1.
        1   -1    0    0  501    0  0.00000000000E+00  0.00000000000E+00 -0.58376289519E+03  0.58376289521E+03  0.50400001928E-02 0.  1.
    10030    2    1    2    0    0  0.00000000000E+00  0.00000000000E+00 -0.30507605782E+03  0.86244973262E+03  0.80668961828E+03 0.  0.
        3    1    3    3  502    0 -0.18569221677E+03 -0.19519929348E+02 -0.53477632974E+03  0.56643478007E+03  0.10100000352E+00 0.  1.
       -3    1    3    3    0  502  0.18569221677E+03  0.19519929348E+02  0.22970027193E+03  0.29601495255E+03  0.10100000352E+00 0. -1.
</event>
<event>
 5   0  0.3343036E-02  0.8043928E+03  0.7818609E-02  0.9553680E-01
       -2   -1    0    0    0  501  0.00000000000E+00  0.00000000000E+00  0.19255726537E+03  0.19255726539E+03  0.25500000920E-02 0. -1.
        2   -1    0    0  501    0  0.00000000000E+00  0.00000000000E+00 -0.84007193562E+03  0.84007193563E+03  0.25500000920E-02 0.  1.
    10030    2    1    2    0    0  0.00000000000E+00  0.00000000000E+00 -0.64751467025E+03  0.10326292010E+04  0.80439282605E+03 0.  0.
        4    1    3    3  502    0  0.14646009860E+03 -0.23023454849E+03  0.55547079005E+02  0.27847010376E+03  0.12699999809E+01 0. -1.
       -4    1    3    3    0  502 -0.14646009860E+03  0.23023454849E+03 -0.70306174926E+03  0.75415909726E+03  0.12699999809E+01 0.  1.
</event>
<event>
 5   0  0.1989298E-02  0.7993599E+03  0.7818609E-02  0.9560944E-01
       -1   -1    0    0    0  501  0.00000000000E+00  0.00000000000E+00  0.54266933224E+03  0.54266933226E+03  0.50400001928E-02 0. -1.
        1   -1    0    0  501    0  0.00000000000E+00  0.00000000000E+00 -0.29436724167E+03  0.29436724172E+03  0.50400001928E-02 0.  1.
    10030    2    1    2    0    0  0.00000000000E+00  0.00000000000E+00  0.24830209057E+03  0.83703657398E+03  0.79935993020E+03 0.  0.
        1    1    3    3  502    0 -0.27477243290E+03 -0.81823104027E+02 -0.16745103718E+03  0.33201620460E+03  0.50400001928E-02 0.  1.
       -1    1    3    3    0  502  0.27477243290E+03  0.81823104027E+02  0.41575312775E+03  0.50502036939E+03  0.50400001928E-02 0. -1.
</event>
<event>
 5   0  0.3467240E-02  0.7666345E+03  0.7818609E-02  0.9609609E-01
        2   -1    0    0  501    0  0.00000000000E+00  0.00000000000E+00  0.49735698763E+03  0.49735698763E+03  0.25500000920E-02 0. -1.
       -2   -1    0    0    0  501  0.00000000000E+00  0.00000000000E+00 -0.29542582998E+03  0.29542582999E+03  0.25500000920E-02 0.  1.
    10030    2    1    2    0    0  0.00000000000E+00  0.00000000000E+00  0.20193115764E+03  0.79278281762E+03  0.76663446537E+03 0.  0.
        2    1    3    3  502    0  0.68298482738E+02  0.32131437063E+02  0.48959622001E+03  0.49538022836E+03  0.25500000920E-02 0. -1.
       -2    1    3    3    0  502 -0.68298482738E+02 -0.32131437063E+02 -0.28766506237E+03  0.29740258927E+03  0.25500000920E-02 0.  1.
</event>
<event>
 5   0  0.2129257E-02  0.7963715E+03  0.7818609E-02  0.9565284E-01
        1   -1    0    0  501    0  0.00000000000E+00  0.00000000000E+00  0.45904694061E+03  0.45904694063E+03  0.50400001928E-02 0. -1.
       -1   -1    0    0    0  501  0.00000000000E+00  0.00000000000E+00 -0.34539360282E+03  0.34539360286E+03  0.50400001928E-02 0.  1.
    10030    2    1    2    0    0  0.00000000000E+00  0.00000000000E+00  0.11365333779E+03  0.80444054349E+03  0.79637146284E+03 0.  0.
        3    1    3    3  502    0  0.27077109170E+03  0.14499696932E+03  0.31279260369E+03  0.43838376833E+03  0.10100000352E+00 0. -1.
       -3    1    3    3    0  502 -0.27077109170E+03 -0.14499696932E+03 -0.19913926591E+03  0.36605677516E+03  0.10100000352E+00 0.  1.
</event>
<event>
 5   0  0.1358000E-02  0.8356523E+03  0.7818609E-02  0.9509799E-01
       -3   -1    0    0    0  501  0.00000000000E+00  0.00000000000E+00  0.85557059861E+03  0.85557060457E+03  0.10100000352E+00 0. -1.
        3   -1    0    0  501    0  0.00000000000E+00  0.00000000000E+00 -0.20404939063E+03  0.20404941563E+03  0.10100000352E+00 0.  1.
    10030    2    1    2    0    0  0.00000000000E+00  0.00000000000E+00  0.65152120797E+03  0.10596200202E+04  0.83565226187E+03 0.  0.
        5    1    3    3  502    0  0.66468716735E+02 -0.31879882306E+02 -0.19570399605E+03  0.20918069048E+03  0.46999998093E+01 0.  1.
       -5    1    3    3    0  502 -0.66468716735E+02  0.31879882306E+02  0.84722520403E+03  0.85043932972E+03  0.46999998093E+01 0. -1.
</event>
<event>
 5   0  0.3416160E-02  0.8078761E+03  0.7818609E-02  0.9548686E-01
        2   -1    0    0  501    0  0.00000000000E+00  0.00000000000E+00  0.55741359777E+03  0.55741359778E+03  0.25500000920E-02 0. -1.
       -2   -1    0    0    0  501  0.00000000000E+00  0.00000000000E+00 -0.29271968580E+03  0.29271968581E+03  0.25500000920E-02 0.  1.
    10030    2    1    2    0    0  0.00000000000E+00  0.00000000000E+00  0.26469391197E+03  0.85013328359E+03  0.80787606280E+03 0.  0.
        1    1    3    3  502    0 -0.21861196741E+03  0.33397576647E+03  0.67180980083E+02  0.40477683851E+03  0.50400001928E-02 0.  1.
       -1    1    3    3    0  502  0.21861196741E+03 -0.33397576647E+03  0.19751293189E+03  0.44535644508E+03  0.50400001928E-02 0. -1.
</event>
<event>
 5   0  0.3404132E-02  0.7964587E+03  0.7818609E-02  0.9565157E-01
       -2   -1    0    0    0  501  0.00000000000E+00  0.00000000000E+00  0.39222344502E+03  0.39222344502E+03  0.25500000920E-02 0.  1.
        2   -1    0    0  501    0  0.00000000000E+00  0.00000000000E+00 -0.40432726137E+03  0.40432726138E+03  0.25500000920E-02 0. -1.
    10030    2    1    2    0    0  0.00000000000E+00  0.00000000000E+00 -0.12103816354E+02  0.79655070640E+03  0.79645874061E+03 0.  0.
        5    1    3    3  502    0  0.43410047094E+02  0.36345881059E+03 -0.16284310193E+03  0.40065784034E+03  0.46999998093E+01 0. -1.
       -5    1    3    3    0  502 -0.43410047094E+02 -0.36345881059E+03  0.15073928557E+03  0.39589286606E+03  0.46999998093E+01 0.  1.
</event>
<event>
 5   0  0.1989298E-02  0.8025623E+03  0.7818609E-02  0.9556316E-01
       -1   -1    0    0    0  501  0.00000000000E+00  0.00000000000E+00  0.36013420938E+03  0.36013420942E+03  0.50400001928E-02 0. -1.
        1   -1    0    0  501    0  0.00000000000E+00  0.00000000000E+00 -0.44712934435E+03  0.44712934437E+03  0.50400001928E-02 0.  1.
    10030    2    1    2    0    0  0.00000000000E+00  0.00000000000E+00 -0.86995134961E+02  0.80726355379E+03  0.80256232890E+03 0.  0.
        1    1    3    3  502    0  0.14598565098E+03 -0.66295402211E+02 -0.41351063278E+03  0.44350640818E+03  0.50400001928E-02 0.  1.
       -1    1    3    3    0  502 -0.14598565098E+03  0.66295402211E+02  0.32651549782E+03  0.36375714562E+03  0.50400001928E-02 0. -1.
</event>
<event>
 5   0  0.2063692E-02  0.7880169E+03  0.7818609E-02  0.9577526E-01
       -1   -1    0    0    0  501  0.00000000000E+00  0.00000000000E+00  0.12905990142E+04  0.12905990142E+04  0.50400001928E-02 0. -1.
        1   -1    0    0  501    0  0.00000000000E+00  0.00000000000E+00 -0.12028729412E+03  0.12028729423E+03  0.50400001928E-02 0.  1.
    10030    2    1    2    0    0  0.00000000000E+00  0.00000000000E+00  0.11703117201E+04  0.14108863084E+04  0.78801691174E+03 0.  0.
        2    1    3    3  502    0 -0.16624116364E+03 -0.73996350204E+02 -0.40549071450E+02  0.18642910592E+03  0.25500000920E-02 0.  1.
       -2    1    3    3    0  502  0.16624116364E+03  0.73996350204E+02  0.12108607915E+04  0.12244572025E+04  0.25500000920E-02 0. -1.
</event>
<event>
 5   0  0.2132540E-02  0.8038019E+03  0.7818609E-02  0.9554530E-01
       -1   -1    0    0    0  501  0.00000000000E+00  0.00000000000E+00  0.51782918812E+03  0.51782918814E+03  0.50400001928E-02 0.  1.
        1   -1    0    0  501    0  0.00000000000E+00  0.00000000000E+00 -0.31192600935E+03  0.31192600939E+03  0.50400001928E-02 0. -1.
    10030    2    1    2    0    0  0.00000000000E+00  0.00000000000E+00  0.20590317876E+03  0.82975519754E+03  0.80380194626E+03 0.  0.
        4    1    3    3  502    0  0.21554869750E+03 -0.13403731107E+03 -0.21871100711E+03  0.33505724777E+03  0.12699999809E+01 0. -1.
       -4    1    3    3    0  502 -0.21554869750E+03  0.13403731107E+03  0.42461418587E+03  0.49469794976E+03  0.12699999809E+01 0.  1.
</event>
<event>
 5   0  0.3467240E-02  0.7875682E+03  0.7818609E-02  0.9578188E-01
        2   -1    0    0  501    0  0.00000000000E+00  0.00000000000E+00  0.53788606333E+03  0.53788606334E+03  0.25500000920E-02 0.  1.
       -2   -1    0    0    0  501  0.00000000000E+00  0.00000000000E+00 -0.28828764594E+03  0.28828764595E+03  0.25500000920E-02 0. -1.
    10030    2    1    2    0    0  0.00000000000E+00  0.00000000000E+00  0.24959841739E+03  0.82617370929E+03  0.78756817353E+03 0.  0.
        2    1    3    3  502    0  0.23857913117E+02  0.33639701562E+03  0.33807209320E+03  0.47751952037E+03  0.25500000920E-02 0.  1.
       -2    1    3    3    0  502 -0.23857913117E+02 -0.33639701562E+03 -0.88473675802E+02  0.34865418892E+03  0.25500000920E-02 0. -1.
</event>
<event>
 5   0  0.3467240E-02  0.7944795E+03  0.7818609E-02  0.9568042E-01
        2   -1    0    0  501    0  0.00000000000E+00  0.00000000000E+00  0.68139266300E+03  0.68139266301E+03  0.25500000920E-02 0. -1.
       -2   -1    0    0    0  501  0.00000000000E+00  0.00000000000E+00 -0.23158370427E+03  0.23158370428E+03  0.25500000920E-02 0.  1.
    10030    2    1    2    0    0  0.00000000000E+00  0.00000000000E+00  0.44980895874E+03  0.91297636729E+03  0.79447954528E+03 0.  0.
        2    1    3    3  502    0 -0.22621189514E+03  0.59832894959E+02  0.59379359465E+03  0.63823399304E+03  0.25500000920E-02 0. -1.
       -2    1    3    3    0  502  0.22621189514E+03 -0.59832894959E+02 -0.14398463591E+03  0.27474237425E+03  0.25500000920E-02 0.  1.
</event>
<event>
 5   0  0.3343036E-02  0.6821811E+03  0.7818609E-02  0.9748200E-01
       -2   -1    0    0    0  501  0.00000000000E+00  0.00000000000E+00  0.16835228427E+03  0.16835228429E+03  0.25500000920E-02 0. -1.
        2   -1    0    0  501    0  0.00000000000E+00  0.00000000000E+00 -0.69106727318E+03  0.69106727318E+03  0.25500000920E-02 0.  1.
    10030    2    1    2    0    0  0.00000000000E+00  0.00000000000E+00 -0.52271498890E+03  0.85941955747E+03  0.68218107284E+03 0.  0.
        4    1    3    3  502    0  0.12558259787E+03 -0.19871375960E+03  0.50004589098E+02  0.24033355774E+03  0.12699999809E+01 0. -1.
       -4    1    3    3    0  502 -0.12558259787E+03  0.19871375960E+03 -0.57271957800E+03  0.61908599974E+03  0.12699999809E+01 0.  1.
</event>
<event>
 5   0  0.3404132E-02  0.8003369E+03  0.7818609E-02  0.9559530E-01
       -2   -1    0    0    0  501  0.00000000000E+00  0.00000000000E+00  0.15106530023E+03  0.15106530025E+03  0.25500000920E-02 0.  1.
        2   -1    0    0  501    0  0.00000000000E+00  0.00000000000E+00 -0.10600369484E+04  0.10600369484E+04  0.25500000920E-02 0. -1.
    10030    2    1    2    0    0  0.00000000000E+00  0.00000000000E+00 -0.90897164819E+03  0.12111022487E+04  0.80033692876E+03 0.  0.
        5    1    3    3  502    0  0.29268058477E+03 -0.11318008032E+03 -0.83018737194E+03  0.88752736172E+03  0.46999998093E+01 0. -1.
       -5    1    3    3    0  502 -0.29268058477E+03  0.11318008032E+03 -0.78784276249E+02  0.32357488695E+03  0.46999998093E+01 0.  1.
</event>
<event>
 5   0  0.3467240E-02  0.7834287E+03  0.7818609E-02  0.9584318E-01
       -2   -1    0    0    0  501  0.00000000000E+00  0.00000000000E+00  0.68639051122E+02  0.68639051169E+02  0.25500000920E-02 0.  1.
        2   -1    0    0  501    0  0.00000000000E+00  0.00000000000E+00 -0.22354637865E+04  0.22354637865E+04  0.25500000920E-02 0. -1.
    10030    2    1    2    0    0  0.00000000000E+00  0.00000000000E+00 -0.21668247354E+04  0.23041028377E+04  0.78342865196E+03 0.  0.
        2    1    3    3  502    0 -0.98750861280E+02  0.27009294157E+03 -0.18656331669E+04  0.18876676199E+04  0.25500000920E-02 0. -1.
       -2    1    3    3    0  502  0.98750861280E+02 -0.27009294157E+03 -0.30119156848E+03  0.41643521779E+03  0.25500000920E-02 0.  1.
</event>
<event>
 5   0  0.3416160E-02  0.8747142E+03  0.7818609E-02  0.9457754E-01
       -2   -1    0    0    0  501  0.00000000000E+00  0.00000000000E+00  0.76305561143E+03  0.76305561143E+03  0.25500000920E-02 0. -1.
        2   -1    0    0  501    0  0.00000000000E+00  0.00000000000E+00 -0.25067798293E+03  0.25067798294E+03  0.25500000920E-02 0.  1.
    10030    2    1    2    0    0  0.00000000000E+00  0.00000000000E+00  0.51237762850E+03  0.10137335944E+04  0.87471421972E+03 0.  0.
        1    1    3    3  502    0 -0.74171084349E+02 -0.40215234539E+03  0.43592922687E+03  0.59771410350E+03  0.50400001928E-02 0.  1.
       -1    1    3    3    0  502  0.74171084349E+02  0.40215234539E+03  0.76448401625E+02  0.41601949088E+03  0.50400001928E-02 0. -1.
</event>
<event>
 5   0  0.3343036E-02  0.8063011E+03  0.7818609E-02  0.9550941E-01
        2   -1    0    0  501    0  0.00000000000E+00  0.00000000000E+00  0.64779535459E+03  0.64779535459E+03  0.25500000920E-02 0.  1.
       -2   -1    0    0    0  501  0.00000000000E+00  0.00000000000E+00 -0.25089767293E+03  0.25089767295E+03  0.25500000920E-02 0. -1.
    10030    2    1    2    0    0  0.00000000000E+00  0.00000000000E+00  0.39689768165E+03  0.89869302754E+03  0.80630105299E+03 0.  0.
        4    1    3    3  502    0  0.25499756455E+03 -0.21072172846E+02  0.54569415275E+03  0.60270350558E+03  0.12699999809E+01 0.  1.
       -4    1    3    3    0  502 -0.25499756455E+03  0.21072172846E+02 -0.14879647110E+03  0.29598952195E+03  0.12699999809E+01 0. -1.
</event>
<event>
 5   0  0.3343036E-02  0.7944891E+03  0.7818609E-02  0.9568028E-01
       -2   -1    0    0    0  501  0.00000000000E+00  0.00000000000E+00  0.43875196905E+03  0.43875196906E+03  0.25500000920E-02 0.  1.
        2   -1    0    0  501    0  0.00000000000E+00  0.00000000000E+00 -0.35966391211E+03  0.35966391212E+03  0.25500000920E-02 0. -1.
    10030    2    1    2    0    0  0.00000000000E+00  0.00000000000E+00  0.79088056947E+02  0.79841588118E+03  0.79448914314E+03 0.  0.
        4    1    3    3  502    0 -0.22514082312E+03 -0.14652947656E+03  0.33363758587E+03  0.42833973589E+03  0.12699999809E+01 0.  1.
       -4    1    3    3    0  502  0.22514082312E+03  0.14652947656E+03 -0.25454952893E+03  0.37007614529E+03  0.12699999809E+01 0. -1.
</event>
<event>
 5   0  0.3404132E-02  0.7960017E+03  0.7818609E-02  0.9565823E-01
        2   -1    0    0  501    0  0.00000000000E+00  0.00000000000E+00  0.10673277676E+04  0.10673277676E+04  0.25500000920E-02 0.  1.
       -2   -1    0    0    0  501  0.00000000000E+00  0.00000000000E+00 -0.14841241797E+03  0.14841241800E+03  0.25500000920E-02 0. -1.
    10030    2    1    2    0    0  0.00000000000E+00  0.00000000000E+00  0.91891534958E+03  0.12157401856E+04  0.79600174565E+03 0.  0.
        5    1    3    3  502    0  0.71807645071E+02 -0.13073586667E+02  0.10569756944E+04  0.10595031690E+04  0.46999998093E+01 0.  1.
       -5    1    3    3    0  502 -0.71807645071E+02  0.13073586667E+02 -0.13806034478E+03  0.15623701660E+03  0.46999998093E+01 0. -1.
</event>
<event>
 5   0  0.2063692E-02  0.7838949E+03  0.7818609E-02  0.9583626E-01
        1   -1    0    0  501    0  0.00000000000E+00  0.00000000000E+00  0.92836837776E+03  0.92836837777E+03  0.50400001928E-02 0.  1.
       -1   -1    0    0    0  501  0.00000000000E+00  0.00000000000E+00 -0.16547613116E+03  0.16547613123E+03  0.50400001928E-02 0. -1.
    10030    2    1    2    0    0  0.00000000000E+00  0.00000000000E+00  0.76289224660E+03  0.10938445090E+04  0.78389491003E+03 0.  0.
        2    1    3    3  502    0 -0.12613514351E+03  0.28596744056E+03  0.51425599121E+02  0.31675233817E+03  0.25500000920E-02 0. -1.
       -2    1    3    3    0  502  0.12613514351E+03 -0.28596744056E+03  0.71146664748E+03  0.77709217083E+03  0.25500000920E-02 0.  1.
</event>
<event>
 5   0  0.3404132E-02  0.7651668E+03  0.7818609E-02  0.9611852E-01
        2   -1    0    0  501    0  0.00000000000E+00  0.00000000000E+00  0.35454751359E+03  0.35454751360E+03  0.25500000920E-02 0.  1.
       -2   -1    0    0    0  501  0.00000000000E+00  0.00000000000E+00 -0.41283625375E+03  0.41283625376E+03  0.25500000920E-02 0. -1.
    10030    2    1    2    0    0  0.00000000000E+00  0.00000000000E+00 -0.58288740156E+02  0.76738376736E+03  0.76516682441E+03 0.  0.
        5    1    3    3  502    0  0.37552404431E+03  0.64245757563E+02 -0.63916891351E+02  0.38633312597E+03  0.46999998093E+01 0.  1.
       -5    1    3    3    0  502 -0.37552404431E+03 -0.64245757563E+02  0.56281511941E+01  0.38105064139E+03  0.46999998093E+01 0. -1.
</event>
<event>
 5   0  0.3550586E-02  0.7881341E+03  0.7818609E-02  0.9577353E-01
       -2   -1    0    0    0  501  0.00000000000E+00  0.00000000000E+00  0.14722463702E+03  0.14722463704E+03  0.25500000920E-02 0.  1.
        2   -1    0    0  501    0  0.00000000000E+00  0.00000000000E+00 -0.10547746966E+04  0.10547746966E+04  0.25500000920E-02 0. -1.
    10030    2    1    2    0    0  0.00000000000E+00  0.00000000000E+00 -0.90755005960E+03  0.12019993337E+04  0.78813405423E+03 0.  0.
        3    1    3    3  502    0 -0.19399006295E+02 -0.86045638370E+02 -0.10395257897E+04  0.10432612573E+04  0.10100000352E+00 0. -1.
       -3    1    3    3    0  502  0.19399006295E+02  0.86045638370E+02  0.13197573014E+03  0.15873807632E+03  0.10100000352E+00 0.  1.
</event>
<event>
 5   0  0.1358000E-02  0.7852333E+03  0.7818609E-02  0.9581641E-01
       -4   -1    0    0    0  501  0.00000000000E+00  0.00000000000E+00  0.21190435462E+03  0.21190816032E+03  0.12699999809E+01 0. -1.
        4   -1    0    0  501    0  0.00000000000E+00  0.00000000000E+00 -0.72742979194E+03  0.72743090056E+03  0.12699999809E+01 0.  1.
    10030    2    1    2    0    0  0.00000000000E+00  0.00000000000E+00 -0.51552543731E+03  0.93933906088E+03  0.78523333779E+03 0.  0.
        2    1    3    3  502    0 -0.25153790077E+02 -0.42358904078E+02 -0.72372021018E+03  0.72539501828E+03  0.25500000920E-02 0.  1.
       -2    1    3    3    0  502  0.25153790077E+02  0.42358904078E+02  0.20819477287E+03  0.21394404260E+03  0.25500000920E-02 0. -1.
</event>
<event>
 5   0  0.1989298E-02  0.6736977E+03  0.7818609E-02  0.9763301E-01
       -1   -1    0    0    0  501  0.00000000000E+00  0.00000000000E+00  0.15692601114E+03  0.15692601122E+03  0.50400001928E-02 0. -1.
        1   -1    0    0  501    0  0.00000000000E+00  0.00000000000E+00 -0.72306136713E+03  0.72306136715E+03  0.50400001928E-02 0.  1.
    10030    2    1    2    0    0  0.00000000000E+00  0.00000000000E+00 -0.56613535599E+03  0.87998737837E+03  0.67369766571E+03 0.  0.
        1    1    3    3  502    0 -0.84301985535E+02  0.88009060349E+02  0.12711967529E+03  0.17610176416E+03  0.50400001928E-02 0. -1.
       -1    1    3    3    0  502  0.84301985535E+02 -0.88009060349E+02 -0.69325503128E+03  0.70388561421E+03  0.50400001928E-02 0.  1.
</event>
<event>
 5   0  0.2077795E-02  0.7789570E+03  0.7818609E-02  0.9590986E-01
        1   -1    0    0  501    0  0.00000000000E+00  0.00000000000E+00  0.94912253645E+03  0.94912253646E+03  0.50400001928E-02 0. -1.
       -1   -1    0    0    0  501  0.00000000000E+00  0.00000000000E+00 -0.15982497166E+03  0.15982497174E+03  0.50400001928E-02 0.  1.
    10030    2    1    2    0    0  0.00000000000E+00  0.00000000000E+00  0.78929756479E+03  0.11089475082E+04  0.77895695014E+03 0.  0.
        5    1    3    3  502    0 -0.84498174360E+02 -0.33288576802E+01  0.93585411215E+03  0.93967868551E+03  0.46999998093E+01 0. -1.
       -5    1    3    3    0  502  0.84498174360E+02  0.33288576802E+01 -0.14655654736E+03  0.16926882270E+03  0.46999998093E+01 0.  1.
</event>
<event>
 5   0  0.2077795E-02  0.8163011E+03  0.7818609E-02  0.9536717E-01
       -1   -1    0    0    0  501  0.00000000000E+00  0.00000000000E+00  0.11094557403E+03  0.11094557414E+03  0.50400001928E-02 0.  1.
        1   -1    0    0  501    0  0.00000000000E+00  0.00000000000E+00 -0.15015190009E+04  0.15015190009E+04  0.50400001928E-02 0. -1.
    10030    2    1    2    0    0  0.00000000000E+00  0.00000000000E+00 -0.13905734268E+04  0.16124645750E+04  0.81630113944E+03 0.  0.
        5    1    3    3  502    0  0.26391823129E+03 -0.75661565607E+02 -0.98791532489E+02  0.29182077070E+03  0.46999998093E+01 0.  1.
       -5    1    3    3    0  502 -0.26391823129E+03  0.75661565607E+02 -0.12917818943E+04  0.13206438043E+04  0.46999998093E+01 0. -1.
</event>
<event>
 5   0  0.1358000E-02  0.1062831E+04  0.7818609E-02  0.9242196E-01
       -3   -1    0    0    0  501  0.00000000000E+00  0.00000000000E+00  0.32173045711E+03  0.32173047297E+03  0.10100000352E+00 0. -1.
        3   -1    0    0  501    0  0.00000000000E+00  0.00000000000E+00 -0.87776167363E+03  0.87776167944E+03  0.10100000352E+00 0.  1.
    10030    2    1    2    0    0  0.00000000000E+00  0.00000000000E+00 -0.55603121651E+03  0.11994921524E+04  0.10628314589E+04 0.  0.
        3    1    3    3  502    0  0.46227140088E+03  0.10927182496E+03 -0.54691068256E+03  0.72439387401E+03  0.10100000352E+00 0.  1.
       -3    1    3    3    0  502 -0.46227140088E+03 -0.10927182496E+03 -0.91205339546E+01  0.47509827840E+03  0.10100000352E+00 0. -1.
</event>
<event>
 5   0  0.3416160E-02  0.8103080E+03  0.7818609E-02  0.9545215E-01
       -2   -1    0    0    0  501  0.00000000000E+00  0.00000000000E+00  0.90601830740E+02  0.90601830775E+02  0.25500000920E-02 0.  1.
        2   -1    0    0  501    0  0.00000000000E+00  0.00000000000E+00 -0.18117708329E+04  0.18117708329E+04  0.25500000920E-02 0. -1.
    10030    2    1    2    0    0  0.00000000000E+00  0.00000000000E+00 -0.17211690022E+04  0.19023726637E+04  0.81030797696E+03 0.  0.
        1    1    3    3  502    0  0.17230959723E+03  0.27157491008E+03 -0.28213946707E+03  0.42783899774E+03  0.50400001928E-02 0.  1.
       -1    1    3    3    0  502 -0.17230959723E+03 -0.27157491008E+03 -0.14390295351E+04  0.14745336660E+04  0.50400001928E-02 0. -1.
</event>
<event>
 5   0  0.3416160E-02  0.7043978E+03  0.7818609E-02  0.9709741E-01
        2   -1    0    0  501    0  0.00000000000E+00  0.00000000000E+00  0.41933127021E+03  0.41933127022E+03  0.25500000920E-02 0.  1.
       -2   -1    0    0    0  501  0.00000000000E+00  0.00000000000E+00 -0.29581398672E+03  0.29581398673E+03  0.25500000920E-02 0. -1.
    10030    2    1    2    0    0  0.00000000000E+00  0.00000000000E+00  0.12351728350E+03  0.71514525695E+03  0.70439777059E+03 0.  0.
        1    1    3    3  502    0  0.76203835754E+02 -0.10686885105E+03 -0.27005528151E+03  0.30026293645E+03  0.50400001928E-02 0. -1.
       -1    1    3    3    0  502 -0.76203835754E+02  0.10686885105E+03  0.39357256501E+03  0.41488232050E+03  0.50400001928E-02 0.  1.
</event>
<event>
 5   0  0.2132540E-02  0.8049844E+03  0.7818609E-02  0.9552830E-01
        1   -1    0    0  501    0  0.00000000000E+00  0.00000000000E+00  0.31083453207E+03  0.31083453211E+03  0.50400001928E-02 0. -1.
       -1   -1    0    0    0  501  0.00000000000E+00  0.00000000000E+00 -0.52117754921E+03  0.52117754924E+03  0.50400001928E-02 0.  1.
    10030    2    1    2    0    0  0.00000000000E+00  0.00000000000E+00 -0.21034301714E+03  0.83201208135E+03  0.80498442137E+03 0.  0.
        4    1    3    3  502    0  0.27037684384E+03 -0.20373457501E+03 -0.33016582345E+03  0.47288740585E+03  0.12699999809E+01 0.  1.
       -4    1    3    3    0  502 -0.27037684384E+03  0.20373457501E+03  0.11982280630E+03  0.35912467550E+03  0.12699999809E+01 0. -1.
</event>
<event>
 5   0  0.3467240E-02  0.8022559E+03  0.7818609E-02  0.9556757E-01
        2   -1    0    0  501    0  0.00000000000E+00  0.00000000000E+00  0.41807608325E+03  0.41807608326E+03  0.25500000920E-02 0.  1.
       -2   -1    0    0    0  501  0.00000000000E+00  0.00000000000E+00 -0.38486690676E+03  0.38486690677E+03  0.25500000920E-02 0. -1.
    10030    2    1    2    0    0  0.00000000000E+00  0.00000000000E+00  0.33209176489E+02  0.80294299003E+03  0.80225594160E+03 0.  0.
        2    1    3    3  502    0  0.65555274418E+02  0.32727019784E+03  0.23928191680E+03  0.41068127802E+03  0.25500000920E-02 0.  1.
       -2    1    3    3    0  502 -0.65555274418E+02 -0.32727019784E+03 -0.20607274031E+03  0.39226171201E+03  0.25500000920E-02 0. -1.
</event>
<event>
 5   0  0.1358000E-02  0.7140634E+03  0.7818609E-02  0.9693480E-01
       -3   -1    0    0    0  501  0.00000000000E+00  0.00000000000E+00  0.19922441240E+03  0.19922443801E+03  0.10100000352E+00 0. -1.
        3   -1    0    0  501    0  0.00000000000E+00  0.00000000000E+00 -0.63983930225E+03  0.63983931022E+03  0.10100000352E+00 0.  1.
    10030    2    1    2    0    0  0.00000000000E+00  0.00000000000E+00 -0.44061488985E+03  0.83906374823E+03  0.71406336724E+03 0.  0.
        2    1    3    3  502    0 -0.10237007382E+03 -0.33898881929E+03 -0.16673509626E+03  0.39139959626E+03  0.25500000920E-02 0. -1.
       -2    1    3    3    0  502  0.10237007382E+03  0.33898881929E+03 -0.27387979359E+03  0.44766415197E+03  0.25500000920E-02 0.  1.
</event>
<event>
 5   0  0.3404132E-02  0.7972199E+03  0.7818609E-02  0.9564050E-01
       -2   -1    0    0    0  501  0.00000000000E+00  0.00000000000E+00  0.80740918191E+03  0.80740918192E+03  0.25500000920E-02 0.  1.
        2   -1    0    0  501    0  0.00000000000E+00  0.00000000000E+00 -0.19678981056E+03  0.19678981058E+03  0.25500000920E-02 0. -1.
    10030    2    1    2    0    0  0.00000000000E+00  0.00000000000E+00  0.61061937135E+03  0.10041989925E+04  0.79721991938E+03 0.  0.
        5    1    3    3  502    0 -0.33078696468E+03  0.16969731315E+03  0.48632200957E+03  0.61216695524E+03  0.46999998093E+01 0.  1.
       -5    1    3    3    0  502  0.33078696468E+03 -0.16969731315E+03  0.12429736178E+03  0.39203203726E+03  0.46999998093E+01 0. -1.
</event>
<event>
 5   0  0.3404132E-02  0.8418212E+03  0.7818609E-02  0.9501380E-01
       -2   -1    0    0    0  501  0.00000000000E+00  0.00000000000E+00  0.90213879071E+02  0.90213879107E+02  0.25500000920E-02 0. -1.
        2   -1    0    0  501    0  0.00000000000E+00  0.00000000000E+00 -0.19638413590E+04  0.19638413590E+04  0.25500000920E-02 0.  1.
    10030    2    1    2    0    0  0.00000000000E+00  0.00000000000E+00 -0.18736274799E+04  0.20540552381E+04  0.84182123260E+03 0.  0.
        5    1    3    3  502    0 -0.28467419896E+03  0.56387356516E+02 -0.16806166645E+04  0.17054950591E+04  0.46999998093E+01 0.  1.
       -5    1    3    3    0  502  0.28467419896E+03 -0.56387356516E+02 -0.19301081540E+03  0.34856017900E+03  0.46999998093E+01 0. -1.
</event>
<event>
 5   0  0.1989298E-02  0.7391889E+03  0.7818609E-02  0.9652466E-01
        1   -1    0    0  501    0  0.00000000000E+00  0.00000000000E+00  0.11535697664E+04  0.11535697664E+04  0.50400001928E-02 0. -1.
       -1   -1    0    0    0  501  0.00000000000E+00  0.00000000000E+00 -0.11841507894E+03  0.11841507904E+03  0.50400001928E-02 0.  1.
    10030    2    1    2    0    0  0.00000000000E+00  0.00000000000E+00  0.10351546874E+04  0.12719848454E+04  0.73918889337E+03 0.  0.
        1    1    3    3  502    0  0.10897824142E+03 -0.29196613159E+03  0.85948808429E+03  0.91424299077E+03  0.50400001928E-02 0.  1.
       -1    1    3    3    0  502 -0.10897824142E+03  0.29196613159E+03  0.17566660315E+03  0.35774185467E+03  0.50400001928E-02 0. -1.
</event>
<event>
 5   0  0.2132540E-02  0.8020029E+03  0.7818609E-02  0.9557123E-01
        1   -1    0    0  501    0  0.00000000000E+00  0.00000000000E+00  0.69239176975E+03  0.69239176977E+03  0.50400001928E-02 0.  1.
       -1   -1    0    0    0  501  0.00000000000E+00  0.00000000000E+00 -0.23224156893E+03  0.23224156899E+03  0.50400001928E-02 0. -1.
    10030    2    1    2    0    0  0.00000000000E+00  0.00000000000E+00  0.46015020082E+03  0.92463333876E+03  0.80200287021E+03 0.  0.
        4    1    3    3  502    0  0.25674845233E+03 -0.96895163076E+02 -0.10702323845E+03  0.29455734055E+03  0.12699999809E+01 0. -1.
       -4    1    3    3    0  502 -0.25674845233E+03  0.96895163076E+02  0.56717343927E+03  0.63007599821E+03  0.12699999809E+01 0.  1.
</event>
<event>
 5   0  0.3550586E-02  0.7890454E+03  0.7818609E-02  0.9576010E-01
       -2   -1    0    0    0  501  0.00000000000E+00  0.00000000000E+00  0.23410919288E+03  0.23410919289E+03  0.25500000920E-02 0. -1.
        2   -1    0    0  501    0  0.00000000000E+00  0.00000000000E+00 -0.66485278494E+03  0.66485278495E+03  0.25500000920E-02 0.  1.
    10030    2    1    2    0    0  0.00000000000E+00  0.00000000000E+00 -0.43074359206E+03  0.89896197784E+03  0.78904536973E+03 0.  0.
        3    1    3    3  502    0  0.84789429177E+02  0.10522257306E+03 -0.63766328473E+03  0.65182475565E+03  0.10100000352E+00 0.  1.
       -3    1    3    3    0  502 -0.84789429177E+02 -0.10522257306E+03  0.20691969266E+03  0.24713722219E+03  0.10100000352E+00 0. -1.
</event>
<event>
 5   0  0.3416160E-02  0.7970906E+03  0.7818609E-02  0.9564238E-01
        2   -1    0    0  501    0  0.00000000000E+00  0.00000000000E+00  0.17461703825E+04  0.17461703825E+04  0.25500000920E-02 0.  1.
       -2   -1    0    0    0  501  0.00000000000E+00  0.00000000000E+00 -0.90963830267E+02  0.90963830303E+02  0.25500000920E-02 0. -1.
    10030    2    1    2    0    0  0.00000000000E+00  0.00000000000E+00  0.16552065522E+04  0.18371342128E+04  0.79709057533E+03 0.  0.
        1    1    3    3  502    0 -0.33327042899E+03 -0.14871264686E+03  0.45844861766E+03  0.58596908215E+03  0.50400001928E-02 0.  1.
       -1    1    3    3    0  502  0.33327042899E+03  0.14871264686E+03  0.11967579345E+04  0.12511651306E+04  0.50400001928E-02 0. -1.
</event>
<event>
 5   0  0.3404132E-02  0.7897475E+03  0.7818609E-02  0.9574977E-01
       -2   -1    0    0    0  501  0.00000000000E+00  0.00000000000E+00  0.37349758067E+03  0.37349758068E+03  0.25500000920E-02 0.  1.
        2   -1    0    0  501    0  0.00000000000E+00  0.00000000000E+00 -0.41747336092E+03  0.41747336093E+03  0.25500000920E-02 0. -1.
    10030    2    1    2    0    0  0.00000000000E+00  0.00000000000E+00 -0.43975780252E+02  0.79097094160E+03  0.78974753004E+03 0.  0.
        5    1    3    3  502    0  0.25400113716E+03 -0.29127889201E+03 -0.10300343100E+03  0.39998970912E+03  0.46999998093E+01 0. -1.
       -5    1    3    3    0  502 -0.25400113716E+03  0.29127889201E+03  0.59027650746E+02  0.39098123248E+03  0.46999998093E+01 0.  1.
</event>
<event>
 5   0  0.1358000E-02  0.8090617E+03  0.7818609E-02  0.9546992E-01
       -4   -1    0    0    0  501  0.00000000000E+00  0.00000000000E+00  0.40644377812E+03  0.40644576228E+03  0.12699999809E+01 0.  1.
        4   -1    0    0  501    0  0.00000000000E+00  0.00000000000E+00 -0.40262296824E+03  0.40262497123E+03  0.12699999809E+01 0. -1.
    10030    2    1    2    0    0  0.00000000000E+00  0.00000000000E+00  0.38208098801E+01  0.80907073350E+03  0.80906171163E+03 0.  0.
        2    1    3    3  502    0 -0.23595688329E+03  0.31752464154E+02  0.32896350310E+03  0.40607986423E+03  0.25500000920E-02 0.  1.
       -2    1    3    3    0  502  0.23595688329E+03 -0.31752464154E+02 -0.32514269322E+03  0.40299086927E+03  0.25500000920E-02 0. -1.
</event>
<event>
 5   0  0.3550586E-02  0.8073444E+03  0.7818609E-02  0.9549447E-01
        2   -1    0    0  501    0  0.00000000000E+00  0.00000000000E+00  0.82586311462E+03  0.82586311463E+03  0.25500000920E-02 0.  1.
       -2   -1    0    0    0  501  0.00000000000E+00  0.00000000000E+00 -0.19731023839E+03  0.19731023840E+03  0.25500000920E-02 0. -1.
    10030    2    1    2    0    0  0.00000000000E+00  0.00000000000E+00  0.62855287624E+03  0.10231733530E+04  0.80734440738E+03 0.  0.
        3    1    3    3  502    0  0.92312859494E+02 -0.38728604705E+03  0.39871433960E+03  0.56345832239E+03  0.10100000352E+00 0.  1.
       -3    1    3    3    0  502 -0.92312859494E+02  0.38728604705E+03  0.22983853663E+03  0.45971503064E+03  0.10100000352E+00 0. -1.
</event>
<event>
 5   0  0.3343036E-02  0.7894281E+03  0.7818609E-02  0.9575447E-01
        2   -1    0    0  501    0  0.00000000000E+00  0.00000000000E+00  0.16951883052E+04  0.16951883052E+04  0.25500000920E-02 0.  1.
       -2   -1    0    0    0  501  0.00000000000E+00  0.00000000000E+00 -0.91906709608E+02  0.91906709643E+02  0.25500000920E-02 0. -1.
    10030    2    1    2    0    0  0.00000000000E+00  0.00000000000E+00  0.16032815956E+04  0.17870950149E+04  0.78942809510E+03 0.  0.
        4    1    3    3  502    0 -0.22842885963E+03  0.38419865590E+02  0.15251377121E+04  0.15426284335E+04  0.12699999809E+01 0.  1.
       -4    1    3    3    0  502  0.22842885963E+03 -0.38419865590E+02  0.78143883497E+02  0.24446658138E+03  0.12699999809E+01 0. -1.
</event>
<event>
 5   0  0.2077795E-02  0.8019632E+03  0.7818609E-02  0.9557180E-01
       -1   -1    0    0    0  501  0.00000000000E+00  0.00000000000E+00  0.20713252448E+03  0.20713252454E+03  0.50400001928E-02 0.  1.
        1   -1    0    0  501    0  0.00000000000E+00  0.00000000000E+00 -0.77624809665E+03  0.77624809667E+03  0.50400001928E-02 0. -1.
    10030    2    1    2    0    0  0.00000000000E+00  0.00000000000E+00 -0.56911557217E+03  0.98338062121E+03  0.80196316105E+03 0.  0.
        5    1    3    3  502    0 -0.32996418809E+03  0.20605166225E+03 -0.40363652885E+03  0.56060520008E+03  0.46999998093E+01 0. -1.
       -5    1    3    3    0  502  0.32996418809E+03 -0.20605166225E+03 -0.16547904332E+03  0.42277542113E+03  0.46999998093E+01 0.  1.
</event>
<event>
 5   0  0.3550586E-02  0.7968979E+03  0.7818609E-02  0.9564518E-01
        2   -1    0    0  501    0  0.00000000000E+00  0.00000000000E+00  0.11985732317E+04  0.11985732317E+04  0.25500000920E-02 0.  1.
       -2   -1    0    0    0  501  0.00000000000E+00  0.00000000000E+00 -0.13245880331E+03  0.13245880334E+03  0.25500000920E-02 0. -1.
    10030    2    1    2    0    0  0.00000000000E+00  0.00000000000E+00  0.10661144284E+04  0.13310320350E+04  0.79689792563E+03 0.  0.
        3    1    3    3  502    0 -0.13047351786E+03  0.21734416421E+03  0.19603710973E+02  0.25425605256E+03  0.10100000352E+00 0. -1.
       -3    1    3    3    0  502  0.13047351786E+03 -0.21734416421E+03  0.10465107174E+04  0.10767759825E+04  0.10100000352E+00 0.  1.
</event>
<event>
 5   0  0.3343036E-02  0.7915144E+03  0.7818609E-02  0.9572382E-01
       -2   -1    0    0    0  501  0.00000000000E+00  0.00000000000E+00  0.73664116276E+03  0.73664116276E+03  0.25500000920E-02 0. -1.
        2   -1    0    0  501    0  0.00000000000E+00  0.00000000000E+00 -0.21261879459E+03  0.21261879460E+03  0.25500000920E-02 0.  1.
    10030    2    1    2    0    0  0.00000000000E+00  0.00000000000E+00  0.52402236817E+03  0.94925995736E+03  0.79151438668E+03 0.  0.
        4    1    3    3  502    0 -0.23161091267E+03 -0.15760269208E+02 -0.12238165899E+03  0.26243262813E+03  0.12699999809E+01 0.  1.
       -4    1    3    3    0  502  0.23161091267E+03  0.15760269208E+02  0.64640402716E+03  0.68682732923E+03  0.12699999809E+01 0. -1.
</event>
<event>
 5   0  0.3416160E-02  0.7180235E+03  0.7818609E-02  0.9686896E-01
       -2   -1    0    0    0  501  0.00000000000E+00  0.00000000000E+00  0.12746104600E+04  0.12746104600E+04  0.25500000920E-02 0.  1.
        2   -1    0    0  501    0  0.00000000000E+00  0.00000000000E+00 -0.10112066252E+03  0.10112066255E+03  0.25500000920E-02 0. -1.
    10030    2    1    2    0    0  0.00000000000E+00  0.00000000000E+00  0.11734897975E+04  0.13757311226E+04  0.71802354890E+03 0.  0.
        1    1    3    3  502    0 -0.25495372513E+03  0.15404153726E+03  0.20278337286E+03  0.36034884973E+03  0.50400001928E-02 0. -1.
       -1    1    3    3    0  502  0.25495372513E+03 -0.15404153726E+03  0.97070642462E+03  0.10153822728E+04  0.50400001928E-02 0.  1.
</event>
<event>
 5   0  0.2132540E-02  0.7710077E+03  0.7818609E-02  0.9602957E-01
        1   -1    0    0  501    0  0.00000000000E+00  0.00000000000E+00  0.13013203109E+04  0.13013203109E+04  0.50400001928E-02 0.  1.
       -1   -1    0    0    0  501  0.00000000000E+00  0.00000000000E+00 -0.11420188601E+03  0.11420188612E+03  0.50400001928E-02 0. -1.
    10030    2    1    2    0    0  0.00000000000E+00  0.00000000000E+00  0.11871184248E+04  0.14155221970E+04  0.77100774027E+03 0.  0.
        4    1    3    3  502    0  0.29211705623E+03 -0.24162814034E+03  0.46510799981E+03  0.60003632985E+03  0.12699999809E+01 0. -1.
       -4    1    3    3    0  502 -0.29211705623E+03  0.24162814034E+03  0.72201042503E+03  0.81548586714E+03  0.12699999809E+01 0.  1.
</event>
<event>
 5   0  0.3550586E-02  0.8144304E+03  0.7818609E-02  0.9539361E-01
       -2   -1    0    0    0  501  0.00000000000E+00  0.00000000000E+00  0.30975363965E+03  0.30975363966E+03  0.25500000920E-02 0. -1.
        2   -1    0    0  501    0  0.00000000000E+00  0.00000000000E+00 -0.53534221628E+03  0.53534221628E+03  0.25500000920E-02 0.  1.
    10030    2    1    2    0    0  0.00000000000E+00  0.00000000000E+00 -0.22558857663E+03  0.84509585594E+03  0.81443035296E+03 0.  0.
        3    1    3    3  502    0 -0.11614993761E+03 -0.18444238468E+03  0.24412564468E+03  0.32727227482E+03  0.10100000352E+00 0. -1.
       -3    1    3    3    0  502  0.11614993761E+03  0.18444238468E+03 -0.46971422131E+03  0.51782358113E+03  0.10100000352E+00 0.  1.
</event>
<event>
 5   0  0.3404132E-02  0.6216699E+03  0.7818609E-02  0.9861441E-01
       -2   -1    0    0    0  501  0.00000000000E+00  0.00000000000E+00  0.67707213449E+02  0.67707213497E+02  0.25500000920E-02 0.  1.
        2   -1    0    0  501    0  0.00000000000E+00  0.00000000000E+00 -0.14270026460E+04  0.14270026460E+04  0.25500000920E-02 0. -1.
    10030    2    1    2    0    0  0.00000000000E+00  0.00000000000E+00 -0.13592954325E+04  0.14947098595E+04  0.62166992136E+03 0.  0.
        5    1    3    3  502    0  0.75258803328E+01  0.19371656130E+03 -0.95566997974E+02  0.21618946805E+03  0.46999998093E+01 0.  1.
       -5    1    3    3    0  502 -0.75258803328E+01 -0.19371656130E+03 -0.12637284346E+04  0.12785203914E+04  0.46999998093E+01 0. -1.
</event>
<event>
 5   0  0.2129257E-02  0.7766719E+03  0.7818609E-02  0.9594411E-01
        1   -1    0    0  501    0  0.00000000000E+00  0.00000000000E+00  0.13561808915E+04  0.13561808915E+04  0.50400001928E-02 0.  1.
       -1   -1    0    0    0  501  0.00000000000E+00  0.00000000000E+00 -0.11119814282E+03  0.11119814294E+03  0.50400001928E-02 0. -1.
    10030    2    1    2    0    0  0.00000000000E+00  0.00000000000E+00  0.12449827487E+04  0.14673790345E+04  0.77667186524E+03 0.  0.
        3    1    3    3  502    0  0.66803954152E+02 -0.47901550092E+02  0.13395547449E+04  0.13420746073E+04  0.10100000352E+00 0.  1.
       -3    1    3    3    0  502 -0.66803954152E+02  0.47901550092E+02 -0.94571996221E+02  0.12530442714E+03  0.10100000352E+00 0. -1.
</event>
<event>
 5   0  0.1358000E-02  0.7993303E+03  0.7818609E-02  0.9560987E-01
        3   -1    0    0  501    0  0.00000000000E+00  0.00000000000E+00  0.32262561376E+03  0.32262562957E+03  0.10100000352E+00 0. -1.
       -3   -1    0    0    0  501  0.00000000000E+00  0.00000000000E+00 -0.49510081419E+03  0.49510082449E+03  0.10100000352E+00 0.  1.
    10030    2    1    2    0    0  0.00000000000E+00  0.00000000000E+00 -0.17247520043E+03  0.81772645406E+03  0.79933025647E+03 0.  0.
        1    1    3    3  502    0 -0.20296531114E+03 -0.31370031811E+03  0.58905799806E+02  0.37824952133E+03  0.50400001928E-02 0.  1.
       -1    1    3    3    0  502  0.20296531114E+03  0.31370031811E+03 -0.23138100023E+03  0.43947693273E+03  0.50400001928E-02 0. -1.
</event>
<event>
 5   0  0.2132540E-02  0.7944414E+03  0.7818609E-02  0.9568098E-01
        1   -1    0    0  501    0  0.00000000000E+00  0.00000000000E+00  0.88977567758E+03  0.88977567760E+03  0.50400001928E-02 0.  1.
       -1   -1    0    0    0  501  0.00000000000E+00  0.00000000000E+00 -0.17733042257E+03  0.17733042264E+03  0.50400001928E-02 0. -1.
    10030    2    1    2    0    0  0.00000000000E+00  0.00000000000E+00  0.71244525501E+03  0.10671061002E+04  0.79444143131E+03 0.  0.
        4    1    3    3  502    0  0.10934006039E+03  0.34135643169E+03  0.58615673816E+03  0.68706680668E+03  0.12699999809E+01 0.  1.
       -4    1    3    3    0  502 -0.10934006039E+03 -0.34135643169E+03  0.12628851685E+03  0.38003929356E+03  0.12699999809E+01 0. -1.
</event>
<event>
 5   0  0.3343036E-02  0.7852178E+03  0.7818609E-02  0.9581664E-01
       -2   -1    0    0    0  501  0.00000000000E+00  0.00000000000E+00  0.21559700699E+03  0.21559700700E+03  0.25500000920E-02 0. -1.
        2   -1    0    0  501    0  0.00000000000E+00  0.00000000000E+00 -0.71495316793E+03  0.71495316793E+03  0.25500000920E-02 0.  1.
    10030    2    1    2    0    0  0.00000000000E+00  0.00000000000E+00 -0.49935616094E+03  0.93055017494E+03  0.78521783768E+03 0.  0.
        4    1    3    3  502    0 -0.22940757788E+03  0.14211697804E+03 -0.58761464115E+03  0.64662017570E+03  0.12699999809E+01 0.  1.
       -4    1    3    3    0  502  0.22940757788E+03 -0.14211697804E+03  0.88258480207E+02  0.28392999923E+03  0.12699999809E+01 0. -1.
</event>
<event>
 5   0  0.2129257E-02  0.8056297E+03  0.7818609E-02  0.9551904E-01
       -1   -1    0    0    0  501  0.00000000000E+00  0.00000000000E+00  0.12052196680E+03  0.12052196691E+03  0.50400001928E-02 0. -1.
        1   -1    0    0  501    0  0.00000000000E+00  0.00000000000E+00 -0.13463089180E+04  0.13463089180E+04  0.50400001928E-02 0.  1.
    10030    2    1    2    0    0  0.00000000000E+00  0.00000000000E+00 -0.12257869512E+04  0.14668308849E+04  0.80562968863E+03 0.  0.
        3    1    3    3  502    0 -0.30901132321E+03  0.10030539916E+03 -0.10464809942E+04  0.10957516381E+04  0.10100000352E+00 0.  1.
       -3    1    3    3    0  502  0.30901132321E+03 -0.10030539916E+03 -0.17930595692E+03  0.37107924674E+03  0.10100000352E+00 0. -1.
</event>
<event>
 5   0  0.3404132E-02  0.8068913E+03  0.7818609E-02  0.9550095E-01
        2   -1    0    0  501    0  0.00000000000E+00  0.00000000000E+00  0.17257547779E+04  0.17257547779E+04  0.25500000920E-02 0.  1.
       -2   -1    0    0    0  501  0.00000000000E+00  0.00000000000E+00 -0.94317227744E+02  0.94317227779E+02  0.25500000920E-02 0. -1.
    10030    2    1    2    0    0  0.00000000000E+00  0.00000000000E+00  0.16314375502E+04  0.18200720057E+04  0.80689133457E+03 0.  0.
        5    1    3    3  502    0 -0.34428448682E+03  0.92248373156E+02  0.38949615562E+03  0.52798760919E+03  0.46999998093E+01 0. -1.
       -5    1    3    3    0  502  0.34428448682E+03 -0.92248373156E+02  0.12419413945E+04  0.12920843965E+04  0.46999998093E+01 0.  1.
</event>
<event>
 5   0  0.3467240E-02  0.8356561E+03  0.7818609E-02  0.9509794E-01
        2   -1    0    0  501    0  0.00000000000E+00  0.00000000000E+00  0.38728352090E+03  0.38728352091E+03  0.25500000920E-02 0. -1.
       -2   -1    0    0    0  501  0.00000000000E+00  0.00000000000E+00 -0.45078154031E+03  0.45078154032E+03  0.25500000920E-02 0.  1.
    10030    2    1    2    0    0  0.00000000000E+00  0.00000000000E+00 -0.63498019416E+02  0.83806506123E+03  0.83565605867E+03 0.  0.
        2    1    3    3  502    0 -0.13131011658E+03  0.37487765102E+03 -0.16175550831E+03  0.42888278635E+03  0.25500000920E-02 0.  1.
       -2    1    3    3    0  502  0.13131011658E+03 -0.37487765102E+03  0.98257488896E+02  0.40918227488E+03  0.25500000920E-02 0. -1.
</event>
<event>
 5   0  0.3404132E-02  0.8203976E+03  0.7818609E-02  0.9530953E-01
        2   -1    0    0  501    0  0.00000000000E+00  0.00000000000E+00  0.18121200382E+04  0.18121200382E+04  0.25500000920E-02 0. -1.
       -2   -1    0    0    0  501  0.00000000000E+00  0.00000000000E+00 -0.92854250097E+02  0.92854250132E+02  0.25500000920E-02 0.  1.
    10030    2    1    2    0    0  0.00000000000E+00  0.00000000000E+00  0.17192657881E+04  0.19049742884E+04  0.82039757989E+03 0.  0.
        5    1    3    3  502    0  0.22872468410E+03 -0.81567035520E+02  0.16272078094E+04  0.16452341801E+04  0.46999998093E+01 0. -1.
       -5    1    3    3    0  502 -0.22872468410E+03  0.81567035520E+02  0.92057978745E+02  0.25974010828E+03  0.46999998093E+01 0.  1.
</event>
<event>
 5   0  0.2129257E-02  0.7870493E+03  0.7818609E-02  0.9578954E-01
        1   -1    0    0  501    0  0.00000000000E+00  0.00000000000E+00  0.29606884911E+03  0.29606884915E+03  0.50400001928E-02 0.  1.
       -1   -1    0    0    0  501  0.00000000000E+00  0.00000000000E+00 -0.52305956078E+03  0.52305956080E+03  0.50400001928E-02 0. -1.
    10030    2    1    2    0    0  0.00000000000E+00  0.00000000000E+00 -0.22699071167E+03  0.81912840995E+03  0.78704927978E+03 0.  0.
        3    1    3    3  502    0  0.15728107013E+02 -0.88818889060E+02  0.28516477803E+03  0.29909050341E+03  0.10100000352E+00 0.  1.
       -3    1    3    3    0  502 -0.15728107013E+02  0.88818889060E+02 -0.51215548970E+03  0.52003790654E+03  0.10100000352E+00 0. -1.
</event>
<event>
 5   0  0.2063692E-02  0.8017953E+03  0.7818609E-02  0.9557422E-01
        1   -1    0    0  501    0  0.00000000000E+00  0.00000000000E+00  0.47059268114E+03  0.47059268117E+03  0.50400001928E-02 0.  1.
       -1   -1    0    0    0  501  0.00000000000E+00  0.00000000000E+00 -0.34152445889E+03  0.34152445893E+03  0.50400001928E-02 0. -1.
    10030    2    1    2    0    0  0.00000000000E+00  0.00000000000E+00  0.12906822225E+03  0.81211714010E+03  0.80179526268E+03 0.  0.
        2    1    3    3  502    0  0.22261500051E+03  0.11289017462E+03  0.38228799786E+03  0.45655858692E+03  0.25500000920E-02 0.  1.
       -2    1    3    3    0  502 -0.22261500051E+03 -0.11289017462E+03 -0.25321977561E+03  0.35555855318E+03  0.25500000920E-02 0. -1.
</event>
<event>
 5   0  0.3550586E-02  0.8698228E+03  0.7818609E-02  0.9464111E-01
        2   -1    0    0  501    0  0.00000000000E+00  0.00000000000E+00  0.27360603433E+03  0.27360603434E+03  0.25500000920E-02 0.  1.
       -2   -1    0    0    0  501  0.00000000000E+00  0.00000000000E+00 -0.69131492568E+03  0.69131492569E+03  0.25500000920E-02 0. -1.
    10030    2    1    2    0    0  0.00000000000E+00  0.00000000000E+00 -0.41770889136E+03  0.96492096003E+03  0.86982282172E+03 0.  0.
        3    1    3    3  502    0  0.49840529136E+01 -0.95507080634E+02 -0.67950544194E+03  0.68620266617E+03  0.10100000352E+00 0. -1.
       -3    1    3    3    0  502 -0.49840529136E+01  0.95507080634E+02  0.26179655058E+03  0.27871829386E+03  0.10100000352E+00 0.  1.
</event>
<event>
 5   0  0.2063692E-02  0.7916634E+03  0.7818609E-02  0.9572163E-01
       -1   -1    0    0    0  501  0.00000000000E+00  0.00000000000E+00  0.28166060331E+03  0.28166060336E+03  0.50400001928E-02 0. -1.
        1   -1    0    0  501    0  0.00000000000E+00  0.00000000000E+00 -0.55628202130E+03  0.55628202132E+03  0.50400001928E-02 0.  1.
    10030    2    1    2    0    0  0.00000000000E+00  0.00000000000E+00 -0.27462141799E+03  0.83794262468E+03  0.79166338745E+03 0.  0.
        2    1    3    3  502    0  0.11551474853E+03 -0.34651412027E+03  0.24141601111E+02  0.36605806860E+03  0.25500000920E-02 0. -1.
       -2    1    3    3    0  502 -0.11551474853E+03  0.34651412027E+03 -0.29876301910E+03  0.47188455608E+03  0.25500000920E-02 0.  1.
</event>
<event>
 5   0  0.3343036E-02  0.8064885E+03  0.7818609E-02  0.9550672E-01
        2   -1    0    0  501    0  0.00000000000E+00  0.00000000000E+00  0.38527811274E+03  0.38527811275E+03  0.25500000920E-02 0. -1.
       -2   -1    0    0    0  501  0.00000000000E+00  0.00000000000E+00 -0.42204821749E+03  0.42204821750E+03  0.25500000920E-02 0.  1.
    10030    2    1    2    0    0  0.00000000000E+00  0.00000000000E+00 -0.36770104748E+02  0.80732633025E+03  0.80648853861E+03 0.  0.
        4    1    3    3  502    0  0.34621387336E+03  0.11959353151E+03  0.15042484820E+03  0.39597462891E+03  0.12699999809E+01 0. -1.
       -4    1    3    3    0  502 -0.34621387336E+03 -0.11959353151E+03 -0.18719495295E+03  0.41135170134E+03  0.12699999809E+01 0.  1.
</event>
<event>
 5   0  0.2132540E-02  0.8198909E+03  0.7818609E-02  0.9531664E-01
        1   -1    0    0  501    0  0.00000000000E+00  0.00000000000E+00  0.22826126376E+04  0.22826126376E+04  0.50400001928E-02 0.  1.
       -1   -1    0    0    0  501  0.00000000000E+00  0.00000000000E+00 -0.73624090582E+02  0.73624090754E+02  0.50400001928E-02 0. -1.
    10030    2    1    2    0    0  0.00000000000E+00  0.00000000000E+00  0.22089885470E+04  0.23562367283E+04  0.81989091909E+03 0.  0.
        4    1    3    3  502    0 -0.50418186500E+02  0.28869453738E+03  0.19282755631E+04  0.19504191318E+04  0.12699999809E+01 0.  1.
       -4    1    3    3    0  502  0.50418186500E+02 -0.28869453738E+03  0.28071298386E+03  0.40581759653E+03  0.12699999809E+01 0. -1.
</event>
<event>
 5   0  0.1989298E-02  0.7982184E+03  0.7818609E-02  0.9562599E-01
        1   -1    0    0  501    0  0.00000000000E+00  0.00000000000E+00  0.35893777839E+03  0.35893777843E+03  0.50400001928E-02 0.  1.
       -1   -1    0    0    0  501  0.00000000000E+00  0.00000000000E+00 -0.44377652007E+03  0.44377652010E+03  0.50400001928E-02 0. -1.
    10030    2    1    2    0    0  0.00000000000E+00  0.00000000000E+00 -0.84838741672E+02  0.80271429853E+03  0.79821841182E+03 0.  0.
        1    1    3    3  502    0 -0.31009517684E+03  0.18897363537E+03  0.12409739714E+03  0.38375801955E+03  0.50400001928E-02 0.  1.
       -1    1    3    3    0  502  0.31009517684E+03 -0.18897363537E+03 -0.20893613881E+03  0.41895627898E+03  0.50400001928E-02 0. -1.
</event>
<event>
 5   0  0.2077795E-02  0.8046083E+03  0.7818609E-02  0.9553371E-01
       -1   -1    0    0    0  501  0.00000000000E+00  0.00000000000E+00  0.12527917350E+03  0.12527917360E+03  0.50400001928E-02 0.  1.
        1   -1    0    0  501    0  0.00000000000E+00  0.00000000000E+00 -0.12919035665E+04  0.12919035665E+04  0.50400001928E-02 0. -1.
    10030    2    1    2    0    0  0.00000000000E+00  0.00000000000E+00 -0.11666243930E+04  0.14171827401E+04  0.80460825531E+03 0.  0.
        5    1    3    3  502    0  0.22310383773E+03 -0.73075684801E+02 -0.79434652992E+01  0.23494800862E+03  0.46999998093E+01 0.  1.
       -5    1    3    3    0  502 -0.22310383773E+03  0.73075684801E+02 -0.11586809277E+04  0.11822347315E+04  0.46999998093E+01 0. -1.
</event>
<event>
 5   0  0.2129257E-02  0.8216235E+03  0.7818609E-02  0.9529235E-01
        1   -1    0    0  501    0  0.00000000000E+00  0.00000000000E+00  0.54060596520E+03  0.54060596522E+03  0.50400001928E-02 0.  1.
       -1   -1    0    0    0  501  0.00000000000E+00  0.00000000000E+00 -0.31217985080E+03  0.31217985084E+03  0.50400001928E-02 0. -1.
    10030    2    1    2    0    0  0.00000000000E+00  0.00000000000E+00  0.22842611440E+03  0.85278581606E+03  0.82162348940E+03 0.  0.
        3    1    3    3  502    0  0.27380582243E+03  0.21975048712E+03  0.33562611989E+03  0.48570032689E+03  0.10100000352E+00 0.  1.
       -3    1    3    3    0  502 -0.27380582243E+03 -0.21975048712E+03 -0.10720000549E+03  0.36708548917E+03  0.10100000352E+00 0. -1.
</event>
<event>
 5   0  0.3467240E-02  0.8035660E+03  0.7818609E-02  0.9554870E-01
       -2   -1    0    0    0  501  0.00000000000E+00  0.00000000000E+00  0.37834064837E+03  0.37834064838E+03  0.25500000920E-02 0. -1.
        2   -1    0    0  501    0  0.00000000000E+00  0.00000000000E+00 -0.42667786165E+03  0.42667786166E+03  0.25500000920E-02 0.  1.
    10030    2    1    2    0    0  0.00000000000E+00  0.00000000000E+00 -0.48337213277E+02  0.80501851004E+03  0.80356599936E+03 0.  0.
        2    1    3    3  502    0 -0.12471813385E+03 -0.94156810865E+02  0.34664835623E+03  0.38024360722E+03  0.25500000920E-02 0. -1.
       -2    1    3    3    0  502  0.12471813385E+03  0.94156810865E+02 -0.39498556951E+03  0.42477490283E+03  0.25500000920E-02 0.  1.
</event>
<event>
 5   0  0.2132540E-02  0.8040594E+03  0.7818609E-02  0.9554160E-01
        1   -1    0    0  501    0  0.00000000000E+00  0.00000000000E+00  0.10148666637E+04  0.10148666638E+04  0.50400001928E-02 0.  1.
       -1   -1    0    0    0  501  0.00000000000E+00  0.00000000000E+00 -0.15926020682E+03  0.15926020690E+03  0.50400001928E-02 0. -1.
    10030    2    1    2    0    0  0.00000000000E+00  0.00000000000E+00  0.85560645692E+03  0.11741268707E+04  0.80405938790E+03 0.  0.
        4    1    3    3  502    0  0.36143127775E+03  0.60042989435E+02  0.66946685263E+03  0.76316787720E+03  0.12699999809E+01 0.  1.
       -4    1    3    3    0  502 -0.36143127775E+03 -0.60042989435E+02  0.18613960429E+03  0.41095899346E+03  0.12699999809E+01 0. -1.
</event>
<event>
 5   0  0.3550586E-02  0.7792863E+03  0.7818609E-02  0.9590493E-01
        2   -1    0    0  501    0  0.00000000000E+00  0.00000000000E+00  0.14916151082E+04  0.14916151082E+04  0.25500000920E-02 0. -1.
       -2   -1    0    0    0  501  0.00000000000E+00  0.00000000000E+00 -0.10178349021E+03  0.10178349025E+03  0.25500000920E-02 0.  1.
    10030    2    1    2    0    0  0.00000000000E+00  0.00000000000E+00  0.13898316179E+04  0.15933985984E+04  0.77928631912E+03 0.  0.
        3    1    3    3  502    0 -0.33178082211E+03 -0.23626805723E+01  0.11126418591E+04  0.11610581437E+04  0.10100000352E+00 0. -1.
       -3    1    3    3    0  502  0.33178082211E+03  0.23626805723E+01  0.27718975882E+03  0.43234045470E+03  0.10100000352E+00 0.  1.
</event>
<event>
 5   0  0.1358000E-02  0.7908174E+03  0.7818609E-02  0.9573405E-01
        3   -1    0    0  501    0  0.00000000000E+00  0.00000000000E+00  0.15052591679E+03  0.15052595067E+03  0.10100000352E+00 0. -1.
       -3   -1    0    0    0  501  0.00000000000E+00  0.00000000000E+00 -0.10386782691E+04  0.10386782740E+04  0.10100000352E+00 0.  1.
    10030    2    1    2    0    0  0.00000000000E+00  0.00000000000E+00 -0.88815235231E+03  0.11892042247E+04  0.79081735381E+03 0.  0.
        1    1    3    3  502    0 -0.15397264350E+03  0.36386932001E+03 -0.46735128461E+03  0.61198503270E+03  0.50400001928E-02 0.  1.
       -1    1    3    3    0  502  0.15397264350E+03 -0.36386932001E+03 -0.42080106770E+03  0.57721919198E+03  0.50400001928E-02 0. -1.
</event>
<event>
 5   0  0.3343036E-02  0.8270706E+03  0.7818609E-02  0.9521639E-01
        2   -1    0    0  501    0  0.00000000000E+00  0.00000000000E+00  0.52403806438E+03  0.52403806439E+03  0.25500000920E-02 0.  1.
       -2   -1    0    0    0  501  0.00000000000E+00  0.00000000000E+00 -0.32633401707E+03  0.32633401708E+03  0.25500000920E-02 0. -1.
    10030    2    1    2    0    0  0.00000000000E+00  0.00000000000E+00  0.19770404732E+03  0.85037208147E+03  0.82707060558E+03 0.  0.
        4    1    3    3  502    0  0.66104147612E+02 -0.13209304459E+03  0.49598728726E+03  0.51751650484E+03  0.12699999809E+01 0.  1.
       -4    1    3    3    0  502 -0.66104147612E+02  0.13209304459E+03 -0.29828323994E+03  0.33285557663E+03  0.12699999809E+01 0. -1.
</event>
<event>
 5   0  0.1989298E-02  0.8245874E+03  0.7818609E-02  0.9525094E-01
        1   -1    0    0  501    0  0.00000000000E+00  0.00000000000E+00  0.77628656923E+03  0.77628656925E+03  0.50400001928E-02 0.  1.
       -1   -1    0    0    0  501  0.00000000000E+00  0.00000000000E+00 -0.21897339101E+03  0.21897339106E+03  0.50400001928E-02 0. -1.
    10030    2    1    2    0    0  0.00000000000E+00  0.00000000000E+00  0.55731317822E+03  0.99525996031E+03  0.82458741803E+03 0.  0.
        1    1    3    3  502    0 -0.23758164937E+03  0.57877676979E+02 -0.12200098551E+03  0.27327478132E+03  0.50400001928E-02 0. -1.
       -1    1    3    3    0  502  0.23758164937E+03 -0.57877676979E+02  0.67931416373E+03  0.72198517899E+03  0.50400001928E-02 0.  1.
</event>
<event>
 5   0  0.3404132E-02  0.7923302E+03  0.7818609E-02  0.9571186E-01
       -2   -1    0    0    0  501  0.00000000000E+00  0.00000000000E+00  0.10966747077E+03  0.10966747080E+03  0.25500000920E-02 0. -1.
        2   -1    0    0  501    0  0.00000000000E+00  0.00000000000E+00 -0.14311153748E+04  0.14311153748E+04  0.25500000920E-02 0.  1.
    10030    2    1    2    0    0  0.00000000000E+00  0.00000000000E+00 -0.13214479040E+04  0.15407828456E+04  0.79233024317E+03 0.  0.
        5    1    3    3  502    0  0.22815878355E+03  0.39926068581E+02 -0.35794339351E+02  0.23442236708E+03  0.46999998093E+01 0. -1.
       -5    1    3    3    0  502 -0.22815878355E+03 -0.39926068581E+02 -0.12856535647E+04  0.13063604785E+04  0.46999998093E+01 0.  1.
</event>
<event>
 5   0  0.1358000E-02  0.7751998E+03  0.7818609E-02  0.9596625E-01
        3   -1    0    0  501    0  0.00000000000E+00  0.00000000000E+00  0.36540980719E+03  0.36540982115E+03  0.10100000352E+00 0. -1.
       -3   -1    0    0    0  501  0.00000000000E+00  0.00000000000E+00 -0.41113750350E+03  0.41113751590E+03  0.10100000352E+00 0.  1.
    10030    2    1    2    0    0  0.00000000000E+00  0.00000000000E+00 -0.45727696309E+02  0.77654733705E+03  0.77519980939E+03 0.  0.
        4    1    3    3  502    0  0.15703780318E+03 -0.21438330420E+03 -0.30550853002E+03  0.40491745772E+03  0.12699999809E+01 0.  1.
       -4    1    3    3    0  502 -0.15703780318E+03  0.21438330420E+03  0.25978083371E+03  0.37162987933E+03  0.12699999809E+01 0. -1.
</event>
<event>
 5   0  0.3416160E-02  0.7902122E+03  0.7818609E-02  0.9574294E-01
        2   -1    0    0  501    0  0.00000000000E+00  0.00000000000E+00  0.20252737774E+04  0.20252737774E+04  0.25500000920E-02 0.  1.
       -2   -1    0    0    0  501  0.00000000000E+00  0.00000000000E+00 -0.77080368753E+02  0.77080368796E+02  0.25500000920E-02 0. -1.
    10030    2    1    2    0    0  0.00000000000E+00  0.00000000000E+00  0.19481934087E+04  0.21023541462E+04  0.79021224905E+03 0.  0.
        1    1    3    3  502    0 -0.57975337790E+02  0.32616039011E+03  0.40121212662E+03  0.52030078843E+03  0.50400001928E-02 0. -1.
       -1    1    3    3    0  502  0.57975337790E+02 -0.32616039011E+03  0.15469812821E+04  0.15820533578E+04  0.50400001928E-02 0.  1.
</event>
<event>
 5   0  0.3550586E-02  0.8054132E+03  0.7818609E-02  0.9552215E-01
        2   -1    0    0  501    0  0.00000000000E+00  0.00000000000E+00  0.91815715925E+03  0.91815715925E+03  0.25500000920E-02 0.  1.
       -2   -1    0    0    0  501  0.00000000000E+00  0.00000000000E+00 -0.17662838217E+03  0.17662838218E+03  0.25500000920E-02 0. -1.
    10030    2    1    2    0    0  0.00000000000E+00  0.00000000000E+00  0.74152877708E+03  0.10947855414E+04  0.80541321972E+03 0.  0.
        3    1    3    3  502    0 -0.19561099442E+03  0.17557339639E+03 -0.43946377461E+02  0.26649760402E+03  0.10100000352E+00 0. -1.
       -3    1    3    3    0  502  0.19561099442E+03 -0.17557339639E+03  0.78547515454E+03  0.82828793741E+03  0.10100000352E+00 0.  1.
</event>
<event>
 5   0  0.1989298E-02  0.8000450E+03  0.7818609E-02  0.9559952E-01
        1   -1    0    0  501    0  0.00000000000E+00  0.00000000000E+00  0.12769111103E+04  0.12769111103E+04  0.50400001928E-02 0. -1.
       -1   -1    0    0    0  501  0.00000000000E+00  0.00000000000E+00 -0.12531647157E+03  0.12531647168E+03  0.50400001928E-02 0.  1.
    10030    2    1    2    0    0  0.00000000000E+00  0.00000000000E+00  0.11515946387E+04  0.14022275819E+04  0.80004498606E+03 0.  0.
        1    1    3    3  502    0 -0.34192306795E+02 -0.32419939979E+03  0.98211675528E+03  0.10348080429E+04  0.50400001928E-02 0. -1.
       -1    1    3    3    0  502  0.34192306795E+02  0.32419939979E+03  0.16947788340E+03  0.36741953902E+03  0.50400001928E-02 0.  1.
</event>
<event>
 5   0  0.1358000E-02  0.7954164E+03  0.7818609E-02  0.9566675E-01
       -4   -1    0    0    0  501  0.00000000000E+00  0.00000000000E+00  0.53162604011E+03  0.53162755706E+03  0.12699999809E+01 0. -1.
        4   -1    0    0  501    0  0.00000000000E+00  0.00000000000E+00 -0.29752129662E+03  0.29752400717E+03  0.12699999809E+01 0.  1.
    10030    2    1    2    0    0  0.00000000000E+00  0.00000000000E+00  0.23410474349E+03  0.82915156422E+03  0.79541642272E+03 0.  0.
        3    1    3    3  502    0  0.16987766142E+03 -0.23921173684E+03  0.39693781164E+03  0.49359934299E+03  0.10100000352E+00 0. -1.
       -3    1    3    3    0  502 -0.16987766142E+03  0.23921173684E+03 -0.16283306815E+03  0.33555222123E+03  0.10100000352E+00 0.  1.
</event>
<event>
 5   0  0.3416160E-02  0.8129654E+03  0.7818609E-02  0.9541438E-01
       -2   -1    0    0    0  501  0.00000000000E+00  0.00000000000E+00  0.24314273791E+03  0.24314273792E+03  0.25500000920E-02 0.  1.
        2   -1    0    0  501    0  0.00000000000E+00  0.00000000000E+00 -0.67955220095E+03  0.67955220096E+03  0.25500000920E-02 0. -1.
    10030    2    1    2    0    0  0.00000000000E+00  0.00000000000E+00 -0.43640946304E+03  0.92269493888E+03  0.81296539336E+03 0.  0.
        1    1    3    3  502    0 -0.32402942540E+03  0.20448984320E+03 -0.64178128253E+02  0.38849709995E+03  0.50400001928E-02 0.  1.
       -1    1    3    3    0  502  0.32402942540E+03 -0.20448984320E+03 -0.37223133479E+03  0.53419783893E+03  0.50400001928E-02 0. -1.
</event>
<event>
 5   0  0.3550586E-02  0.6421602E+03  0.7818609E-02  0.9821602E-01
       -2   -1    0    0    0  501  0.00000000000E+00  0.00000000000E+00  0.15298240117E+03  0.15298240119E+03  0.25500000920E-02 0.  1.
        2   -1    0    0  501    0  0.00000000000E+00  0.00000000000E+00 -0.67388418818E+03  0.67388418819E+03  0.25500000920E-02 0. -1.
    10030    2    1    2    0    0  0.00000000000E+00  0.00000000000E+00 -0.52090178702E+03  0.82686658938E+03  0.64216017076E+03 0.  0.
        3    1    3    3  502    0  0.67526948918E+02  0.30555060899E+03 -0.16785452783E+03  0.35510029034E+03  0.10100000352E+00 0.  1.
       -3    1    3    3    0  502 -0.67526948918E+02 -0.30555060899E+03 -0.35304725919E+03  0.47176629904E+03  0.10100000352E+00 0. -1.
</event>
<event>
 5   0  0.2077795E-02  0.8146690E+03  0.7818609E-02  0.9539024E-01
       -1   -1    0    0    0  501  0.00000000000E+00  0.00000000000E+00  0.10818744455E+03  0.10818744467E+03  0.50400001928E-02 0.  1.
        1   -1    0    0  501    0  0.00000000000E+00  0.00000000000E+00 -0.15336474898E+04  0.15336474898E+04  0.50400001928E-02 0. -1.
    10030    2    1    2    0    0  0.00000000000E+00  0.00000000000E+00 -0.14254600452E+04  0.16418349344E+04  0.81466901957E+03 0.  0.
        5    1    3    3  502    0 -0.32127963598E+02 -0.38382508508E+03 -0.97968010703E+03  0.10526866125E+04  0.46999998093E+01 0. -1.
       -5    1    3    3    0  502  0.32127963598E+02  0.38382508508E+03 -0.44577993818E+03  0.58914832196E+03  0.46999998093E+01 0.  1.
</event>
<event>
 5   0  0.3550586E-02  0.7920716E+03  0.7818609E-02  0.9571565E-01
        2   -1    0    0  501    0  0.00000000000E+00  0.00000000000E+00  0.10545685709E+04  0.10545685709E+04  0.25500000920E-02 0. -1.
       -2   -1    0    0    0  501  0.00000000000E+00  0.00000000000E+00 -0.14872845879E+03  0.14872845882E+03  0.25500000920E-02 0.  1.
    10030    2    1    2    0    0  0.00000000000E+00  0.00000000000E+00  0.90584011213E+03  0.12032970297E+04  0.79207160853E+03 0.  0.
        3    1    3    3  502    0  0.16067925040E+03  0.31209301336E+03  0.73149122774E+03  0.81135645493E+03  0.10100000352E+00 0. -1.
       -3    1    3    3    0  502 -0.16067925040E+03 -0.31209301336E+03  0.17434888439E+03  0.39194057482E+03  0.10100000352E+00 0.  1.
</event>
<event>
 5   0  0.2063692E-02  0.8034308E+03  0.7818609E-02  0.9555064E-01
        1   -1    0    0  501    0  0.00000000000E+00  0.00000000000E+00  0.15254734387E+04  0.15254734387E+04  0.50400001928E-02 0. -1.
       -1   -1    0    0    0  501  0.00000000000E+00  0.00000000000E+00 -0.10578701030E+03  0.10578701042E+03  0.50400001928E-02 0.  1.
    10030    2    1    2    0    0  0.00000000000E+00  0.00000000000E+00  0.14196864284E+04  0.16312604492E+04  0.80343082958E+03 0.  0.
        2    1    3    3  502    0 -0.19946107017E+03  0.33545995378E+03  0.90307172307E+03  0.98379705027E+03  0.25500000920E-02 0. -1.
       -2    1    3    3    0  502  0.19946107017E+03 -0.33545995378E+03  0.51661470536E+03  0.64746339889E+03  0.25500000920E-02 0.  1.
</event>
<event>
 5   0  0.2132540E-02  0.7916067E+03  0.7818609E-02  0.9572246E-01
       -1   -1    0    0    0  501  0.00000000000E+00  0.00000000000E+00  0.33826791053E+03  0.33826791057E+03  0.50400001928E-02 0. -1.
        1   -1    0    0  501    0  0.00000000000E+00  0.00000000000E+00 -0.46312490787E+03  0.46312490789E+03  0.50400001928E-02 0.  1.
    10030    2    1    2    0    0  0.00000000000E+00  0.00000000000E+00 -0.12485699734E+03  0.80139281846E+03  0.79160670771E+03 0.  0.
        4    1    3    3  502    0  0.12984220288E+03 -0.45412450126E+01 -0.44092079175E+03  0.45966550671E+03  0.12699999809E+01 0.  1.
       -4    1    3    3    0  502 -0.12984220288E+03  0.45412450126E+01  0.31606379442E+03  0.34172731175E+03  0.12699999809E+01 0. -1.
</event>
<event>
 5   0  0.3550586E-02  0.8340722E+03  0.7818609E-02  0.9511968E-01
       -2   -1    0    0    0  501  0.00000000000E+00  0.00000000000E+00  0.19242224026E+03  0.19242224028E+03  0.25500000920E-02 0. -1.
        2   -1    0    0  501    0  0.00000000000E+00  0.00000000000E+00 -0.90384100020E+03  0.90384100020E+03  0.25500000920E-02 0.  1.
    10030    2    1    2    0    0  0.00000000000E+00  0.00000000000E+00 -0.71141875993E+03  0.10962632405E+04  0.83407220338E+03 0.  0.
        3    1    3    3  502    0  0.19514058310E+03 -0.24177856898E+03 -0.72133130835E+03  0.78540154711E+03  0.10100000352E+00 0.  1.
       -3    1    3    3    0  502 -0.19514058310E+03  0.24177856898E+03  0.99125484193E+01  0.31086169337E+03  0.10100000352E+00 0. -1.
</event>
<event>
 5   0  0.2129257E-02  0.7858055E+03  0.7818609E-02  0.9580793E-01
       -1   -1    0    0    0  501  0.00000000000E+00  0.00000000000E+00  0.36123443166E+03  0.36123443169E+03  0.50400001928E-02 0. -1.
        1   -1    0    0  501    0  0.00000000000E+00  0.00000000000E+00 -0.42734728002E+03  0.42734728005E+03  0.50400001928E-02 0.  1.
    10030    2    1    2    0    0  0.00000000000E+00  0.00000000000E+00 -0.66112848366E+02  0.78858171174E+03  0.78580545135E+03 0.  0.
        3    1    3    3  502    0  0.17734316823E+03 -0.24500569901E+03 -0.28472951861E+03  0.41539054013E+03  0.10100000352E+00 0.  1.
       -3    1    3    3    0  502 -0.17734316823E+03  0.24500569901E+03  0.21861667024E+03  0.37319117161E+03  0.10100000352E+00 0. -1.
</event>
<event>
 5   0  0.1989298E-02  0.7807840E+03  0.7818609E-02  0.9588256E-01
       -1   -1    0    0    0  501  0.00000000000E+00  0.00000000000E+00  0.12298539654E+03  0.12298539665E+03  0.50400001928E-02 0.  1.
        1   -1    0    0  501    0  0.00000000000E+00  0.00000000000E+00 -0.12392195462E+04  0.12392195462E+04  0.50400001928E-02 0. -1.
    10030    2    1    2    0    0  0.00000000000E+00  0.00000000000E+00 -0.11162341496E+04  0.13622049428E+04  0.78078398387E+03 0.  0.
        1    1    3    3  502    0 -0.13142501934E+03  0.35219689840E+03 -0.74185184712E+03  0.83166060028E+03  0.50400001928E-02 0. -1.
       -1    1    3    3    0  502  0.13142501934E+03 -0.35219689840E+03 -0.37438230249E+03  0.53054434254E+03  0.50400001928E-02 0.  1.
</event>
<event>
 5   0  0.2132540E-02  0.8224974E+03  0.7818609E-02  0.9528012E-01
        1   -1    0    0  501    0  0.00000000000E+00  0.00000000000E+00  0.59517720119E+03  0.59517720121E+03  0.50400001928E-02 0. -1.
       -1   -1    0    0    0  501  0.00000000000E+00  0.00000000000E+00 -0.28415989137E+03  0.28415989141E+03  0.50400001928E-02 0.  1.
    10030    2    1    2    0    0  0.00000000000E+00  0.00000000000E+00  0.31101730982E+03  0.87933709262E+03  0.82249738933E+03 0.  0.
        4    1    3    3  502    0  0.37433665100E+03 -0.61149198668E+02 -0.14397600004E+02  0.37957351931E+03  0.12699999809E+01 0.  1.
       -4    1    3    3    0  502 -0.37433665100E+03  0.61149198668E+02  0.32541490982E+03  0.49976357331E+03  0.12699999809E+01 0. -1.
</event>
<event>
 5   0  0.3467240E-02  0.7975319E+03  0.7818609E-02  0.9563596E-01
       -2   -1    0    0    0  501  0.00000000000E+00  0.00000000000E+00  0.54832775928E+03  0.54832775929E+03  0.25500000920E-02 0. -1.
        2   -1    0    0  501    0  0.00000000000E+00  0.00000000000E+00 -0.28999861603E+03  0.28999861604E+03  0.25500000920E-02 0.  1.
    10030    2    1    2    0    0  0.00000000000E+00  0.00000000000E+00  0.25832914325E+03  0.83832637533E+03  0.79753192119E+03 0.  0.
        2    1    3    3  502    0 -0.56525872231E+02  0.31529365633E+03  0.37881905011E+03  0.49609387890E+03  0.25500000920E-02 0. -1.
       -2    1    3    3    0  502  0.56525872231E+02 -0.31529365633E+03 -0.12048990686E+03  0.34223249643E+03  0.25500000920E-02 0.  1.
</event>
<event>
 5   0  0.3467240E-02  0.7995661E+03  0.7818609E-02  0.9560645E-01
       -2   -1    0    0    0  501  0.00000000000E+00  0.00000000000E+00  0.92420560729E+03  0.92420560730E+03  0.25500000920E-02 0. -1.
        2   -1    0    0  501    0  0.00000000000E+00  0.00000000000E+00 -0.17293391617E+03  0.17293391619E+03  0.25500000920E-02 0.  1.
    10030    2    1    2    0    0  0.00000000000E+00  0.00000000000E+00  0.75127169113E+03  0.10971395235E+04  0.79956611990E+03 0.  0.
        2    1    3    3  502    0 -0.21277135743E+03  0.17725697546E+03 -0.20003002752E+02  0.27765411219E+03  0.25500000920E-02 0.  1.
       -2    1    3    3    0  502  0.21277135743E+03 -0.17725697546E+03  0.77127469388E+03  0.81948541129E+03  0.25500000920E-02 0. -1.
</event>
<event>
 5   0  0.3467240E-02  0.8295615E+03  0.7818609E-02  0.9518187E-01
       -2   -1    0    0    0  501  0.00000000000E+00  0.00000000000E+00  0.16552869778E+03  0.16552869780E+03  0.25500000920E-02 0. -1.
        2   -1    0    0  501    0  0.00000000000E+00  0.00000000000E+00 -0.10393550019E+04  0.10393550019E+04  0.25500000920E-02 0.  1.
    10030    2    1    2    0    0  0.00000000000E+00  0.00000000000E+00 -0.87382630412E+03  0.12048836997E+04  0.82956152274E+03 0.  0.
        2    1    3    3  502    0 -0.26127512460E+03  0.12325278626E+03 -0.46165028914E+01  0.28892430179E+03  0.25500000920E-02 0. -1.
       -2    1    3    3    0  502  0.26127512460E+03 -0.12325278626E+03 -0.86920980123E+03  0.91595939791E+03  0.25500000920E-02 0.  1.
</event>
<event>
 5   0  0.1358000E-02  0.8015734E+03  0.7818609E-02  0.9557742E-01
       -4   -1    0    0    0  501  0.00000000000E+00  0.00000000000E+00  0.50089786751E+03  0.50089947752E+03  0.12699999809E+01 0.  1.
        4   -1    0    0  501    0  0.00000000000E+00  0.00000000000E+00 -0.32068074804E+03  0.32068326284E+03  0.12699999809E+01 0. -1.
    10030    2    1    2    0    0  0.00000000000E+00  0.00000000000E+00  0.18021711947E+03  0.82158274035E+03  0.80157344585E+03 0.  0.
        5    1    3    3  502    0 -0.34932406211E+03 -0.19641794640E+03  0.90900661213E+02  0.41096512047E+03  0.46999998093E+01 0.  1.
       -5    1    3    3    0  502  0.34932406211E+03  0.19641794640E+03  0.89316458258E+02  0.41061761988E+03  0.46999998093E+01 0. -1.
</event>
<event>
 5   0  0.2132540E-02  0.9236590E+03  0.7818609E-02  0.9396480E-01
       -1   -1    0    0    0  501  0.00000000000E+00  0.00000000000E+00  0.13600739337E+03  0.13600739346E+03  0.50400001928E-02 0. -1.
        1   -1    0    0  501    0  0.00000000000E+00  0.00000000000E+00 -0.15681976818E+04  0.15681976818E+04  0.50400001928E-02 0.  1.
    10030    2    1    2    0    0  0.00000000000E+00  0.00000000000E+00 -0.14321902884E+04  0.17042050752E+04  0.92365898268E+03 0.  0.
        4    1    3    3  502    0 -0.37565731695E+03  0.10171373540E+03 -0.11748465146E+04  0.12376308211E+04  0.12699999809E+01 0.  1.
       -4    1    3    3    0  502  0.37565731695E+03 -0.10171373540E+03 -0.25734377381E+03  0.46657425408E+03  0.12699999809E+01 0. -1.
</event>
<event>
 5   0  0.2129257E-02  0.7792521E+03  0.7818609E-02  0.9590544E-01
        1   -1    0    0  501    0  0.00000000000E+00  0.00000000000E+00  0.12018018184E+04  0.12018018184E+04  0.50400001928E-02 0.  1.
       -1   -1    0    0    0  501  0.00000000000E+00  0.00000000000E+00 -0.12631737632E+03  0.12631737642E+03  0.50400001928E-02 0. -1.
    10030    2    1    2    0    0  0.00000000000E+00  0.00000000000E+00  0.10754844421E+04  0.13281191948E+04  0.77925208406E+03 0.  0.
        3    1    3    3  502    0  0.12699526637E+03  0.24899445477E+03  0.75104562725E+02  0.28942484643E+03  0.10100000352E+00 0. -1.
       -3    1    3    3    0  502 -0.12699526637E+03 -0.24899445477E+03  0.10003798793E+04  0.10386943484E+04  0.10100000352E+00 0.  1.
</event>
<event>
 5   0  0.3404132E-02  0.8081277E+03  0.7818609E-02  0.9548327E-01
        2   -1    0    0  501    0  0.00000000000E+00  0.00000000000E+00  0.13156797622E+04  0.13156797622E+04  0.25500000920E-02 0. -1.
       -2   -1    0    0    0  501  0.00000000000E+00  0.00000000000E+00 -0.12409372373E+03  0.12409372376E+03  0.25500000920E-02 0.  1.
    10030    2    1    2    0    0  0.00000000000E+00  0.00000000000E+00  0.11915860384E+04  0.14397734859E+04  0.80812771504E+03 0.  0.
        5    1    3    3  502    0 -0.31402046184E+02 -0.80865166689E+02  0.12988438287E+04  0.13017459986E+04  0.46999998093E+01 0. -1.
       -5    1    3    3    0  502  0.31402046184E+02  0.80865166689E+02 -0.10725779023E+03  0.13802748730E+03  0.46999998093E+01 0.  1.
</event>
<event>
 5   0  0.2063692E-02  0.7995646E+03  0.7818609E-02  0.9560647E-01
        1   -1    0    0  501    0  0.00000000000E+00  0.00000000000E+00  0.50504843800E+03  0.50504843803E+03  0.50400001928E-02 0. -1.
       -1   -1    0    0    0  501  0.00000000000E+00  0.00000000000E+00 -0.31645657703E+03  0.31645657707E+03  0.50400001928E-02 0.  1.
    10030    2    1    2    0    0  0.00000000000E+00  0.00000000000E+00  0.18859186097E+03  0.82150501510E+03  0.79956463142E+03 0.  0.
        2    1    3    3  502    0 -0.10428640793E+03  0.38590523807E+03  0.88918548663E+02  0.40951802885E+03  0.25500000920E-02 0.  1.
       -2    1    3    3    0  502  0.10428640793E+03 -0.38590523807E+03  0.99673312304E+02  0.41198698625E+03  0.25500000920E-02 0. -1.
</event>
<event>
 5   0  0.3404132E-02  0.7992673E+03  0.7818609E-02  0.9561078E-01
       -2   -1    0    0    0  501  0.00000000000E+00  0.00000000000E+00  0.11198883917E+03  0.11198883920E+03  0.25500000920E-02 0. -1.
        2   -1    0    0  501    0  0.00000000000E+00  0.00000000000E+00 -0.14260979652E+04  0.14260979652E+04  0.25500000920E-02 0.  1.
    10030    2    1    2    0    0  0.00000000000E+00  0.00000000000E+00 -0.13141091260E+04  0.15380868044E+04  0.79926730370E+03 0.  0.
        5    1    3    3  502    0 -0.19710067297E+03  0.14076076629E+03 -0.45411184572E+02  0.24646812024E+03  0.46999998093E+01 0. -1.
       -5    1    3    3    0  502  0.19710067297E+03 -0.14076076629E+03 -0.12686979415E+04  0.12916186842E+04  0.46999998093E+01 0.  1.
</event>
<event>
 5   0  0.2132540E-02  0.8238384E+03  0.7818609E-02  0.9526139E-01
       -1   -1    0    0    0  501  0.00000000000E+00  0.00000000000E+00  0.41660253178E+03  0.41660253181E+03  0.50400001928E-02 0.  1.
        1   -1    0    0  501    0  0.00000000000E+00  0.00000000000E+00 -0.40728847100E+03  0.40728847104E+03  0.50400001928E-02 0. -1.
    10030    2    1    2    0    0  0.00000000000E+00  0.00000000000E+00  0.93140607738E+01  0.82389100285E+03  0.82383835359E+03 0.  0.
        4    1    3    3  502    0  0.65393347212E+02  0.22957531332E+03 -0.33106470773E+03  0.40815017818E+03  0.12699999809E+01 0. -1.
       -4    1    3    3    0  502 -0.65393347212E+02 -0.22957531332E+03  0.34037876851E+03  0.41574082466E+03  0.12699999809E+01 0.  1.
</event>
<event>
 5   0  0.2077795E-02  0.8508819E+03  0.7818609E-02  0.9489154E-01
        1   -1    0    0  501    0  0.00000000000E+00  0.00000000000E+00  0.12978956121E+04  0.12978956121E+04  0.50400001928E-02 0.  1.
       -1   -1    0    0    0  501  0.00000000000E+00  0.00000000000E+00 -0.13945650099E+03  0.13945650108E+03  0.50400001928E-02 0. -1.
    10030    2    1    2    0    0  0.00000000000E+00  0.00000000000E+00  0.11584391111E+04  0.14373521131E+04  0.85088185027E+03 0.  0.
        5    1    3    3  502    0 -0.26083182564E+03  0.44948326945E+02  0.11418293067E+04  0.11721134113E+04  0.46999998093E+01 0.  1.
       -5    1    3    3    0  502  0.26083182564E+03 -0.44948326945E+02  0.16609804403E+02  0.26523870186E+03  0.46999998093E+01 0. -1.
</event>
<event>
 5   0  0.2129257E-02  0.8119894E+03  0.7818609E-02  0.9542823E-01
        1   -1    0    0  501    0  0.00000000000E+00  0.00000000000E+00  0.20047740109E+04  0.20047740109E+04  0.50400001928E-02 0.  1.
       -1   -1    0    0    0  501  0.00000000000E+00  0.00000000000E+00 -0.82219598134E+02  0.82219598288E+02  0.50400001928E-02 0. -1.
    10030    2    1    2    0    0  0.00000000000E+00  0.00000000000E+00  0.19225544128E+04  0.20869936092E+04  0.81198944253E+03 0.  0.
        3    1    3    3  502    0  0.33819269234E+03 -0.21073770671E+03  0.76140995969E+03  0.85937757423E+03  0.10100000352E+00 0. -1.
       -3    1    3    3    0  502 -0.33819269234E+03  0.21073770671E+03  0.11611444531E+04  0.12276160350E+04  0.10100000352E+00 0.  1.
</event>
<event>
 5   0  0.1989298E-02  0.6140423E+03  0.7818609E-02  0.9876694E-01
        1   -1    0    0  501    0  0.00000000000E+00  0.00000000000E+00  0.20142789817E+03  0.20142789823E+03  0.50400001928E-02 0. -1.
       -1   -1    0    0    0  501  0.00000000000E+00  0.00000000000E+00 -0.46796885236E+03  0.46796885238E+03  0.50400001928E-02 0.  1.
    10030    2    1    2    0    0  0.00000000000E+00  0.00000000000E+00 -0.26654095419E+03  0.66939675061E+03  0.61404228639E+03 0.  0.
        1    1    3    3  502    0  0.19940983178E+03 -0.16482926221E+03 -0.31348812384E+03  0.40645758759E+03  0.50400001928E-02 0. -1.
       -1    1    3    3    0  502 -0.19940983178E+03  0.16482926221E+03  0.46947169651E+02  0.26293916303E+03  0.50400001928E-02 0.  1.
</event>
<event>
 5   0  0.3343036E-02  0.7958121E+03  0.7818609E-02  0.9566099E-01
       -2   -1    0    0    0  501  0.00000000000E+00  0.00000000000E+00  0.46568900663E+03  0.46568900663E+03  0.25500000920E-02 0. -1.
        2   -1    0    0  501    0  0.00000000000E+00  0.00000000000E+00 -0.33998921605E+03  0.33998921606E+03  0.25500000920E-02 0.  1.
    10030    2    1    2    0    0  0.00000000000E+00  0.00000000000E+00  0.12569979057E+03  0.80567822270E+03  0.79581213938E+03 0.  0.
        4    1    3    3  502    0  0.14706570056E+03  0.23114902345E+03 -0.22929202327E+03  0.35725990001E+03  0.12699999809E+01 0.  1.
       -4    1    3    3    0  502 -0.14706570056E+03 -0.23114902345E+03  0.35499181385E+03  0.44841832268E+03  0.12699999809E+01 0. -1.
</event>
<event>
 5   0  0.3467240E-02  0.7814690E+03  0.7818609E-02  0.9587234E-01
       -2   -1    0    0    0  501  0.00000000000E+00  0.00000000000E+00  0.48637048245E+03  0.48637048246E+03  0.25500000920E-02 0. -1.
        2   -1    0    0  501    0  0.00000000000E+00  0.00000000000E+00 -0.31390360693E+03  0.31390360694E+03  0.25500000920E-02 0.  1.
    10030    2    1    2    0    0  0.00000000000E+00  0.00000000000E+00  0.17246687552E+03  0.80027408940E+03  0.78146899811E+03 0.  0.
        2    1    3    3  502    0 -0.17571770168E+03 -0.27514156283E+03 -0.13362773195E+03  0.35275481717E+03  0.25500000920E-02 0.  1.
       -2    1    3    3    0  502  0.17571770168E+03  0.27514156283E+03  0.30609460747E+03  0.44751927223E+03  0.25500000920E-02 0. -1.
</event>
<event>
 5   0  0.2129257E-02  0.8051052E+03  0.7818609E-02  0.9552657E-01
        1   -1    0    0  501    0  0.00000000000E+00  0.00000000000E+00  0.53338712581E+03  0.53338712583E+03  0.50400001928E-02 0. -1.
       -1   -1    0    0    0  501  0.00000000000E+00  0.00000000000E+00 -0.30381046114E+03  0.30381046119E+03  0.50400001928E-02 0.  1.
    10030    2    1    2    0    0  0.00000000000E+00  0.00000000000E+00  0.22957666466E+03  0.83719758702E+03  0.80510518242E+03 0.  0.
        3    1    3    3  502    0 -0.26155809799E+03  0.12972503662E+03 -0.17340023621E+03  0.33957160640E+03  0.10100000352E+00 0.  1.
       -3    1    3    3    0  502  0.26155809799E+03 -0.12972503662E+03  0.40297690087E+03  0.49762598062E+03  0.10100000352E+00 0. -1.
</event>
<event>
 5   0  0.3550586E-02  0.8512964E+03  0.7818609E-02  0.9488599E-01
        2   -1    0    0  501    0  0.00000000000E+00  0.00000000000E+00  0.93313721226E+03  0.93313721226E+03  0.25500000920E-02 0. -1.
       -2   -1    0    0    0  501  0.00000000000E+00  0.00000000000E+00 -0.19415835464E+03  0.19415835465E+03  0.25500000920E-02 0.  1.
    10030    2    1    2    0    0  0.00000000000E+00  0.00000000000E+00  0.73897885762E+03  0.11272955669E+04  0.85129638973E+03 0.  0.
        3    1    3    3  502    0 -0.66231048874E+01 -0.38315157273E+03  0.61483450777E+03  0.72447945130E+03  0.10100000352E+00 0. -1.
       -3    1    3    3    0  502  0.66231048874E+01  0.38315157273E+03  0.12414434985E+03  0.40281611562E+03  0.10100000352E+00 0.  1.
</event>
<event>
 5   0  0.1989298E-02  0.7997422E+03  0.7818609E-02  0.9560390E-01
       -1   -1    0    0    0  501  0.00000000000E+00  0.00000000000E+00  0.12108918913E+03  0.12108918923E+03  0.50400001928E-02 0.  1.
        1   -1    0    0  501    0  0.00000000000E+00  0.00000000000E+00 -0.13204885904E+04  0.13204885904E+04  0.50400001928E-02 0. -1.
    10030    2    1    2    0    0  0.00000000000E+00  0.00000000000E+00 -0.11993994013E+04  0.14415777796E+04  0.79974219032E+03 0.  0.
        1    1    3    3  502    0 -0.21014489684E+02 -0.22121628211E+03 -0.11989466594E+04  0.12193651399E+04  0.50400001928E-02 0. -1.
       -1    1    3    3    0  502  0.21014489684E+02  0.22121628211E+03 -0.45274182251E+00  0.22221263971E+03  0.50400001928E-02 0.  1.
</event>
<event>
 5   0  0.2132540E-02  0.8063943E+03  0.7818609E-02  0.9550808E-01
        1   -1    0    0  501    0  0.00000000000E+00  0.00000000000E+00  0.43857616443E+03  0.43857616446E+03  0.50400001928E-02 0. -1.
       -1   -1    0    0    0  501  0.00000000000E+00  0.00000000000E+00 -0.37067206290E+03  0.37067206294E+03  0.50400001928E-02 0.  1.
    10030    2    1    2    0    0  0.00000000000E+00  0.00000000000E+00  0.67904101527E+02  0.80924822739E+03  0.80639427486E+03 0.  0.
        4    1    3    3  502    0 -0.31725796428E+03 -0.22096507216E+03 -0.80856248197E+02  0.39499053759E+03  0.12699999809E+01 0.  1.
       -4    1    3    3    0  502  0.31725796428E+03  0.22096507216E+03  0.14876034972E+03  0.41425768980E+03  0.12699999809E+01 0. -1.
</event>
<event>
 5   0  0.2077795E-02  0.7858387E+03  0.7818609E-02  0.9580744E-01
        1   -1    0    0  501    0  0.00000000000E+00  0.00000000000E+00  0.24018094864E+03  0.24018094869E+03  0.50400001928E-02 0.  1.
       -1   -1    0    0    0  501  0.00000000000E+00  0.00000000000E+00 -0.64278872927E+03  0.64278872929E+03  0.50400001928E-02 0. -1.
    10030    2    1    2    0    0  0.00000000000E+00  0.00000000000E+00 -0.40260778063E+03  0.88296967798E+03  0.78583867760E+03 0.  0.
        5    1    3    3  502    0  0.27894671790E+03 -0.27399139543E+03 -0.15806404390E+03  0.42176876149E+03  0.46999998093E+01 0. -1.
       -5    1    3    3    0  502 -0.27894671790E+03  0.27399139543E+03 -0.24454373673E+03  0.46120091649E+03  0.46999998093E+01 0.  1.
</event>
<event>
 5   0  0.3550586E-02  0.8258871E+03  0.7818609E-02  0.9523284E-01
       -2   -1    0    0    0  501  0.00000000000E+00  0.00000000000E+00  0.11505136482E+04  0.11505136482E+04  0.25500000920E-02 0.  1.
        2   -1    0    0  501    0  0.00000000000E+00  0.00000000000E+00 -0.14821411065E+03  0.14821411067E+03  0.25500000920E-02 0. -1.
    10030    2    1    2    0    0  0.00000000000E+00  0.00000000000E+00  0.10022995376E+04  0.12987277589E+04  0.82588705566E+03 0.  0.
        3    1    3    3  502    0 -0.15621587014E+03 -0.74167918121E+02 -0.88532444781E+02  0.19427372993E+03  0.10100000352E+00 0. -1.
       -3    1    3    3    0  502  0.15621587014E+03  0.74167918121E+02  0.10908319824E+04  0.11044540290E+04  0.10100000352E+00 0.  1.
</event>
<event>
 5   0  0.1989298E-02  0.7737628E+03  0.7818609E-02  0.9598791E-01
       -1   -1    0    0    0  501  0.00000000000E+00  0.00000000000E+00  0.21913715875E+03  0.21913715881E+03  0.50400001928E-02 0.  1.
        1   -1    0    0  501    0  0.00000000000E+00  0.00000000000E+00 -0.68302982962E+03  0.68302982964E+03  0.50400001928E-02 0. -1.
    10030    2    1    2    0    0  0.00000000000E+00  0.00000000000E+00 -0.46389267087E+03  0.90216698845E+03  0.77376279631E+03 0.  0.
        1    1    3    3  502    0 -0.33407183871E+03  0.54254981130E+02 -0.45047872376E+03  0.56345246204E+03  0.50400001928E-02 0. -1.
       -1    1    3    3    0  502  0.33407183871E+03 -0.54254981130E+02 -0.13413947109E+02  0.33871452640E+03  0.50400001928E-02 0.  1.
</event>
<event>
 5   0  0.3416160E-02  0.7994891E+03  0.7818609E-02  0.9560757E-01
       -2   -1    0    0    0  501  0.00000000000E+00  0.00000000000E+00  0.56800980640E+03  0.56800980641E+03  0.25500000920E-02 0. -1.
        2   -1    0    0  501    0  0.00000000000E+00  0.00000000000E+00 -0.28132559229E+03  0.28132559230E+03  0.25500000920E-02 0.  1.
    10030    2    1    2    0    0  0.00000000000E+00  0.00000000000E+00  0.28668421411E+03  0.84933539871E+03  0.79948907490E+03 0.  0.
        1    1    3    3  502    0 -0.25965889714E+03 -0.10707644260E+03  0.44551904645E+03  0.52666434111E+03  0.50400001928E-02 0. -1.
       -1    1    3    3    0  502  0.25965889714E+03  0.10707644260E+03 -0.15883483233E+03  0.32267105760E+03  0.50400001928E-02 0.  1.
</event>
<event>
 5   0  0.2132540E-02  0.7994204E+03  0.7818609E-02  0.9560856E-01
       -1   -1    0    0    0  501  0.00000000000E+00  0.00000000000E+00  0.10102352607E+04  0.10102352607E+04  0.50400001928E-02 0. -1.
        1   -1    0    0  501    0  0.00000000000E+00  0.00000000000E+00 -0.15814953517E+03  0.15814953525E+03  0.50400001928E-02 0.  1.
    10030    2    1    2    0    0  0.00000000000E+00  0.00000000000E+00  0.85208572549E+03  0.11683847959E+04  0.79942038238E+03 0.  0.
        4    1    3    3  502    0 -0.36567273457E+03  0.19024265559E+02  0.66029152300E+03  0.75502647618E+03  0.12699999809E+01 0. -1.
       -4    1    3    3    0  502  0.36567273457E+03 -0.19024265559E+02  0.19179420248E+03  0.41335831974E+03  0.12699999809E+01 0.  1.
</event>
<event>
 5   0  0.2077795E-02  0.7972471E+03  0.7818609E-02  0.9564010E-01
        1   -1    0    0  501    0  0.00000000000E+00  0.00000000000E+00  0.11047612695E+04  0.11047612695E+04  0.50400001928E-02 0.  1.
       -1   -1    0    0    0  501  0.00000000000E+00  0.00000000000E+00 -0.14383262689E+03  0.14383262697E+03  0.50400001928E-02 0. -1.
    10030    2    1    2    0    0  0.00000000000E+00  0.00000000000E+00  0.96092864264E+03  0.12485938965E+04  0.79724705215E+03 0.  0.
        5    1    3    3  502    0 -0.30564618370E+03 -0.23335992817E+02  0.81440305994E+02  0.31720462104E+03  0.46999998093E+01 0. -1.
       -5    1    3    3    0  502  0.30564618370E+03  0.23335992817E+02  0.87948833665E+03  0.93138927547E+03  0.46999998093E+01 0.  1.
</event>
<event>
 5   0  0.1358000E-02  0.8047081E+03  0.7818609E-02  0.9553227E-01
       -3   -1    0    0    0  501  0.00000000000E+00  0.00000000000E+00  0.10061940224E+03  0.10061945293E+03  0.10100000352E+00 0. -1.
        3   -1    0    0  501    0  0.00000000000E+00  0.00000000000E+00 -0.16089214667E+04  0.16089214699E+04  0.10100000352E+00 0.  1.
    10030    2    1    2    0    0  0.00000000000E+00  0.00000000000E+00 -0.15083020645E+04  0.17095409228E+04  0.80470805209E+03 0.  0.
        5    1    3    3  502    0 -0.96175500593E+02  0.26066892073E+03 -0.13723133042E+04  0.14001656716E+04  0.46999998093E+01 0.  1.
       -5    1    3    3    0  502  0.96175500593E+02 -0.26066892073E+03 -0.13598876034E+03  0.30937525125E+03  0.46999998093E+01 0. -1.
</event>
<event>
 5   0  0.2063692E-02  0.8379060E+03  0.7818609E-02  0.9506714E-01
       -1   -1    0    0    0  501  0.00000000000E+00  0.00000000000E+00  0.13476768561E+03  0.13476768571E+03  0.50400001928E-02 0.  1.
        1   -1    0    0  501    0  0.00000000000E+00  0.00000000000E+00 -0.13024012945E+04  0.13024012945E+04  0.50400001928E-02 0. -1.
    10030    2    1    2    0    0  0.00000000000E+00  0.00000000000E+00 -0.11676336088E+04  0.14371689802E+04  0.83790598105E+03 0.  0.
        2    1    3    3  502    0 -0.16567438993E+03 -0.36266340999E+03 -0.80446304423E+03  0.89784939827E+03  0.25500000920E-02 0.  1.
       -2    1    3    3    0  502  0.16567438993E+03  0.36266340999E+03 -0.36317056461E+03  0.53931958191E+03  0.25500000920E-02 0. -1.
</event>
<event>
 5   0  0.2063692E-02  0.7344082E+03  0.7818609E-02  0.9660134E-01
       -1   -1    0    0    0  501  0.00000000000E+00  0.00000000000E+00  0.27531834249E+03  0.27531834253E+03  0.50400001928E-02 0. -1.
        1   -1    0    0  501    0  0.00000000000E+00  0.00000000000E+00 -0.48975616224E+03  0.48975616227E+03  0.50400001928E-02 0.  1.
    10030    2    1    2    0    0  0.00000000000E+00  0.00000000000E+00 -0.21443781976E+03  0.76507450480E+03  0.73440821030E+03 0.  0.
        2    1    3    3  502    0  0.74097500242E+02  0.46048513883E+02  0.26436548811E+03  0.27838824775E+03  0.25500000920E-02 0. -1.
       -2    1    3    3    0  502 -0.74097500242E+02 -0.46048513883E+02 -0.47880330787E+03  0.48668625705E+03  0.25500000920E-02 0.  1.
</event>
<event>
 5   0  0.1358000E-02  0.7808913E+03  0.7818609E-02  0.9588096E-01
        3   -1    0    0  501    0  0.00000000000E+00  0.00000000000E+00  0.39126964250E+03  0.39126965554E+03  0.10100000352E+00 0. -1.
       -3   -1    0    0    0  501  0.00000000000E+00  0.00000000000E+00 -0.38962334934E+03  0.38962336243E+03  0.10100000352E+00 0.  1.
    10030    2    1    2    0    0  0.00000000000E+00  0.00000000000E+00  0.16462931682E+01  0.78089301797E+03  0.78089128259E+03 0.  0.
        5    1    3    3  502    0 -0.65606567264E+01  0.56849628790E+02  0.38702445318E+03  0.39126070575E+03  0.46999998093E+01 0. -1.
       -5    1    3    3    0  502  0.65606567264E+01 -0.56849628790E+02 -0.38537816001E+03  0.38963231221E+03  0.46999998093E+01 0.  1.
</event>
<event>
 5   0  0.2077795E-02  0.8018638E+03  0.7818609E-02  0.9557323E-01
       -1   -1    0    0    0  501  0.00000000000E+00  0.00000000000E+00  0.28473730843E+03  0.28473730847E+03  0.50400001928E-02 0.  1.
        1   -1    0    0  501    0  0.00000000000E+00  0.00000000000E+00 -0.56454276277E+03  0.56454276280E+03  0.50400001928E-02 0. -1.
    10030    2    1    2    0    0  0.00000000000E+00  0.00000000000E+00 -0.27980545435E+03  0.84928007127E+03  0.80186379590E+03 0.  0.
        5    1    3    3  502    0 -0.23178097338E+03  0.10637995332E+03  0.18771898299E+03  0.31670115356E+03  0.46999998093E+01 0.  1.
       -5    1    3    3    0  502  0.23178097338E+03 -0.10637995332E+03 -0.46752443734E+03  0.53257891771E+03  0.46999998093E+01 0. -1.
</event>
<event>
 5   0  0.3467240E-02  0.7848665E+03  0.7818609E-02  0.9582184E-01
       -2   -1    0    0    0  501  0.00000000000E+00  0.00000000000E+00  0.14174232146E+03  0.14174232148E+03  0.25500000920E-02 0. -1.
        2   -1    0    0  501    0  0.00000000000E+00  0.00000000000E+00 -0.10865058467E+04  0.10865058467E+04  0.25500000920E-02 0.  1.
    10030    2    1    2    0    0  0.00000000000E+00  0.00000000000E+00 -0.94476352528E+03  0.12282481682E+04  0.78486651353E+03 0.  0.
        2    1    3    3  502    0 -0.69598269589E+02  0.23776298585E+03  0.38990870957E+01  0.24777078007E+03  0.25500000920E-02 0. -1.
       -2    1    3    3    0  502  0.69598269589E+02 -0.23776298585E+03 -0.94866261238E+03  0.98047738816E+03  0.25500000920E-02 0.  1.
</event>
<event>
 5   0  0.2132540E-02  0.7815242E+03  0.7818609E-02  0.9587152E-01
       -1   -1    0    0    0  501  0.00000000000E+00  0.00000000000E+00  0.21983101681E+03  0.21983101687E+03  0.50400001928E-02 0.  1.
        1   -1    0    0  501    0  0.00000000000E+00  0.00000000000E+00 -0.69460184762E+03  0.69460184764E+03  0.50400001928E-02 0. -1.
    10030    2    1    2    0    0  0.00000000000E+00  0.00000000000E+00 -0.47477083081E+03  0.91443286451E+03  0.78152422988E+03 0.  0.
        4    1    3    3  502    0 -0.17230426140E+03  0.33362830775E+03 -0.36392987096E+03  0.52291793821E+03  0.12699999809E+01 0.  1.
       -4    1    3    3    0  502  0.17230426140E+03 -0.33362830775E+03 -0.11084095986E+03  0.39151492629E+03  0.12699999809E+01 0. -1.
</event>
<event>
 5   0  0.1989298E-02  0.7460356E+03  0.7818609E-02  0.9641590E-01
        1   -1    0    0  501    0  0.00000000000E+00  0.00000000000E+00  0.76763957200E+03  0.76763957202E+03  0.50400001928E-02 0.  1.
       -1   -1    0    0    0  501  0.00000000000E+00  0.00000000000E+00 -0.18125992312E+03  0.18125992319E+03  0.50400001928E-02 0. -1.
    10030    2    1    2    0    0  0.00000000000E+00  0.00000000000E+00  0.58637964889E+03  0.94889949521E+03  0.74603562876E+03 0.  0.
        1    1    3    3  502    0  0.23810631280E+03 -0.52691526746E+02  0.65220394880E+03  0.69630525206E+03  0.50400001928E-02 0.  1.
       -1    1    3    3    0  502 -0.23810631280E+03  0.52691526746E+02 -0.65824299914E+02  0.25259424315E+03  0.50400001928E-02 0. -1.
</event>
<event>
 5   0  0.1989298E-02  0.7992781E+03  0.7818609E-02  0.9561063E-01
       -1   -1    0    0    0  501  0.00000000000E+00  0.00000000000E+00  0.14443872819E+03  0.14443872828E+03  0.50400001928E-02 0.  1.
        1   -1    0    0  501    0  0.00000000000E+00  0.00000000000E+00 -0.11057379360E+04  0.11057379360E+04  0.50400001928E-02 0. -1.
    10030    2    1    2    0    0  0.00000000000E+00  0.00000000000E+00 -0.96129920780E+03  0.12501766643E+04  0.79927812744E+03 0.  0.
        1    1    3    3  502    0  0.21115712802E+03  0.13584976655E+03  0.56644544203E+01  0.25114652667E+03  0.50400001928E-02 0.  1.
       -1    1    3    3    0  502 -0.21115712802E+03 -0.13584976655E+03 -0.96696366222E+03  0.99903013761E+03  0.50400001928E-02 0. -1.
</event>
<event>
 5   0  0.1358000E-02  0.7838494E+03  0.7818609E-02  0.9583693E-01
       -3   -1    0    0    0  501  0.00000000000E+00  0.00000000000E+00  0.16536070713E+04  0.16536070744E+04  0.10100000352E+00 0.  1.
        3   -1    0    0  501    0  0.00000000000E+00  0.00000000000E+00 -0.92890815299E+02  0.92890870207E+02  0.10100000352E+00 0. -1.
    10030    2    1    2    0    0  0.00000000000E+00  0.00000000000E+00  0.15607162560E+04  0.17464979446E+04  0.78384937247E+03 0.  0.
        1    1    3    3  502    0 -0.12109273244E+03  0.11043234223E+03 -0.12878848759E+02  0.16439165682E+03  0.50400001928E-02 0. -1.
       -1    1    3    3    0  502  0.12109273244E+03 -0.11043234223E+03  0.15735951048E+04  0.15821062878E+04  0.50400001928E-02 0.  1.
</event>
<event>
 5   0  0.3343036E-02  0.7756404E+03  0.7818609E-02  0.9595962E-01
        2   -1    0    0  501    0  0.00000000000E+00  0.00000000000E+00  0.37337965975E+03  0.37337965976E+03  0.25500000920E-02 0.  1.
       -2   -1    0    0    0  501  0.00000000000E+00  0.00000000000E+00 -0.40281925823E+03  0.40281925824E+03  0.25500000920E-02 0. -1.
    10030    2    1    2    0    0  0.00000000000E+00  0.00000000000E+00 -0.29439598482E+02  0.77619891800E+03  0.77564042594E+03 0.  0.
        4    1    3    3  502    0 -0.32487476770E+03 -0.59686725656E+02 -0.21808222658E+03  0.39581256974E+03  0.12699999809E+01 0. -1.
       -4    1    3    3    0  502  0.32487476770E+03  0.59686725656E+02  0.18864262810E+03  0.38038634827E+03  0.12699999809E+01 0.  1.
</event>
<event>
 5   0  0.1989298E-02  0.8235108E+03  0.7818609E-02  0.9526596E-01
       -1   -1    0    0    0  501  0.00000000000E+00  0.00000000000E+00  0.10244043340E+03  0.10244043353E+03  0.50400001928E-02 0.  1.
        1   -1    0    0  501    0  0.00000000000E+00  0.00000000000E+00 -0.16550351314E+04  0.16550351314E+04  0.50400001928E-02 0. -1.
    10030    2    1    2    0    0  0.00000000000E+00  0.00000000000E+00 -0.15525946980E+04  0.17574755650E+04  0.82351081663E+03 0.  0.
        1    1    3    3  502    0  0.35428821715E+03 -0.19905755670E+03 -0.63476016975E+03  0.75370055381E+03  0.50400001928E-02 0. -1.
       -1    1    3    3    0  502 -0.35428821715E+03  0.19905755670E+03 -0.91783452827E+03  0.10037750111E+04  0.50400001928E-02 0.  1.
</event>
<event>
 5   0  0.3343036E-02  0.7897282E+03  0.7818609E-02  0.9575005E-01
       -2   -1    0    0    0  501  0.00000000000E+00  0.00000000000E+00  0.31742149904E+03  0.31742149905E+03  0.25500000920E-02 0. -1.
        2   -1    0    0  501    0  0.00000000000E+00  0.00000000000E+00 -0.49120067321E+03  0.49120067321E+03  0.25500000920E-02 0.  1.
    10030    2    1    2    0    0  0.00000000000E+00  0.00000000000E+00 -0.17377917417E+03  0.80862217226E+03  0.78972819128E+03 0.  0.
        4    1    3    3  502    0 -0.39104683503E+03  0.92903828049E+01 -0.14214455735E+03  0.41618580764E+03  0.12699999809E+01 0.  1.
       -4    1    3    3    0  502  0.39104683503E+03 -0.92903828049E+01 -0.31634616821E+02  0.39243636462E+03  0.12699999809E+01 0. -1.
</event>
<event>
 5   0  0.3550586E-02  0.1033422E+04  0.7818609E-02  0.9272629E-01
       -2   -1    0    0    0  501  0.00000000000E+00  0.00000000000E+00  0.55171967577E+03  0.55171967578E+03  0.25500000920E-02 0.  1.
        2   -1    0    0  501    0  0.00000000000E+00  0.00000000000E+00 -0.48392408738E+03  0.48392408739E+03  0.25500000920E-02 0. -1.
    10030    2    1    2    0    0  0.00000000000E+00  0.00000000000E+00  0.67795588392E+02  0.10356437632E+04  0.10334223543E+04 0.  0.
        3    1    3    3  502    0  0.18881909539E+03 -0.40129133870E+03 -0.23181936351E+03  0.50042743410E+03  0.10100000352E+00 0. -1.
       -3    1    3    3    0  502 -0.18881909539E+03  0.40129133870E+03  0.29961495190E+03  0.53521632907E+03  0.10100000352E+00 0.  1.
</event>
<event>
 5   0  0.3416160E-02  0.8028846E+03  0.7818609E-02  0.9555851E-01
       -2   -1    0    0    0  501  0.00000000000E+00  0.00000000000E+00  0.14284306445E+03  0.14284306447E+03  0.25500000920E-02 0. -1.
        2   -1    0    0  501    0  0.00000000000E+00  0.00000000000E+00 -0.11282024898E+04  0.11282024898E+04  0.25500000920E-02 0.  1.
    10030    2    1    2    0    0  0.00000000000E+00  0.00000000000E+00 -0.98535942537E+03  0.12710455543E+04  0.80288455206E+03 0.  0.
        1    1    3    3  502    0 -0.18844315013E+03  0.21711867614E+03 -0.49116564113E+02  0.29165695132E+03  0.50400001928E-02 0. -1.
       -1    1    3    3    0  502  0.18844315013E+03 -0.21711867614E+03 -0.93624286125E+03  0.97938860297E+03  0.50400001928E-02 0.  1.
</event>
<event>
 5   0  0.3343036E-02  0.7952209E+03  0.7818609E-02  0.9566961E-01
        2   -1    0    0  501    0  0.00000000000E+00  0.00000000000E+00  0.12807668594E+04  0.12807668594E+04  0.25500000920E-02 0. -1.
       -2   -1    0    0    0  501  0.00000000000E+00  0.00000000000E+00 -0.12343703654E+03  0.12343703657E+03  0.25500000920E-02 0.  1.
    10030    2    1    2    0    0  0.00000000000E+00  0.00000000000E+00  0.11573298228E+04  0.14042038959E+04  0.79522088917E+03 0.  0.
        4    1    3    3  502    0 -0.21084559918E+03  0.10238412244E+03  0.11457987932E+04  0.11695276237E+04  0.12699999809E+01 0. -1.
       -4    1    3    3    0  502  0.21084559918E+03 -0.10238412244E+03  0.11531029660E+02  0.23467627227E+03  0.12699999809E+01 0.  1.
</event>
<event>
 5   0  0.1989298E-02  0.8130258E+03  0.7818609E-02  0.9541352E-01
       -1   -1    0    0    0  501  0.00000000000E+00  0.00000000000E+00  0.17653116211E+03  0.17653116218E+03  0.50400001928E-02 0. -1.
        1   -1    0    0  501    0  0.00000000000E+00  0.00000000000E+00 -0.93611085163E+03  0.93611085164E+03  0.50400001928E-02 0.  1.
    10030    2    1    2    0    0  0.00000000000E+00  0.00000000000E+00 -0.75957968952E+03  0.11126420138E+04  0.81302579675E+03 0.  0.
        1    1    3    3  502    0 -0.30163097255E+03 -0.10888576908E+03 -0.72168814882E+03  0.78972852201E+03  0.50400001928E-02 0.  1.
       -1    1    3    3    0  502  0.30163097255E+03  0.10888576908E+03 -0.37891540706E+02  0.32291349181E+03  0.50400001928E-02 0. -1.
</event>
<event>
 5   0  0.3550586E-02  0.8057892E+03  0.7818609E-02  0.9551675E-01
        2   -1    0    0  501    0  0.00000000000E+00  0.00000000000E+00  0.64592774143E+03  0.64592774144E+03  0.25500000920E-02 0.  1.
       -2   -1    0    0    0  501  0.00000000000E+00  0.00000000000E+00 -0.25130376282E+03  0.25130376283E+03  0.25500000920E-02 0. -1.
    10030    2    1    2    0    0  0.00000000000E+00  0.00000000000E+00  0.39462397861E+03  0.89723150427E+03  0.80578923284E+03 0.  0.
        3    1    3    3  502    0  0.39392001519E+03  0.16714920413E+02  0.10500916584E+03  0.40801875207E+03  0.10100000352E+00 0. -1.
       -3    1    3    3    0  502 -0.39392001519E+03 -0.16714920413E+02  0.28961481277E+03  0.48921275219E+03  0.10100000352E+00 0.  1.
</event>
<event>
 5   0  0.1989298E-02  0.8471328E+03  0.7818609E-02  0.9494193E-01
        1   -1    0    0  501    0  0.00000000000E+00  0.00000000000E+00  0.33347271544E+03  0.33347271548E+03  0.50400001928E-02 0. -1.
       -1   -1    0    0    0  501  0.00000000000E+00  0.00000000000E+00 -0.53800056435E+03  0.53800056438E+03  0.50400001928E-02 0.  1.
    10030    2    1    2    0    0  0.00000000000E+00  0.00000000000E+00 -0.20452784891E+03  0.87147327985E+03  0.84713283287E+03 0.  0.
        1    1    3    3  502    0  0.12248194213E+03 -0.39265819837E+02 -0.51742466802E+03  0.53317156512E+03  0.50400001928E-02 0.  1.
       -1    1    3    3    0  502 -0.12248194213E+03  0.39265819837E+02  0.31289681911E+03  0.33830171473E+03  0.50400001928E-02 0. -1.
</event>
<event>
 5   0  0.3343036E-02  0.8119601E+03  0.7818609E-02  0.9542865E-01
       -2   -1    0    0    0  501  0.00000000000E+00  0.00000000000E+00  0.11654914467E+03  0.11654914469E+03  0.25500000920E-02 0. -1.
        2   -1    0    0  501    0  0.00000000000E+00  0.00000000000E+00 -0.14141657126E+04  0.14141657126E+04  0.25500000920E-02 0.  1.
    10030    2    1    2    0    0  0.00000000000E+00  0.00000000000E+00 -0.12976165680E+04  0.15307148573E+04  0.81196010800E+03 0.  0.
        4    1    3    3  502    0  0.22422696925E+03  0.32447994618E+03 -0.83015349824E+03  0.91908727157E+03  0.12699999809E+01 0. -1.
       -4    1    3    3    0  502 -0.22422696925E+03 -0.32447994618E+03 -0.46746306973E+03  0.61162758577E+03  0.12699999809E+01 0.  1.
</event>
<event>
 5   0  0.3467240E-02  0.8132314E+03  0.7818609E-02  0.9541060E-01
        2   -1    0    0  501    0  0.00000000000E+00  0.00000000000E+00  0.77205324381E+03  0.77205324381E+03  0.25500000920E-02 0.  1.
       -2   -1    0    0    0  501  0.00000000000E+00  0.00000000000E+00 -0.21415148074E+03  0.21415148075E+03  0.25500000920E-02 0. -1.
    10030    2    1    2    0    0  0.00000000000E+00  0.00000000000E+00  0.55790176307E+03  0.98620472457E+03  0.81323144401E+03 0.  0.
        2    1    3    3  502    0  0.22185873394E+03  0.23174835810E+02  0.69122916190E+03  0.72633058941E+03  0.25500000920E-02 0.  1.
       -2    1    3    3    0  502 -0.22185873394E+03 -0.23174835810E+02 -0.13332739883E+03  0.25987413516E+03  0.25500000920E-02 0. -1.
</event>
<event>
 5   0  0.3416160E-02  0.8016965E+03  0.7818609E-02  0.9557565E-01
       -2   -1    0    0    0  501  0.00000000000E+00  0.00000000000E+00  0.22924810156E+03  0.22924810157E+03  0.25500000920E-02 0.  1.
        2   -1    0    0  501    0  0.00000000000E+00  0.00000000000E+00 -0.70089704692E+03  0.70089704693E+03  0.25500000920E-02 0. -1.
    10030    2    1    2    0    0  0.00000000000E+00  0.00000000000E+00 -0.47164894536E+03  0.93014514850E+03  0.80169649470E+03 0.  0.
        1    1    3    3  502    0  0.11609168110E+03  0.38366915939E+03 -0.23568193690E+03  0.46500029860E+03  0.50400001928E-02 0.  1.
       -1    1    3    3    0  502 -0.11609168110E+03 -0.38366915939E+03 -0.23596700846E+03  0.46514484990E+03  0.50400001928E-02 0. -1.
</event>
<event>
 5   0  0.3550586E-02  0.7947802E+03  0.7818609E-02  0.9567603E-01
       -2   -1    0    0    0  501  0.00000000000E+00  0.00000000000E+00  0.15224268427E+03  0.15224268429E+03  0.25500000920E-02 0. -1.
        2   -1    0    0  501    0  0.00000000000E+00  0.00000000000E+00 -0.10372840407E+04  0.10372840407E+04  0.25500000920E-02 0.  1.
    10030    2    1    2    0    0  0.00000000000E+00  0.00000000000E+00 -0.88504135646E+03  0.11895267250E+04  0.79478023811E+03 0.  0.
        3    1    3    3  502    0 -0.24840108017E+03 -0.89391116342E+01  0.21534821721E+02  0.24949301212E+03  0.10100000352E+00 0. -1.
       -3    1    3    3    0  502  0.24840108017E+03  0.89391116342E+01 -0.90657617818E+03  0.94003371290E+03  0.10100000352E+00 0.  1.
</event>
<event>
 5   0  0.1358000E-02  0.7485079E+03  0.7818609E-02  0.9637694E-01
       -3   -1    0    0    0  501  0.00000000000E+00  0.00000000000E+00  0.18611938475E+03  0.18611941216E+03  0.10100000352E+00 0.  1.
        3   -1    0    0  501    0  0.00000000000E+00  0.00000000000E+00 -0.75255996552E+03  0.75255997230E+03  0.10100000352E+00 0. -1.
    10030    2    1    2    0    0  0.00000000000E+00  0.00000000000E+00 -0.56644058077E+03  0.93867938445E+03  0.74850788590E+03 0.  0.
        1    1    3    3  502    0  0.31014411493E+03  0.14508638160E+03 -0.47269068440E+03  0.58367449258E+03  0.50400001928E-02 0. -1.
       -1    1    3    3    0  502 -0.31014411493E+03 -0.14508638160E+03 -0.93749896373E+02  0.35500489187E+03  0.50400001928E-02 0.  1.
</event>
<event>
 5   0  0.3467240E-02  0.8143861E+03  0.7818609E-02  0.9539424E-01
       -2   -1    0    0    0  501  0.00000000000E+00  0.00000000000E+00  0.18122562962E+03  0.18122562964E+03  0.25500000920E-02 0.  1.
        2   -1    0    0  501    0  0.00000000000E+00  0.00000000000E+00 -0.91491569867E+03  0.91491569867E+03  0.25500000920E-02 0. -1.
    10030    2    1    2    0    0  0.00000000000E+00  0.00000000000E+00 -0.73369006905E+03  0.10961413283E+04  0.81438608425E+03 0.  0.
        2    1    3    3  502    0 -0.10556430693E+02  0.24368398103E+03  0.72018093524E+02  0.25432248552E+03  0.25500000920E-02 0.  1.
       -2    1    3    3    0  502  0.10556430693E+02 -0.24368398103E+03 -0.80570816257E+03  0.84181884279E+03  0.25500000920E-02 0. -1.
</event>
<event>
 5   0  0.2063692E-02  0.7941622E+03  0.7818609E-02  0.9568506E-01
        1   -1    0    0  501    0  0.00000000000E+00  0.00000000000E+00  0.54498400220E+03  0.54498400222E+03  0.50400001928E-02 0. -1.
       -1   -1    0    0    0  501  0.00000000000E+00  0.00000000000E+00 -0.28931749078E+03  0.28931749082E+03  0.50400001928E-02 0.  1.
    10030    2    1    2    0    0  0.00000000000E+00  0.00000000000E+00  0.25566651142E+03  0.83430149304E+03  0.79416221028E+03 0.  0.
        2    1    3    3  502    0  0.35672053915E+03 -0.10799207916E+03 -0.16062642192E+02  0.37305474222E+03  0.25500000920E-02 0.  1.
       -2    1    3    3    0  502 -0.35672053915E+03  0.10799207916E+03  0.27172915361E+03  0.46124675082E+03  0.25500000920E-02 0. -1.
</event>
<event>
 5   0  0.2063692E-02  0.8135338E+03  0.7818609E-02  0.9540632E-01
        1   -1    0    0  501    0  0.00000000000E+00  0.00000000000E+00  0.55197836070E+03  0.55197836072E+03  0.50400001928E-02 0. -1.
       -1   -1    0    0    0  501  0.00000000000E+00  0.00000000000E+00 -0.29975686721E+03  0.29975686725E+03  0.50400001928E-02 0.  1.
    10030    2    1    2    0    0  0.00000000000E+00  0.00000000000E+00  0.25222149349E+03  0.85173522798E+03  0.81353378344E+03 0.  0.
        2    1    3    3  502    0 -0.22791966778E+03  0.60178488113E+02 -0.22095283980E+03  0.32309283932E+03  0.25500000920E-02 0.  1.
       -2    1    3    3    0  502  0.22791966778E+03 -0.60178488113E+02  0.47317433329E+03  0.52864238866E+03  0.25500000920E-02 0. -1.
</event>
<event>
 5   0  0.2132540E-02  0.8182606E+03  0.7818609E-02  0.9533955E-01
       -1   -1    0    0    0  501  0.00000000000E+00  0.00000000000E+00  0.35008007412E+03  0.35008007416E+03  0.50400001928E-02 0. -1.
        1   -1    0    0  501    0  0.00000000000E+00  0.00000000000E+00 -0.47814088583E+03  0.47814088586E+03  0.50400001928E-02 0.  1.
    10030    2    1    2    0    0  0.00000000000E+00  0.00000000000E+00 -0.12806081172E+03  0.82822096002E+03  0.81826058631E+03 0.  0.
        4    1    3    3  502    0 -0.15403970672E+03 -0.93879374888E+02  0.30765119852E+03  0.35664049283E+03  0.12699999809E+01 0. -1.
       -4    1    3    3    0  502  0.15403970672E+03  0.93879374888E+02 -0.43571201023E+03  0.47158046719E+03  0.12699999809E+01 0.  1.
</event>
<event>
 5   0  0.2077795E-02  0.6648711E+03  0.7818609E-02  0.9779268E-01
        1   -1    0    0  501    0  0.00000000000E+00  0.00000000000E+00  0.29737427805E+03  0.29737427809E+03  0.50400001928E-02 0. -1.
       -1   -1    0    0    0  501  0.00000000000E+00  0.00000000000E+00 -0.37163065599E+03  0.37163065602E+03  0.50400001928E-02 0.  1.
    10030    2    1    2    0    0  0.00000000000E+00  0.00000000000E+00 -0.74256377941E+02  0.66900493412E+03  0.66487110947E+03 0.  0.
        5    1    3    3  502    0 -0.28741858301E+03  0.24868899163E+02  0.12901475389E+03  0.31606138759E+03  0.46999998093E+01 0. -1.
       -5    1    3    3    0  502  0.28741858301E+03 -0.24868899163E+02 -0.20327113183E+03  0.35294354653E+03  0.46999998093E+01 0.  1.
</event>
<event>
 5   0  0.2077795E-02  0.7995922E+03  0.7818609E-02  0.9560608E-01
       -1   -1    0    0    0  501  0.00000000000E+00  0.00000000000E+00  0.12697764335E+03  0.12697764345E+03  0.50400001928E-02 0. -1.
        1   -1    0    0  501    0  0.00000000000E+00  0.00000000000E+00 -0.12587799433E+04  0.12587799433E+04  0.50400001928E-02 0.  1.
    10030    2    1    2    0    0  0.00000000000E+00  0.00000000000E+00 -0.11318022999E+04  0.13857575867E+04  0.79959217297E+03 0.  0.
        5    1    3    3  502    0  0.29468022192E+03 -0.22562203213E+02 -0.10324486509E+04  0.10739263443E+04  0.46999998093E+01 0.  1.
       -5    1    3    3    0  502 -0.29468022192E+03  0.22562203213E+02 -0.99353649049E+02  0.31183124247E+03  0.46999998093E+01 0. -1.
</event>
<event>
 5   0  0.3550586E-02  0.7984295E+03  0.7818609E-02  0.9562293E-01
       -2   -1    0    0    0  501  0.00000000000E+00  0.00000000000E+00  0.23240327250E+03  0.23240327251E+03  0.25500000920E-02 0.  1.
        2   -1    0    0  501    0  0.00000000000E+00  0.00000000000E+00 -0.68575813134E+03  0.68575813134E+03  0.25500000920E-02 0. -1.
    10030    2    1    2    0    0  0.00000000000E+00  0.00000000000E+00 -0.45335485884E+03  0.91816140385E+03  0.79842954322E+03 0.  0.
        3    1    3    3  502    0  0.23277568417E+03 -0.40034286180E+02 -0.59678775887E+03  0.64182778262E+03  0.10100000352E+00 0. -1.
       -3    1    3    3    0  502 -0.23277568417E+03  0.40034286180E+02  0.14343290003E+03  0.27633362123E+03  0.10100000352E+00 0.  1.
</event>
<event>
 5   0  0.3550586E-02  0.7826056E+03  0.7818609E-02  0.9585542E-01
        2   -1    0    0  501    0  0.00000000000E+00  0.00000000000E+00  0.11276476259E+04  0.11276476259E+04  0.25500000920E-02 0.  1.
       -2   -1    0    0    0  501  0.00000000000E+00  0.00000000000E+00 -0.13578522198E+03  0.13578522200E+03  0.25500000920E-02 0. -1.
    10030    2    1    2    0    0  0.00000000000E+00  0.00000000000E+00  0.99186240389E+03  0.12634328479E+04  0.78260560492E+03 0.  0.
        3    1    3    3  502    0  0.23027711709E+03 -0.27833065435E+03  0.73874773444E+03  0.82234039737E+03  0.10100000352E+00 0.  1.
       -3    1    3    3    0  502 -0.23027711709E+03  0.27833065435E+03  0.25311466945E+03  0.44109245051E+03  0.10100000352E+00 0. -1.
</event>
<event>
 5   0  0.2077795E-02  0.8167991E+03  0.7818609E-02  0.9536014E-01
        1   -1    0    0  501    0  0.00000000000E+00  0.00000000000E+00  0.14735815872E+04  0.14735815872E+04  0.50400001928E-02 0.  1.
       -1   -1    0    0    0  501  0.00000000000E+00  0.00000000000E+00 -0.11318694623E+03  0.11318694635E+03  0.50400001928E-02 0. -1.
    10030    2    1    2    0    0  0.00000000000E+00  0.00000000000E+00  0.13603946409E+04  0.15867685335E+04  0.81679911845E+03 0.  0.
        5    1    3    3  502    0 -0.35306809371E+03  0.14612650507E+03  0.96009020951E+03  0.10333466672E+04  0.46999998093E+01 0.  1.
       -5    1    3    3    0  502  0.35306809371E+03 -0.14612650507E+03  0.40030443144E+03  0.55342186631E+03  0.46999998093E+01 0. -1.
</event>
<event>
 5   0  0.3416160E-02  0.7997165E+03  0.7818609E-02  0.9560428E-01
       -2   -1    0    0    0  501  0.00000000000E+00  0.00000000000E+00  0.59698025028E+03  0.59698025028E+03  0.25500000920E-02 0.  1.
        2   -1    0    0  501    0  0.00000000000E+00  0.00000000000E+00 -0.26782566242E+03  0.26782566244E+03  0.25500000920E-02 0. -1.
    10030    2    1    2    0    0  0.00000000000E+00  0.00000000000E+00  0.32915458785E+03  0.86480591272E+03  0.79971652726E+03 0.  0.
        1    1    3    3  502    0 -0.12894338830E+03 -0.45460734185E+02  0.57091770512E+03  0.58706056058E+03  0.50400001928E-02 0.  1.
       -1    1    3    3    0  502  0.12894338830E+03  0.45460734185E+02 -0.24176311727E+03  0.27774535214E+03  0.50400001928E-02 0. -1.
</event>
<event>
 5   0  0.2063692E-02  0.7980085E+03  0.7818609E-02  0.9562904E-01
        1   -1    0    0  501    0  0.00000000000E+00  0.00000000000E+00  0.24260782294E+03  0.24260782299E+03  0.50400001928E-02 0. -1.
       -1   -1    0    0    0  501  0.00000000000E+00  0.00000000000E+00 -0.65622120450E+03  0.65622120452E+03  0.50400001928E-02 0.  1.
    10030    2    1    2    0    0  0.00000000000E+00  0.00000000000E+00 -0.41361338156E+03  0.89882902751E+03  0.79800851580E+03 0.  0.
        2    1    3    3  502    0  0.20858158009E+03 -0.62910694808E+02 -0.58331503868E+03  0.62267203681E+03  0.25500000920E-02 0.  1.
       -2    1    3    3    0  502 -0.20858158009E+03  0.62910694808E+02  0.16970165712E+03  0.27615699070E+03  0.25500000920E-02 0. -1.
</event>
<event>
 5   0  0.3550586E-02  0.8021291E+03  0.7818609E-02  0.9556940E-01
        2   -1    0    0  501    0  0.00000000000E+00  0.00000000000E+00  0.48933503960E+03  0.48933503961E+03  0.25500000920E-02 0.  1.
       -2   -1    0    0    0  501  0.00000000000E+00  0.00000000000E+00 -0.32871704957E+03  0.32871704958E+03  0.25500000920E-02 0. -1.
    10030    2    1    2    0    0  0.00000000000E+00  0.00000000000E+00  0.16061799003E+03  0.81805208919E+03  0.80212909304E+03 0.  0.
        3    1    3    3  502    0 -0.40079039129E+03  0.65898569308E+01  0.66763919364E+02  0.40636657724E+03  0.10100000352E+00 0. -1.
       -3    1    3    3    0  502  0.40079039129E+03 -0.65898569308E+01  0.93854070661E+02  0.41168551195E+03  0.10100000352E+00 0.  1.
</event>
<event>
 5   0  0.3343036E-02  0.7912933E+03  0.7818609E-02  0.9572706E-01
        2   -1    0    0  501    0  0.00000000000E+00  0.00000000000E+00  0.75101046066E+03  0.75101046066E+03  0.25500000920E-02 0. -1.
       -2   -1    0    0    0  501  0.00000000000E+00  0.00000000000E+00 -0.20843422924E+03  0.20843422925E+03  0.25500000920E-02 0.  1.
    10030    2    1    2    0    0  0.00000000000E+00  0.00000000000E+00  0.54257623142E+03  0.95944468992E+03  0.79129333758E+03 0.  0.
        4    1    3    3  502    0 -0.33238932671E+03 -0.21070149195E+03  0.22193332368E+03  0.45181168232E+03  0.12699999809E+01 0. -1.
       -4    1    3    3    0  502  0.33238932671E+03  0.21070149195E+03  0.32064290774E+03  0.50763300760E+03  0.12699999809E+01 0.  1.
</event>
<event>
 5   0  0.3404132E-02  0.7607245E+03  0.7818609E-02  0.9618674E-01
        2   -1    0    0  501    0  0.00000000000E+00  0.00000000000E+00  0.96311108680E+03  0.96311108680E+03  0.25500000920E-02 0. -1.
       -2   -1    0    0    0  501  0.00000000000E+00  0.00000000000E+00 -0.15021679441E+03  0.15021679443E+03  0.25500000920E-02 0.  1.
    10030    2    1    2    0    0  0.00000000000E+00  0.00000000000E+00  0.81289429239E+03  0.11133278812E+04  0.76072454971E+03 0.  0.
        5    1    3    3  502    0  0.16303031403E+03  0.19911441573E+03  0.81630291022E+03  0.85591936833E+03  0.46999998093E+01 0. -1.
       -5    1    3    3    0  502 -0.16303031403E+03 -0.19911441573E+03 -0.34086178287E+01  0.25740851291E+03  0.46999998093E+01 0.  1.
</event>
<event>
 5   0  0.1989298E-02  0.7987544E+03  0.7818609E-02  0.9561822E-01
       -1   -1    0    0    0  501  0.00000000000E+00  0.00000000000E+00  0.60248049074E+03  0.60248049076E+03  0.50400001928E-02 0. -1.
        1   -1    0    0  501    0  0.00000000000E+00  0.00000000000E+00 -0.26474245786E+03  0.26474245791E+03  0.50400001928E-02 0.  1.
    10030    2    1    2    0    0  0.00000000000E+00  0.00000000000E+00  0.33773803287E+03  0.86722294867E+03  0.79875444528E+03 0.  0.
        1    1    3    3  502    0  0.16896521326E+03  0.22662989709E+03 -0.13743428000E+03  0.31432234233E+03  0.50400001928E-02 0.  1.
       -1    1    3    3    0  502 -0.16896521326E+03 -0.22662989709E+03  0.47517231287E+03  0.55290060634E+03  0.50400001928E-02 0. -1.
</event>
<event>
 5   0  0.2129257E-02  0.7673169E+03  0.7818609E-02  0.9608568E-01
       -1   -1    0    0    0  501  0.00000000000E+00  0.00000000000E+00  0.55082744051E+03  0.55082744053E+03  0.50400001928E-02 0.  1.
        1   -1    0    0  501    0  0.00000000000E+00  0.00000000000E+00 -0.26722310459E+03  0.26722310464E+03  0.50400001928E-02 0. -1.
    10030    2    1    2    0    0  0.00000000000E+00  0.00000000000E+00  0.28360433591E+03  0.81805054517E+03  0.76731693264E+03 0.  0.
        3    1    3    3  502    0  0.33096545778E+03 -0.92586153604E+02 -0.40012338206E+02  0.34599324775E+03  0.10100000352E+00 0.  1.
       -3    1    3    3    0  502 -0.33096545778E+03  0.92586153604E+02  0.32361667412E+03  0.47205729742E+03  0.10100000352E+00 0. -1.
</event>
<event>
 5   0  0.2132540E-02  0.8020006E+03  0.7818609E-02  0.9557126E-01
       -1   -1    0    0    0  501  0.00000000000E+00  0.00000000000E+00  0.96497170951E+02  0.96497171083E+02  0.50400001928E-02 0.  1.
        1   -1    0    0  501    0  0.00000000000E+00  0.00000000000E+00 -0.16663831182E+04  0.16663831182E+04  0.50400001928E-02 0. -1.
    10030    2    1    2    0    0  0.00000000000E+00  0.00000000000E+00 -0.15698859473E+04  0.17628802893E+04  0.80200064028E+03 0.  0.
        4    1    3    3  502    0  0.29335708876E+03  0.58403963412E+02 -0.19787965172E+03  0.35864658640E+03  0.12699999809E+01 0.  1.
       -4    1    3    3    0  502 -0.29335708876E+03 -0.58403963412E+02 -0.13720062955E+04  0.14042337029E+04  0.12699999809E+01 0. -1.
</event>
<event>
 5   0  0.2077795E-02  0.8072707E+03  0.7818609E-02  0.9549552E-01
       -1   -1    0    0    0  501  0.00000000000E+00  0.00000000000E+00  0.27284548268E+03  0.27284548273E+03  0.50400001928E-02 0. -1.
        1   -1    0    0  501    0  0.00000000000E+00  0.00000000000E+00 -0.59711998306E+03  0.59711998308E+03  0.50400001928E-02 0.  1.
    10030    2    1    2    0    0  0.00000000000E+00  0.00000000000E+00 -0.32427450038E+03  0.86996546581E+03  0.80727068577E+03 0.  0.
        5    1    3    3  502    0  0.24240834825E+03  0.32267661895E+03 -0.16663154430E+03  0.43665795455E+03  0.46999998093E+01 0. -1.
       -5    1    3    3    0  502 -0.24240834825E+03 -0.32267661895E+03 -0.15764295608E+03  0.43330751126E+03  0.46999998093E+01 0.  1.
</event>
<event>
 5   0  0.3550586E-02  0.8006125E+03  0.7818609E-02  0.9559131E-01
       -2   -1    0    0    0  501  0.00000000000E+00  0.00000000000E+00  0.21425019353E+03  0.21425019355E+03  0.25500000920E-02 0. -1.
        2   -1    0    0  501    0  0.00000000000E+00  0.00000000000E+00 -0.74793449836E+03  0.74793449837E+03  0.25500000920E-02 0.  1.
    10030    2    1    2    0    0  0.00000000000E+00  0.00000000000E+00 -0.53368430483E+03  0.96218469192E+03  0.80061254308E+03 0.  0.
        3    1    3    3  502    0 -0.20335932448E+03 -0.20782229503E+03 -0.59750388324E+03  0.66449681854E+03  0.10100000352E+00 0.  1.
       -3    1    3    3    0  502  0.20335932448E+03  0.20782229503E+03  0.63819578415E+02  0.29768787337E+03  0.10100000352E+00 0. -1.
</event>
<event>
 5   0  0.2063692E-02  0.8063107E+03  0.7818609E-02  0.9550927E-01
        1   -1    0    0  501    0  0.00000000000E+00  0.00000000000E+00  0.94732935404E+03  0.94732935405E+03  0.50400001928E-02 0.  1.
       -1   -1    0    0    0  501  0.00000000000E+00  0.00000000000E+00 -0.17157100632E+03  0.17157100640E+03  0.50400001928E-02 0. -1.
    10030    2    1    2    0    0  0.00000000000E+00  0.00000000000E+00  0.77575834772E+03  0.11189003604E+04  0.80631073573E+03 0.  0.
        2    1    3    3  502    0 -0.15439235317E+03  0.24396365609E+02  0.90356959483E+03  0.91698974590E+03  0.25500000920E-02 0.  1.
       -2    1    3    3    0  502  0.15439235317E+03 -0.24396365609E+02 -0.12781124711E+03  0.20191061455E+03  0.25500000920E-02 0. -1.
</event>
<event>
 5   0  0.2132540E-02  0.7916613E+03  0.7818609E-02  0.9572166E-01
       -1   -1    0    0    0  501  0.00000000000E+00  0.00000000000E+00  0.20729243887E+03  0.20729243893E+03  0.50400001928E-02 0. -1.
        1   -1    0    0  501    0  0.00000000000E+00  0.00000000000E+00 -0.75584966696E+03  0.75584966698E+03  0.50400001928E-02 0.  1.
    10030    2    1    2    0    0  0.00000000000E+00  0.00000000000E+00 -0.54855722809E+03  0.96314210591E+03  0.79166134407E+03 0.  0.
        4    1    3    3  502    0  0.43251586807E+02  0.36594593742E+03 -0.98424232263E+02  0.38141325524E+03  0.12699999809E+01 0.  1.
       -4    1    3    3    0  502 -0.43251586807E+02 -0.36594593742E+03 -0.45013299583E+03  0.58172885067E+03  0.12699999809E+01 0. -1.
</event>
<event>
 5   0  0.2129257E-02  0.8144784E+03  0.7818609E-02  0.9539294E-01
        1   -1    0    0  501    0  0.00000000000E+00  0.00000000000E+00  0.12692035612E+04  0.12692035612E+04  0.50400001928E-02 0.  1.
       -1   -1    0    0    0  501  0.00000000000E+00  0.00000000000E+00 -0.13066757893E+03  0.13066757903E+03  0.50400001928E-02 0. -1.
    10030    2    1    2    0    0  0.00000000000E+00  0.00000000000E+00  0.11385359822E+04  0.13998711402E+04  0.81447837684E+03 0.  0.
        3    1    3    3  502    0 -0.38466829141E+03 -0.11212828916E+03  0.69440899668E+03  0.80171460790E+03  0.10100000352E+00 0.  1.
       -3    1    3    3    0  502  0.38466829141E+03  0.11212828916E+03  0.44412698555E+03  0.59815653231E+03  0.10100000352E+00 0. -1.
</event>
<event>
 5   0  0.2132540E-02  0.7889494E+03  0.7818609E-02  0.9576152E-01
        1   -1    0    0  501    0  0.00000000000E+00  0.00000000000E+00  0.36077700692E+03  0.36077700695E+03  0.50400001928E-02 0.  1.
       -1   -1    0    0    0  501  0.00000000000E+00  0.00000000000E+00 -0.43131983756E+03  0.43131983759E+03  0.50400001928E-02 0. -1.
    10030    2    1    2    0    0  0.00000000000E+00  0.00000000000E+00 -0.70542830640E+02  0.79209684454E+03  0.78894937745E+03 0.  0.
        4    1    3    3  502    0  0.26672385296E+02  0.34568812239E+03  0.15361999447E+03  0.37922606674E+03  0.12699999809E+01 0.  1.
       -4    1    3    3    0  502 -0.26672385296E+02 -0.34568812239E+03 -0.22416282511E+03  0.41287077780E+03  0.12699999809E+01 0. -1.
</event>
<event>
 5   0  0.3467240E-02  0.7351965E+03  0.7818609E-02  0.9658865E-01
       -2   -1    0    0    0  501  0.00000000000E+00  0.00000000000E+00  0.29304527026E+03  0.29304527027E+03  0.25500000920E-02 0. -1.
        2   -1    0    0  501    0  0.00000000000E+00  0.00000000000E+00 -0.46111806331E+03  0.46111806331E+03  0.25500000920E-02 0.  1.
    10030    2    1    2    0    0  0.00000000000E+00  0.00000000000E+00 -0.16807279305E+03  0.75416333359E+03  0.73519648392E+03 0.  0.
        2    1    3    3  502    0 -0.68336501764E+02 -0.35456812159E+03 -0.13412306410E+02  0.36134238652E+03  0.25500000920E-02 0. -1.
       -2    1    3    3    0  502  0.68336501764E+02  0.35456812159E+03 -0.15466048664E+03  0.39282094707E+03  0.25500000920E-02 0.  1.
</event>
<event>
 5   0  0.3404132E-02  0.8158155E+03  0.7818609E-02  0.9537403E-01
       -2   -1    0    0    0  501  0.00000000000E+00  0.00000000000E+00  0.38296737946E+03  0.38296737947E+03  0.25500000920E-02 0.  1.
        2   -1    0    0  501    0  0.00000000000E+00  0.00000000000E+00 -0.43447229858E+03  0.43447229859E+03  0.25500000920E-02 0. -1.
    10030    2    1    2    0    0  0.00000000000E+00  0.00000000000E+00 -0.51504919113E+02  0.81743967806E+03  0.81581546355E+03 0.  0.
        5    1    3    3  502    0 -0.14703103056E+03  0.37343783186E+03 -0.98648172337E+02  0.41331282355E+03  0.46999998093E+01 0. -1.
       -5    1    3    3    0  502  0.14703103056E+03 -0.37343783186E+03  0.47143253224E+02  0.40412685451E+03  0.46999998093E+01 0.  1.
</event>
<event>
 5   0  0.3550586E-02  0.7974413E+03  0.7818609E-02  0.9563728E-01
       -2   -1    0    0    0  501  0.00000000000E+00  0.00000000000E+00  0.33309667465E+03  0.33309667465E+03  0.25500000920E-02 0.  1.
        2   -1    0    0  501    0  0.00000000000E+00  0.00000000000E+00 -0.47727329441E+03  0.47727329442E+03  0.25500000920E-02 0. -1.
    10030    2    1    2    0    0  0.00000000000E+00  0.00000000000E+00 -0.14417661977E+03  0.81036996907E+03  0.79744127626E+03 0.  0.
        3    1    3    3  502    0 -0.13101512722E+03 -0.20229759919E+03 -0.39486801716E+03  0.46261219544E+03  0.10100000352E+00 0. -1.
       -3    1    3    3    0  502  0.13101512722E+03  0.20229759919E+03  0.25069139739E+03  0.34775777363E+03  0.10100000352E+00 0.  1.
</event>
<event>
 5   0  0.3404132E-02  0.8284493E+03  0.7818609E-02  0.9519727E-01
        2   -1    0    0  501    0  0.00000000000E+00  0.00000000000E+00  0.53015827850E+03  0.53015827851E+03  0.25500000920E-02 0. -1.
       -2   -1    0    0    0  501  0.00000000000E+00  0.00000000000E+00 -0.32364311644E+03  0.32364311645E+03  0.25500000920E-02 0.  1.
    10030    2    1    2    0    0  0.00000000000E+00  0.00000000000E+00  0.20651516206E+03  0.85380139496E+03  0.82844934056E+03 0.  0.
        5    1    3    3  502    0  0.19664291098E+03  0.19859810505E+03  0.41830894168E+03  0.50310446476E+03  0.46999998093E+01 0. -1.
       -5    1    3    3    0  502 -0.19664291098E+03 -0.19859810505E+03 -0.21179377962E+03  0.35069693020E+03  0.46999998093E+01 0.  1.
</event>
<event>
 5   0  0.2132540E-02  0.8518190E+03  0.7818609E-02  0.9487899E-01
        1   -1    0    0  501    0  0.00000000000E+00  0.00000000000E+00  0.19474884521E+04  0.19474884521E+04  0.50400001928E-02 0.  1.
       -1   -1    0    0    0  501  0.00000000000E+00  0.00000000000E+00 -0.93145047672E+02  0.93145047809E+02  0.50400001928E-02 0. -1.
    10030    2    1    2    0    0  0.00000000000E+00  0.00000000000E+00  0.18543434044E+04  0.20406334999E+04  0.85181900626E+03 0.  0.
        4    1    3    3  502    0  0.98783496613E+02 -0.10575483395E+03  0.18867807873E+04  0.18923228097E+04  0.12699999809E+01 0.  1.
       -4    1    3    3    0  502 -0.98783496613E+02  0.10575483395E+03 -0.32437382876E+02  0.14831069015E+03  0.12699999809E+01 0. -1.
</event>
<event>
 5   0  0.2129257E-02  0.7858136E+03  0.7818609E-02  0.9580781E-01
       -1   -1    0    0    0  501  0.00000000000E+00  0.00000000000E+00  0.16106714664E+03  0.16106714672E+03  0.50400001928E-02 0. -1.
        1   -1    0    0  501    0  0.00000000000E+00  0.00000000000E+00 -0.95845596021E+03  0.95845596023E+03  0.50400001928E-02 0.  1.
    10030    2    1    2    0    0  0.00000000000E+00  0.00000000000E+00 -0.79738881357E+03  0.11195231069E+04  0.78581363375E+03 0.  0.
        3    1    3    3  502    0 -0.23646303487E+03 -0.28806172933E+03 -0.22143102271E+03  0.43350436536E+03  0.10100000352E+00 0. -1.
       -3    1    3    3    0  502  0.23646303487E+03  0.28806172933E+03 -0.57595779086E+03  0.68601874159E+03  0.10100000352E+00 0.  1.
</event>
<event>
 5   0  0.2129257E-02  0.7780273E+03  0.7818609E-02  0.9592378E-01
        1   -1    0    0  501    0  0.00000000000E+00  0.00000000000E+00  0.11305163236E+04  0.11305163236E+04  0.50400001928E-02 0.  1.
       -1   -1    0    0    0  501  0.00000000000E+00  0.00000000000E+00 -0.13386063058E+03  0.13386063068E+03  0.50400001928E-02 0. -1.
    10030    2    1    2    0    0  0.00000000000E+00  0.00000000000E+00  0.99665569302E+03  0.12643769543E+04  0.77802732093E+03 0.  0.
        3    1    3    3  502    0 -0.13392536520E+03 -0.33944035840E+03  0.27923450561E+03  0.45948632154E+03  0.10100000352E+00 0. -1.
       -3    1    3    3    0  502  0.13392536520E+03  0.33944035840E+03  0.71742118740E+03  0.80489063275E+03  0.10100000352E+00 0.  1.
</event>
<event>
 5   0  0.2077795E-02  0.7402849E+03  0.7818609E-02  0.9650716E-01
        1   -1    0    0  501    0  0.00000000000E+00  0.00000000000E+00  0.14795457753E+04  0.14795457753E+04  0.50400001928E-02 0. -1.
       -1   -1    0    0    0  501  0.00000000000E+00  0.00000000000E+00 -0.92599650071E+02  0.92599650208E+02  0.50400001928E-02 0.  1.
    10030    2    1    2    0    0  0.00000000000E+00  0.00000000000E+00  0.13869461252E+04  0.15721454255E+04  0.74028486724E+03 0.  0.
        5    1    3    3  502    0 -0.16327622417E+03 -0.25529752350E+03  0.11447156930E+04  0.11841587979E+04  0.46999998093E+01 0. -1.
       -5    1    3    3    0  502  0.16327622417E+03  0.25529752350E+03  0.24223043218E+03  0.38798662755E+03  0.46999998093E+01 0.  1.
</event>
<event>
 5   0  0.3467240E-02  0.7919868E+03  0.7818609E-02  0.9571689E-01
        2   -1    0    0  501    0  0.00000000000E+00  0.00000000000E+00  0.18809689487E+04  0.18809689487E+04  0.25500000920E-02 0.  1.
       -2   -1    0    0    0  501  0.00000000000E+00  0.00000000000E+00 -0.83367007862E+02  0.83367007901E+02  0.25500000920E-02 0. -1.
    10030    2    1    2    0    0  0.00000000000E+00  0.00000000000E+00  0.17976019409E+04  0.19643359566E+04  0.79198675034E+03 0.  0.
        2    1    3    3  502    0 -0.85592755371E+01 -0.29980632444E+02  0.18779198934E+04  0.18781786991E+04  0.25500000920E-02 0.  1.
       -2    1    3    3    0  502  0.85592755371E+01  0.29980632444E+02 -0.80317952561E+02  0.86157257556E+02  0.25500000920E-02 0. -1.
</event>
<event>
 5   0  0.3550586E-02  0.8019193E+03  0.7818609E-02  0.9557243E-01
        2   -1    0    0  501    0  0.00000000000E+00  0.00000000000E+00  0.84756801829E+03  0.84756801830E+03  0.25500000920E-02 0. -1.
       -2   -1    0    0    0  501  0.00000000000E+00  0.00000000000E+00 -0.18968228973E+03  0.18968228975E+03  0.25500000920E-02 0.  1.
    10030    2    1    2    0    0  0.00000000000E+00  0.00000000000E+00  0.65788572856E+03  0.10372503080E+04  0.80191930373E+03 0.  0.
        3    1    3    3  502    0 -0.31836856553E+03 -0.19005194689E+02  0.64325328386E+03  0.71797948323E+03  0.10100000352E+00 0. -1.
       -3    1    3    3    0  502  0.31836856553E+03  0.19005194689E+02  0.14632444705E+02  0.31927082482E+03  0.10100000352E+00 0.  1.
</event>
<event>
 5   0  0.3550586E-02  0.8057605E+03  0.7818609E-02  0.9551716E-01
        2   -1    0    0  501    0  0.00000000000E+00  0.00000000000E+00  0.45317521211E+03  0.45317521212E+03  0.25500000920E-02 0.  1.
       -2   -1    0    0    0  501  0.00000000000E+00  0.00000000000E+00 -0.35816717714E+03  0.35816717715E+03  0.25500000920E-02 0. -1.
    10030    2    1    2    0    0  0.00000000000E+00  0.00000000000E+00  0.95008034972E+02  0.81134238927E+03  0.80576047677E+03 0.  0.
        3    1    3    3  502    0 -0.24161574226E+03  0.31223246529E+03 -0.33334120844E+02  0.39620506446E+03  0.10100000352E+00 0. -1.
       -3    1    3    3    0  502  0.24161574226E+03 -0.31223246529E+03  0.12834215582E+03  0.41513732481E+03  0.10100000352E+00 0.  1.
</event>
<event>
 5   0  0.2063692E-02  0.7250663E+03  0.7818609E-02  0.9675300E-01
       -1   -1    0    0    0  501  0.00000000000E+00  0.00000000000E+00  0.10506547835E+03  0.10506547847E+03  0.50400001928E-02 0. -1.
        1   -1    0    0  501    0  0.00000000000E+00  0.00000000000E+00 -0.12509369759E+04  0.12509369759E+04  0.50400001928E-02 0.  1.
    10030    2    1    2    0    0  0.00000000000E+00  0.00000000000E+00 -0.11458714976E+04  0.13560024544E+04  0.72506631930E+03 0.  0.
        2    1    3    3  502    0  0.13455314208E+03 -0.33661328088E+03 -0.56516991124E+03  0.67143881143E+03  0.25500000920E-02 0. -1.
       -2    1    3    3    0  502 -0.13455314208E+03  0.33661328088E+03 -0.58070158632E+03  0.68456364296E+03  0.25500000920E-02 0.  1.
</event>
<event>
 5   0  0.3343036E-02  0.7859273E+03  0.7818609E-02  0.9580613E-01
       -2   -1    0    0    0  501  0.00000000000E+00  0.00000000000E+00  0.14300244963E+03  0.14300244965E+03  0.25500000920E-02 0.  1.
        2   -1    0    0  501    0  0.00000000000E+00  0.00000000000E+00 -0.10798447407E+04  0.10798447407E+04  0.25500000920E-02 0. -1.
    10030    2    1    2    0    0  0.00000000000E+00  0.00000000000E+00 -0.93684229105E+03  0.12228471903E+04  0.78592733290E+03 0.  0.
        4    1    3    3  502    0  0.12904095316E+03  0.20307414421E+03 -0.95183244651E+03  0.98177252700E+03  0.12699999809E+01 0. -1.
       -4    1    3    3    0  502 -0.12904095316E+03 -0.20307414421E+03  0.14990155464E+02  0.24107466333E+03  0.12699999809E+01 0.  1.
</event>
<event>
 5   0  0.3550586E-02  0.8076371E+03  0.7818609E-02  0.9549028E-01
       -2   -1    0    0    0  501  0.00000000000E+00  0.00000000000E+00  0.94095552864E+02  0.94095552898E+02  0.25500000920E-02 0.  1.
        2   -1    0    0  501    0  0.00000000000E+00  0.00000000000E+00 -0.17330192203E+04  0.17330192203E+04  0.25500000920E-02 0. -1.
    10030    2    1    2    0    0  0.00000000000E+00  0.00000000000E+00 -0.16389236675E+04  0.18271147732E+04  0.80763705139E+03 0.  0.
        3    1    3    3  502    0 -0.31001475453E+03  0.25479404264E+03 -0.92164753953E+03  0.10052180607E+04  0.10100000352E+00 0. -1.
       -3    1    3    3    0  502  0.31001475453E+03 -0.25479404264E+03 -0.71727612793E+03  0.82189671254E+03  0.10100000352E+00 0.  1.
</event>
<event>
 5   0  0.3550586E-02  0.8031839E+03  0.7818609E-02  0.9555420E-01
       -2   -1    0    0    0  501  0.00000000000E+00  0.00000000000E+00  0.12012668268E+03  0.12012668270E+03  0.25500000920E-02 0.  1.
        2   -1    0    0  501    0  0.00000000000E+00  0.00000000000E+00 -0.13425500216E+04  0.13425500216E+04  0.25500000920E-02 0. -1.
    10030    2    1    2    0    0  0.00000000000E+00  0.00000000000E+00 -0.12224233389E+04  0.14626767043E+04  0.80318386549E+03 0.  0.
        3    1    3    3  502    0  0.30788551894E+03  0.17592187107E+03 -0.95449748779E+03  0.10182374290E+04  0.10100000352E+00 0. -1.
       -3    1    3    3    0  502 -0.30788551894E+03 -0.17592187107E+03 -0.26792585114E+03  0.44443927527E+03  0.10100000352E+00 0.  1.
</event>
<event>
 5   0  0.1358000E-02  0.7973657E+03  0.7818609E-02  0.9563838E-01
        3   -1    0    0  501    0  0.00000000000E+00  0.00000000000E+00  0.44691082728E+03  0.44691083870E+03  0.10100000352E+00 0.  1.
       -3   -1    0    0    0  501  0.00000000000E+00  0.00000000000E+00 -0.35565931265E+03  0.35565932699E+03  0.10100000352E+00 0. -1.
    10030    2    1    2    0    0  0.00000000000E+00  0.00000000000E+00  0.91251514629E+02  0.80257016569E+03  0.79736568269E+03 0.  0.
        3    1    3    3  502    0  0.18298071127E+03 -0.35355554195E+03  0.23931984537E+02  0.39881852016E+03  0.10100000352E+00 0.  1.
       -3    1    3    3    0  502 -0.18298071127E+03  0.35355554195E+03  0.67319530092E+02  0.40375164553E+03  0.10100000352E+00 0. -1.
</event>
<event>
 5   0  0.3550586E-02  0.7957488E+03  0.7818609E-02  0.9566191E-01
       -2   -1    0    0    0  501  0.00000000000E+00  0.00000000000E+00  0.15328761450E+03  0.15328761452E+03  0.25500000920E-02 0.  1.
        2   -1    0    0  501    0  0.00000000000E+00  0.00000000000E+00 -0.10327255962E+04  0.10327255962E+04  0.25500000920E-02 0. -1.
    10030    2    1    2    0    0  0.00000000000E+00  0.00000000000E+00 -0.87943798174E+03  0.11860132108E+04  0.79574881237E+03 0.  0.
        3    1    3    3  502    0 -0.47863801753E+02 -0.34612951631E+03 -0.15611490645E+03  0.38271198021E+03  0.10100000352E+00 0.  1.
       -3    1    3    3    0  502  0.47863801753E+02  0.34612951631E+03 -0.72332307529E+03  0.80330123057E+03  0.10100000352E+00 0. -1.
</event>
<event>
 5   0  0.3404132E-02  0.8163128E+03  0.7818609E-02  0.9536701E-01
        2   -1    0    0  501    0  0.00000000000E+00  0.00000000000E+00  0.21018376508E+03  0.21018376509E+03  0.25500000920E-02 0. -1.
       -2   -1    0    0    0  501  0.00000000000E+00  0.00000000000E+00 -0.79259994084E+03  0.79259994084E+03  0.25500000920E-02 0.  1.
    10030    2    1    2    0    0  0.00000000000E+00  0.00000000000E+00 -0.58241617576E+03  0.10027837059E+04  0.81631278264E+03 0.  0.
        5    1    3    3  502    0 -0.24226070288E+03 -0.68699431216E+02  0.10334521664E+03  0.27223553003E+03  0.46999998093E+01 0. -1.
       -5    1    3    3    0  502  0.24226070288E+03  0.68699431216E+02 -0.68576139240E+03  0.73054817590E+03  0.46999998093E+01 0.  1.
</event>
<event>
 5   0  0.2129257E-02  0.7880908E+03  0.7818609E-02  0.9577417E-01
       -1   -1    0    0    0  501  0.00000000000E+00  0.00000000000E+00  0.63782398449E+03  0.63782398451E+03  0.50400001928E-02 0. -1.
        1   -1    0    0  501    0  0.00000000000E+00  0.00000000000E+00 -0.24343987252E+03  0.24343987258E+03  0.50400001928E-02 0.  1.
    10030    2    1    2    0    0  0.00000000000E+00  0.00000000000E+00  0.39438411196E+03  0.88126385708E+03  0.78809083108E+03 0.  0.
        3    1    3    3  502    0 -0.26233276087E+03 -0.27178053623E+03  0.32265605493E+03  0.49677970700E+03  0.10100000352E+00 0.  1.
       -3    1    3    3    0  502  0.26233276087E+03  0.27178053623E+03  0.71728057029E+02  0.38448415008E+03  0.10100000352E+00 0. -1.
</event>
<event>
 5   0  0.1358000E-02  0.8062279E+03  0.7818609E-02  0.9551046E-01
       -3   -1    0    0    0  501  0.00000000000E+00  0.00000000000E+00  0.13420702932E+04  0.13420702970E+04  0.10100000352E+00 0. -1.
        3   -1    0    0  501    0  0.00000000000E+00  0.00000000000E+00 -0.12108220590E+03  0.12108224803E+03  0.10100000352E+00 0.  1.
    10030    2    1    2    0    0  0.00000000000E+00  0.00000000000E+00  0.12209880873E+04  0.14631525450E+04  0.80622792107E+03 0.  0.
        1    1    3    3  502    0  0.82847448151E+02  0.15954013803E+03  0.12652971960E+04  0.12780038144E+04  0.50400001928E-02 0. -1.
       -1    1    3    3    0  502 -0.82847448151E+02 -0.15954013803E+03 -0.44309108741E+02  0.18514873062E+03  0.50400001928E-02 0.  1.
</event>
<event>
 5   0  0.2063692E-02  0.7949603E+03  0.7818609E-02  0.9567341E-01
        1   -1    0    0  501    0  0.00000000000E+00  0.00000000000E+00  0.33679473644E+03  0.33679473648E+03  0.50400001928E-02 0.  1.
       -1   -1    0    0    0  501  0.00000000000E+00  0.00000000000E+00 -0.46910020812E+03  0.46910020815E+03  0.50400001928E-02 0. -1.
    10030    2    1    2    0    0  0.00000000000E+00  0.00000000000E+00 -0.13230547168E+03  0.80589494463E+03  0.79496032853E+03 0.  0.
        2    1    3    3  502    0 -0.36150648460E+03  0.10876093270E+03 -0.19226075975E+03  0.42365089240E+03  0.25500000920E-02 0. -1.
       -2    1    3    3    0  502  0.36150648460E+03 -0.10876093270E+03  0.59955288066E+02  0.38224405223E+03  0.25500000920E-02 0.  1.
</event>
<event>
 5   0  0.2132540E-02  0.7687158E+03  0.7818609E-02  0.9606437E-01
       -1   -1    0    0    0  501  0.00000000000E+00  0.00000000000E+00  0.64772092693E+03  0.64772092695E+03  0.50400001928E-02 0.  1.
        1   -1    0    0  501    0  0.00000000000E+00  0.00000000000E+00 -0.22807816496E+03  0.22807816501E+03  0.50400001928E-02 0. -1.
    10030    2    1    2    0    0  0.00000000000E+00  0.00000000000E+00  0.41964276198E+03  0.87579909196E+03  0.76871581342E+03 0.  0.
        4    1    3    3  502    0 -0.18903207357E+03 -0.14999702915E+01 -0.17145164252E+03  0.25521099775E+03  0.12699999809E+01 0. -1.
       -4    1    3    3    0  502  0.18903207357E+03  0.14999702915E+01  0.59109440450E+03  0.62058809421E+03  0.12699999809E+01 0.  1.
</event>
<event>
 5   0  0.3550586E-02  0.8040240E+03  0.7818609E-02  0.9554211E-01
        2   -1    0    0  501    0  0.00000000000E+00  0.00000000000E+00  0.71916769845E+03  0.71916769845E+03  0.25500000920E-02 0. -1.
       -2   -1    0    0    0  501  0.00000000000E+00  0.00000000000E+00 -0.22472317908E+03  0.22472317910E+03  0.25500000920E-02 0.  1.
    10030    2    1    2    0    0  0.00000000000E+00  0.00000000000E+00  0.49444451936E+03  0.94389087755E+03  0.80402400834E+03 0.  0.
        3    1    3    3  502    0  0.12832743815E+03  0.32990730314E+03  0.23531912236E+02  0.35476826400E+03  0.10100000352E+00 0.  1.
       -3    1    3    3    0  502 -0.12832743815E+03 -0.32990730314E+03  0.47091260713E+03  0.58912261355E+03  0.10100000352E+00 0. -1.
</event>
<event>
 5   0  0.3550586E-02  0.8435934E+03  0.7818609E-02  0.9498976E-01
       -2   -1    0    0    0  501  0.00000000000E+00  0.00000000000E+00  0.18250031209E+03  0.18250031211E+03  0.25500000920E-02 0. -1.
        2   -1    0    0  501    0  0.00000000000E+00  0.00000000000E+00 -0.97486116266E+03  0.97486116266E+03  0.25500000920E-02 0.  1.
    10030    2    1    2    0    0  0.00000000000E+00  0.00000000000E+00 -0.79236085057E+03  0.11573614748E+04  0.84359342445E+03 0.  0.
        3    1    3    3  502    0  0.30867138939E+03 -0.28061201243E+03 -0.48176288429E+03  0.63727279483E+03  0.10100000352E+00 0.  1.
       -3    1    3    3    0  502 -0.30867138939E+03  0.28061201243E+03 -0.31059796628E+03  0.52008867994E+03  0.10100000352E+00 0. -1.
</event>
<event>
 5   0  0.3416160E-02  0.8019005E+03  0.7818609E-02  0.9557270E-01
        2   -1    0    0  501    0  0.00000000000E+00  0.00000000000E+00  0.78093131944E+03  0.78093131944E+03  0.25500000920E-02 0.  1.
       -2   -1    0    0    0  501  0.00000000000E+00  0.00000000000E+00 -0.20585817716E+03  0.20585817718E+03  0.25500000920E-02 0. -1.
    10030    2    1    2    0    0  0.00000000000E+00  0.00000000000E+00  0.57507314227E+03  0.98678949662E+03  0.80190048739E+03 0.  0.
        1    1    3    3  502    0 -0.34568393929E+03  0.20220034510E+03  0.26358851310E+03  0.47943849418E+03  0.50400001928E-02 0. -1.
       -1    1    3    3    0  502  0.34568393929E+03 -0.20220034510E+03  0.31148462918E+03  0.50735100244E+03  0.50400001928E-02 0.  1.
</event>
<event>
 5   0  0.1989298E-02  0.7953258E+03  0.7818609E-02  0.9566808E-01
        1   -1    0    0  501    0  0.00000000000E+00  0.00000000000E+00  0.10326836745E+04  0.10326836745E+04  0.50400001928E-02 0. -1.
       -1   -1    0    0    0  501  0.00000000000E+00  0.00000000000E+00 -0.15313090035E+03  0.15313090043E+03  0.50400001928E-02 0.  1.
    10030    2    1    2    0    0  0.00000000000E+00  0.00000000000E+00  0.87955277418E+03  0.11858145750E+04  0.79532579716E+03 0.  0.
        1    1    3    3  502    0  0.28289292933E+03 -0.27367548941E+03  0.52423874450E+03  0.65555544710E+03  0.50400001928E-02 0. -1.
       -1    1    3    3    0  502 -0.28289292933E+03  0.27367548941E+03  0.35531402968E+03  0.53025912786E+03  0.50400001928E-02 0.  1.
</event>
<event>
 5   0  0.3467240E-02  0.8051487E+03  0.7818609E-02  0.9552594E-01
       -2   -1    0    0    0  501  0.00000000000E+00  0.00000000000E+00  0.72891731558E+03  0.72891731559E+03  0.25500000920E-02 0.  1.
        2   -1    0    0  501    0  0.00000000000E+00  0.00000000000E+00 -0.22233812256E+03  0.22233812258E+03  0.25500000920E-02 0. -1.
    10030    2    1    2    0    0  0.00000000000E+00  0.00000000000E+00  0.50657919302E+03  0.95125543817E+03  0.80514870046E+03 0.  0.
        2    1    3    3  502    0 -0.16157237643E+03  0.26373882632E+03 -0.51158061477E+02  0.31349792438E+03  0.25500000920E-02 0. -1.
       -2    1    3    3    0  502  0.16157237643E+03 -0.26373882632E+03  0.55773725450E+03  0.63775751379E+03  0.25500000920E-02 0.  1.
</event>
<event>
 5   0  0.3550586E-02  0.7884513E+03  0.7818609E-02  0.9576885E-01
        2   -1    0    0  501    0  0.00000000000E+00  0.00000000000E+00  0.64624205757E+03  0.64624205757E+03  0.25500000920E-02 0. -1.
       -2   -1    0    0    0  501  0.00000000000E+00  0.00000000000E+00 -0.24048860487E+03  0.24048860489E+03  0.25500000920E-02 0.  1.
    10030    2    1    2    0    0  0.00000000000E+00  0.00000000000E+00  0.40575345269E+03  0.88673066246E+03  0.78845126887E+03 0.  0.
        3    1    3    3  502    0 -0.38739726875E+03  0.46639825404E+02  0.26611682644E+03  0.47230296703E+03  0.10100000352E+00 0.  1.
       -3    1    3    3    0  502  0.38739726875E+03 -0.46639825404E+02  0.13963662626E+03  0.41442769543E+03  0.10100000352E+00 0. -1.
</event>
<event>
 5   0  0.1989298E-02  0.6414079E+03  0.7818609E-02  0.9823036E-01
       -1   -1    0    0    0  501  0.00000000000E+00  0.00000000000E+00  0.20475722371E+03  0.20475722377E+03  0.50400001928E-02 0.  1.
        1   -1    0    0  501    0  0.00000000000E+00  0.00000000000E+00 -0.50230723869E+03  0.50230723872E+03  0.50400001928E-02 0. -1.
    10030    2    1    2    0    0  0.00000000000E+00  0.00000000000E+00 -0.29755001498E+03  0.70706446249E+03  0.64140793782E+03 0.  0.
        1    1    3    3  502    0  0.17815454800E+03 -0.54491418755E+02  0.13898754568E+03  0.23243471249E+03  0.50400001928E-02 0.  1.
       -1    1    3    3    0  502 -0.17815454800E+03  0.54491418755E+02 -0.43653756066E+03  0.47462975000E+03  0.50400001928E-02 0. -1.
</event>
<event>
 5   0  0.3343036E-02  0.7916861E+03  0.7818609E-02  0.9572130E-01
        2   -1    0    0  501    0  0.00000000000E+00  0.00000000000E+00  0.82369765803E+03  0.82369765804E+03  0.25500000920E-02 0. -1.
       -2   -1    0    0    0  501  0.00000000000E+00  0.00000000000E+00 -0.19022964937E+03  0.19022964938E+03  0.25500000920E-02 0.  1.
    10030    2    1    2    0    0  0.00000000000E+00  0.00000000000E+00  0.63346800867E+03  0.10139273074E+04  0.79168609103E+03 0.  0.
        4    1    3    3  502    0  0.19035777051E+03  0.83575925503E+02  0.74814636709E+03  0.77649572800E+03  0.12699999809E+01 0. -1.
       -4    1    3    3    0  502 -0.19035777051E+03 -0.83575925503E+02 -0.11467835842E+03  0.23743157942E+03  0.12699999809E+01 0.  1.
</event>
<event>
 5   0  0.2077795E-02  0.7999593E+03  0.7818609E-02  0.9560076E-01
       -1   -1    0    0    0  501  0.00000000000E+00  0.00000000000E+00  0.12226447035E+03  0.12226447045E+03  0.50400001928E-02 0. -1.
        1   -1    0    0  501    0  0.00000000000E+00  0.00000000000E+00 -0.13085052469E+04  0.13085052469E+04  0.50400001928E-02 0.  1.
    10030    2    1    2    0    0  0.00000000000E+00  0.00000000000E+00 -0.11862407766E+04  0.14307697174E+04  0.79995925158E+03 0.  0.
        5    1    3    3  502    0 -0.28582409805E+03 -0.28541424356E+02 -0.95363792247E+02  0.30269848167E+03  0.46999998093E+01 0. -1.
       -5    1    3    3    0  502  0.28582409805E+03  0.28541424356E+02 -0.10908769843E+04  0.11280712357E+04  0.46999998093E+01 0.  1.
</event>
<event>
 5   0  0.3404132E-02  0.7221913E+03  0.7818609E-02  0.9680017E-01
       -2   -1    0    0    0  501  0.00000000000E+00  0.00000000000E+00  0.10358967832E+03  0.10358967835E+03  0.25500000920E-02 0.  1.
        2   -1    0    0  501    0  0.00000000000E+00  0.00000000000E+00 -0.12587166523E+04  0.12587166523E+04  0.25500000920E-02 0. -1.
    10030    2    1    2    0    0  0.00000000000E+00  0.00000000000E+00 -0.11551269739E+04  0.13623063306E+04  0.72219125756E+03 0.  0.
        5    1    3    3  502    0 -0.27898890100E+03 -0.12390116329E+03 -0.94130002067E+03  0.98957269772E+03  0.46999998093E+01 0. -1.
       -5    1    3    3    0  502  0.27898890100E+03  0.12390116329E+03 -0.21382695326E+03  0.37273363289E+03  0.46999998093E+01 0.  1.
</event>
<event>
 5   0  0.3343036E-02  0.8021149E+03  0.7818609E-02  0.9556961E-01
        2   -1    0    0  501    0  0.00000000000E+00  0.00000000000E+00  0.77039334840E+03  0.77039334840E+03  0.25500000920E-02 0. -1.
       -2   -1    0    0    0  501  0.00000000000E+00  0.00000000000E+00 -0.20878564406E+03  0.20878564408E+03  0.25500000920E-02 0.  1.
    10030    2    1    2    0    0  0.00000000000E+00  0.00000000000E+00  0.56160770434E+03  0.97917899248E+03  0.80211488313E+03 0.  0.
        4    1    3    3  502    0 -0.10422003546E+03 -0.38547924770E+03  0.32630663545E+03  0.51568759869E+03  0.12699999809E+01 0. -1.
       -4    1    3    3    0  502  0.10422003546E+03  0.38547924770E+03  0.23530106889E+03  0.46349139379E+03  0.12699999809E+01 0.  1.
</event>
<event>
 5   0  0.3550586E-02  0.7793275E+03  0.7818609E-02  0.9590431E-01
       -2   -1    0    0    0  501  0.00000000000E+00  0.00000000000E+00  0.67565385767E+03  0.67565385767E+03  0.25500000920E-02 0. -1.
        2   -1    0    0  501    0  0.00000000000E+00  0.00000000000E+00 -0.22472726301E+03  0.22472726303E+03  0.25500000920E-02 0.  1.
    10030    2    1    2    0    0  0.00000000000E+00  0.00000000000E+00  0.45092659465E+03  0.90038112070E+03  0.77932751058E+03 0.  0.
        3    1    3    3  502    0 -0.38900366667E+03 -0.22348321594E+02  0.22105910337E+03  0.44798486308E+03  0.10100000352E+00 0. -1.
       -3    1    3    3    0  502  0.38900366667E+03  0.22348321594E+02  0.22986749128E+03  0.45239625762E+03  0.10100000352E+00 0.  1.
</event>
<event>
 5   0  0.3550586E-02  0.7919412E+03  0.7818609E-02  0.9571756E-01
        2   -1    0    0  501    0  0.00000000000E+00  0.00000000000E+00  0.35684303365E+03  0.35684303366E+03  0.25500000920E-02 0. -1.
       -2   -1    0    0    0  501  0.00000000000E+00  0.00000000000E+00 -0.43938848490E+03  0.43938848490E+03  0.25500000920E-02 0.  1.
    10030    2    1    2    0    0  0.00000000000E+00  0.00000000000E+00 -0.82545451241E+02  0.79623151857E+03  0.79194120971E+03 0.  0.
        3    1    3    3  502    0  0.22067697490E+03 -0.16101661783E+03  0.24692985352E+03  0.36823775095E+03  0.10100000352E+00 0. -1.
       -3    1    3    3    0  502 -0.22067697490E+03  0.16101661783E+03 -0.32947530476E+03  0.42799376761E+03  0.10100000352E+00 0.  1.
</event>
<event>
 5   0  0.3343036E-02  0.7916142E+03  0.7818609E-02  0.9572235E-01
        2   -1    0    0  501    0  0.00000000000E+00  0.00000000000E+00  0.15723999822E+04  0.15723999822E+04  0.25500000920E-02 0.  1.
       -2   -1    0    0    0  501  0.00000000000E+00  0.00000000000E+00 -0.99633208173E+02  0.99633208206E+02  0.25500000920E-02 0. -1.
    10030    2    1    2    0    0  0.00000000000E+00  0.00000000000E+00  0.14727667740E+04  0.16720331904E+04  0.79161418579E+03 0.  0.
        4    1    3    3  502    0  0.34017967324E+03 -0.20104187867E+03  0.68814442414E+03  0.79352656442E+03  0.12699999809E+01 0.  1.
       -4    1    3    3    0  502 -0.34017967324E+03  0.20104187867E+03  0.78462234986E+03  0.87850662596E+03  0.12699999809E+01 0. -1.
</event>
<event>
 5   0  0.3550586E-02  0.7899901E+03  0.7818609E-02  0.9574620E-01
        2   -1    0    0  501    0  0.00000000000E+00  0.00000000000E+00  0.42503125809E+03  0.42503125810E+03  0.25500000920E-02 0.  1.
       -2   -1    0    0    0  501  0.00000000000E+00  0.00000000000E+00 -0.36708142770E+03  0.36708142771E+03  0.25500000920E-02 0. -1.
    10030    2    1    2    0    0  0.00000000000E+00  0.00000000000E+00  0.57949830395E+02  0.79211268581E+03  0.78999007853E+03 0.  0.
        3    1    3    3  502    0 -0.15175533887E+02  0.20718064357E+03 -0.30788453522E+03  0.37141218764E+03  0.10100000352E+00 0. -1.
       -3    1    3    3    0  502  0.15175533887E+02 -0.20718064357E+03  0.36583436561E+03  0.42070049817E+03  0.10100000352E+00 0.  1.
</event>
<event>
 5   0  0.1358000E-02  0.7969602E+03  0.7818609E-02  0.9564428E-01
       -3   -1    0    0    0  501  0.00000000000E+00  0.00000000000E+00  0.40821497881E+03  0.40821499130E+03  0.10100000352E+00 0.  1.
        3   -1    0    0  501    0  0.00000000000E+00  0.00000000000E+00 -0.38897731222E+03  0.38897732534E+03  0.10100000352E+00 0. -1.
    10030    2    1    2    0    0  0.00000000000E+00  0.00000000000E+00  0.19237666583E+02  0.79719231664E+03  0.79696016330E+03 0.  0.
        1    1    3    3  502    0  0.36198752443E+03  0.15327612983E+03 -0.55652267458E+02  0.39702105072E+03  0.50400001928E-02 0. -1.
       -1    1    3    3    0  502 -0.36198752443E+03 -0.15327612983E+03  0.74889934040E+02  0.40017126592E+03  0.50400001928E-02 0.  1.
</event>
<event>
 5   0  0.2077795E-02  0.7924027E+03  0.7818609E-02  0.9571079E-01
       -1   -1    0    0    0  501  0.00000000000E+00  0.00000000000E+00  0.48230036136E+03  0.48230036139E+03  0.50400001928E-02 0.  1.
        1   -1    0    0  501    0  0.00000000000E+00  0.00000000000E+00 -0.32547251832E+03  0.32547251836E+03  0.50400001928E-02 0. -1.
    10030    2    1    2    0    0  0.00000000000E+00  0.00000000000E+00  0.15682784304E+03  0.80777287974E+03  0.79240270879E+03 0.  0.
        5    1    3    3  502    0 -0.24541615986E+02 -0.27682094704E+03 -0.20941238887E+03  0.34800541123E+03  0.46999998093E+01 0. -1.
       -5    1    3    3    0  502  0.24541615986E+02  0.27682094704E+03  0.36624023191E+03  0.45976746851E+03  0.46999998093E+01 0.  1.
</event>
<event>
 5   0  0.3416160E-02  0.9056628E+03  0.7818609E-02  0.9418530E-01
        2   -1    0    0  501    0  0.00000000000E+00  0.00000000000E+00  0.47140778665E+03  0.47140778666E+03  0.25500000920E-02 0.  1.
       -2   -1    0    0    0  501  0.00000000000E+00  0.00000000000E+00 -0.43498701495E+03  0.43498701496E+03  0.25500000920E-02 0. -1.
    10030    2    1    2    0    0  0.00000000000E+00  0.00000000000E+00  0.36420771702E+02  0.90639480162E+03  0.90566277598E+03 0.  0.
        1    1    3    3  502    0  0.23930874196E+03 -0.13132055347E+02 -0.36630731870E+03  0.43774670371E+03  0.50400001928E-02 0. -1.
       -1    1    3    3    0  502 -0.23930874196E+03  0.13132055347E+02  0.40272809040E+03  0.46864809791E+03  0.50400001928E-02 0.  1.
</event>
<event>
 5   0  0.1989298E-02  0.7996896E+03  0.7818609E-02  0.9560467E-01
       -1   -1    0    0    0  501  0.00000000000E+00  0.00000000000E+00  0.12133037281E+03  0.12133037292E+03  0.50400001928E-02 0. -1.
        1   -1    0    0  501    0  0.00000000000E+00  0.00000000000E+00 -0.13176903544E+04  0.13176903544E+04  0.50400001928E-02 0.  1.
    10030    2    1    2    0    0  0.00000000000E+00  0.00000000000E+00 -0.11963599816E+04  0.14390207273E+04  0.79968959487E+03 0.  0.
        1    1    3    3  502    0 -0.32392361593E+03  0.14409128092E+03 -0.93089811180E+03  0.99612253301E+03  0.50400001928E-02 0.  1.
       -1    1    3    3    0  502  0.32392361593E+03 -0.14409128092E+03 -0.26546186980E+03  0.44289819432E+03  0.50400001928E-02 0. -1.
</event>
<event>
 5   0  0.3343036E-02  0.8114215E+03  0.7818609E-02  0.9543630E-01
       -2   -1    0    0    0  501  0.00000000000E+00  0.00000000000E+00  0.38719619875E+03  0.38719619876E+03  0.25500000920E-02 0.  1.
        2   -1    0    0  501    0  0.00000000000E+00  0.00000000000E+00 -0.42511064965E+03  0.42511064966E+03  0.25500000920E-02 0. -1.
    10030    2    1    2    0    0  0.00000000000E+00  0.00000000000E+00 -0.37914450902E+02  0.81230684842E+03  0.81142153681E+03 0.  0.
        4    1    3    3  502    0  0.37349928309E+03 -0.19425938961E+02  0.13844196720E+03  0.39880681132E+03  0.12699999809E+01 0.  1.
       -4    1    3    3    0  502 -0.37349928309E+03  0.19425938961E+02 -0.17635641810E+03  0.41350003710E+03  0.12699999809E+01 0. -1.
</event>
<event>
 5   0  0.3343036E-02  0.8376924E+03  0.7818609E-02  0.9507006E-01
       -2   -1    0    0    0  501  0.00000000000E+00  0.00000000000E+00  0.19230786878E+03  0.19230786879E+03  0.25500000920E-02 0.  1.
        2   -1    0    0  501    0  0.00000000000E+00  0.00000000000E+00 -0.91224639130E+03  0.91224639131E+03  0.25500000920E-02 0. -1.
    10030    2    1    2    0    0  0.00000000000E+00  0.00000000000E+00 -0.71993852253E+03  0.11045542601E+04  0.83769244791E+03 0.  0.
        4    1    3    3  502    0 -0.28297692720E+03 -0.30878879103E+03 -0.36263512615E+03  0.55401471678E+03  0.12699999809E+01 0. -1.
       -4    1    3    3    0  502  0.28297692720E+03  0.30878879103E+03 -0.35730339638E+03  0.55053954332E+03  0.12699999809E+01 0.  1.
</event>
<event>
 5   0  0.1358000E-02  0.7699552E+03  0.7818609E-02  0.9604554E-01
        3   -1    0    0  501    0  0.00000000000E+00  0.00000000000E+00  0.38908472818E+03  0.38908474129E+03  0.10100000352E+00 0. -1.
       -3   -1    0    0    0  501  0.00000000000E+00  0.00000000000E+00 -0.38091375315E+03  0.38091376654E+03  0.10100000352E+00 0.  1.
    10030    2    1    2    0    0  0.00000000000E+00  0.00000000000E+00  0.81709750306E+01  0.76999850782E+03  0.76995515273E+03 0.  0.
        2    1    3    3  502    0  0.20178656455E+03 -0.19257995103E+03  0.26943583691E+03  0.38781506596E+03  0.25500000920E-02 0. -1.
       -2    1    3    3    0  502 -0.20178656455E+03  0.19257995103E+03 -0.26126486188E+03  0.38218344186E+03  0.25500000920E-02 0.  1.
</event>
<event>
 5   0  0.3343036E-02  0.6182270E+03  0.7818609E-02  0.9868296E-01
       -2   -1    0    0    0  501  0.00000000000E+00  0.00000000000E+00  0.21021191592E+03  0.21021191594E+03  0.25500000920E-02 0. -1.
        2   -1    0    0  501    0  0.00000000000E+00  0.00000000000E+00 -0.45454675490E+03  0.45454675490E+03  0.25500000920E-02 0.  1.
    10030    2    1    2    0    0  0.00000000000E+00  0.00000000000E+00 -0.24433483898E+03  0.66475867084E+03  0.61822696230E+03 0.  0.
        4    1    3    3  502    0 -0.18736900772E+03 -0.15464303184E+03  0.83340486718E+02  0.25684404213E+03  0.12699999809E+01 0. -1.
       -4    1    3    3    0  502  0.18736900772E+03  0.15464303184E+03 -0.32767532569E+03  0.40791462871E+03  0.12699999809E+01 0.  1.
</event>
<event>
 5   0  0.3416160E-02  0.8893094E+03  0.7818609E-02  0.9439045E-01
       -2   -1    0    0    0  501  0.00000000000E+00  0.00000000000E+00  0.41102484995E+03  0.41102484996E+03  0.25500000920E-02 0. -1.
        2   -1    0    0  501    0  0.00000000000E+00  0.00000000000E+00 -0.48103611311E+03  0.48103611312E+03  0.25500000920E-02 0.  1.
    10030    2    1    2    0    0  0.00000000000E+00  0.00000000000E+00 -0.70011263160E+02  0.89206096307E+03  0.88930938647E+03 0.  0.
        1    1    3    3  502    0 -0.14046910376E+03  0.32162424734E+03 -0.30887799580E+03  0.46752469657E+03  0.50400001928E-02 0.  1.
       -1    1    3    3    0  502  0.14046910376E+03 -0.32162424734E+03  0.23886673264E+03  0.42453626650E+03  0.50400001928E-02 0. -1.
</event>
<event>
 5   0  0.2132540E-02  0.7676186E+03  0.7818609E-02  0.9608108E-01
       -1   -1    0    0    0  501  0.00000000000E+00  0.00000000000E+00  0.17050795347E+03  0.17050795355E+03  0.50400001928E-02 0. -1.
        1   -1    0    0  501    0  0.00000000000E+00  0.00000000000E+00 -0.86394539517E+03  0.86394539519E+03  0.50400001928E-02 0.  1.
    10030    2    1    2    0    0  0.00000000000E+00  0.00000000000E+00 -0.69343744170E+03  0.10344533487E+04  0.76761855447E+03 0.  0.
        4    1    3    3  502    0 -0.95661353540E+02 -0.26342427714E+03  0.66658661211E+01  0.28033817261E+03  0.12699999809E+01 0. -1.
       -4    1    3    3    0  502  0.95661353540E+02  0.26342427714E+03 -0.70010330782E+03  0.75411517613E+03  0.12699999809E+01 0.  1.
</event>
<event>
 5   0  0.1358000E-02  0.8738883E+03  0.7818609E-02  0.9458824E-01
        3   -1    0    0  501    0  0.00000000000E+00  0.00000000000E+00  0.27383505454E+03  0.27383507316E+03  0.10100000352E+00 0.  1.
       -3   -1    0    0    0  501  0.00000000000E+00  0.00000000000E+00 -0.69720873293E+03  0.69720874024E+03  0.10100000352E+00 0. -1.
    10030    2    1    2    0    0  0.00000000000E+00  0.00000000000E+00 -0.42337367839E+03  0.97104381341E+03  0.87388833154E+03 0.  0.
        4    1    3    3  502    0 -0.25291612876E+03  0.32969316737E+03 -0.36181671391E+03  0.55097831188E+03  0.12699999809E+01 0. -1.
       -4    1    3    3    0  502  0.25291612876E+03 -0.32969316737E+03 -0.61556964477E+02  0.42006550153E+03  0.12699999809E+01 0.  1.
</event>
<event>
 5   0  0.2129257E-02  0.8282015E+03  0.7818609E-02  0.9520070E-01
        1   -1    0    0  501    0  0.00000000000E+00  0.00000000000E+00  0.63896867018E+03  0.63896867020E+03  0.50400001928E-02 0.  1.
       -1   -1    0    0    0  501  0.00000000000E+00  0.00000000000E+00 -0.26836906408E+03  0.26836906413E+03  0.50400001928E-02 0. -1.
    10030    2    1    2    0    0  0.00000000000E+00  0.00000000000E+00  0.37059960610E+03  0.90733773433E+03  0.82820148279E+03 0.  0.
        3    1    3    3  502    0  0.12603226348E+03  0.34852479261E+03  0.38768282657E+03  0.53633165739E+03  0.10100000352E+00 0.  1.
       -3    1    3    3    0  502 -0.12603226348E+03 -0.34852479261E+03 -0.17083220468E+02  0.37100607694E+03  0.10100000352E+00 0. -1.
</event>
<event>
 5   0  0.3343036E-02  0.7886419E+03  0.7818609E-02  0.9576604E-01
        2   -1    0    0  501    0  0.00000000000E+00  0.00000000000E+00  0.10568833771E+04  0.10568833771E+04  0.25500000920E-02 0. -1.
       -2   -1    0    0    0  501  0.00000000000E+00  0.00000000000E+00 -0.14712032755E+03  0.14712032757E+03  0.25500000920E-02 0.  1.
    10030    2    1    2    0    0  0.00000000000E+00  0.00000000000E+00  0.90976304952E+03  0.12040037047E+04  0.78864194318E+03 0.  0.
        4    1    3    3  502    0  0.29673230166E+03  0.20266628357E+03  0.20699585778E+03  0.41469576726E+03  0.12699999809E+01 0.  1.
       -4    1    3    3    0  502 -0.29673230166E+03 -0.20266628357E+03  0.70276719174E+03  0.78930793740E+03  0.12699999809E+01 0. -1.
</event>
<event>
 5   0  0.3416160E-02  0.8092140E+03  0.7818609E-02  0.9546775E-01
        2   -1    0    0  501    0  0.00000000000E+00  0.00000000000E+00  0.17844235588E+04  0.17844235588E+04  0.25500000920E-02 0. -1.
       -2   -1    0    0    0  501  0.00000000000E+00  0.00000000000E+00 -0.91742144109E+02  0.91742144144E+02  0.25500000920E-02 0.  1.
    10030    2    1    2    0    0  0.00000000000E+00  0.00000000000E+00  0.16926814147E+04  0.18761657029E+04  0.80921404663E+03 0.  0.
        1    1    3    3  502    0  0.61181221761E+02  0.37034105488E+03  0.11965130878E+04  0.12540092536E+04  0.50400001928E-02 0. -1.
       -1    1    3    3    0  502 -0.61181221761E+02 -0.37034105488E+03  0.49616832692E+03  0.62215644937E+03  0.50400001928E-02 0.  1.
</event>
<event>
 5   0  0.3467240E-02  0.7990362E+03  0.7818609E-02  0.9561413E-01
        2   -1    0    0  501    0  0.00000000000E+00  0.00000000000E+00  0.12320694201E+04  0.12320694201E+04  0.25500000920E-02 0. -1.
       -2   -1    0    0    0  501  0.00000000000E+00  0.00000000000E+00 -0.12955010288E+03  0.12955010290E+03  0.25500000920E-02 0.  1.
    10030    2    1    2    0    0  0.00000000000E+00  0.00000000000E+00  0.11025193172E+04  0.13616195230E+04  0.79903621983E+03 0.  0.
        2    1    3    3  502    0  0.18582562006E+03 -0.33938286368E+03  0.38168186298E+03  0.54350062903E+03  0.25500000920E-02 0.  1.
       -2    1    3    3    0  502 -0.18582562006E+03  0.33938286368E+03  0.72083745427E+03  0.81811889400E+03  0.25500000920E-02 0. -1.
</event>
<event>
 5   0  0.3404132E-02  0.8032234E+03  0.7818609E-02  0.9555363E-01
        2   -1    0    0  501    0  0.00000000000E+00  0.00000000000E+00  0.25062632078E+03  0.25062632079E+03  0.25500000920E-02 0.  1.
       -2   -1    0    0    0  501  0.00000000000E+00  0.00000000000E+00 -0.64355556870E+03  0.64355556871E+03  0.25500000920E-02 0. -1.
    10030    2    1    2    0    0  0.00000000000E+00  0.00000000000E+00 -0.39292924793E+03  0.89418188949E+03  0.80322341701E+03 0.  0.
        5    1    3    3  502    0  0.29016727845E+02  0.30734824975E+03  0.89456439843E+02  0.32144900334E+03  0.46999998093E+01 0.  1.
       -5    1    3    3    0  502 -0.29016727845E+02 -0.30734824975E+03 -0.48238568777E+03  0.57273288615E+03  0.46999998093E+01 0. -1.
</event>
<event>
 5   0  0.3467240E-02  0.8290577E+03  0.7818609E-02  0.9518884E-01
       -2   -1    0    0    0  501  0.00000000000E+00  0.00000000000E+00  0.47958546034E+03  0.47958546035E+03  0.25500000920E-02 0. -1.
        2   -1    0    0  501    0  0.00000000000E+00  0.00000000000E+00 -0.35829732037E+03  0.35829732038E+03  0.25500000920E-02 0.  1.
    10030    2    1    2    0    0  0.00000000000E+00  0.00000000000E+00  0.12128813997E+03  0.83788278073E+03  0.82905774307E+03 0.  0.
        2    1    3    3  502    0 -0.12883737609E+03 -0.28655010310E+03 -0.21264918528E+03  0.37938068885E+03  0.25500000920E-02 0.  1.
       -2    1    3    3    0  502  0.12883737609E+03  0.28655010310E+03  0.33393732525E+03  0.45850209189E+03  0.25500000920E-02 0. -1.
</event>
<event>
 5   0  0.2129257E-02  0.8076613E+03  0.7818609E-02  0.9548993E-01
       -1   -1    0    0    0  501  0.00000000000E+00  0.00000000000E+00  0.30071289369E+03  0.30071289373E+03  0.50400001928E-02 0. -1.
        1   -1    0    0  501    0  0.00000000000E+00  0.00000000000E+00 -0.54230855604E+03  0.54230855606E+03  0.50400001928E-02 0.  1.
    10030    2    1    2    0    0  0.00000000000E+00  0.00000000000E+00 -0.24159566235E+03  0.84302144979E+03  0.80766125371E+03 0.  0.
        3    1    3    3  502    0 -0.27870499907E+03  0.23686051368E+03  0.57868038183E+02  0.37030811426E+03  0.10100000352E+00 0. -1.
       -3    1    3    3    0  502  0.27870499907E+03 -0.23686051368E+03 -0.29946370053E+03  0.47271333553E+03  0.10100000352E+00 0.  1.
</event>
<event>
 5   0  0.3416160E-02  0.8239490E+03  0.7818609E-02  0.9525984E-01
        2   -1    0    0  501    0  0.00000000000E+00  0.00000000000E+00  0.55238966675E+03  0.55238966676E+03  0.25500000920E-02 0. -1.
       -2   -1    0    0    0  501  0.00000000000E+00  0.00000000000E+00 -0.30725231932E+03  0.30725231933E+03  0.25500000920E-02 0.  1.
    10030    2    1    2    0    0  0.00000000000E+00  0.00000000000E+00  0.24513734743E+03  0.85964198609E+03  0.82394904281E+03 0.  0.
        1    1    3    3  502    0  0.63927800176E+02  0.16756231675E+02 -0.30168591673E+03  0.30883964660E+03  0.50400001928E-02 0.  1.
       -1    1    3    3    0  502 -0.63927800176E+02 -0.16756231675E+02  0.54682326416E+03  0.55080233949E+03  0.50400001928E-02 0. -1.
</event>
<event>
 5   0  0.2063692E-02  0.8115006E+03  0.7818609E-02  0.9543518E-01
       -1   -1    0    0    0  501  0.00000000000E+00  0.00000000000E+00  0.28776302670E+03  0.28776302674E+03  0.50400001928E-02 0.  1.
        1   -1    0    0  501    0  0.00000000000E+00  0.00000000000E+00 -0.57211423236E+03  0.57211423238E+03  0.50400001928E-02 0. -1.
    10030    2    1    2    0    0  0.00000000000E+00  0.00000000000E+00 -0.28435120566E+03  0.85987725912E+03  0.81150064239E+03 0.  0.
        2    1    3    3  502    0 -0.38617548541E+03  0.10121474754E+03 -0.21900595004E+03  0.45534551366E+03  0.25500000920E-02 0.  1.
       -2    1    3    3    0  502  0.38617548541E+03 -0.10121474754E+03 -0.65345255623E+02  0.40453174547E+03  0.25500000920E-02 0. -1.
</event>
<event>
 5   0  0.2132540E-02  0.7946597E+03  0.7818609E-02  0.9567779E-01
        1   -1    0    0  501    0  0.00000000000E+00  0.00000000000E+00  0.11513729457E+04  0.11513729457E+04  0.50400001928E-02 0. -1.
       -1   -1    0    0    0  501  0.00000000000E+00  0.00000000000E+00 -0.13711544953E+03  0.13711544962E+03  0.50400001928E-02 0.  1.
    10030    2    1    2    0    0  0.00000000000E+00  0.00000000000E+00  0.10142574962E+04  0.12884883953E+04  0.79465972364E+03 0.  0.
        4    1    3    3  502    0  0.30516234713E+03  0.20595120111E+03  0.74942033301E+03  0.83496850466E+03  0.12699999809E+01 0. -1.
       -4    1    3    3    0  502 -0.30516234713E+03 -0.20595120111E+03  0.26483716317E+03  0.45351989068E+03  0.12699999809E+01 0.  1.
</event>
<event>
 5   0  0.3550586E-02  0.7265288E+03  0.7818609E-02  0.9672910E-01
        2   -1    0    0  501    0  0.00000000000E+00  0.00000000000E+00  0.19233626965E+04  0.19233626965E+04  0.25500000920E-02 0. -1.
       -2   -1    0    0    0  501  0.00000000000E+00  0.00000000000E+00 -0.68609542981E+02  0.68609543028E+02  0.25500000920E-02 0.  1.
    10030    2    1    2    0    0  0.00000000000E+00  0.00000000000E+00  0.18547531535E+04  0.19919722395E+04  0.72652883120E+03 0.  0.
        3    1    3    3  502    0  0.16135555687E+03  0.65567330245E+02  0.18014211085E+04  0.18098211820E+04  0.10100000352E+00 0. -1.
       -3    1    3    3    0  502 -0.16135555687E+03 -0.65567330245E+02  0.53332045031E+02  0.18215105752E+03  0.10100000352E+00 0.  1.
</event>
<event>
 5   0  0.3404132E-02  0.8211680E+03  0.7818609E-02  0.9529873E-01
       -2   -1    0    0    0  501  0.00000000000E+00  0.00000000000E+00  0.20687622206E+03  0.20687622208E+03  0.25500000920E-02 0. -1.
        2   -1    0    0  501    0  0.00000000000E+00  0.00000000000E+00 -0.81487956722E+03  0.81487956722E+03  0.25500000920E-02 0.  1.
    10030    2    1    2    0    0  0.00000000000E+00  0.00000000000E+00 -0.60800334515E+03  0.10217557893E+04  0.82116796409E+03 0.  0.
        5    1    3    3  502    0  0.16313225146E+03  0.13522952817E+03 -0.74155011993E+03  0.77124433685E+03  0.46999998093E+01 0.  1.
       -5    1    3    3    0  502 -0.16313225146E+03 -0.13522952817E+03  0.13354677478E+03  0.25051145245E+03  0.46999998093E+01 0. -1.
</event>
<event>
 5   0  0.1358000E-02  0.7875417E+03  0.7818609E-02  0.9578227E-01
       -3   -1    0    0    0  501  0.00000000000E+00  0.00000000000E+00  0.51789289434E+03  0.51789290419E+03  0.10100000352E+00 0.  1.
        3   -1    0    0  501    0  0.00000000000E+00  0.00000000000E+00 -0.29939681474E+03  0.29939683177E+03  0.10100000352E+00 0. -1.
    10030    2    1    2    0    0  0.00000000000E+00  0.00000000000E+00  0.21849607960E+03  0.81728973596E+03  0.78754172950E+03 0.  0.
        3    1    3    3  502    0 -0.35709936205E+03 -0.19230818086E+00  0.28145428325E+03  0.45468287313E+03  0.10100000352E+00 0.  1.
       -3    1    3    3    0  502  0.35709936205E+03  0.19230818086E+00 -0.62958203647E+02  0.36260686283E+03  0.10100000352E+00 0. -1.
</event>
<event>
 5   0  0.1358000E-02  0.7989567E+03  0.7818609E-02  0.9561528E-01
        3   -1    0    0  501    0  0.00000000000E+00  0.00000000000E+00  0.10530959350E+04  0.10530959399E+04  0.10100000352E+00 0.  1.
       -3   -1    0    0    0  501  0.00000000000E+00  0.00000000000E+00 -0.15153693430E+03  0.15153696796E+03  0.10100000352E+00 0. -1.
    10030    2    1    2    0    0  0.00000000000E+00  0.00000000000E+00  0.90155900072E+03  0.12046329078E+04  0.79895670147E+03 0.  0.
        2    1    3    3  502    0 -0.25401096050E+03 -0.22277644864E+03  0.77215487157E+03  0.84283691175E+03  0.25500000920E-02 0.  1.
       -2    1    3    3    0  502  0.25401096050E+03  0.22277644864E+03  0.12940412915E+03  0.36179599607E+03  0.25500000920E-02 0. -1.
</event>
<event>
 5   0  0.3404132E-02  0.8086351E+03  0.7818609E-02  0.9547602E-01
       -2   -1    0    0    0  501  0.00000000000E+00  0.00000000000E+00  0.64845567359E+03  0.64845567359E+03  0.25500000920E-02 0.  1.
        2   -1    0    0  501    0  0.00000000000E+00  0.00000000000E+00 -0.25209536705E+03  0.25209536706E+03  0.25500000920E-02 0. -1.
    10030    2    1    2    0    0  0.00000000000E+00  0.00000000000E+00  0.39636030654E+03  0.90055104066E+03  0.80863507482E+03 0.  0.
        5    1    3    3  502    0 -0.18263078108E+03 -0.26372327527E+03 -0.75851470373E+02  0.32966574538E+03  0.46999998093E+01 0. -1.
       -5    1    3    3    0  502  0.18263078108E+03  0.26372327527E+03  0.47221177691E+03  0.57088529528E+03  0.46999998093E+01 0.  1.
</event>
<event>
 5   0  0.3416160E-02  0.7988970E+03  0.7818609E-02  0.9561615E-01
       -2   -1    0    0    0  501  0.00000000000E+00  0.00000000000E+00  0.14321266878E+03  0.14321266880E+03  0.25500000920E-02 0.  1.
        2   -1    0    0  501    0  0.00000000000E+00  0.00000000000E+00 -0.11141410761E+04  0.11141410761E+04  0.25500000920E-02 0. -1.
    10030    2    1    2    0    0  0.00000000000E+00  0.00000000000E+00 -0.97092840729E+03  0.12573537449E+04  0.79889703196E+03 0.  0.
        1    1    3    3  502    0  0.17004956097E+03  0.18456292479E+02  0.82657779664E+02  0.18997314674E+03  0.50400001928E-02 0.  1.
       -1    1    3    3    0  502 -0.17004956097E+03 -0.18456292479E+02 -0.10535861870E+04  0.10673805981E+04  0.50400001928E-02 0. -1.
</event>
<event>
 5   0  0.2132540E-02  0.7991713E+03  0.7818609E-02  0.9561217E-01
       -1   -1    0    0    0  501  0.00000000000E+00  0.00000000000E+00  0.40887709300E+03  0.40887709303E+03  0.50400001928E-02 0. -1.
        1   -1    0    0  501    0  0.00000000000E+00  0.00000000000E+00 -0.39050535635E+03  0.39050535638E+03  0.50400001928E-02 0.  1.
    10030    2    1    2    0    0  0.00000000000E+00  0.00000000000E+00  0.18371736647E+02  0.79938244941E+03  0.79917130812E+03 0.  0.
        4    1    3    3  502    0 -0.33133989900E+03  0.15576137116E+03 -0.15091687270E+03  0.39601167758E+03  0.12699999809E+01 0.  1.
       -4    1    3    3    0  502  0.33133989900E+03 -0.15576137116E+03  0.16928860934E+03  0.40337077183E+03  0.12699999809E+01 0. -1.
</event>
<event>
 5   0  0.2077795E-02  0.8119705E+03  0.7818609E-02  0.9542850E-01
        1   -1    0    0  501    0  0.00000000000E+00  0.00000000000E+00  0.86829450195E+03  0.86829450196E+03  0.50400001928E-02 0.  1.
       -1   -1    0    0    0  501  0.00000000000E+00  0.00000000000E+00 -0.18982501588E+03  0.18982501595E+03  0.50400001928E-02 0. -1.
    10030    2    1    2    0    0  0.00000000000E+00  0.00000000000E+00  0.67846948607E+03  0.10581195179E+04  0.81197048632E+03 0.  0.
        5    1    3    3  502    0 -0.22241946751E+03 -0.10209277660E+03  0.76131979474E+03  0.79970199101E+03  0.46999998093E+01 0.  1.
       -5    1    3    3    0  502  0.22241946751E+03  0.10209277660E+03 -0.82850308676E+02  0.25841752690E+03  0.46999998093E+01 0. -1.
</event>
<event>
 5   0  0.3404132E-02  0.7969702E+03  0.7818609E-02  0.9564413E-01
        2   -1    0    0  501    0  0.00000000000E+00  0.00000000000E+00  0.35985853621E+03  0.35985853621E+03  0.25500000920E-02 0. -1.
       -2   -1    0    0    0  501  0.00000000000E+00  0.00000000000E+00 -0.44125772768E+03  0.44125772768E+03  0.25500000920E-02 0.  1.
    10030    2    1    2    0    0  0.00000000000E+00  0.00000000000E+00 -0.81399191472E+02  0.80111626390E+03  0.79697016250E+03 0.  0.
        5    1    3    3  502    0  0.17460413161E+03 -0.11307712363E+03  0.30091428807E+03  0.36584769703E+03  0.46999998093E+01 0. -1.
       -5    1    3    3    0  502 -0.17460413161E+03  0.11307712363E+03 -0.38231347954E+03  0.43526856686E+03  0.46999998093E+01 0.  1.
</event>
<event>
 5   0  0.3467240E-02  0.8658536E+03  0.7818609E-02  0.9469302E-01
        2   -1    0    0  501    0  0.00000000000E+00  0.00000000000E+00  0.43259234282E+03  0.43259234283E+03  0.25500000920E-02 0.  1.
       -2   -1    0    0    0  501  0.00000000000E+00  0.00000000000E+00 -0.43326155029E+03  0.43326155030E+03  0.25500000920E-02 0. -1.
    10030    2    1    2    0    0  0.00000000000E+00  0.00000000000E+00 -0.66920746833E+00  0.86585389312E+03  0.86585363451E+03 0.  0.
        2    1    3    3  502    0 -0.42651909977E+03 -0.54415327724E+02  0.50123896612E+02  0.43288794783E+03  0.25500000920E-02 0.  1.
       -2    1    3    3    0  502  0.42651909977E+03  0.54415327724E+02 -0.50793104080E+02  0.43296594530E+03  0.25500000920E-02 0. -1.
</event>
<event>
 5   0  0.3550586E-02  0.7809460E+03  0.7818609E-02  0.9588014E-01
       -2   -1    0    0    0  501  0.00000000000E+00  0.00000000000E+00  0.14412662613E+03  0.14412662616E+03  0.25500000920E-02 0.  1.
        2   -1    0    0  501    0  0.00000000000E+00  0.00000000000E+00 -0.10578832603E+04  0.10578832603E+04  0.25500000920E-02 0. -1.
    10030    2    1    2    0    0  0.00000000000E+00  0.00000000000E+00 -0.91375663419E+03  0.12020098865E+04  0.78094595247E+03 0.  0.
        3    1    3    3  502    0  0.12211470755E+03 -0.10135849510E+03  0.92249275911E+02  0.18356330090E+03  0.10100000352E+00 0.  1.
       -3    1    3    3    0  502 -0.12211470755E+03  0.10135849510E+03 -0.10060059101E+04  0.10184465856E+04  0.10100000352E+00 0. -1.
</event>
<event>
 5   0  0.1989298E-02  0.8024261E+03  0.7818609E-02  0.9556512E-01
        1   -1    0    0  501    0  0.00000000000E+00  0.00000000000E+00  0.53219320873E+03  0.53219320875E+03  0.50400001928E-02 0.  1.
       -1   -1    0    0    0  501  0.00000000000E+00  0.00000000000E+00 -0.30246895859E+03  0.30246895863E+03  0.50400001928E-02 0. -1.
    10030    2    1    2    0    0  0.00000000000E+00  0.00000000000E+00  0.22972425014E+03  0.83466216738E+03  0.80242613527E+03 0.  0.
        1    1    3    3  502    0  0.36331615327E+03 -0.13599873295E+03  0.22133462771E+03  0.44663553379E+03  0.50400001928E-02 0.  1.
       -1    1    3    3    0  502 -0.36331615327E+03  0.13599873295E+03  0.83896224297E+01  0.38802663360E+03  0.50400001928E-02 0. -1.
</event>
<event>
 5   0  0.3550586E-02  0.7446033E+03  0.7818609E-02  0.9643855E-01
       -2   -1    0    0    0  501  0.00000000000E+00  0.00000000000E+00  0.27902549335E+03  0.27902549336E+03  0.25500000920E-02 0.  1.
        2   -1    0    0  501    0  0.00000000000E+00  0.00000000000E+00 -0.49675933270E+03  0.49675933271E+03  0.25500000920E-02 0. -1.
    10030    2    1    2    0    0  0.00000000000E+00  0.00000000000E+00 -0.21773383935E+03  0.77578482607E+03  0.74460329812E+03 0.  0.
        3    1    3    3  502    0 -0.25597981081E+03  0.11110993219E+03  0.14790322200E+03  0.31582661992E+03  0.10100000352E+00 0.  1.
       -3    1    3    3    0  502  0.25597981081E+03 -0.11110993219E+03 -0.36563706135E+03  0.45995820615E+03  0.10100000352E+00 0. -1.
</event>
<event>
 5   0  0.3404132E-02  0.8037507E+03  0.7818609E-02  0.9554604E-01
       -2   -1    0    0    0  501  0.00000000000E+00  0.00000000000E+00  0.10485651930E+03  0.10485651933E+03  0.25500000920E-02 0. -1.
        2   -1    0    0  501    0  0.00000000000E+00  0.00000000000E+00 -0.15402359275E+04  0.15402359275E+04  0.25500000920E-02 0.  1.
    10030    2    1    2    0    0  0.00000000000E+00  0.00000000000E+00 -0.14353794082E+04  0.16450924469E+04  0.80375065359E+03 0.  0.
        5    1    3    3  502    0  0.58927933839E+02  0.29269732997E+03 -0.16719823051E+03  0.34223028306E+03  0.46999998093E+01 0. -1.
       -5    1    3    3    0  502 -0.58927933839E+02 -0.29269732997E+03 -0.12681811777E+04  0.13028621638E+04  0.46999998093E+01 0.  1.
</event>
<event>
 5   0  0.1989298E-02  0.7695481E+03  0.7818609E-02  0.9605172E-01
        1   -1    0    0  501    0  0.00000000000E+00  0.00000000000E+00  0.56969990911E+03  0.56969990914E+03  0.50400001928E-02 0. -1.
       -1   -1    0    0    0  501  0.00000000000E+00  0.00000000000E+00 -0.25987552227E+03  0.25987552232E+03  0.50400001928E-02 0.  1.
    10030    2    1    2    0    0  0.00000000000E+00  0.00000000000E+00  0.30982438685E+03  0.82957543145E+03  0.76954807893E+03 0.  0.
        1    1    3    3  502    0  0.95667676891E+02 -0.35206866655E+03  0.28670405247E+03  0.46400847417E+03  0.50400001928E-02 0.  1.
       -1    1    3    3    0  502 -0.95667676891E+02  0.35206866655E+03  0.23120334372E+02  0.36556695728E+03  0.50400001928E-02 0. -1.
</event>
<event>
 5   0  0.2063692E-02  0.7752644E+03  0.7818609E-02  0.9596528E-01
       -1   -1    0    0    0  501  0.00000000000E+00  0.00000000000E+00  0.52851820522E+03  0.52851820524E+03  0.50400001928E-02 0. -1.
        1   -1    0    0  501    0  0.00000000000E+00  0.00000000000E+00 -0.28430188046E+03  0.28430188051E+03  0.50400001928E-02 0.  1.
    10030    2    1    2    0    0  0.00000000000E+00  0.00000000000E+00  0.24421632476E+03  0.81282008575E+03  0.77526439266E+03 0.  0.
        2    1    3    3  502    0 -0.32281574810E+02 -0.17153194925E+03 -0.24077018339E+03  0.29738122150E+03  0.25500000920E-02 0.  1.
       -2    1    3    3    0  502  0.32281574810E+02  0.17153194925E+03  0.48498650815E+03  0.51543886425E+03  0.25500000920E-02 0. -1.
</event>
<event>
 5   0  0.3343036E-02  0.8055807E+03  0.7818609E-02  0.9551974E-01
        2   -1    0    0  501    0  0.00000000000E+00  0.00000000000E+00  0.23939001413E+03  0.23939001414E+03  0.25500000920E-02 0.  1.
       -2   -1    0    0    0  501  0.00000000000E+00  0.00000000000E+00 -0.67772270824E+03  0.67772270824E+03  0.25500000920E-02 0. -1.
    10030    2    1    2    0    0  0.00000000000E+00  0.00000000000E+00 -0.43833269411E+03  0.91711272238E+03  0.80558065694E+03 0.  0.
        4    1    3    3  502    0  0.10281169211E+03  0.30921153188E+03  0.50375604775E+02  0.32972917666E+03  0.12699999809E+01 0.  1.
       -4    1    3    3    0  502 -0.10281169211E+03 -0.30921153188E+03 -0.48870829889E+03  0.58738354572E+03  0.12699999809E+01 0. -1.
</event>
<event>
 5   0  0.3343036E-02  0.8008584E+03  0.7818609E-02  0.9558775E-01
        2   -1    0    0  501    0  0.00000000000E+00  0.00000000000E+00  0.78412177516E+03  0.78412177517E+03  0.25500000920E-02 0.  1.
       -2   -1    0    0    0  501  0.00000000000E+00  0.00000000000E+00 -0.20448806119E+03  0.20448806120E+03  0.25500000920E-02 0. -1.
    10030    2    1    2    0    0  0.00000000000E+00  0.00000000000E+00  0.57963371398E+03  0.98860983637E+03  0.80085839334E+03 0.  0.
        4    1    3    3  502    0  0.27250776345E+03 -0.29022641885E+03  0.34291308439E+03  0.52543586829E+03  0.12699999809E+01 0. -1.
       -4    1    3    3    0  502 -0.27250776345E+03  0.29022641885E+03  0.23672062959E+03  0.46317396809E+03  0.12699999809E+01 0.  1.
</event>
<event>
 5   0  0.3467240E-02  0.8126257E+03  0.7818609E-02  0.9541920E-01
       -2   -1    0    0    0  501  0.00000000000E+00  0.00000000000E+00  0.35628252015E+03  0.35628252015E+03  0.25500000920E-02 0. -1.
        2   -1    0    0  501    0  0.00000000000E+00  0.00000000000E+00 -0.46336862944E+03  0.46336862945E+03  0.25500000920E-02 0.  1.
    10030    2    1    2    0    0  0.00000000000E+00  0.00000000000E+00 -0.10708610930E+03  0.81965114960E+03  0.81262572704E+03 0.  0.
        2    1    3    3  502    0  0.10986309579E+03  0.37576111329E+03  0.56134448334E+02  0.39549638478E+03  0.25500000920E-02 0.  1.
       -2    1    3    3    0  502 -0.10986309579E+03 -0.37576111329E+03 -0.16322055763E+03  0.42415476482E+03  0.25500000920E-02 0. -1.
</event>
<event>
 5   0  0.3416160E-02  0.7997216E+03  0.7818609E-02  0.9560420E-01
        2   -1    0    0  501    0  0.00000000000E+00  0.00000000000E+00  0.18433936618E+04  0.18433936618E+04  0.25500000920E-02 0. -1.
       -2   -1    0    0    0  501  0.00000000000E+00  0.00000000000E+00 -0.86736043232E+02  0.86736043269E+02  0.25500000920E-02 0.  1.
    10030    2    1    2    0    0  0.00000000000E+00  0.00000000000E+00  0.17566576186E+04  0.19301297051E+04  0.79972163253E+03 0.  0.
        1    1    3    3  502    0 -0.24739616118E+03  0.31091016776E+03  0.98676676552E+03  0.10637568531E+04  0.50400001928E-02 0. -1.
       -1    1    3    3    0  502  0.24739616118E+03 -0.31091016776E+03  0.76989085308E+03  0.86637285199E+03  0.50400001928E-02 0.  1.
</event>
<event>
 5   0  0.3343036E-02  0.8117608E+03  0.7818609E-02  0.9543148E-01
        2   -1    0    0  501    0  0.00000000000E+00  0.00000000000E+00  0.22155555101E+04  0.22155555101E+04  0.25500000920E-02 0.  1.
       -2   -1    0    0    0  501  0.00000000000E+00  0.00000000000E+00 -0.74355564670E+02  0.74355564713E+02  0.25500000920E-02 0. -1.
    10030    2    1    2    0    0  0.00000000000E+00  0.00000000000E+00  0.21411999454E+04  0.22899110748E+04  0.81176075555E+03 0.  0.
        4    1    3    3  502    0  0.39326605863E+03  0.39063887603E+02  0.13314867305E+04  0.13888998187E+04  0.12699999809E+01 0. -1.
       -4    1    3    3    0  502 -0.39326605863E+03 -0.39063887603E+02  0.80971321498E+03  0.90101125609E+03  0.12699999809E+01 0.  1.
</event>
<event>
 5   0  0.3550586E-02  0.7939151E+03  0.7818609E-02  0.9568867E-01
       -2   -1    0    0    0  501  0.00000000000E+00  0.00000000000E+00  0.16887263400E+03  0.16887263402E+03  0.25500000920E-02 0.  1.
        2   -1    0    0  501    0  0.00000000000E+00  0.00000000000E+00 -0.93310153524E+03  0.93310153524E+03  0.25500000920E-02 0. -1.
    10030    2    1    2    0    0  0.00000000000E+00  0.00000000000E+00 -0.76422890124E+03  0.11019741693E+04  0.79391514423E+03 0.  0.
        3    1    3    3  502    0 -0.14948983637E+03 -0.17909606295E+03 -0.82791193489E+03  0.86015161052E+03  0.10100000352E+00 0. -1.
       -3    1    3    3    0  502  0.14948983637E+03  0.17909606295E+03  0.63683033649E+02  0.24182255875E+03  0.10100000352E+00 0.  1.
</event>
<event>
 5   0  0.1989298E-02  0.7678590E+03  0.7818609E-02  0.9607742E-01
        1   -1    0    0  501    0  0.00000000000E+00  0.00000000000E+00  0.79342745114E+03  0.79342745115E+03  0.50400001928E-02 0.  1.
       -1   -1    0    0    0  501  0.00000000000E+00  0.00000000000E+00 -0.18577863886E+03  0.18577863893E+03  0.50400001928E-02 0. -1.
    10030    2    1    2    0    0  0.00000000000E+00  0.00000000000E+00  0.60764881228E+03  0.97920609008E+03  0.76785902859E+03 0.  0.
        1    1    3    3  502    0  0.51763798593E+02  0.69182720785E+02 -0.17321861169E+03  0.19357279551E+03  0.50400001928E-02 0. -1.
       -1    1    3    3    0  502 -0.51763798593E+02 -0.69182720785E+02  0.78086742397E+03  0.78563329457E+03  0.50400001928E-02 0.  1.
</event>
<event>
 5   0  0.1989298E-02  0.7268435E+03  0.7818609E-02  0.9672396E-01
       -1   -1    0    0    0  501  0.00000000000E+00  0.00000000000E+00  0.10905714316E+04  0.10905714316E+04  0.50400001928E-02 0.  1.
        1   -1    0    0  501    0  0.00000000000E+00  0.00000000000E+00 -0.12110658121E+03  0.12110658131E+03  0.50400001928E-02 0. -1.
    10030    2    1    2    0    0  0.00000000000E+00  0.00000000000E+00  0.96946485038E+03  0.12116780129E+04  0.72684352571E+03 0.  0.
        1    1    3    3  502    0 -0.21906235784E+03  0.23762301773E+03  0.76179426333E+03  0.82751647407E+03  0.50400001928E-02 0.  1.
       -1    1    3    3    0  502  0.21906235784E+03 -0.23762301773E+03  0.20767058705E+03  0.38416153885E+03  0.50400001928E-02 0. -1.
</event>
<event>
 5   0  0.2132540E-02  0.8601448E+03  0.7818609E-02  0.9476821E-01
       -1   -1    0    0    0  501  0.00000000000E+00  0.00000000000E+00  0.62058396433E+03  0.62058396435E+03  0.50400001928E-02 0. -1.
        1   -1    0    0  501    0  0.00000000000E+00  0.00000000000E+00 -0.29804549722E+03  0.29804549726E+03  0.50400001928E-02 0.  1.
    10030    2    1    2    0    0  0.00000000000E+00  0.00000000000E+00  0.32253846711E+03  0.91862946161E+03  0.86014476978E+03 0.  0.
        4    1    3    3  502    0  0.82968204516E+02  0.13913489159E+03  0.58675247423E+03  0.60870544596E+03  0.12699999809E+01 0. -1.
       -4    1    3    3    0  502 -0.82968204516E+02 -0.13913489159E+03 -0.26421400713E+03  0.30992401565E+03  0.12699999809E+01 0.  1.
</event>
<event>
 5   0  0.1989298E-02  0.7773396E+03  0.7818609E-02  0.9593409E-01
        1   -1    0    0  501    0  0.00000000000E+00  0.00000000000E+00  0.85523124872E+03  0.85523124874E+03  0.50400001928E-02 0. -1.
       -1   -1    0    0    0  501  0.00000000000E+00  0.00000000000E+00 -0.17663551772E+03  0.17663551779E+03  0.50400001928E-02 0.  1.
    10030    2    1    2    0    0  0.00000000000E+00  0.00000000000E+00  0.67859573100E+03  0.10318667665E+04  0.77733960258E+03 0.  0.
        1    1    3    3  502    0  0.37008328330E+03  0.12244266898E+02  0.18249959392E+03  0.41281673956E+03  0.50400001928E-02 0.  1.
       -1    1    3    3    0  502 -0.37008328330E+03 -0.12244266898E+02  0.49609613708E+03  0.61905002697E+03  0.50400001928E-02 0. -1.
</event>
<event>
 5   0  0.3416160E-02  0.7983239E+03  0.7818609E-02  0.9562446E-01
        2   -1    0    0  501    0  0.00000000000E+00  0.00000000000E+00  0.98944675230E+03  0.98944675231E+03  0.25500000920E-02 0. -1.
       -2   -1    0    0    0  501  0.00000000000E+00  0.00000000000E+00 -0.16102963387E+03  0.16102963389E+03  0.25500000920E-02 0.  1.
    10030    2    1    2    0    0  0.00000000000E+00  0.00000000000E+00  0.82841711843E+03  0.11504763862E+04  0.79832386478E+03 0.  0.
        1    1    3    3  502    0  0.17107847687E+03 -0.19361296689E+03 -0.24270435067E+02  0.25950506785E+03  0.50400001928E-02 0.  1.
       -1    1    3    3    0  502 -0.17107847687E+03  0.19361296689E+03  0.85268755350E+03  0.89097131835E+03  0.50400001928E-02 0. -1.
</event>
<event>
 5   0  0.3343036E-02  0.7985460E+03  0.7818609E-02  0.9562124E-01
       -2   -1    0    0    0  501  0.00000000000E+00  0.00000000000E+00  0.24050068160E+03  0.24050068161E+03  0.25500000920E-02 0.  1.
        2   -1    0    0  501    0  0.00000000000E+00  0.00000000000E+00 -0.66286266476E+03  0.66286266476E+03  0.25500000920E-02 0. -1.
    10030    2    1    2    0    0  0.00000000000E+00  0.00000000000E+00 -0.42236198316E+03  0.90336334637E+03  0.79854598537E+03 0.  0.
        4    1    3    3  502    0  0.48819220198E+02  0.10421214557E+02  0.23695429855E+03  0.24215877121E+03  0.12699999809E+01 0.  1.
       -4    1    3    3    0  502 -0.48819220198E+02 -0.10421214557E+02 -0.65931628172E+03  0.66120457516E+03  0.12699999809E+01 0. -1.
</event>
<event>
 5   0  0.3467240E-02  0.7939625E+03  0.7818609E-02  0.9568798E-01
        2   -1    0    0  501    0  0.00000000000E+00  0.00000000000E+00  0.91964436513E+03  0.91964436514E+03  0.25500000920E-02 0.  1.
       -2   -1    0    0    0  501  0.00000000000E+00  0.00000000000E+00 -0.17136417937E+03  0.17136417939E+03  0.25500000920E-02 0. -1.
    10030    2    1    2    0    0  0.00000000000E+00  0.00000000000E+00  0.74828018576E+03  0.10910085445E+04  0.79396247255E+03 0.  0.
        2    1    3    3  502    0 -0.29666071279E+03 -0.10687504685E+03  0.70554293937E+03  0.77280055218E+03  0.25500000920E-02 0.  1.
       -2    1    3    3    0  502  0.29666071279E+03  0.10687504685E+03  0.42737246391E+02  0.31820799234E+03  0.25500000920E-02 0. -1.
</event>
<event>
 5   0  0.2077795E-02  0.8290744E+03  0.7818609E-02  0.9518861E-01
        1   -1    0    0  501    0  0.00000000000E+00  0.00000000000E+00  0.17867650613E+04  0.17867650613E+04  0.50400001928E-02 0. -1.
       -1   -1    0    0    0  501  0.00000000000E+00  0.00000000000E+00 -0.96174427858E+02  0.96174427990E+02  0.50400001928E-02 0.  1.
    10030    2    1    2    0    0  0.00000000000E+00  0.00000000000E+00  0.16905906335E+04  0.18829394893E+04  0.82907444206E+03 0.  0.
        5    1    3    3  502    0  0.32372143073E+03  0.14430961613E+02  0.14323525906E+04  0.14685570643E+04  0.46999998093E+01 0. -1.
       -5    1    3    3    0  502 -0.32372143073E+03 -0.14430961613E+02  0.25823804287E+03  0.41438242501E+03  0.46999998093E+01 0.  1.
</event>
<event>
 5   0  0.2129257E-02  0.8032651E+03  0.7818609E-02  0.9555303E-01
       -1   -1    0    0    0  501  0.00000000000E+00  0.00000000000E+00  0.13233020196E+03  0.13233020206E+03  0.50400001928E-02 0.  1.
        1   -1    0    0  501    0  0.00000000000E+00  0.00000000000E+00 -0.12189861983E+04  0.12189861983E+04  0.50400001928E-02 0. -1.
    10030    2    1    2    0    0  0.00000000000E+00  0.00000000000E+00 -0.10866559964E+04  0.13513164004E+04  0.80326506182E+03 0.  0.
        3    1    3    3  502    0 -0.31574412391E+03 -0.16703183433E+03 -0.23443520020E+03  0.42726321953E+03  0.10100000352E+00 0.  1.
       -3    1    3    3    0  502  0.31574412391E+03  0.16703183433E+03 -0.85222079615E+03  0.92405318086E+03  0.10100000352E+00 0. -1.
</event>
<event>
 5   0  0.3416160E-02  0.7172749E+03  0.7818609E-02  0.9688137E-01
       -2   -1    0    0    0  501  0.00000000000E+00  0.00000000000E+00  0.42572432419E+03  0.42572432420E+03  0.25500000920E-02 0. -1.
        2   -1    0    0  501    0  0.00000000000E+00  0.00000000000E+00 -0.30212233286E+03  0.30212233287E+03  0.25500000920E-02 0.  1.
    10030    2    1    2    0    0  0.00000000000E+00  0.00000000000E+00  0.12360199134E+03  0.72784665707E+03  0.71727491518E+03 0.  0.
        1    1    3    3  502    0  0.73862690969E+02 -0.24155467882E+03 -0.19654213784E+03  0.32005182697E+03  0.50400001928E-02 0.  1.
       -1    1    3    3    0  502 -0.73862690969E+02  0.24155467882E+03  0.32014412918E+03  0.40779483009E+03  0.50400001928E-02 0. -1.
</event>
<event>
 5   0  0.2132540E-02  0.7982060E+03  0.7818609E-02  0.9562617E-01
        1   -1    0    0  501    0  0.00000000000E+00  0.00000000000E+00  0.82353873851E+03  0.82353873853E+03  0.50400001928E-02 0.  1.
       -1   -1    0    0    0  501  0.00000000000E+00  0.00000000000E+00 -0.19341312867E+03  0.19341312874E+03  0.50400001928E-02 0. -1.
    10030    2    1    2    0    0  0.00000000000E+00  0.00000000000E+00  0.63012560984E+03  0.10169518673E+04  0.79820599858E+03 0.  0.
        4    1    3    3  502    0 -0.24750669289E+03  0.19038760343E+03  0.63172071541E+03  0.70468409783E+03  0.12699999809E+01 0.  1.
       -4    1    3    3    0  502  0.24750669289E+03 -0.19038760343E+03 -0.15951055694E+01  0.31226776943E+03  0.12699999809E+01 0. -1.
</event>
<event>
 5   0  0.2129257E-02  0.8342710E+03  0.7818609E-02  0.9511694E-01
       -1   -1    0    0    0  501  0.00000000000E+00  0.00000000000E+00  0.49086241390E+03  0.49086241393E+03  0.50400001928E-02 0.  1.
        1   -1    0    0  501    0  0.00000000000E+00  0.00000000000E+00 -0.35448228817E+03  0.35448228820E+03  0.50400001928E-02 0. -1.
    10030    2    1    2    0    0  0.00000000000E+00  0.00000000000E+00  0.13638012574E+03  0.84534470213E+03  0.83427101515E+03 0.  0.
        3    1    3    3  502    0 -0.26576797653E+02  0.23251236502E+02 -0.35296505982E+03  0.35472706385E+03  0.10100000352E+00 0. -1.
       -3    1    3    3    0  502  0.26576797653E+02 -0.23251236502E+02  0.48934518555E+03  0.49061763828E+03  0.10100000352E+00 0.  1.
</event>
<event>
 5   0  0.1989298E-02  0.7976270E+03  0.7818609E-02  0.9563458E-01
        1   -1    0    0  501    0  0.00000000000E+00  0.00000000000E+00  0.49712465974E+03  0.49712465976E+03  0.50400001928E-02 0. -1.
       -1   -1    0    0    0  501  0.00000000000E+00  0.00000000000E+00 -0.31994432471E+03  0.31994432475E+03  0.50400001928E-02 0.  1.
    10030    2    1    2    0    0  0.00000000000E+00  0.00000000000E+00  0.17718033503E+03  0.81706898451E+03  0.79762701454E+03 0.  0.
        1    1    3    3  502    0 -0.33795769961E+03  0.11702726010E+03 -0.92180568803E+02  0.36933459576E+03  0.50400001928E-02 0.  1.
       -1    1    3    3    0  502  0.33795769961E+03 -0.11702726010E+03  0.26936090383E+03  0.44773438875E+03  0.50400001928E-02 0. -1.
</event>
<event>
 5   0  0.1358000E-02  0.7428621E+03  0.7818609E-02  0.9646616E-01
        3   -1    0    0  501    0  0.00000000000E+00  0.00000000000E+00  0.10002534335E+03  0.10002539434E+03  0.10100000352E+00 0. -1.
       -3   -1    0    0    0  501  0.00000000000E+00  0.00000000000E+00 -0.13792603016E+04  0.13792603053E+04  0.10100000352E+00 0.  1.
    10030    2    1    2    0    0  0.00000000000E+00  0.00000000000E+00 -0.12792349582E+04  0.14792856996E+04  0.74286210209E+03 0.  0.
        3    1    3    3  502    0 -0.24496890770E+03 -0.15410469264E+03 -0.17600460022E+03  0.33872651436E+03  0.10100000352E+00 0. -1.
       -3    1    3    3    0  502  0.24496890770E+03  0.15410469264E+03 -0.11032303580E+04  0.11405591853E+04  0.10100000352E+00 0.  1.
</event>
<event>
 5   0  0.2077795E-02  0.8020125E+03  0.7818609E-02  0.9557109E-01
       -1   -1    0    0    0  501  0.00000000000E+00  0.00000000000E+00  0.56687786257E+03  0.56687786259E+03  0.50400001928E-02 0.  1.
        1   -1    0    0  501    0  0.00000000000E+00  0.00000000000E+00 -0.28366957224E+03  0.28366957229E+03  0.50400001928E-02 0. -1.
    10030    2    1    2    0    0  0.00000000000E+00  0.00000000000E+00  0.28320829033E+03  0.85054743488E+03  0.80201247077E+03 0.  0.
        5    1    3    3  502    0 -0.39804631433E+03 -0.44508601706E+02  0.16178259527E+03  0.43199257182E+03  0.46999998093E+01 0.  1.
       -5    1    3    3    0  502  0.39804631433E+03  0.44508601706E+02  0.12142569505E+03  0.41855486306E+03  0.46999998093E+01 0. -1.
</event>
<event>
 5   0  0.2129257E-02  0.8217872E+03  0.7818609E-02  0.9529006E-01
       -1   -1    0    0    0  501  0.00000000000E+00  0.00000000000E+00  0.78766835785E+03  0.78766835787E+03  0.50400001928E-02 0. -1.
        1   -1    0    0  501    0  0.00000000000E+00  0.00000000000E+00 -0.21434600605E+03  0.21434600611E+03  0.50400001928E-02 0.  1.
    10030    2    1    2    0    0  0.00000000000E+00  0.00000000000E+00  0.57332235180E+03  0.10020143640E+04  0.82178723922E+03 0.  0.
        3    1    3    3  502    0 -0.20392121783E+03 -0.35282721529E+03  0.35074928363E+03  0.53767646136E+03  0.10100000352E+00 0.  1.
       -3    1    3    3    0  502  0.20392121783E+03  0.35282721529E+03  0.22257306817E+03  0.46433790261E+03  0.10100000352E+00 0. -1.
</event>
<event>
 5   0  0.3343036E-02  0.8109301E+03  0.7818609E-02  0.9544330E-01
       -2   -1    0    0    0  501  0.00000000000E+00  0.00000000000E+00  0.35335524121E+03  0.35335524122E+03  0.25500000920E-02 0.  1.
        2   -1    0    0  501    0  0.00000000000E+00  0.00000000000E+00 -0.46525961322E+03  0.46525961323E+03  0.25500000920E-02 0. -1.
    10030    2    1    2    0    0  0.00000000000E+00  0.00000000000E+00 -0.11190437202E+03  0.81861485445E+03  0.81093013968E+03 0.  0.
        4    1    3    3  502    0  0.36950700243E+03  0.54605253706E+02  0.10328660433E+03  0.38753953877E+03  0.12699999809E+01 0.  1.
       -4    1    3    3    0  502 -0.36950700243E+03 -0.54605253706E+02 -0.21519097635E+03  0.43107531567E+03  0.12699999809E+01 0. -1.
</event>
<event>
 5   0  0.3416160E-02  0.8104325E+03  0.7818609E-02  0.9545038E-01
        2   -1    0    0  501    0  0.00000000000E+00  0.00000000000E+00  0.18389522410E+04  0.18389522410E+04  0.25500000920E-02 0.  1.
       -2   -1    0    0    0  501  0.00000000000E+00  0.00000000000E+00 -0.89290098816E+02  0.89290098852E+02  0.25500000920E-02 0. -1.
    10030    2    1    2    0    0  0.00000000000E+00  0.00000000000E+00  0.17496621421E+04  0.19282423398E+04  0.81043254463E+03 0.  0.
        1    1    3    3  502    0 -0.24666132766E+03  0.14119856401E+03  0.18763062469E+03  0.34056437921E+03  0.50400001928E-02 0. -1.
       -1    1    3    3    0  502  0.24666132766E+03 -0.14119856401E+03  0.15620315174E+04  0.15876779606E+04  0.50400001928E-02 0.  1.
</event>
<event>
 5   0  0.2132540E-02  0.8209242E+03  0.7818609E-02  0.9530214E-01
       -1   -1    0    0    0  501  0.00000000000E+00  0.00000000000E+00  0.93414073084E+03  0.93414073085E+03  0.50400001928E-02 0. -1.
        1   -1    0    0  501    0  0.00000000000E+00  0.00000000000E+00 -0.18035735004E+03  0.18035735012E+03  0.50400001928E-02 0.  1.
    10030    2    1    2    0    0  0.00000000000E+00  0.00000000000E+00  0.75378338079E+03  0.11144980810E+04  0.82092422751E+03 0.  0.
        4    1    3    3  502    0 -0.85708926924E+02  0.40042401288E+03  0.41510131334E+03  0.58309186539E+03  0.12699999809E+01 0.  1.
       -4    1    3    3    0  502  0.85708926924E+02 -0.40042401288E+03  0.33868206745E+03  0.53140621558E+03  0.12699999809E+01 0. -1.
</event>
<event>
 5   0  0.3404132E-02  0.8091280E+03  0.7818609E-02  0.9546898E-01
        2   -1    0    0  501    0  0.00000000000E+00  0.00000000000E+00  0.11247168994E+04  0.11247168994E+04  0.25500000920E-02 0.  1.
       -2   -1    0    0    0  501  0.00000000000E+00  0.00000000000E+00 -0.14552286542E+03  0.14552286544E+03  0.25500000920E-02 0. -1.
    10030    2    1    2    0    0  0.00000000000E+00  0.00000000000E+00  0.97919403396E+03  0.12702397648E+04  0.80912798988E+03 0.  0.
        5    1    3    3  502    0 -0.18021841820E+03  0.28877745116E+03  0.83274882121E+03  0.89964647712E+03  0.46999998093E+01 0.  1.
       -5    1    3    3    0  502  0.18021841820E+03 -0.28877745116E+03  0.14644521275E+03  0.37059328771E+03  0.46999998093E+01 0. -1.
</event>
<event>
 5   0  0.2132540E-02  0.8097159E+03  0.7818609E-02  0.9546059E-01
       -1   -1    0    0    0  501  0.00000000000E+00  0.00000000000E+00  0.11023256640E+04  0.11023256640E+04  0.50400001928E-02 0.  1.
        1   -1    0    0  501    0  0.00000000000E+00  0.00000000000E+00 -0.14869466261E+03  0.14869466270E+03  0.50400001928E-02 0. -1.
    10030    2    1    2    0    0  0.00000000000E+00  0.00000000000E+00  0.95363100137E+03  0.12510203267E+04  0.80971585820E+03 0.  0.
        4    1    3    3  502    0 -0.18481053112E+03 -0.88890460270E+02  0.10161371383E+04  0.10366256523E+04  0.12699999809E+01 0.  1.
       -4    1    3    3    0  502  0.18481053112E+03  0.88890460270E+02 -0.62506136931E+02  0.21439467436E+03  0.12699999809E+01 0. -1.
</event>
<event>
 5   0  0.1989298E-02  0.8086667E+03  0.7818609E-02  0.9547556E-01
        1   -1    0    0  501    0  0.00000000000E+00  0.00000000000E+00  0.37434809269E+03  0.37434809272E+03  0.50400001928E-02 0.  1.
       -1   -1    0    0    0  501  0.00000000000E+00  0.00000000000E+00 -0.43672040168E+03  0.43672040171E+03  0.50400001928E-02 0. -1.
    10030    2    1    2    0    0  0.00000000000E+00  0.00000000000E+00 -0.62372308992E+02  0.81106849443E+03  0.80866667900E+03 0.  0.
        1    1    3    3  502    0 -0.37216733418E+03 -0.15796436215E+03 -0.26253716828E+02  0.40515493581E+03  0.50400001928E-02 0. -1.
       -1    1    3    3    0  502  0.37216733418E+03  0.15796436215E+03 -0.36118592164E+02  0.40591355862E+03  0.50400001928E-02 0.  1.
</event>
<event>
 5   0  0.1989298E-02  0.8295755E+03  0.7818609E-02  0.9518168E-01
       -1   -1    0    0    0  501  0.00000000000E+00  0.00000000000E+00  0.45665565091E+03  0.45665565093E+03  0.50400001928E-02 0.  1.
        1   -1    0    0  501    0  0.00000000000E+00  0.00000000000E+00 -0.37675842121E+03  0.37675842124E+03  0.50400001928E-02 0. -1.
    10030    2    1    2    0    0  0.00000000000E+00  0.00000000000E+00  0.79897229697E+02  0.83341407218E+03  0.82957546274E+03 0.  0.
        1    1    3    3  502    0  0.11319543407E+03 -0.37885685508E+03  0.16584062574E+03  0.42877597426E+03  0.50400001928E-02 0.  1.
       -1    1    3    3    0  502 -0.11319543407E+03  0.37885685508E+03 -0.85943396048E+02  0.40463809791E+03  0.50400001928E-02 0. -1.
</event>
<event>
 5   0  0.2129257E-02  0.7837950E+03  0.7818609E-02  0.9583774E-01
       -1   -1    0    0    0  501  0.00000000000E+00  0.00000000000E+00  0.14257163438E+03  0.14257163447E+03  0.50400001928E-02 0.  1.
        1   -1    0    0  501    0  0.00000000000E+00  0.00000000000E+00 -0.10772383620E+04  0.10772383620E+04  0.50400001928E-02 0. -1.
    10030    2    1    2    0    0  0.00000000000E+00  0.00000000000E+00 -0.93466672759E+03  0.12198099964E+04  0.78379495774E+03 0.  0.
        3    1    3    3  502    0 -0.14338251415E+03 -0.25143576152E+03 -0.87851471774E+03  0.92496843569E+03  0.10100000352E+00 0. -1.
       -3    1    3    3    0  502  0.14338251415E+03  0.25143576152E+03 -0.56152009842E+02  0.29484156075E+03  0.10100000352E+00 0.  1.
</event>
<event>
 5   0  0.3404132E-02  0.8147369E+03  0.7818609E-02  0.9538928E-01
        2   -1    0    0  501    0  0.00000000000E+00  0.00000000000E+00  0.12993559003E+03  0.12993559006E+03  0.25500000920E-02 0. -1.
       -2   -1    0    0    0  501  0.00000000000E+00  0.00000000000E+00 -0.12771640692E+04  0.12771640692E+04  0.25500000920E-02 0.  1.
    10030    2    1    2    0    0  0.00000000000E+00  0.00000000000E+00 -0.11472284792E+04  0.14070996593E+04  0.81473693159E+03 0.  0.
        5    1    3    3  502    0  0.32164385824E+03 -0.21120000039E+03 -0.80446452724E+03  0.89176537121E+03  0.46999998093E+01 0.  1.
       -5    1    3    3    0  502 -0.32164385824E+03  0.21120000039E+03 -0.34276395196E+03  0.51533428808E+03  0.46999998093E+01 0. -1.
</event>
<event>
 5   0  0.3416160E-02  0.7948413E+03  0.7818609E-02  0.9567514E-01
        2   -1    0    0  501    0  0.00000000000E+00  0.00000000000E+00  0.89421517902E+03  0.89421517902E+03  0.25500000920E-02 0. -1.
       -2   -1    0    0    0  501  0.00000000000E+00  0.00000000000E+00 -0.17662768458E+03  0.17662768460E+03  0.25500000920E-02 0.  1.
    10030    2    1    2    0    0  0.00000000000E+00  0.00000000000E+00  0.71758749444E+03  0.10708428636E+04  0.79484125862E+03 0.  0.
        1    1    3    3  502    0  0.22821790406E+03 -0.10710685842E+03 -0.55113878126E+02  0.25805586690E+03  0.50400001928E-02 0.  1.
       -1    1    3    3    0  502 -0.22821790406E+03  0.10710685842E+03  0.77270137256E+03  0.81278699672E+03  0.50400001928E-02 0. -1.
</event>
<event>
 5   0  0.2132540E-02  0.8146983E+03  0.7818609E-02  0.9538982E-01
        1   -1    0    0  501    0  0.00000000000E+00  0.00000000000E+00  0.95892493001E+03  0.95892493003E+03  0.50400001928E-02 0.  1.
       -1   -1    0    0    0  501  0.00000000000E+00  0.00000000000E+00 -0.17304101540E+03  0.17304101547E+03  0.50400001928E-02 0. -1.
    10030    2    1    2    0    0  0.00000000000E+00  0.00000000000E+00  0.78588391461E+03  0.11319659455E+04  0.81469833344E+03 0.  0.
        4    1    3    3  502    0  0.17282660967E+03 -0.36871758562E+03  0.37836712791E+03  0.55586418425E+03  0.12699999809E+01 0.  1.
       -4    1    3    3    0  502 -0.17282660967E+03  0.36871758562E+03  0.40751678671E+03  0.57610176124E+03  0.12699999809E+01 0. -1.
</event>
<event>
 5   0  0.2129257E-02  0.7951002E+03  0.7818609E-02  0.9567137E-01
       -1   -1    0    0    0  501  0.00000000000E+00  0.00000000000E+00  0.51665032495E+03  0.51665032498E+03  0.50400001928E-02 0.  1.
        1   -1    0    0  501    0  0.00000000000E+00  0.00000000000E+00 -0.30590533995E+03  0.30590533999E+03  0.50400001928E-02 0. -1.
    10030    2    1    2    0    0  0.00000000000E+00  0.00000000000E+00  0.21074498501E+03  0.82255566496E+03  0.79510022844E+03 0.  0.
        3    1    3    3  502    0 -0.17556819630E+02 -0.31068272143E+03 -0.15058574473E+03  0.34569939547E+03  0.10100000352E+00 0. -1.
       -3    1    3    3    0  502  0.17556819630E+02  0.31068272143E+03  0.36133072974E+03  0.47685626950E+03  0.10100000352E+00 0.  1.
</event>
<event>
 5   0  0.3404132E-02  0.8022863E+03  0.7818609E-02  0.9556714E-01
        2   -1    0    0  501    0  0.00000000000E+00  0.00000000000E+00  0.14855314328E+04  0.14855314328E+04  0.25500000920E-02 0.  1.
       -2   -1    0    0    0  501  0.00000000000E+00  0.00000000000E+00 -0.10832206073E+03  0.10832206076E+03  0.25500000920E-02 0. -1.
    10030    2    1    2    0    0  0.00000000000E+00  0.00000000000E+00  0.13772093720E+04  0.15938534935E+04  0.80228629827E+03 0.  0.
        5    1    3    3  502    0  0.15226632860E+03 -0.37099210506E+03  0.67156593758E+03  0.78220398577E+03  0.46999998093E+01 0. -1.
       -5    1    3    3    0  502 -0.15226632860E+03  0.37099210506E+03  0.70564343445E+03  0.81164950775E+03  0.46999998093E+01 0.  1.
</event>
<event>
 5   0  0.2129257E-02  0.7986870E+03  0.7818609E-02  0.9561920E-01
       -1   -1    0    0    0  501  0.00000000000E+00  0.00000000000E+00  0.14747650403E+03  0.14747650412E+03  0.50400001928E-02 0. -1.
        1   -1    0    0  501    0  0.00000000000E+00  0.00000000000E+00 -0.10813603602E+04  0.10813603602E+04  0.50400001928E-02 0.  1.
    10030    2    1    2    0    0  0.00000000000E+00  0.00000000000E+00 -0.93388385613E+03  0.12288368643E+04  0.79868703653E+03 0.  0.
        3    1    3    3  502    0 -0.20258505246E+03  0.33660858888E+03 -0.57713187665E+03  0.69815990921E+03  0.10100000352E+00 0. -1.
       -3    1    3    3    0  502  0.20258505246E+03 -0.33660858888E+03 -0.35675197948E+03  0.53067695508E+03  0.10100000352E+00 0.  1.
</event>
<event>
 5   0  0.1989298E-02  0.7055246E+03  0.7818609E-02  0.9707831E-01
        1   -1    0    0  501    0  0.00000000000E+00  0.00000000000E+00  0.29804758741E+03  0.29804758746E+03  0.50400001928E-02 0. -1.
       -1   -1    0    0    0  501  0.00000000000E+00  0.00000000000E+00 -0.41752142217E+03  0.41752142220E+03  0.50400001928E-02 0.  1.
    10030    2    1    2    0    0  0.00000000000E+00  0.00000000000E+00 -0.11947383475E+03  0.71556900965E+03  0.70552463485E+03 0.  0.
        1    1    3    3  502    0 -0.16767975148E+03  0.23676022971E+03 -0.26326607509E+03  0.39176642499E+03  0.50400001928E-02 0.  1.
       -1    1    3    3    0  502  0.16767975148E+03 -0.23676022971E+03  0.14379224033E+03  0.32380258467E+03  0.50400001928E-02 0. -1.
</event>
<event>
 5   0  0.3343036E-02  0.8482480E+03  0.7818609E-02  0.9492691E-01
        2   -1    0    0  501    0  0.00000000000E+00  0.00000000000E+00  0.14796648546E+04  0.14796648546E+04  0.25500000920E-02 0.  1.
       -2   -1    0    0    0  501  0.00000000000E+00  0.00000000000E+00 -0.12156885708E+03  0.12156885710E+03  0.25500000920E-02 0. -1.
    10030    2    1    2    0    0  0.00000000000E+00  0.00000000000E+00  0.13580959976E+04  0.16012337117E+04  0.84824799501E+03 0.  0.
        4    1    3    3  502    0 -0.28285874171E+03  0.14665156657E+03  0.15061535981E+03  0.35242353674E+03  0.12699999809E+01 0. -1.
       -4    1    3    3    0  502  0.28285874171E+03 -0.14665156657E+03  0.12074806377E+04  0.12488101750E+04  0.12699999809E+01 0.  1.
</event>
<event>
 5   0  0.3467240E-02  0.7283024E+03  0.7818609E-02  0.9670019E-01
       -2   -1    0    0    0  501  0.00000000000E+00  0.00000000000E+00  0.86820930505E+02  0.86820930543E+02  0.25500000920E-02 0.  1.
        2   -1    0    0  501    0  0.00000000000E+00  0.00000000000E+00 -0.15273516911E+04  0.15273516911E+04  0.25500000920E-02 0. -1.
    10030    2    1    2    0    0  0.00000000000E+00  0.00000000000E+00 -0.14405307606E+04  0.16141726217E+04  0.72830239616E+03 0.  0.
        2    1    3    3  502    0  0.19751773662E+03 -0.28255652510E+03 -0.98019932201E+03  0.10390583030E+04  0.25500000920E-02 0. -1.
       -2    1    3    3    0  502 -0.19751773662E+03  0.28255652510E+03 -0.46033143860E+03  0.57511431866E+03  0.25500000920E-02 0.  1.
</event>
<event>
 5   0  0.2063692E-02  0.8126882E+03  0.7818609E-02  0.9541831E-01
        1   -1    0    0  501    0  0.00000000000E+00  0.00000000000E+00  0.35191157462E+03  0.35191157466E+03  0.50400001928E-02 0.  1.
       -1   -1    0    0    0  501  0.00000000000E+00  0.00000000000E+00 -0.46919610220E+03  0.46919610223E+03  0.50400001928E-02 0. -1.
    10030    2    1    2    0    0  0.00000000000E+00  0.00000000000E+00 -0.11728452758E+03  0.82110767689E+03  0.81268822843E+03 0.  0.
        2    1    3    3  502    0 -0.90824603905E+02  0.16029361634E+03  0.30728717894E+03  0.35828558785E+03  0.25500000920E-02 0.  1.
       -2    1    3    3    0  502  0.90824603905E+02 -0.16029361634E+03 -0.42457170652E+03  0.46282208903E+03  0.25500000920E-02 0. -1.
</event>
<event>
 5   0  0.3467240E-02  0.8100862E+03  0.7818609E-02  0.9545531E-01
       -2   -1    0    0    0  501  0.00000000000E+00  0.00000000000E+00  0.29592230856E+03  0.29592230858E+03  0.25500000920E-02 0. -1.
        2   -1    0    0  501    0  0.00000000000E+00  0.00000000000E+00 -0.55440198280E+03  0.55440198280E+03  0.25500000920E-02 0.  1.
    10030    2    1    2    0    0  0.00000000000E+00  0.00000000000E+00 -0.25847967423E+03  0.85032429138E+03  0.81008620438E+03 0.  0.
        2    1    3    3  502    0 -0.10381921994E+03 -0.13329900168E+03  0.25716593537E+03  0.30770338412E+03  0.25500000920E-02 0. -1.
       -2    1    3    3    0  502  0.10381921994E+03  0.13329900168E+03 -0.51564560961E+03  0.54262090726E+03  0.25500000920E-02 0.  1.
</event>
<event>
 5   0  0.2063692E-02  0.8126361E+03  0.7818609E-02  0.9541905E-01
       -1   -1    0    0    0  501  0.00000000000E+00  0.00000000000E+00  0.32494619106E+03  0.32494619110E+03  0.50400001928E-02 0.  1.
        1   -1    0    0  501    0  0.00000000000E+00  0.00000000000E+00 -0.50806673570E+03  0.50806673572E+03  0.50400001928E-02 0. -1.
    10030    2    1    2    0    0  0.00000000000E+00  0.00000000000E+00 -0.18312054464E+03  0.83301292682E+03  0.81263608237E+03 0.  0.
        2    1    3    3  502    0  0.33431861208E+03 -0.11229373661E+03  0.11528028576E+03  0.37103687413E+03  0.25500000920E-02 0.  1.
       -2    1    3    3    0  502 -0.33431861208E+03  0.11229373661E+03 -0.29840083041E+03  0.46197605269E+03  0.25500000920E-02 0. -1.
</event>
<event>
 5   0  0.1358000E-02  0.8093549E+03  0.7818609E-02  0.9546574E-01
        3   -1    0    0  501    0  0.00000000000E+00  0.00000000000E+00  0.12274444600E+04  0.12274444641E+04  0.10100000352E+00 0. -1.
       -3   -1    0    0    0  501  0.00000000000E+00  0.00000000000E+00 -0.13341851387E+03  0.13341855210E+03  0.10100000352E+00 0.  1.
    10030    2    1    2    0    0  0.00000000000E+00  0.00000000000E+00  0.10940259461E+04  0.13608630162E+04  0.80935491485E+03 0.  0.
        2    1    3    3  502    0  0.31206082368E+03  0.97169089720E+02  0.94823460853E+03  0.10029818854E+04  0.25500000920E-02 0. -1.
       -2    1    3    3    0  502 -0.31206082368E+03 -0.97169089720E+02  0.14579133759E+03  0.35788113082E+03  0.25500000920E-02 0.  1.
</event>
<event>
 5   0  0.1989298E-02  0.7993397E+03  0.7818609E-02  0.9560973E-01
        1   -1    0    0  501    0  0.00000000000E+00  0.00000000000E+00  0.63172781238E+03  0.63172781240E+03  0.50400001928E-02 0. -1.
       -1   -1    0    0    0  501  0.00000000000E+00  0.00000000000E+00 -0.25285572216E+03  0.25285572221E+03  0.50400001928E-02 0.  1.
    10030    2    1    2    0    0  0.00000000000E+00  0.00000000000E+00  0.37887209023E+03  0.88458353461E+03  0.79933970810E+03 0.  0.
        1    1    3    3  502    0  0.12820915845E+03  0.36514615127E+03  0.29991587197E+03  0.48961089692E+03  0.50400001928E-02 0. -1.
       -1    1    3    3    0  502 -0.12820915845E+03 -0.36514615127E+03  0.78956218256E+02  0.39497263769E+03  0.50400001928E-02 0.  1.
</event>
<event>
 5   0  0.3467240E-02  0.8218263E+03  0.7818609E-02  0.9528951E-01
       -2   -1    0    0    0  501  0.00000000000E+00  0.00000000000E+00  0.28287274424E+03  0.28287274425E+03  0.25500000920E-02 0.  1.
        2   -1    0    0  501    0  0.00000000000E+00  0.00000000000E+00 -0.59691021623E+03  0.59691021623E+03  0.25500000920E-02 0. -1.
    10030    2    1    2    0    0  0.00000000000E+00  0.00000000000E+00 -0.31403747198E+03  0.87978296048E+03  0.82182633430E+03 0.  0.
        2    1    3    3  502    0  0.17258974015E+03  0.50440668656E+02 -0.55255899390E+03  0.58107910064E+03  0.25500000920E-02 0. -1.
       -2    1    3    3    0  502 -0.17258974015E+03 -0.50440668656E+02  0.23852152192E+03  0.29870385984E+03  0.25500000920E-02 0.  1.
</event>
<event>
 5   0  0.3343036E-02  0.7742989E+03  0.7818609E-02  0.9597982E-01
       -2   -1    0    0    0  501  0.00000000000E+00  0.00000000000E+00  0.12469811576E+03  0.12469811579E+03  0.25500000920E-02 0. -1.
        2   -1    0    0  501    0  0.00000000000E+00  0.00000000000E+00 -0.12019803689E+04  0.12019803689E+04  0.25500000920E-02 0.  1.
    10030    2    1    2    0    0  0.00000000000E+00  0.00000000000E+00 -0.10772822531E+04  0.13266784847E+04  0.77429887564E+03 0.  0.
        4    1    3    3  502    0  0.26662596843E+03 -0.21710311304E+03 -0.84350914294E+03  0.91089651215E+03  0.12699999809E+01 0.  1.
       -4    1    3    3    0  502 -0.26662596843E+03  0.21710311304E+03 -0.23377311020E+03  0.41578197253E+03  0.12699999809E+01 0. -1.
</event>
<event>
 5   0  0.3416160E-02  0.7826107E+03  0.7818609E-02  0.9585534E-01
       -2   -1    0    0    0  501  0.00000000000E+00  0.00000000000E+00  0.19428721874E+03  0.19428721876E+03  0.25500000920E-02 0. -1.
        2   -1    0    0  501    0  0.00000000000E+00  0.00000000000E+00 -0.78811084161E+03  0.78811084161E+03  0.25500000920E-02 0.  1.
    10030    2    1    2    0    0  0.00000000000E+00  0.00000000000E+00 -0.59382362286E+03  0.98239806037E+03  0.78261066562E+03 0.  0.
        1    1    3    3  502    0 -0.33066349860E+03 -0.90859224226E+02 -0.60311345280E+02  0.34818271974E+03  0.50400001928E-02 0. -1.
       -1    1    3    3    0  502  0.33066349860E+03  0.90859224226E+02 -0.53351227758E+03  0.63421534063E+03  0.50400001928E-02 0.  1.
</event>
<event>
 5   0  0.3416160E-02  0.8037974E+03  0.7818609E-02  0.9554537E-01
        2   -1    0    0  501    0  0.00000000000E+00  0.00000000000E+00  0.14581682728E+04  0.14581682728E+04  0.25500000920E-02 0. -1.
       -2   -1    0    0    0  501  0.00000000000E+00  0.00000000000E+00 -0.11077086932E+03  0.11077086935E+03  0.25500000920E-02 0.  1.
    10030    2    1    2    0    0  0.00000000000E+00  0.00000000000E+00  0.13473974035E+04  0.15689391421E+04  0.80379740537E+03 0.  0.
        1    1    3    3  502    0  0.37632017882E+03 -0.36925548235E+02  0.93948957217E+03  0.10127294947E+04  0.50400001928E-02 0. -1.
       -1    1    3    3    0  502 -0.37632017882E+03  0.36925548235E+02  0.40790783128E+03  0.55620964748E+03  0.50400001928E-02 0.  1.
</event>
<event>
 5   0  0.2063692E-02  0.7986341E+03  0.7818609E-02  0.9561996E-01
        1   -1    0    0  501    0  0.00000000000E+00  0.00000000000E+00  0.23840342935E+03  0.23840342940E+03  0.50400001928E-02 0. -1.
       -1   -1    0    0    0  501  0.00000000000E+00  0.00000000000E+00 -0.66884154604E+03  0.66884154606E+03  0.50400001928E-02 0.  1.
    10030    2    1    2    0    0  0.00000000000E+00  0.00000000000E+00 -0.43043811669E+03  0.90724497547E+03  0.79863412975E+03 0.  0.
        2    1    3    3  502    0  0.34251334134E+03 -0.10954603359E+03 -0.41243261796E+03  0.54718953465E+03  0.25500000920E-02 0.  1.
       -2    1    3    3    0  502 -0.34251334134E+03  0.10954603359E+03 -0.18005498735E+02  0.36005544081E+03  0.25500000920E-02 0. -1.
</event>
<event>
 5   0  0.1358000E-02  0.7478107E+03  0.7818609E-02  0.9638791E-01
       -4   -1    0    0    0  501  0.00000000000E+00  0.00000000000E+00  0.47055204673E+03  0.47055376057E+03  0.12699999809E+01 0.  1.
        4   -1    0    0  501    0  0.00000000000E+00  0.00000000000E+00 -0.29710529064E+03  0.29710800498E+03  0.12699999809E+01 0. -1.
    10030    2    1    2    0    0  0.00000000000E+00  0.00000000000E+00  0.17344675610E+03  0.76766176555E+03  0.74781067730E+03 0.  0.
        2    1    3    3  502    0 -0.18792637375E+03  0.22250993317E+03  0.32742196820E+03  0.43821471630E+03  0.25500000920E-02 0. -1.
       -2    1    3    3    0  502  0.18792637375E+03 -0.22250993317E+03 -0.15397521211E+03  0.32944704925E+03  0.25500000920E-02 0.  1.
</event>
<event>
 5   0  0.3416160E-02  0.8051195E+03  0.7818609E-02  0.9552636E-01
        2   -1    0    0  501    0  0.00000000000E+00  0.00000000000E+00  0.11291266034E+04  0.11291266034E+04  0.25500000920E-02 0.  1.
       -2   -1    0    0    0  501  0.00000000000E+00  0.00000000000E+00 -0.14352185490E+03  0.14352185492E+03  0.25500000920E-02 0. -1.
    10030    2    1    2    0    0  0.00000000000E+00  0.00000000000E+00  0.98560474851E+03  0.12726484583E+04  0.80511948070E+03 0.  0.
        1    1    3    3  502    0 -0.30687636591E+03  0.15374109953E+03  0.16031144420E+03  0.37882606669E+03  0.50400001928E-02 0. -1.
       -1    1    3    3    0  502  0.30687636591E+03 -0.15374109953E+03  0.82529330430E+03  0.89382239163E+03  0.50400001928E-02 0.  1.
</event>
<event>
 5   0  0.3404132E-02  0.8179900E+03  0.7818609E-02  0.9534336E-01
        2   -1    0    0  501    0  0.00000000000E+00  0.00000000000E+00  0.10425527155E+04  0.10425527155E+04  0.25500000920E-02 0.  1.
       -2   -1    0    0    0  501  0.00000000000E+00  0.00000000000E+00 -0.16044936756E+03  0.16044936758E+03  0.25500000920E-02 0. -1.
    10030    2    1    2    0    0  0.00000000000E+00  0.00000000000E+00  0.88210334797E+03  0.12030020831E+04  0.81799003386E+03 0.  0.
        5    1    3    3  502    0 -0.43171527033E+02 -0.36485343129E+03  0.17684838706E+03  0.40777352669E+03  0.46999998093E+01 0. -1.
       -5    1    3    3    0  502  0.43171527033E+02  0.36485343129E+03  0.70525496091E+03  0.79522855643E+03  0.46999998093E+01 0.  1.
</event>
<event>
 5   0  0.3343036E-02  0.8034386E+03  0.7818609E-02  0.9555053E-01
        2   -1    0    0  501    0  0.00000000000E+00  0.00000000000E+00  0.22525600169E+04  0.22525600169E+04  0.25500000920E-02 0. -1.
       -2   -1    0    0    0  501  0.00000000000E+00  0.00000000000E+00 -0.71642217368E+02  0.71642217414E+02  0.25500000920E-02 0.  1.
    10030    2    1    2    0    0  0.00000000000E+00  0.00000000000E+00  0.21809177996E+04  0.23242022344E+04  0.80343859609E+03 0.  0.
        4    1    3    3  502    0 -0.34631361392E+03  0.16999241575E+03  0.14144835385E+04  0.14661500040E+04  0.12699999809E+01 0.  1.
       -4    1    3    3    0  502  0.34631361392E+03 -0.16999241575E+03  0.76643426106E+03  0.85805223036E+03  0.12699999809E+01 0. -1.
</event>
<event>
 5   0  0.1989298E-02  0.7970852E+03  0.7818609E-02  0.9564246E-01
       -1   -1    0    0    0  501  0.00000000000E+00  0.00000000000E+00  0.12784329435E+04  0.12784329435E+04  0.50400001928E-02 0.  1.
        1   -1    0    0  501    0  0.00000000000E+00  0.00000000000E+00 -0.12424289494E+03  0.12424289504E+03  0.50400001928E-02 0. -1.
    10030    2    1    2    0    0  0.00000000000E+00  0.00000000000E+00  0.11541900485E+04  0.14026758385E+04  0.79708521492E+03 0.  0.
        1    1    3    3  502    0 -0.82698409098E+01 -0.11698976595E+03 -0.93187896892E+02  0.14979646110E+03  0.50400001928E-02 0. -1.
       -1    1    3    3    0  502  0.82698409098E+01  0.11698976595E+03  0.12473779454E+04  0.12528793774E+04  0.50400001928E-02 0.  1.
</event>
<event>
 5   0  0.3550586E-02  0.7842979E+03  0.7818609E-02  0.9583027E-01
       -2   -1    0    0    0  501  0.00000000000E+00  0.00000000000E+00  0.75150837129E+03  0.75150837129E+03  0.25500000920E-02 0.  1.
        2   -1    0    0  501    0  0.00000000000E+00  0.00000000000E+00 -0.20462954569E+03  0.20462954571E+03  0.25500000920E-02 0. -1.
    10030    2    1    2    0    0  0.00000000000E+00  0.00000000000E+00  0.54687882560E+03  0.95613791700E+03  0.78429794494E+03 0.  0.
        3    1    3    3  502    0 -0.77640315350E+02 -0.10481000294E+03  0.72428846209E+03  0.73593949602E+03  0.10100000352E+00 0.  1.
       -3    1    3    3    0  502  0.77640315350E+02  0.10481000294E+03 -0.17740963649E+03  0.22019842099E+03  0.10100000352E+00 0. -1.
</event>
<event>
 5   0  0.3416160E-02  0.7397110E+03  0.7818609E-02  0.9651632E-01
        2   -1    0    0  501    0  0.00000000000E+00  0.00000000000E+00  0.73128406527E+03  0.73128406527E+03  0.25500000920E-02 0.  1.
       -2   -1    0    0    0  501  0.00000000000E+00  0.00000000000E+00 -0.18705875930E+03  0.18705875931E+03  0.25500000920E-02 0. -1.
    10030    2    1    2    0    0  0.00000000000E+00  0.00000000000E+00  0.54422530597E+03  0.91834282458E+03  0.73971099749E+03 0.  0.
        1    1    3    3  502    0  0.19548622678E+02 -0.99742340200E+02  0.71360530830E+03  0.72080733843E+03  0.50400001928E-02 0.  1.
       -1    1    3    3    0  502 -0.19548622678E+02  0.99742340200E+02 -0.16938000233E+03  0.19753548616E+03  0.50400001928E-02 0. -1.
</event>
<event>
 5   0  0.2132540E-02  0.8123212E+03  0.7818609E-02  0.9542352E-01
       -1   -1    0    0    0  501  0.00000000000E+00  0.00000000000E+00  0.22964320345E+03  0.22964320351E+03  0.50400001928E-02 0.  1.
        1   -1    0    0  501    0  0.00000000000E+00  0.00000000000E+00 -0.71835974495E+03  0.71835974497E+03  0.50400001928E-02 0. -1.
    10030    2    1    2    0    0  0.00000000000E+00  0.00000000000E+00 -0.48871654149E+03  0.94800294848E+03  0.81232120026E+03 0.  0.
        4    1    3    3  502    0 -0.40347365059E+03  0.25790985368E+00 -0.29876948171E+03  0.50205166004E+03  0.12699999809E+01 0.  1.
       -4    1    3    3    0  502  0.40347365059E+03 -0.25790985368E+00 -0.18994705978E+03  0.44595128844E+03  0.12699999809E+01 0. -1.
</event>
<event>
 5   0  0.3550586E-02  0.8034809E+03  0.7818609E-02  0.9554992E-01
       -2   -1    0    0    0  501  0.00000000000E+00  0.00000000000E+00  0.48808383986E+03  0.48808383987E+03  0.25500000920E-02 0.  1.
        2   -1    0    0  501    0  0.00000000000E+00  0.00000000000E+00 -0.33067145622E+03  0.33067145623E+03  0.25500000920E-02 0. -1.
    10030    2    1    2    0    0  0.00000000000E+00  0.00000000000E+00  0.15741238364E+03  0.81875529610E+03  0.80348091226E+03 0.  0.
        3    1    3    3  502    0 -0.83153613341E+02 -0.38941811555E+03  0.13295728532E+03  0.41980786326E+03  0.10100000352E+00 0.  1.
       -3    1    3    3    0  502  0.83153613341E+02  0.38941811555E+03  0.24455098328E+02  0.39894743284E+03  0.10100000352E+00 0. -1.
</event>
<event>
 5   0  0.3416160E-02  0.7837330E+03  0.7818609E-02  0.9583866E-01
        2   -1    0    0  501    0  0.00000000000E+00  0.00000000000E+00  0.65708136801E+03  0.65708136801E+03  0.25500000920E-02 0.  1.
       -2   -1    0    0    0  501  0.00000000000E+00  0.00000000000E+00 -0.23369916405E+03  0.23369916406E+03  0.25500000920E-02 0. -1.
    10030    2    1    2    0    0  0.00000000000E+00  0.00000000000E+00  0.42338220396E+03  0.89078053207E+03  0.78373303216E+03 0.  0.
        1    1    3    3  502    0 -0.52353524470E+02  0.36753779333E+03  0.35426114634E+03  0.51315288256E+03  0.50400001928E-02 0.  1.
       -1    1    3    3    0  502  0.52353524470E+02 -0.36753779333E+03  0.69121057622E+02  0.37762764952E+03  0.50400001928E-02 0. -1.
</event>
<event>
 5   0  0.2063692E-02  0.8131299E+03  0.7818609E-02  0.9541204E-01
       -1   -1    0    0    0  501  0.00000000000E+00  0.00000000000E+00  0.43104551203E+03  0.43104551206E+03  0.50400001928E-02 0. -1.
        1   -1    0    0  501    0  0.00000000000E+00  0.00000000000E+00 -0.38347470523E+03  0.38347470527E+03  0.50400001928E-02 0.  1.
    10030    2    1    2    0    0  0.00000000000E+00  0.00000000000E+00  0.47570806800E+02  0.81452021733E+03  0.81312988063E+03 0.  0.
        2    1    3    3  502    0  0.38238783178E+03 -0.63134114106E+02 -0.99260618688E+02  0.40007379405E+03  0.25500000920E-02 0. -1.
       -2    1    3    3    0  502 -0.38238783178E+03  0.63134114106E+02  0.14683142549E+03  0.41444642328E+03  0.25500000920E-02 0.  1.
</event>
<event>
 5   0  0.3404132E-02  0.5678237E+03  0.7818609E-02  0.9974506E-01
        2   -1    0    0  501    0  0.00000000000E+00  0.00000000000E+00  0.39810327713E+03  0.39810327714E+03  0.25500000920E-02 0. -1.
       -2   -1    0    0    0  501  0.00000000000E+00  0.00000000000E+00 -0.20247497365E+03  0.20247497367E+03  0.25500000920E-02 0.  1.
    10030    2    1    2    0    0  0.00000000000E+00  0.00000000000E+00  0.19562830348E+03  0.60057825081E+03  0.56782374221E+03 0.  0.
        5    1    3    3  502    0 -0.14157172069E+03  0.19541960096E+02  0.35723679159E+03  0.38479170413E+03  0.46999998093E+01 0. -1.
       -5    1    3    3    0  502  0.14157172069E+03 -0.19541960096E+02 -0.16160848811E+03  0.21578654668E+03  0.46999998093E+01 0.  1.
</event>
<event>
 5   0  0.1989298E-02  0.8284655E+03  0.7818609E-02  0.9519704E-01
       -1   -1    0    0    0  501  0.00000000000E+00  0.00000000000E+00  0.32984841499E+03  0.32984841503E+03  0.50400001928E-02 0. -1.
        1   -1    0    0  501    0  0.00000000000E+00  0.00000000000E+00 -0.52020496837E+03  0.52020496840E+03  0.50400001928E-02 0.  1.
    10030    2    1    2    0    0  0.00000000000E+00  0.00000000000E+00 -0.19035655338E+03  0.85005338343E+03  0.82846553173E+03 0.  0.
        1    1    3    3  502    0 -0.58279727970E+02  0.18866166918E+03  0.27845188950E+03  0.34135788683E+03  0.50400001928E-02 0. -1.
       -1    1    3    3    0  502  0.58279727970E+02 -0.18866166918E+03 -0.46880844288E+03  0.50869549659E+03  0.50400001928E-02 0.  1.
</event>
<event>
 5   0  0.3416160E-02  0.7997984E+03  0.7818609E-02  0.9560309E-01
        2   -1    0    0  501    0  0.00000000000E+00  0.00000000000E+00  0.95048386721E+03  0.95048386721E+03  0.25500000920E-02 0.  1.
       -2   -1    0    0    0  501  0.00000000000E+00  0.00000000000E+00 -0.16825049591E+03  0.16825049593E+03  0.25500000920E-02 0. -1.
    10030    2    1    2    0    0  0.00000000000E+00  0.00000000000E+00  0.78223337130E+03  0.11187343631E+04  0.79979842968E+03 0.  0.
        1    1    3    3  502    0 -0.73170149567E+02 -0.17702252324E+03  0.88213996006E+03  0.90269693346E+03  0.50400001928E-02 0.  1.
       -1    1    3    3    0  502  0.73170149567E+02  0.17702252324E+03 -0.99906588763E+02  0.21603742969E+03  0.50400001928E-02 0. -1.
</event>
<event>
 5   0  0.3467240E-02  0.7844385E+03  0.7818609E-02  0.9582819E-01
        2   -1    0    0  501    0  0.00000000000E+00  0.00000000000E+00  0.66297198954E+03  0.66297198954E+03  0.25500000920E-02 0. -1.
       -2   -1    0    0    0  501  0.00000000000E+00  0.00000000000E+00 -0.23203985989E+03  0.23203985990E+03  0.25500000920E-02 0.  1.
    10030    2    1    2    0    0  0.00000000000E+00  0.00000000000E+00  0.43093212965E+03  0.89501184944E+03  0.78443846813E+03 0.  0.
        2    1    3    3  502    0 -0.18997273272E+03 -0.31823714603E+03  0.36189781565E+03  0.51801018259E+03  0.25500000920E-02 0. -1.
       -2    1    3    3    0  502  0.18997273272E+03  0.31823714603E+03  0.69034313999E+02  0.37700166685E+03  0.25500000920E-02 0.  1.
</event>
<event>
 5   0  0.2077795E-02  0.7971681E+03  0.7818609E-02  0.9564125E-01
       -1   -1    0    0    0  501  0.00000000000E+00  0.00000000000E+00  0.56445001178E+03  0.56445001180E+03  0.50400001928E-02 0.  1.
        1   -1    0    0  501    0  0.00000000000E+00  0.00000000000E+00 -0.28145850224E+03  0.28145850229E+03  0.50400001928E-02 0. -1.
    10030    2    1    2    0    0  0.00000000000E+00  0.00000000000E+00  0.28299150954E+03  0.84590851409E+03  0.79716812514E+03 0.  0.
        5    1    3    3  502    0 -0.13878385644E+03  0.12465760033E+03 -0.23224121423E+03  0.29792372802E+03  0.46999998093E+01 0. -1.
       -5    1    3    3    0  502  0.13878385644E+03 -0.12465760033E+03  0.51523272377E+03  0.54798478608E+03  0.46999998093E+01 0.  1.
</event>
<event>
 5   0  0.2129257E-02  0.7778620E+03  0.7818609E-02  0.9592625E-01
        1   -1    0    0  501    0  0.00000000000E+00  0.00000000000E+00  0.44541528478E+03  0.44541528481E+03  0.50400001928E-02 0. -1.
       -1   -1    0    0    0  501  0.00000000000E+00  0.00000000000E+00 -0.33960967410E+03  0.33960967414E+03  0.50400001928E-02 0.  1.
    10030    2    1    2    0    0  0.00000000000E+00  0.00000000000E+00  0.10580561068E+03  0.78502495894E+03  0.77786204363E+03 0.  0.
        3    1    3    3  502    0  0.16050713572E+03  0.17067466568E+03 -0.26039904629E+03  0.35028567717E+03  0.10100000352E+00 0.  1.
       -3    1    3    3    0  502 -0.16050713572E+03 -0.17067466568E+03  0.36620465698E+03  0.43473928177E+03  0.10100000352E+00 0. -1.
</event>
<event>
 5   0  0.3550586E-02  0.7675968E+03  0.7818609E-02  0.9608141E-01
        2   -1    0    0  501    0  0.00000000000E+00  0.00000000000E+00  0.86994356297E+03  0.86994356298E+03  0.25500000920E-02 0.  1.
       -2   -1    0    0    0  501  0.00000000000E+00  0.00000000000E+00 -0.16932272668E+03  0.16932272670E+03  0.25500000920E-02 0. -1.
    10030    2    1    2    0    0  0.00000000000E+00  0.00000000000E+00  0.70062083629E+03  0.10392662897E+04  0.76759681123E+03 0.  0.
        3    1    3    3  502    0 -0.18187086897E+03 -0.11358100930E+02  0.80763794207E+03  0.82794026060E+03  0.10100000352E+00 0.  1.
       -3    1    3    3    0  502  0.18187086897E+03  0.11358100930E+02 -0.10701710578E+03  0.21132602908E+03  0.10100000352E+00 0. -1.
</event>
<event>
 5   0  0.3404132E-02  0.8191652E+03  0.7818609E-02  0.9532683E-01
        2   -1    0    0  501    0  0.00000000000E+00  0.00000000000E+00  0.24885386056E+03  0.24885386057E+03  0.25500000920E-02 0. -1.
       -2   -1    0    0    0  501  0.00000000000E+00  0.00000000000E+00 -0.67412211681E+03  0.67412211681E+03  0.25500000920E-02 0.  1.
    10030    2    1    2    0    0  0.00000000000E+00  0.00000000000E+00 -0.42526825625E+03  0.92297597739E+03  0.81916516348E+03 0.  0.
        5    1    3    3  502    0 -0.12336973698E+03  0.12321211125E+03 -0.63018435527E+03  0.65387745640E+03  0.46999998093E+01 0.  1.
       -5    1    3    3    0  502  0.12336973698E+03 -0.12321211125E+03  0.20491609902E+03  0.26909852099E+03  0.46999998093E+01 0. -1.
</event>
<event>
 5   0  0.2077795E-02  0.8057602E+03  0.7818609E-02  0.9551717E-01
        1   -1    0    0  501    0  0.00000000000E+00  0.00000000000E+00  0.19008165540E+04  0.19008165540E+04  0.50400001928E-02 0.  1.
       -1   -1    0    0    0  501  0.00000000000E+00  0.00000000000E+00 -0.85390874958E+02  0.85390875107E+02  0.50400001928E-02 0. -1.
    10030    2    1    2    0    0  0.00000000000E+00  0.00000000000E+00  0.18154256791E+04  0.19862074291E+04  0.80576023440E+03 0.  0.
        5    1    3    3  502    0 -0.12256151725E+03  0.17893854259E+03  0.17445465843E+04  0.17579832770E+04  0.46999998093E+01 0.  1.
       -5    1    3    3    0  502  0.12256151725E+03 -0.17893854259E+03  0.70879094779E+02  0.22822415212E+03  0.46999998093E+01 0. -1.
</event>
<event>
 5   0  0.3416160E-02  0.7803483E+03  0.7818609E-02  0.9588906E-01
        2   -1    0    0  501    0  0.00000000000E+00  0.00000000000E+00  0.22383144500E+03  0.22383144501E+03  0.25500000920E-02 0.  1.
       -2   -1    0    0    0  501  0.00000000000E+00  0.00000000000E+00 -0.68013625317E+03  0.68013625318E+03  0.25500000920E-02 0. -1.
    10030    2    1    2    0    0  0.00000000000E+00  0.00000000000E+00 -0.45630480818E+03  0.90396769819E+03  0.78034833338E+03 0.  0.
        1    1    3    3  502    0 -0.86416036654E+02 -0.30022797167E+03 -0.49891285446E+03  0.58865830728E+03  0.50400001928E-02 0. -1.
       -1    1    3    3    0  502  0.86416036654E+02  0.30022797167E+03  0.42608046277E+02  0.31530939091E+03  0.50400001928E-02 0.  1.
</event>
<event>
 5   0  0.2132540E-02  0.7857418E+03  0.7818609E-02  0.9580888E-01
       -1   -1    0    0    0  501  0.00000000000E+00  0.00000000000E+00  0.71723188416E+03  0.71723188418E+03  0.50400001928E-02 0.  1.
        1   -1    0    0  501    0  0.00000000000E+00  0.00000000000E+00 -0.21519892418E+03  0.21519892424E+03  0.50400001928E-02 0. -1.
    10030    2    1    2    0    0  0.00000000000E+00  0.00000000000E+00  0.50203295998E+03  0.93243080842E+03  0.78574176392E+03 0.  0.
        4    1    3    3  502    0  0.59012058015E+02 -0.38379861179E+03  0.18019075561E+03  0.42808190655E+03  0.12699999809E+01 0. -1.
       -4    1    3    3    0  502 -0.59012058015E+02  0.38379861179E+03  0.32184220437E+03  0.50434890187E+03  0.12699999809E+01 0.  1.
</event>
<event>
 5   0  0.3550586E-02  0.7892572E+03  0.7818609E-02  0.9575698E-01
       -2   -1    0    0    0  501  0.00000000000E+00  0.00000000000E+00  0.40746968988E+03  0.40746968989E+03  0.25500000920E-02 0. -1.
        2   -1    0    0  501    0  0.00000000000E+00  0.00000000000E+00 -0.38219217325E+03  0.38219217326E+03  0.25500000920E-02 0.  1.
    10030    2    1    2    0    0  0.00000000000E+00  0.00000000000E+00  0.25277516632E+02  0.78966186315E+03  0.78925718576E+03 0.  0.
        3    1    3    3  502    0  0.32373226371E+03  0.10792305176E+03 -0.18565911054E+03  0.38848330620E+03  0.10100000352E+00 0.  1.
       -3    1    3    3    0  502 -0.32373226371E+03 -0.10792305176E+03  0.21093662717E+03  0.40117855695E+03  0.10100000352E+00 0. -1.
</event>
<event>
 5   0  0.3343036E-02  0.7905012E+03  0.7818609E-02  0.9573869E-01
       -2   -1    0    0    0  501  0.00000000000E+00  0.00000000000E+00  0.12300643433E+03  0.12300643436E+03  0.25500000920E-02 0. -1.
        2   -1    0    0  501    0  0.00000000000E+00  0.00000000000E+00 -0.12700395772E+04  0.12700395772E+04  0.25500000920E-02 0.  1.
    10030    2    1    2    0    0  0.00000000000E+00  0.00000000000E+00 -0.11470331429E+04  0.13930460116E+04  0.79050120777E+03 0.  0.
        4    1    3    3  502    0 -0.19913275266E+03 -0.15063923803E+03 -0.11134482504E+04  0.11411023847E+04  0.12699999809E+01 0.  1.
       -4    1    3    3    0  502  0.19913275266E+03  0.15063923803E+03 -0.33584892519E+02  0.25194362687E+03  0.12699999809E+01 0. -1.
</event>
<event>
 5   0  0.3467240E-02  0.8474234E+03  0.7818609E-02  0.9493802E-01
        2   -1    0    0  501    0  0.00000000000E+00  0.00000000000E+00  0.88023614945E+03  0.88023614945E+03  0.25500000920E-02 0.  1.
       -2   -1    0    0    0  501  0.00000000000E+00  0.00000000000E+00 -0.20395845400E+03  0.20395845402E+03  0.25500000920E-02 0. -1.
    10030    2    1    2    0    0  0.00000000000E+00  0.00000000000E+00  0.67627769544E+03  0.10841946035E+04  0.84742339881E+03 0.  0.
        2    1    3    3  502    0 -0.32877215237E+03  0.23841330600E+03  0.18355046799E+03  0.44567118704E+03  0.25500000920E-02 0. -1.
       -2    1    3    3    0  502  0.32877215237E+03 -0.23841330600E+03  0.49272722745E+03  0.63852341643E+03  0.25500000920E-02 0.  1.
</event>
<event>
 5   0  0.3467240E-02  0.8888739E+03  0.7818609E-02  0.9439597E-01
       -2   -1    0    0    0  501  0.00000000000E+00  0.00000000000E+00  0.31829348626E+03  0.31829348627E+03  0.25500000920E-02 0.  1.
        2   -1    0    0  501    0  0.00000000000E+00  0.00000000000E+00 -0.62057259557E+03  0.62057259557E+03  0.25500000920E-02 0. -1.
    10030    2    1    2    0    0  0.00000000000E+00  0.00000000000E+00 -0.30227910931E+03  0.93886608184E+03  0.88887392790E+03 0.  0.
        2    1    3    3  502    0 -0.15658498509E+03 -0.32760076027E+03 -0.42184082896E+03  0.55658853803E+03  0.25500000920E-02 0. -1.
       -2    1    3    3    0  502  0.15658498509E+03  0.32760076027E+03  0.11956171965E+03  0.38227754381E+03  0.25500000920E-02 0.  1.
</event>
<event>
 5   0  0.3416160E-02  0.7871780E+03  0.7818609E-02  0.9578764E-01
        2   -1    0    0  501    0  0.00000000000E+00  0.00000000000E+00  0.51803501358E+03  0.51803501359E+03  0.25500000920E-02 0. -1.
       -2   -1    0    0    0  501  0.00000000000E+00  0.00000000000E+00 -0.29903827415E+03  0.29903827416E+03  0.25500000920E-02 0.  1.
    10030    2    1    2    0    0  0.00000000000E+00  0.00000000000E+00  0.21899673943E+03  0.81707328775E+03  0.78717798856E+03 0.  0.
        1    1    3    3  502    0  0.38670538295E+03  0.69015229724E+02  0.13509544258E+03  0.41539732036E+03  0.50400001928E-02 0. -1.
       -1    1    3    3    0  502 -0.38670538295E+03 -0.69015229724E+02  0.83901296854E+02  0.40167596738E+03  0.50400001928E-02 0.  1.
</event>
<event>
 5   0  0.2077795E-02  0.7717450E+03  0.7818609E-02  0.9601840E-01
       -1   -1    0    0    0  501  0.00000000000E+00  0.00000000000E+00  0.36777766319E+03  0.36777766323E+03  0.50400001928E-02 0. -1.
        1   -1    0    0  501    0  0.00000000000E+00  0.00000000000E+00 -0.40485762794E+03  0.40485762797E+03  0.50400001928E-02 0.  1.
    10030    2    1    2    0    0  0.00000000000E+00  0.00000000000E+00 -0.37079964745E+02  0.77263529120E+03  0.77174501580E+03 0.  0.
        5    1    3    3  502    0 -0.18181978716E+03  0.72677134278E+02  0.31431174501E+03  0.37034357548E+03  0.46999998093E+01 0. -1.
       -5    1    3    3    0  502  0.18181978716E+03 -0.72677134278E+02 -0.35139170976E+03  0.40229171572E+03  0.46999998093E+01 0.  1.
</event>
<event>
 5   0  0.1989298E-02  0.7955241E+03  0.7818609E-02  0.9566519E-01
       -1   -1    0    0    0  501  0.00000000000E+00  0.00000000000E+00  0.34493867476E+03  0.34493867480E+03  0.50400001928E-02 0. -1.
        1   -1    0    0  501    0  0.00000000000E+00  0.00000000000E+00 -0.45867467176E+03  0.45867467178E+03  0.50400001928E-02 0.  1.
    10030    2    1    2    0    0  0.00000000000E+00  0.00000000000E+00 -0.11373599700E+03  0.80361334658E+03  0.79552406236E+03 0.  0.
        1    1    3    3  502    0 -0.10678019180E+03  0.23635590329E+03  0.24777529181E+03  0.35869028094E+03  0.50400001928E-02 0. -1.
       -1    1    3    3    0  502  0.10678019180E+03 -0.23635590329E+03 -0.36151128881E+03  0.44492306564E+03  0.50400001928E-02 0.  1.
</event>
<event>
 5   0  0.3416160E-02  0.8050256E+03  0.7818609E-02  0.9552771E-01
       -2   -1    0    0    0  501  0.00000000000E+00  0.00000000000E+00  0.10415883249E+04  0.10415883249E+04  0.25500000920E-02 0. -1.
        2   -1    0    0  501    0  0.00000000000E+00  0.00000000000E+00 -0.15554758756E+03  0.15554758758E+03  0.25500000920E-02 0.  1.
    10030    2    1    2    0    0  0.00000000000E+00  0.00000000000E+00  0.88604073736E+03  0.11971359125E+04  0.80502559260E+03 0.  0.
        1    1    3    3  502    0  0.15881371119E+03  0.18445337527E+03 -0.33707521679E+02  0.24572553704E+03  0.50400001928E-02 0.  1.
       -1    1    3    3    0  502 -0.15881371119E+03 -0.18445337527E+03  0.91974825904E+03  0.95141037546E+03  0.50400001928E-02 0. -1.
</event>
<event>
 5   0  0.2063692E-02  0.7747058E+03  0.7818609E-02  0.9597369E-01
       -1   -1    0    0    0  501  0.00000000000E+00  0.00000000000E+00  0.10935666457E+03  0.10935666468E+03  0.50400001928E-02 0.  1.
        1   -1    0    0  501    0  0.00000000000E+00  0.00000000000E+00 -0.13720451084E+04  0.13720451085E+04  0.50400001928E-02 0. -1.
    10030    2    1    2    0    0  0.00000000000E+00  0.00000000000E+00 -0.12626884439E+04  0.14814017731E+04  0.77470581975E+03 0.  0.
        2    1    3    3  502    0 -0.10042937506E+03 -0.20478072593E+03 -0.12300256210E+04  0.12509932987E+04  0.25500000920E-02 0. -1.
       -2    1    3    3    0  502  0.10042937506E+03  0.20478072593E+03 -0.32662822877E+02  0.23040847443E+03  0.25500000920E-02 0.  1.
</event>
<event>
 5   0  0.2129257E-02  0.8109492E+03  0.7818609E-02  0.9544302E-01
        1   -1    0    0  501    0  0.00000000000E+00  0.00000000000E+00  0.19260377015E+04  0.19260377015E+04  0.50400001928E-02 0.  1.
       -1   -1    0    0    0  501  0.00000000000E+00  0.00000000000E+00 -0.85361590382E+02  0.85361590530E+02  0.50400001928E-02 0. -1.
    10030    2    1    2    0    0  0.00000000000E+00  0.00000000000E+00  0.18406761111E+04  0.20113992920E+04  0.81094917594E+03 0.  0.
        3    1    3    3  502    0 -0.23002726192E+03 -0.15243421360E+03  0.18347152054E+03  0.33137673387E+03  0.10100000352E+00 0. -1.
       -3    1    3    3    0  502  0.23002726192E+03  0.15243421360E+03  0.16572045906E+04  0.16800225581E+04  0.10100000352E+00 0.  1.
</event>
<event>
 5   0  0.2132540E-02  0.7729944E+03  0.7818609E-02  0.9599951E-01
        1   -1    0    0  501    0  0.00000000000E+00  0.00000000000E+00  0.62678341975E+03  0.62678341977E+03  0.50400001928E-02 0. -1.
       -1   -1    0    0    0  501  0.00000000000E+00  0.00000000000E+00 -0.23832804856E+03  0.23832804861E+03  0.50400001928E-02 0.  1.
    10030    2    1    2    0    0  0.00000000000E+00  0.00000000000E+00  0.38845537119E+03  0.86511146838E+03  0.77299435789E+03 0.  0.
        4    1    3    3  502    0  0.31905374169E+03  0.13934384172E+03  0.63990170036E+01  0.34821624981E+03  0.12699999809E+01 0. -1.
       -4    1    3    3    0  502 -0.31905374169E+03 -0.13934384172E+03  0.38205635419E+03  0.51689521858E+03  0.12699999809E+01 0.  1.
</event>
<event>
 5   0  0.3416160E-02  0.7966571E+03  0.7818609E-02  0.9564869E-01
        2   -1    0    0  501    0  0.00000000000E+00  0.00000000000E+00  0.69558649397E+03  0.69558649398E+03  0.25500000920E-02 0.  1.
       -2   -1    0    0    0  501  0.00000000000E+00  0.00000000000E+00 -0.22810336496E+03  0.22810336497E+03  0.25500000920E-02 0. -1.
    10030    2    1    2    0    0  0.00000000000E+00  0.00000000000E+00  0.46748312901E+03  0.92368985895E+03  0.79665706525E+03 0.  0.
        1    1    3    3  502    0 -0.38929303962E+03 -0.56335266178E+02  0.16093644367E+03  0.42499796686E+03  0.50400001928E-02 0.  1.
       -1    1    3    3    0  502  0.38929303962E+03  0.56335266178E+02  0.30654668535E+03  0.49869189209E+03  0.50400001928E-02 0. -1.
</event>
<event>
 5   0  0.2063692E-02  0.7824842E+03  0.7818609E-02  0.9585722E-01
        1   -1    0    0  501    0  0.00000000000E+00  0.00000000000E+00  0.28226624410E+03  0.28226624414E+03  0.50400001928E-02 0.  1.
       -1   -1    0    0    0  501  0.00000000000E+00  0.00000000000E+00 -0.54229070942E+03  0.54229070944E+03  0.50400001928E-02 0. -1.
    10030    2    1    2    0    0  0.00000000000E+00  0.00000000000E+00 -0.26002446532E+03  0.82455695358E+03  0.78248415137E+03 0.  0.
        2    1    3    3  502    0 -0.20295987836E+03 -0.33144182331E+03 -0.17741971112E+03  0.42722844985E+03  0.25500000920E-02 0. -1.
       -2    1    3    3    0  502  0.20295987836E+03  0.33144182331E+03 -0.82604754194E+02  0.39732850374E+03  0.25500000920E-02 0.  1.
</event>
<event>
 5   0  0.2129257E-02  0.8022137E+03  0.7818609E-02  0.9556818E-01
       -1   -1    0    0    0  501  0.00000000000E+00  0.00000000000E+00  0.26608005779E+03  0.26608005784E+03  0.50400001928E-02 0.  1.
        1   -1    0    0  501    0  0.00000000000E+00  0.00000000000E+00 -0.60465525576E+03  0.60465525578E+03  0.50400001928E-02 0. -1.
    10030    2    1    2    0    0  0.00000000000E+00  0.00000000000E+00 -0.33857519797E+03  0.87073531361E+03  0.80221370077E+03 0.  0.
        3    1    3    3  502    0  0.14077253619E+03 -0.28984333115E+03 -0.42856482449E+03  0.53618456015E+03  0.10100000352E+00 0. -1.
       -3    1    3    3    0  502 -0.14077253619E+03  0.28984333115E+03  0.89989626522E+02  0.33455075346E+03  0.10100000352E+00 0.  1.
</event>
<event>
 5   0  0.2077795E-02  0.7947708E+03  0.7818609E-02  0.9567617E-01
        1   -1    0    0  501    0  0.00000000000E+00  0.00000000000E+00  0.39977131847E+03  0.39977131850E+03  0.50400001928E-02 0. -1.
       -1   -1    0    0    0  501  0.00000000000E+00  0.00000000000E+00 -0.39501372653E+03  0.39501372656E+03  0.50400001928E-02 0.  1.
    10030    2    1    2    0    0  0.00000000000E+00  0.00000000000E+00  0.47575919414E+01  0.79478504506E+03  0.79477080544E+03 0.  0.
        5    1    3    3  502    0  0.30810409469E+03 -0.23178905608E+03  0.98499031452E+02  0.39796789931E+03  0.46999998093E+01 0. -1.
       -5    1    3    3    0  502 -0.30810409469E+03  0.23178905608E+03 -0.93741439510E+02  0.39681714575E+03  0.46999998093E+01 0.  1.
</event>
<event>
 5   0  0.3416160E-02  0.8125379E+03  0.7818609E-02  0.9542044E-01
        2   -1    0    0  501    0  0.00000000000E+00  0.00000000000E+00  0.18062773293E+04  0.18062773293E+04  0.25500000920E-02 0.  1.
       -2   -1    0    0    0  501  0.00000000000E+00  0.00000000000E+00 -0.91378255435E+02  0.91378255470E+02  0.25500000920E-02 0. -1.
    10030    2    1    2    0    0  0.00000000000E+00  0.00000000000E+00  0.17148990739E+04  0.18976555848E+04  0.81253792827E+03 0.  0.
        1    1    3    3  502    0  0.22657837399E+03  0.33069522581E+03  0.10116147656E+04  0.10881459121E+04  0.50400001928E-02 0. -1.
       -1    1    3    3    0  502 -0.22657837399E+03 -0.33069522581E+03  0.70328430822E+03  0.80950967266E+03  0.50400001928E-02 0.  1.
</event>
<event>
 5   0  0.1358000E-02  0.7645523E+03  0.7818609E-02  0.9612793E-01
        3   -1    0    0  501    0  0.00000000000E+00  0.00000000000E+00  0.28475453144E+03  0.28475454935E+03  0.10100000352E+00 0. -1.
       -3   -1    0    0    0  501  0.00000000000E+00  0.00000000000E+00 -0.51319649353E+03  0.51319650347E+03  0.10100000352E+00 0.  1.
    10030    2    1    2    0    0  0.00000000000E+00  0.00000000000E+00 -0.22844196209E+03  0.79795105282E+03  0.76455225633E+03 0.  0.
        4    1    3    3  502    0 -0.77447954406E+01 -0.25797648496E+03 -0.40853541984E+03  0.48323353651E+03  0.12699999809E+01 0.  1.
       -4    1    3    3    0  502  0.77447954406E+01  0.25797648496E+03  0.18009345775E+03  0.31471751631E+03  0.12699999809E+01 0. -1.
</event>
<event>
 5   0  0.2077795E-02  0.7650648E+03  0.7818609E-02  0.9612008E-01
       -1   -1    0    0    0  501  0.00000000000E+00  0.00000000000E+00  0.28256204743E+03  0.28256204747E+03  0.50400001928E-02 0.  1.
        1   -1    0    0  501    0  0.00000000000E+00  0.00000000000E+00 -0.51787219072E+03  0.51787219074E+03  0.50400001928E-02 0. -1.
    10030    2    1    2    0    0  0.00000000000E+00  0.00000000000E+00 -0.23531014329E+03  0.80043423821E+03  0.76506477253E+03 0.  0.
        5    1    3    3  502    0  0.22326283282E+03 -0.89673526802E+02 -0.42875929447E+03  0.49167495007E+03  0.46999998093E+01 0. -1.
       -5    1    3    3    0  502 -0.22326283282E+03  0.89673526802E+02  0.19344915118E+03  0.30875928815E+03  0.46999998093E+01 0.  1.
</event>
<event>
 5   0  0.1358000E-02  0.8579772E+03  0.7818609E-02  0.9479692E-01
        3   -1    0    0  501    0  0.00000000000E+00  0.00000000000E+00  0.57289095079E+03  0.57289095969E+03  0.10100000352E+00 0.  1.
       -3   -1    0    0    0  501  0.00000000000E+00  0.00000000000E+00 -0.32123252027E+03  0.32123253615E+03  0.10100000352E+00 0. -1.
    10030    2    1    2    0    0  0.00000000000E+00  0.00000000000E+00  0.25165843052E+03  0.89412349584E+03  0.85797719093E+03 0.  0.
        5    1    3    3  502    0  0.20676731293E+03  0.89408219034E+02 -0.25460175363E+03  0.33998631483E+03  0.46999998093E+01 0. -1.
       -5    1    3    3    0  502 -0.20676731293E+03 -0.89408219034E+02  0.50626018414E+03  0.55413718101E+03  0.46999998093E+01 0.  1.
</event>
<event>
 5   0  0.3467240E-02  0.5063247E+03  0.7818609E-02  0.1012141E+00
        2   -1    0    0  501    0  0.00000000000E+00  0.00000000000E+00  0.59075552942E+03  0.59075552942E+03  0.25500000920E-02 0. -1.
       -2   -1    0    0    0  501  0.00000000000E+00  0.00000000000E+00 -0.10849018706E+03  0.10849018709E+03  0.25500000920E-02 0.  1.
    10030    2    1    2    0    0  0.00000000000E+00  0.00000000000E+00  0.48226534236E+03  0.69924571651E+03  0.50632470967E+03 0.  0.
        2    1    3    3  502    0  0.26979616227E+02 -0.70651955032E+02 -0.92525230852E+02  0.11950111628E+03  0.25500000920E-02 0.  1.
       -2    1    3    3    0  502 -0.26979616227E+02  0.70651955032E+02  0.57479057321E+03  0.57974460023E+03  0.25500000920E-02 0. -1.
</event>
<event>
 5   0  0.2063692E-02  0.7735966E+03  0.7818609E-02  0.9599041E-01
        1   -1    0    0  501    0  0.00000000000E+00  0.00000000000E+00  0.10709897859E+04  0.10709897859E+04  0.50400001928E-02 0. -1.
       -1   -1    0    0    0  501  0.00000000000E+00  0.00000000000E+00 -0.13969594141E+03  0.13969594150E+03  0.50400001928E-02 0.  1.
    10030    2    1    2    0    0  0.00000000000E+00  0.00000000000E+00  0.93129384445E+03  0.12106857274E+04  0.77359660402E+03 0.  0.
        2    1    3    3  502    0 -0.82743868762E+02  0.32378947017E+03  0.16086463342E+03  0.37089567145E+03  0.25500000920E-02 0.  1.
       -2    1    3    3    0  502  0.82743868762E+02 -0.32378947017E+03  0.77042921103E+03  0.83979005592E+03  0.25500000920E-02 0. -1.
</event>
<event>
 5   0  0.3404132E-02  0.8198530E+03  0.7818609E-02  0.9531717E-01
       -2   -1    0    0    0  501  0.00000000000E+00  0.00000000000E+00  0.17560827339E+03  0.17560827341E+03  0.25500000920E-02 0.  1.
        2   -1    0    0  501    0  0.00000000000E+00  0.00000000000E+00 -0.95690108930E+03  0.95690108930E+03  0.25500000920E-02 0. -1.
    10030    2    1    2    0    0  0.00000000000E+00  0.00000000000E+00 -0.78129281591E+03  0.11325093627E+04  0.81985303100E+03 0.  0.
        5    1    3    3  502    0  0.21241973179E+03 -0.32519701870E+03 -0.57150610245E+03  0.69102572930E+03  0.46999998093E+01 0.  1.
       -5    1    3    3    0  502 -0.21241973179E+03  0.32519701870E+03 -0.20978671346E+03  0.44148363341E+03  0.46999998093E+01 0. -1.
</event>
<event>
 5   0  0.3343036E-02  0.7879784E+03  0.7818609E-02  0.9577583E-01
        2   -1    0    0  501    0  0.00000000000E+00  0.00000000000E+00  0.12097249214E+04  0.12097249214E+04  0.25500000920E-02 0.  1.
       -2   -1    0    0    0  501  0.00000000000E+00  0.00000000000E+00 -0.12831633665E+03  0.12831633667E+03  0.25500000920E-02 0. -1.
    10030    2    1    2    0    0  0.00000000000E+00  0.00000000000E+00  0.10814085848E+04  0.13380412581E+04  0.78797835069E+03 0.  0.
        4    1    3    3  502    0  0.16615636073E+03  0.24268379524E+03  0.98585255626E+03  0.10287906669E+04  0.12699999809E+01 0.  1.
       -4    1    3    3    0  502 -0.16615636073E+03 -0.24268379524E+03  0.95556028532E+02  0.30925059123E+03  0.12699999809E+01 0. -1.
</event>
<event>
 5   0  0.3343036E-02  0.7960896E+03  0.7818609E-02  0.9565695E-01
       -2   -1    0    0    0  501  0.00000000000E+00  0.00000000000E+00  0.68871299463E+02  0.68871299510E+02  0.25500000920E-02 0.  1.
        2   -1    0    0  501    0  0.00000000000E+00  0.00000000000E+00 -0.23005180060E+04  0.23005180060E+04  0.25500000920E-02 0. -1.
    10030    2    1    2    0    0  0.00000000000E+00  0.00000000000E+00 -0.22316467065E+04  0.23693893055E+04  0.79608960442E+03 0.  0.
        4    1    3    3  502    0 -0.14385529756E+03 -0.35496190810E+03 -0.14383865585E+04  0.14885058976E+04  0.12699999809E+01 0. -1.
       -4    1    3    3    0  502  0.14385529756E+03  0.35496190810E+03 -0.79326014804E+03  0.88088340784E+03  0.12699999809E+01 0.  1.
</event>
<event>
 5   0  0.2077795E-02  0.7970559E+03  0.7818609E-02  0.9564288E-01
        1   -1    0    0  501    0  0.00000000000E+00  0.00000000000E+00  0.91229532974E+03  0.91229532976E+03  0.50400001928E-02 0.  1.
       -1   -1    0    0    0  501  0.00000000000E+00  0.00000000000E+00 -0.17409333261E+03  0.17409333268E+03  0.50400001928E-02 0. -1.
    10030    2    1    2    0    0  0.00000000000E+00  0.00000000000E+00  0.73820199714E+03  0.10863886624E+04  0.79705591856E+03 0.  0.
        5    1    3    3  502    0 -0.33615640547E+02 -0.34704878694E+03  0.63209173940E+03  0.72189675773E+03  0.46999998093E+01 0.  1.
       -5    1    3    3    0  502  0.33615640547E+02  0.34704878694E+03  0.10611025774E+03  0.36449190471E+03  0.46999998093E+01 0. -1.
</event>
<event>
 5   0  0.2077795E-02  0.7982342E+03  0.7818609E-02  0.9562577E-01
       -1   -1    0    0    0  501  0.00000000000E+00  0.00000000000E+00  0.24092039207E+03  0.24092039212E+03  0.50400001928E-02 0. -1.
        1   -1    0    0  501    0  0.00000000000E+00  0.00000000000E+00 -0.66119131071E+03  0.66119131073E+03  0.50400001928E-02 0.  1.
    10030    2    1    2    0    0  0.00000000000E+00  0.00000000000E+00 -0.42027091863E+03  0.90211170285E+03  0.79823422588E+03 0.  0.
        5    1    3    3  502    0 -0.97762998210E+02  0.18446694496E+03  0.17425423008E+03  0.27197846293E+03  0.46999998093E+01 0. -1.
       -5    1    3    3    0  502  0.97762998210E+02 -0.18446694496E+03 -0.59452514871E+03  0.63013323992E+03  0.46999998093E+01 0.  1.
</event>
<event>
 5   0  0.2077795E-02  0.8612095E+03  0.7818609E-02  0.9475414E-01
       -1   -1    0    0    0  501  0.00000000000E+00  0.00000000000E+00  0.93953504289E+02  0.93953504424E+02  0.50400001928E-02 0.  1.
        1   -1    0    0  501    0  0.00000000000E+00  0.00000000000E+00 -0.19735343636E+04  0.19735343636E+04  0.50400001928E-02 0. -1.
    10030    2    1    2    0    0  0.00000000000E+00  0.00000000000E+00 -0.18795808594E+04  0.20674878681E+04  0.86120954348E+03 0.  0.
        5    1    3    3  502    0  0.30676455943E+03  0.27005845296E+03 -0.12651007719E+04  0.13294879149E+04  0.46999998093E+01 0. -1.
       -5    1    3    3    0  502 -0.30676455943E+03 -0.27005845296E+03 -0.61448008748E+03  0.73799995315E+03  0.46999998093E+01 0.  1.
</event>
<event>
 5   0  0.3343036E-02  0.8515131E+03  0.7818609E-02  0.9488308E-01
        2   -1    0    0  501    0  0.00000000000E+00  0.00000000000E+00  0.62639609111E+03  0.62639609112E+03  0.25500000920E-02 0. -1.
       -2   -1    0    0    0  501  0.00000000000E+00  0.00000000000E+00 -0.28938339172E+03  0.28938339173E+03  0.25500000920E-02 0.  1.
    10030    2    1    2    0    0  0.00000000000E+00  0.00000000000E+00  0.33701269939E+03  0.91577948284E+03  0.85151306605E+03 0.  0.
        4    1    3    3  502    0 -0.15902979362E+03  0.14177593832E+03 -0.22792789479E+03  0.31199940716E+03  0.12699999809E+01 0.  1.
       -4    1    3    3    0  502  0.15902979362E+03 -0.14177593832E+03  0.56494059418E+03  0.60378007569E+03  0.12699999809E+01 0. -1.
</event>
<event>
 5   0  0.3404132E-02  0.8142308E+03  0.7818609E-02  0.9539644E-01
       -2   -1    0    0    0  501  0.00000000000E+00  0.00000000000E+00  0.96326356939E+02  0.96326356972E+02  0.25500000920E-02 0.  1.
        2   -1    0    0  501    0  0.00000000000E+00  0.00000000000E+00 -0.17206397690E+04  0.17206397690E+04  0.25500000920E-02 0. -1.
    10030    2    1    2    0    0  0.00000000000E+00  0.00000000000E+00 -0.16243134121E+04  0.18169661260E+04  0.81423082866E+03 0.  0.
        5    1    3    3  502    0  0.35800132508E+03 -0.12494789683E+03 -0.11427215327E+04  0.12039981382E+04  0.46999998093E+01 0.  1.
       -5    1    3    3    0  502 -0.35800132508E+03  0.12494789683E+03 -0.48159187941E+03  0.61296798774E+03  0.46999998093E+01 0. -1.
</event>
<event>
 5   0  0.2129257E-02  0.8187956E+03  0.7818609E-02  0.9533203E-01
       -1   -1    0    0    0  501  0.00000000000E+00  0.00000000000E+00  0.22970031315E+03  0.22970031321E+03  0.50400001928E-02 0. -1.
        1   -1    0    0  501    0  0.00000000000E+00  0.00000000000E+00 -0.72967496326E+03  0.72967496328E+03  0.50400001928E-02 0.  1.
    10030    2    1    2    0    0  0.00000000000E+00  0.00000000000E+00 -0.49997465011E+03  0.95937527649E+03  0.81879562186E+03 0.  0.
        3    1    3    3  502    0 -0.87088409896E+01 -0.22201336422E+03 -0.65288675485E+03  0.68965709063E+03  0.10100000352E+00 0.  1.
       -3    1    3    3    0  502  0.87088409896E+01  0.22201336422E+03  0.15291210474E+03  0.26971818585E+03  0.10100000352E+00 0. -1.
</event>
<event>
 5   0  0.3343036E-02  0.8038282E+03  0.7818609E-02  0.9554492E-01
        2   -1    0    0  501    0  0.00000000000E+00  0.00000000000E+00  0.13733099255E+04  0.13733099255E+04  0.25500000920E-02 0. -1.
       -2   -1    0    0    0  501  0.00000000000E+00  0.00000000000E+00 -0.11762453366E+03  0.11762453369E+03  0.25500000920E-02 0.  1.
    10030    2    1    2    0    0  0.00000000000E+00  0.00000000000E+00  0.12556853919E+04  0.14909344592E+04  0.80382818957E+03 0.  0.
        4    1    3    3  502    0  0.89352267774E+02  0.27222201325E+03  0.10505216254E+03  0.30516589260E+03  0.12699999809E+01 0.  1.
       -4    1    3    3    0  502 -0.89352267774E+02 -0.27222201325E+03  0.11506332293E+04  0.11857685666E+04  0.12699999809E+01 0. -1.
</event>
<event>
 5   0  0.3416160E-02  0.8038033E+03  0.7818609E-02  0.9554528E-01
        2   -1    0    0  501    0  0.00000000000E+00  0.00000000000E+00  0.65909401521E+03  0.65909401521E+03  0.25500000920E-02 0. -1.
       -2   -1    0    0    0  501  0.00000000000E+00  0.00000000000E+00 -0.24507116394E+03  0.24507116395E+03  0.25500000920E-02 0.  1.
    10030    2    1    2    0    0  0.00000000000E+00  0.00000000000E+00  0.41402285127E+03  0.90416517916E+03  0.80380330295E+03 0.  0.
        1    1    3    3  502    0  0.36564037811E+03 -0.16610278796E+03  0.18951579775E+03  0.44407123291E+03  0.50400001928E-02 0.  1.
       -1    1    3    3    0  502 -0.36564037811E+03  0.16610278796E+03  0.22450705352E+03  0.46009394625E+03  0.50400001928E-02 0. -1.
</event>
<event>
 5   0  0.1989298E-02  0.7935813E+03  0.7818609E-02  0.9569355E-01
        1   -1    0    0  501    0  0.00000000000E+00  0.00000000000E+00  0.11999209849E+03  0.11999209860E+03  0.50400001928E-02 0. -1.
       -1   -1    0    0    0  501  0.00000000000E+00  0.00000000000E+00 -0.13121097819E+04  0.13121097819E+04  0.50400001928E-02 0.  1.
    10030    2    1    2    0    0  0.00000000000E+00  0.00000000000E+00 -0.11921176834E+04  0.14321018805E+04  0.79358126556E+03 0.  0.
        1    1    3    3  502    0  0.15516265392E+03  0.35983464060E+03 -0.70855964245E+03  0.80969944095E+03  0.50400001928E-02 0.  1.
       -1    1    3    3    0  502 -0.15516265392E+03 -0.35983464060E+03 -0.48355804093E+03  0.62240243952E+03  0.50400001928E-02 0. -1.
</event>
<event>
 5   0  0.3550586E-02  0.8070577E+03  0.7818609E-02  0.9549857E-01
       -2   -1    0    0    0  501  0.00000000000E+00  0.00000000000E+00  0.81587303034E+02  0.81587303074E+02  0.25500000920E-02 0. -1.
        2   -1    0    0  501    0  0.00000000000E+00  0.00000000000E+00 -0.19958442761E+04  0.19958442761E+04  0.25500000920E-02 0.  1.
    10030    2    1    2    0    0  0.00000000000E+00  0.00000000000E+00 -0.19142569731E+04  0.20774315792E+04  0.80705774715E+03 0.  0.
        3    1    3    3  502    0  0.23014841775E+03 -0.30622345178E+03 -0.63057064199E+03  0.73780786209E+03  0.10100000352E+00 0.  1.
       -3    1    3    3    0  502 -0.23014841775E+03  0.30622345178E+03 -0.12836863311E+04  0.13396237171E+04  0.10100000352E+00 0. -1.
</event>
<event>
 5   0  0.2129257E-02  0.7904154E+03  0.7818609E-02  0.9573995E-01
       -1   -1    0    0    0  501  0.00000000000E+00  0.00000000000E+00  0.24536560959E+03  0.24536560964E+03  0.50400001928E-02 0. -1.
        1   -1    0    0  501    0  0.00000000000E+00  0.00000000000E+00 -0.63655675772E+03  0.63655675774E+03  0.50400001928E-02 0.  1.
    10030    2    1    2    0    0  0.00000000000E+00  0.00000000000E+00 -0.39119114813E+03  0.88192236738E+03  0.79041542729E+03 0.  0.
        3    1    3    3  502    0  0.29563133811E+03  0.88293873473E+02 -0.47116028445E+03  0.56319243604E+03  0.10100000352E+00 0.  1.
       -3    1    3    3    0  502 -0.29563133811E+03 -0.88293873473E+02  0.79969136322E+02  0.31872993134E+03  0.10100000352E+00 0. -1.
</event>
<event>
 5   0  0.2077795E-02  0.7783479E+03  0.7818609E-02  0.9591897E-01
        1   -1    0    0  501    0  0.00000000000E+00  0.00000000000E+00  0.78109428830E+02  0.78109428993E+02  0.50400001928E-02 0.  1.
       -1   -1    0    0    0  501  0.00000000000E+00  0.00000000000E+00 -0.19390281167E+04  0.19390281167E+04  0.50400001928E-02 0. -1.
    10030    2    1    2    0    0  0.00000000000E+00  0.00000000000E+00 -0.18609186879E+04  0.20171375457E+04  0.77834793982E+03 0.  0.
        5    1    3    3  502    0 -0.22370807041E+03  0.28227795086E+03 -0.13122920324E+04  0.13608301182E+04  0.46999998093E+01 0. -1.
       -5    1    3    3    0  502  0.22370807041E+03 -0.28227795086E+03 -0.54862665553E+03  0.65630742756E+03  0.46999998093E+01 0.  1.
</event>
<event>
 5   0  0.1358000E-02  0.8262033E+03  0.7818609E-02  0.9522845E-01
       -3   -1    0    0    0  501  0.00000000000E+00  0.00000000000E+00  0.29584940262E+03  0.29584941986E+03  0.10100000352E+00 0.  1.
        3   -1    0    0  501    0  0.00000000000E+00  0.00000000000E+00 -0.57682371647E+03  0.57682372531E+03  0.10100000352E+00 0. -1.
    10030    2    1    2    0    0  0.00000000000E+00  0.00000000000E+00 -0.28097431385E+03  0.87267314517E+03  0.82620327600E+03 0.  0.
        5    1    3    3  502    0  0.29055670628E+03 -0.12409934793E+03  0.14057532344E+03  0.34584296911E+03  0.46999998093E+01 0.  1.
       -5    1    3    3    0  502 -0.29055670628E+03  0.12409934793E+03 -0.42154963729E+03  0.52683017607E+03  0.46999998093E+01 0. -1.
</event>
<event>
 5   0  0.1989298E-02  0.7903930E+03  0.7818609E-02  0.9574028E-01
        1   -1    0    0  501    0  0.00000000000E+00  0.00000000000E+00  0.44730391672E+03  0.44730391675E+03  0.50400001928E-02 0.  1.
       -1   -1    0    0    0  501  0.00000000000E+00  0.00000000000E+00 -0.34915916342E+03  0.34915916346E+03  0.50400001928E-02 0. -1.
    10030    2    1    2    0    0  0.00000000000E+00  0.00000000000E+00  0.98144753300E+02  0.79646308021E+03  0.79039296906E+03 0.  0.
        1    1    3    3  502    0  0.97877730905E+02  0.22634634758E+03 -0.26211564780E+03  0.35988516518E+03  0.50400001928E-02 0. -1.
       -1    1    3    3    0  502 -0.97877730905E+02 -0.22634634758E+03  0.36026040110E+03  0.43657791503E+03  0.50400001928E-02 0.  1.
</event>
<event>
 5   0  0.1989298E-02  0.8141223E+03  0.7818609E-02  0.9539798E-01
       -1   -1    0    0    0  501  0.00000000000E+00  0.00000000000E+00  0.34670762161E+03  0.34670762165E+03  0.50400001928E-02 0.  1.
        1   -1    0    0  501    0  0.00000000000E+00  0.00000000000E+00 -0.47792073507E+03  0.47792073509E+03  0.50400001928E-02 0. -1.
    10030    2    1    2    0    0  0.00000000000E+00  0.00000000000E+00 -0.13121311346E+03  0.82462835674E+03  0.81412225470E+03 0.  0.
        1    1    3    3  502    0 -0.22517328013E+03 -0.24452141327E+03 -0.30359615617E+03  0.45018257819E+03  0.50400001928E-02 0. -1.
       -1    1    3    3    0  502  0.22517328013E+03  0.24452141327E+03  0.17238304272E+03  0.37444577855E+03  0.50400001928E-02 0.  1.
</event>
<event>
 5   0  0.1358000E-02  0.7991933E+03  0.7818609E-02  0.9561186E-01
       -3   -1    0    0    0  501  0.00000000000E+00  0.00000000000E+00  0.11427451472E+03  0.11427455936E+03  0.10100000352E+00 0. -1.
        3   -1    0    0  501    0  0.00000000000E+00  0.00000000000E+00 -0.13973145280E+04  0.13973145317E+04  0.10100000352E+00 0.  1.
    10030    2    1    2    0    0  0.00000000000E+00  0.00000000000E+00 -0.12830400133E+04  0.15115890910E+04  0.79919328350E+03 0.  0.
        5    1    3    3  502    0 -0.21029966303E+03 -0.32905898520E+03 -0.80144762395E+03  0.89154144488E+03  0.46999998093E+01 0.  1.
       -5    1    3    3    0  502  0.21029966303E+03  0.32905898520E+03 -0.48159238933E+03  0.62004764613E+03  0.46999998093E+01 0. -1.
</event>
<event>
 5   0  0.3550586E-02  0.7120931E+03  0.7818609E-02  0.9696772E-01
        2   -1    0    0  501    0  0.00000000000E+00  0.00000000000E+00  0.34627037326E+03  0.34627037327E+03  0.25500000920E-02 0. -1.
       -2   -1    0    0    0  501  0.00000000000E+00  0.00000000000E+00 -0.36609874663E+03  0.36609874664E+03  0.25500000920E-02 0.  1.
    10030    2    1    2    0    0  0.00000000000E+00  0.00000000000E+00 -0.19828373370E+02  0.71236911990E+03  0.71209311091E+03 0.  0.
        3    1    3    3  502    0 -0.62910176335E+00  0.28757880144E+03  0.20008901413E+03  0.35033924499E+03  0.10100000352E+00 0. -1.
       -3    1    3    3    0  502  0.62910176335E+00 -0.28757880144E+03 -0.21991738750E+03  0.36202987491E+03  0.10100000352E+00 0.  1.
</event>
<event>
 5   0  0.1989298E-02  0.8101769E+03  0.7818609E-02  0.9545402E-01
       -1   -1    0    0    0  501  0.00000000000E+00  0.00000000000E+00  0.16064949709E+03  0.16064949717E+03  0.50400001928E-02 0. -1.
        1   -1    0    0  501    0  0.00000000000E+00  0.00000000000E+00 -0.10214575616E+04  0.10214575616E+04  0.50400001928E-02 0.  1.
    10030    2    1    2    0    0  0.00000000000E+00  0.00000000000E+00 -0.86080806449E+03  0.11821070588E+04  0.81017687851E+03 0.  0.
        1    1    3    3  502    0  0.15852526742E+03 -0.12846064261E+03  0.80196923292E+02  0.21923490516E+03  0.50400001928E-02 0. -1.
       -1    1    3    3    0  502 -0.15852526742E+03  0.12846064261E+03 -0.94100498778E+03  0.96287215359E+03  0.50400001928E-02 0.  1.
</event>
<event>
 5   0  0.2063692E-02  0.8097796E+03  0.7818609E-02  0.9545968E-01
       -1   -1    0    0    0  501  0.00000000000E+00  0.00000000000E+00  0.22682307765E+03  0.22682307771E+03  0.50400001928E-02 0. -1.
        1   -1    0    0  501    0  0.00000000000E+00  0.00000000000E+00 -0.72274729902E+03  0.72274729904E+03  0.50400001928E-02 0.  1.
    10030    2    1    2    0    0  0.00000000000E+00  0.00000000000E+00 -0.49592422137E+03  0.94957037675E+03  0.80977964105E+03 0.  0.
        2    1    3    3  502    0  0.43858434406E+01 -0.33201736457E+03  0.23725982466E+02  0.33289290808E+03  0.25500000920E-02 0. -1.
       -2    1    3    3    0  502 -0.43858434406E+01  0.33201736457E+03 -0.51965020384E+03  0.61667746866E+03  0.25500000920E-02 0.  1.
</event>
<event>
 5   0  0.2077795E-02  0.7959652E+03  0.7818609E-02  0.9565876E-01
        1   -1    0    0  501    0  0.00000000000E+00  0.00000000000E+00  0.13122986732E+03  0.13122986742E+03  0.50400001928E-02 0.  1.
       -1   -1    0    0    0  501  0.00000000000E+00  0.00000000000E+00 -0.12069673311E+04  0.12069673311E+04  0.50400001928E-02 0. -1.
    10030    2    1    2    0    0  0.00000000000E+00  0.00000000000E+00 -0.10757374638E+04  0.13381971985E+04  0.79596523240E+03 0.  0.
        5    1    3    3  502    0  0.11751379687E+03 -0.33192064682E+03 -0.22610554439E+03  0.41848132030E+03  0.46999998093E+01 0. -1.
       -5    1    3    3    0  502 -0.11751379687E+03  0.33192064682E+03 -0.84963191939E+03  0.91971587824E+03  0.46999998093E+01 0.  1.
</event>
<event>
 5   0  0.3343036E-02  0.8069589E+03  0.7818609E-02  0.9549999E-01
       -2   -1    0    0    0  501  0.00000000000E+00  0.00000000000E+00  0.65600697058E+03  0.65600697058E+03  0.25500000920E-02 0. -1.
        2   -1    0    0  501    0  0.00000000000E+00  0.00000000000E+00 -0.24816146600E+03  0.24816146601E+03  0.25500000920E-02 0.  1.
    10030    2    1    2    0    0  0.00000000000E+00  0.00000000000E+00  0.40784550458E+03  0.90416843659E+03  0.80695886272E+03 0.  0.
        4    1    3    3  502    0  0.23114059618E+03  0.20128704303E+03 -0.90082394182E+02  0.31946658594E+03  0.12699999809E+01 0.  1.
       -4    1    3    3    0  502 -0.23114059618E+03 -0.20128704303E+03  0.49792789876E+03  0.58470185065E+03  0.12699999809E+01 0. -1.
</event>
<event>
 5   0  0.3550586E-02  0.8056016E+03  0.7818609E-02  0.9551944E-01
       -2   -1    0    0    0  501  0.00000000000E+00  0.00000000000E+00  0.27392120978E+03  0.27392120979E+03  0.25500000920E-02 0.  1.
        2   -1    0    0  501    0  0.00000000000E+00  0.00000000000E+00 -0.59231814248E+03  0.59231814249E+03  0.25500000920E-02 0. -1.
    10030    2    1    2    0    0  0.00000000000E+00  0.00000000000E+00 -0.31839693271E+03  0.86623935228E+03  0.80560164392E+03 0.  0.
        3    1    3    3  502    0 -0.37854604202E+03 -0.13556525644E+03 -0.18494770059E+03  0.44258412402E+03  0.10100000352E+00 0. -1.
       -3    1    3    3    0  502  0.37854604202E+03  0.13556525644E+03 -0.13344923212E+03  0.42365522826E+03  0.10100000352E+00 0.  1.
</event>
<event>
 5   0  0.2132540E-02  0.7979430E+03  0.7818609E-02  0.9562999E-01
       -1   -1    0    0    0  501  0.00000000000E+00  0.00000000000E+00  0.11081602266E+03  0.11081602278E+03  0.50400001928E-02 0. -1.
        1   -1    0    0  501    0  0.00000000000E+00  0.00000000000E+00 -0.14364192091E+04  0.14364192091E+04  0.50400001928E-02 0.  1.
    10030    2    1    2    0    0  0.00000000000E+00  0.00000000000E+00 -0.13256031864E+04  0.15472352319E+04  0.79794301481E+03 0.  0.
        4    1    3    3  502    0 -0.33906091037E+03  0.14366397446E+03 -0.96052325403E+03  0.10286924579E+04  0.12699999809E+01 0.  1.
       -4    1    3    3    0  502  0.33906091037E+03 -0.14366397446E+03 -0.36507993238E+03  0.51854277396E+03  0.12699999809E+01 0. -1.
</event>
<event>
 5   0  0.2063692E-02  0.6782838E+03  0.7818609E-02  0.9755108E-01
        1   -1    0    0  501    0  0.00000000000E+00  0.00000000000E+00  0.43201705783E+03  0.43201705786E+03  0.50400001928E-02 0. -1.
       -1   -1    0    0    0  501  0.00000000000E+00  0.00000000000E+00 -0.26623308198E+03  0.26623308203E+03  0.50400001928E-02 0.  1.
    10030    2    1    2    0    0  0.00000000000E+00  0.00000000000E+00  0.16578397585E+03  0.69825013989E+03  0.67828381316E+03 0.  0.
        2    1    3    3  502    0 -0.16991619320E+03  0.65580131108E+01  0.38496226583E+03  0.42084494338E+03  0.25500000920E-02 0. -1.
       -2    1    3    3    0  502  0.16991619320E+03 -0.65580131108E+01 -0.21917828998E+03  0.27740519651E+03  0.25500000920E-02 0.  1.
</event>
<event>
 5   0  0.2132540E-02  0.7394310E+03  0.7818609E-02  0.9652079E-01
       -1   -1    0    0    0  501  0.00000000000E+00  0.00000000000E+00  0.12723695847E+03  0.12723695857E+03  0.50400001928E-02 0. -1.
        1   -1    0    0  501    0  0.00000000000E+00  0.00000000000E+00 -0.10742913445E+04  0.10742913445E+04  0.50400001928E-02 0.  1.
    10030    2    1    2    0    0  0.00000000000E+00  0.00000000000E+00 -0.94705438604E+03  0.12015283031E+04  0.73943103329E+03 0.  0.
        4    1    3    3  502    0  0.10107858329E+03  0.32327639990E+03 -0.71434384216E+03  0.79057779406E+03  0.12699999809E+01 0. -1.
       -4    1    3    3    0  502 -0.10107858329E+03 -0.32327639990E+03 -0.23271054389E+03  0.41095050903E+03  0.12699999809E+01 0.  1.
</event>
<event>
 5   0  0.1989298E-02  0.7914228E+03  0.7818609E-02  0.9572516E-01
        1   -1    0    0  501    0  0.00000000000E+00  0.00000000000E+00  0.98998314355E+03  0.98998314357E+03  0.50400001928E-02 0.  1.
       -1   -1    0    0    0  501  0.00000000000E+00  0.00000000000E+00 -0.15817189920E+03  0.15817189928E+03  0.50400001928E-02 0. -1.
    10030    2    1    2    0    0  0.00000000000E+00  0.00000000000E+00  0.83181124435E+03  0.11481550428E+04  0.79142280495E+03 0.  0.
        1    1    3    3  502    0 -0.14255028934E+03  0.25791140510E+03  0.32763555738E+02  0.29650013235E+03  0.50400001928E-02 0. -1.
       -1    1    3    3    0  502  0.14255028934E+03 -0.25791140510E+03  0.79904768861E+03  0.85165491050E+03  0.50400001928E-02 0.  1.
</event>
<event>
 5   0  0.1358000E-02  0.8411766E+03  0.7818609E-02  0.9502256E-01
        3   -1    0    0  501    0  0.00000000000E+00  0.00000000000E+00  0.44035034460E+03  0.44035035619E+03  0.10100000352E+00 0.  1.
       -3   -1    0    0    0  501  0.00000000000E+00  0.00000000000E+00 -0.40171314291E+03  0.40171315561E+03  0.10100000352E+00 0. -1.
    10030    2    1    2    0    0  0.00000000000E+00  0.00000000000E+00  0.38637201690E+02  0.84206351179E+03  0.84117663100E+03 0.  0.
        2    1    3    3  502    0 -0.41632425034E+03 -0.59678039609E+02  0.16635981723E+02  0.42090866673E+03  0.25500000920E-02 0. -1.
       -2    1    3    3    0  502  0.41632425034E+03  0.59678039609E+02  0.22001219967E+02  0.42115484506E+03  0.25500000920E-02 0.  1.
</event>
<event>
 5   0  0.2132540E-02  0.8010000E+03  0.7818609E-02  0.9558571E-01
        1   -1    0    0  501    0  0.00000000000E+00  0.00000000000E+00  0.97244169613E+03  0.97244169614E+03  0.50400001928E-02 0. -1.
       -1   -1    0    0    0  501  0.00000000000E+00  0.00000000000E+00 -0.16494587986E+03  0.16494587994E+03  0.50400001928E-02 0.  1.
    10030    2    1    2    0    0  0.00000000000E+00  0.00000000000E+00  0.80749581626E+03  0.11373875761E+04  0.80100000308E+03 0.  0.
        4    1    3    3  502    0  0.16611047018E+03  0.93891257934E+02 -0.96252041754E+02  0.21371552368E+03  0.12699999809E+01 0.  1.
       -4    1    3    3    0  502 -0.16611047018E+03 -0.93891257934E+02  0.90374785802E+03  0.92367205240E+03  0.12699999809E+01 0. -1.
</event>
<event>
 5   0  0.3343036E-02  0.8022201E+03  0.7818609E-02  0.9556809E-01
        2   -1    0    0  501    0  0.00000000000E+00  0.00000000000E+00  0.18896749540E+04  0.18896749540E+04  0.25500000920E-02 0. -1.
       -2   -1    0    0    0  501  0.00000000000E+00  0.00000000000E+00 -0.85141244068E+02  0.85141244106E+02  0.25500000920E-02 0.  1.
    10030    2    1    2    0    0  0.00000000000E+00  0.00000000000E+00  0.18045337099E+04  0.19748161981E+04  0.80222011071E+03 0.  0.
        4    1    3    3  502    0 -0.11562984401E+03 -0.37782228480E+03  0.10722432772E+04  0.11427279633E+04  0.12699999809E+01 0. -1.
       -4    1    3    3    0  502  0.11562984401E+03  0.37782228480E+03  0.73229043271E+03  0.83208823478E+03  0.12699999809E+01 0.  1.
</event>
<event>
 5   0  0.1358000E-02  0.7936292E+03  0.7818609E-02  0.9569285E-01
        3   -1    0    0  501    0  0.00000000000E+00  0.00000000000E+00  0.13827688200E+03  0.13827691889E+03  0.10100000352E+00 0.  1.
       -3   -1    0    0    0  501  0.00000000000E+00  0.00000000000E+00 -0.11387426786E+04  0.11387426830E+04  0.10100000352E+00 0. -1.
    10030    2    1    2    0    0  0.00000000000E+00  0.00000000000E+00 -0.10004657965E+04  0.12770196019E+04  0.79362916632E+03 0.  0.
        1    1    3    3  502    0  0.36585792200E+03 -0.73244122944E+02 -0.71757956356E+03  0.80878745706E+03  0.50400001928E-02 0. -1.
       -1    1    3    3    0  502 -0.36585792200E+03  0.73244122944E+02 -0.28288623299E+03  0.46823214486E+03  0.50400001928E-02 0.  1.
</event>
<event>
 5   0  0.3343036E-02  0.7885794E+03  0.7818609E-02  0.9576697E-01
       -2   -1    0    0    0  501  0.00000000000E+00  0.00000000000E+00  0.85142972579E+02  0.85142972617E+02  0.25500000920E-02 0. -1.
        2   -1    0    0  501    0  0.00000000000E+00  0.00000000000E+00 -0.18259214223E+04  0.18259214223E+04  0.25500000920E-02 0.  1.
    10030    2    1    2    0    0  0.00000000000E+00  0.00000000000E+00 -0.17407784498E+04  0.19110643950E+04  0.78857942563E+03 0.  0.
        4    1    3    3  502    0 -0.18156250101E+03 -0.15756343485E+03 -0.16277695192E+04  0.16454259018E+04  0.12699999809E+01 0.  1.
       -4    1    3    3    0  502  0.18156250101E+03  0.15756343485E+03 -0.11300893061E+03  0.26563849321E+03  0.12699999809E+01 0. -1.
</event>
<event>
 5   0  0.1989298E-02  0.8015925E+03  0.7818609E-02  0.9557715E-01
       -1   -1    0    0    0  501  0.00000000000E+00  0.00000000000E+00  0.88363410037E+02  0.88363410181E+02  0.50400001928E-02 0. -1.
        1   -1    0    0  501    0  0.00000000000E+00  0.00000000000E+00 -0.18179202568E+04  0.18179202568E+04  0.50400001928E-02 0.  1.
    10030    2    1    2    0    0  0.00000000000E+00  0.00000000000E+00 -0.17295568468E+04  0.19062836670E+04  0.80159249800E+03 0.  0.
        1    1    3    3  502    0 -0.14703565322E+03  0.20969891110E+03 -0.15979361499E+04  0.16183303296E+04  0.50400001928E-02 0.  1.
       -1    1    3    3    0  502  0.14703565322E+03 -0.20969891110E+03 -0.13162069689E+03  0.28795333738E+03  0.50400001928E-02 0. -1.
</event>
<event>
 5   0  0.2132540E-02  0.7998103E+03  0.7818609E-02  0.9560292E-01
       -1   -1    0    0    0  501  0.00000000000E+00  0.00000000000E+00  0.56140665417E+03  0.56140665419E+03  0.50400001928E-02 0.  1.
        1   -1    0    0  501    0  0.00000000000E+00  0.00000000000E+00 -0.28486325391E+03  0.28486325395E+03  0.50400001928E-02 0. -1.
    10030    2    1    2    0    0  0.00000000000E+00  0.00000000000E+00  0.27654340026E+03  0.84626990815E+03  0.79981029326E+03 0.  0.
        4    1    3    3  502    0  0.29601589764E+02 -0.38369765023E+03  0.23224983498E+02  0.38554008050E+03  0.12699999809E+01 0.  1.
       -4    1    3    3    0  502 -0.29601589764E+02  0.38369765023E+03  0.25331841677E+03  0.46072982765E+03  0.12699999809E+01 0. -1.
</event>
<event>
 5   0  0.3343036E-02  0.7941542E+03  0.7818609E-02  0.9568517E-01
        2   -1    0    0  501    0  0.00000000000E+00  0.00000000000E+00  0.30967962120E+03  0.30967962121E+03  0.25500000920E-02 0.  1.
       -2   -1    0    0    0  501  0.00000000000E+00  0.00000000000E+00 -0.50913985227E+03  0.50913985228E+03  0.25500000920E-02 0. -1.
    10030    2    1    2    0    0  0.00000000000E+00  0.00000000000E+00 -0.19946023107E+03  0.81881947349E+03  0.79415423338E+03 0.  0.
        4    1    3    3  502    0 -0.15646054125E+03  0.34836235388E+03  0.12425133117E+02  0.38208929245E+03  0.12699999809E+01 0.  1.
       -4    1    3    3    0  502  0.15646054125E+03 -0.34836235388E+03 -0.21188536418E+03  0.43673018104E+03  0.12699999809E+01 0. -1.
</event>
<event>
 5   0  0.3343036E-02  0.7910115E+03  0.7818609E-02  0.9573119E-01
       -2   -1    0    0    0  501  0.00000000000E+00  0.00000000000E+00  0.25490716889E+03  0.25490716890E+03  0.25500000920E-02 0.  1.
        2   -1    0    0  501    0  0.00000000000E+00  0.00000000000E+00 -0.61365401613E+03  0.61365401613E+03  0.25500000920E-02 0. -1.
    10030    2    1    2    0    0  0.00000000000E+00  0.00000000000E+00 -0.35874684724E+03  0.86856118504E+03  0.79101152441E+03 0.  0.
        4    1    3    3  502    0 -0.15247746353E+03  0.38650156387E+02 -0.57782677895E+03  0.59885608525E+03  0.12699999809E+01 0. -1.
       -4    1    3    3    0  502  0.15247746353E+03 -0.38650156387E+02  0.21907993171E+03  0.26970509979E+03  0.12699999809E+01 0.  1.
</event>
<event>
 5   0  0.3404132E-02  0.8297030E+03  0.7818609E-02  0.9517991E-01
        2   -1    0    0  501    0  0.00000000000E+00  0.00000000000E+00  0.62587627389E+03  0.62587627389E+03  0.25500000920E-02 0.  1.
       -2   -1    0    0    0  501  0.00000000000E+00  0.00000000000E+00 -0.27497732972E+03  0.27497732974E+03  0.25500000920E-02 0. -1.
    10030    2    1    2    0    0  0.00000000000E+00  0.00000000000E+00  0.35089894416E+03  0.90085360363E+03  0.82970304697E+03 0.  0.
        5    1    3    3  502    0  0.56242113538E+02 -0.40609734194E+03  0.24413121725E+03  0.47717959690E+03  0.46999998093E+01 0.  1.
       -5    1    3    3    0  502 -0.56242113538E+02  0.40609734194E+03  0.10676772692E+03  0.42367400673E+03  0.46999998093E+01 0. -1.
</event>
<event>
 5   0  0.3416160E-02  0.8047362E+03  0.7818609E-02  0.9553187E-01
        2   -1    0    0  501    0  0.00000000000E+00  0.00000000000E+00  0.11189067961E+04  0.11189067961E+04  0.25500000920E-02 0. -1.
       -2   -1    0    0    0  501  0.00000000000E+00  0.00000000000E+00 -0.14469488122E+03  0.14469488124E+03  0.25500000920E-02 0.  1.
    10030    2    1    2    0    0  0.00000000000E+00  0.00000000000E+00  0.97421191488E+03  0.12636016773E+04  0.80473619521E+03 0.  0.
        1    1    3    3  502    0 -0.63617885092E+02 -0.32761376522E+03  0.84004299241E+03  0.90390831592E+03  0.50400001928E-02 0. -1.
       -1    1    3    3    0  502  0.63617885092E+02  0.32761376522E+03  0.13416892247E+03  0.35969336142E+03  0.50400001928E-02 0.  1.
</event>
<event>
 5   0  0.2077795E-02  0.6905674E+03  0.7818609E-02  0.9733501E-01
        1   -1    0    0  501    0  0.00000000000E+00  0.00000000000E+00  0.10831766507E+04  0.10831766508E+04  0.50400001928E-02 0.  1.
       -1   -1    0    0    0  501  0.00000000000E+00  0.00000000000E+00 -0.11006591851E+03  0.11006591863E+03  0.50400001928E-02 0. -1.
    10030    2    1    2    0    0  0.00000000000E+00  0.00000000000E+00  0.97311073223E+03  0.11932425694E+04  0.69056739874E+03 0.  0.
        5    1    3    3  502    0  0.14110359365E+03 -0.23810298574E+03  0.12993637970E+03  0.30579210050E+03  0.46999998093E+01 0. -1.
       -5    1    3    3    0  502 -0.14110359365E+03  0.23810298574E+03  0.84317435253E+03  0.88745046888E+03  0.46999998093E+01 0.  1.
</event>
<event>
 5   0  0.3404132E-02  0.7891907E+03  0.7818609E-02  0.9575796E-01
        2   -1    0    0  501    0  0.00000000000E+00  0.00000000000E+00  0.13708117456E+04  0.13708117456E+04  0.25500000920E-02 0.  1.
       -2   -1    0    0    0  501  0.00000000000E+00  0.00000000000E+00 -0.11358634229E+03  0.11358634232E+03  0.25500000920E-02 0. -1.
    10030    2    1    2    0    0  0.00000000000E+00  0.00000000000E+00  0.12572254033E+04  0.14843980880E+04  0.78919070492E+03 0.  0.
        5    1    3    3  502    0  0.11093076487E+03 -0.33748689554E+03  0.95156236613E+03  0.10157244045E+04  0.46999998093E+01 0.  1.
       -5    1    3    3    0  502 -0.11093076487E+03  0.33748689554E+03  0.30566303721E+03  0.46867368346E+03  0.46999998093E+01 0. -1.
</event>
<event>
 5   0  0.1358000E-02  0.7802245E+03  0.7818609E-02  0.9589091E-01
        4   -1    0    0  501    0  0.00000000000E+00  0.00000000000E+00  0.12026054954E+03  0.12026725521E+03  0.12699999809E+01 0.  1.
       -4   -1    0    0    0  501  0.00000000000E+00  0.00000000000E+00 -0.12654398730E+04  0.12654405103E+04  0.12699999809E+01 0. -1.
    10030    2    1    2    0    0  0.00000000000E+00  0.00000000000E+00 -0.11451793235E+04  0.13857077655E+04  0.78022453723E+03 0.  0.
        3    1    3    3  502    0  0.19489870213E+03  0.23636279601E+03 -0.14363092488E+03  0.33835296395E+03  0.10100000352E+00 0.  1.
       -3    1    3    3    0  502 -0.19489870213E+03 -0.23636279601E+03 -0.10015483986E+04  0.10473548016E+04  0.10100000352E+00 0. -1.
</event>
<event>
 5   0  0.3404132E-02  0.7890053E+03  0.7818609E-02  0.9576069E-01
       -2   -1    0    0    0  501  0.00000000000E+00  0.00000000000E+00  0.22529370062E+03  0.22529370063E+03  0.25500000920E-02 0. -1.
        2   -1    0    0  501    0  0.00000000000E+00  0.00000000000E+00 -0.69079756697E+03  0.69079756697E+03  0.25500000920E-02 0.  1.
    10030    2    1    2    0    0  0.00000000000E+00  0.00000000000E+00 -0.46550386635E+03  0.91609126760E+03  0.78900529846E+03 0.  0.
        5    1    3    3  502    0  0.33755550196E+03 -0.54680808824E+02 -0.44115921799E+01  0.34201646145E+03  0.46999998093E+01 0. -1.
       -5    1    3    3    0  502 -0.33755550196E+03  0.54680808824E+02 -0.46109227417E+03  0.57407480615E+03  0.46999998093E+01 0.  1.
</event>
<event>
 5   0  0.2129257E-02  0.7009038E+03  0.7818609E-02  0.9715688E-01
        1   -1    0    0  501    0  0.00000000000E+00  0.00000000000E+00  0.35910437210E+03  0.35910437214E+03  0.50400001928E-02 0. -1.
       -1   -1    0    0    0  501  0.00000000000E+00  0.00000000000E+00 -0.34200794806E+03  0.34200794810E+03  0.50400001928E-02 0.  1.
    10030    2    1    2    0    0  0.00000000000E+00  0.00000000000E+00  0.17096424042E+02  0.70111232024E+03  0.70090384353E+03 0.  0.
        3    1    3    3  502    0 -0.13014030476E+03 -0.19071910126E+03 -0.25517061319E+03  0.34412545175E+03  0.10100000352E+00 0.  1.
       -3    1    3    3    0  502  0.13014030476E+03  0.19071910126E+03  0.27226703723E+03  0.35698686849E+03  0.10100000352E+00 0. -1.
</event>
<event>
 5   0  0.2063692E-02  0.7888578E+03  0.7818609E-02  0.9576286E-01
        1   -1    0    0  501    0  0.00000000000E+00  0.00000000000E+00  0.57754703908E+03  0.57754703910E+03  0.50400001928E-02 0.  1.
       -1   -1    0    0    0  501  0.00000000000E+00  0.00000000000E+00 -0.26937053202E+03  0.26937053207E+03  0.50400001928E-02 0. -1.
    10030    2    1    2    0    0  0.00000000000E+00  0.00000000000E+00  0.30817650705E+03  0.84691757117E+03  0.78885779001E+03 0.  0.
        2    1    3    3  502    0  0.16956067763E+03 -0.30806538370E+03 -0.37720047135E+02  0.35366354915E+03  0.25500000920E-02 0. -1.
       -2    1    3    3    0  502 -0.16956067763E+03  0.30806538370E+03  0.34589655419E+03  0.49325402202E+03  0.25500000920E-02 0.  1.
</event>
<event>
 5   0  0.2129257E-02  0.7810673E+03  0.7818609E-02  0.9587833E-01
       -1   -1    0    0    0  501  0.00000000000E+00  0.00000000000E+00  0.10663249838E+03  0.10663249850E+03  0.50400001928E-02 0.  1.
        1   -1    0    0  501    0  0.00000000000E+00  0.00000000000E+00 -0.14303007991E+04  0.14303007991E+04  0.50400001928E-02 0. -1.
    10030    2    1    2    0    0  0.00000000000E+00  0.00000000000E+00 -0.13236683007E+04  0.15369332976E+04  0.78106734086E+03 0.  0.
        3    1    3    3  502    0 -0.15864529322E+03  0.21667922087E+02 -0.13627419897E+04  0.13721164559E+04  0.10100000352E+00 0. -1.
       -3    1    3    3    0  502  0.15864529322E+03 -0.21667922087E+02  0.39073689047E+02  0.16481684163E+03  0.10100000352E+00 0.  1.
</event>
<event>
 5   0  0.2129257E-02  0.7830490E+03  0.7818609E-02  0.9584882E-01
       -1   -1    0    0    0  501  0.00000000000E+00  0.00000000000E+00  0.15242675918E+04  0.15242675918E+04  0.50400001928E-02 0.  1.
        1   -1    0    0  501    0  0.00000000000E+00  0.00000000000E+00 -0.10056727437E+03  0.10056727450E+03  0.50400001928E-02 0. -1.
    10030    2    1    2    0    0  0.00000000000E+00  0.00000000000E+00  0.14237003174E+04  0.16248348663E+04  0.78304900798E+03 0.  0.
        3    1    3    3  502    0  0.16859323053E+03  0.69139140491E+02  0.14309169632E+04  0.14424726215E+04  0.10100000352E+00 0.  1.
       -3    1    3    3    0  502 -0.16859323053E+03 -0.69139140491E+02 -0.72166457943E+01  0.18236224474E+03  0.10100000352E+00 0. -1.
</event>
<event>
 5   0  0.3467240E-02  0.8024010E+03  0.7818609E-02  0.9556548E-01
       -2   -1    0    0    0  501  0.00000000000E+00  0.00000000000E+00  0.39742275861E+03  0.39742275862E+03  0.25500000920E-02 0. -1.
        2   -1    0    0  501    0  0.00000000000E+00  0.00000000000E+00 -0.40501417483E+03  0.40501417484E+03  0.25500000920E-02 0.  1.
    10030    2    1    2    0    0  0.00000000000E+00  0.00000000000E+00 -0.75914162202E+01  0.80243693346E+03  0.80240102354E+03 0.  0.
        2    1    3    3  502    0 -0.28048562396E+03  0.28574109333E+03  0.21537085109E+02  0.40097880705E+03  0.25500000920E-02 0.  1.
       -2    1    3    3    0  502  0.28048562396E+03 -0.28574109333E+03 -0.29128501329E+02  0.40145812641E+03  0.25500000920E-02 0. -1.
</event>
<event>
 5   0  0.2077795E-02  0.8054328E+03  0.7818609E-02  0.9552186E-01
        1   -1    0    0  501    0  0.00000000000E+00  0.00000000000E+00  0.54338027073E+03  0.54338027076E+03  0.50400001928E-02 0. -1.
       -1   -1    0    0    0  501  0.00000000000E+00  0.00000000000E+00 -0.29846592361E+03  0.29846592365E+03  0.50400001928E-02 0.  1.
    10030    2    1    2    0    0  0.00000000000E+00  0.00000000000E+00  0.24491434713E+03  0.84184619440E+03  0.80543278900E+03 0.  0.
        5    1    3    3  502    0 -0.29382514146E+03  0.12747443879E+03  0.37757284793E+03  0.49514269841E+03  0.46999998093E+01 0. -1.
       -5    1    3    3    0  502  0.29382514146E+03 -0.12747443879E+03 -0.13265850080E+03  0.34670349599E+03  0.46999998093E+01 0.  1.
</event>
<event>
 5   0  0.2063692E-02  0.7642861E+03  0.7818609E-02  0.9613200E-01
        1   -1    0    0  501    0  0.00000000000E+00  0.00000000000E+00  0.85903873106E+03  0.85903873108E+03  0.50400001928E-02 0.  1.
       -1   -1    0    0    0  501  0.00000000000E+00  0.00000000000E+00 -0.16999619488E+03  0.16999619495E+03  0.50400001928E-02 0. -1.
    10030    2    1    2    0    0  0.00000000000E+00  0.00000000000E+00  0.68904253618E+03  0.10290349260E+04  0.76428611286E+03 0.  0.
        2    1    3    3  502    0  0.10657479334E+03 -0.34812882364E+02 -0.14735390308E+03  0.18515749003E+03  0.25500000920E-02 0. -1.
       -2    1    3    3    0  502 -0.10657479334E+03  0.34812882364E+02  0.83639643927E+03  0.84387743599E+03  0.25500000920E-02 0.  1.
</event>
<event>
 5   0  0.2129257E-02  0.7906558E+03  0.7818609E-02  0.9573642E-01
        1   -1    0    0  501    0  0.00000000000E+00  0.00000000000E+00  0.24189770250E+04  0.24189770250E+04  0.50400001928E-02 0. -1.
       -1   -1    0    0    0  501  0.00000000000E+00  0.00000000000E+00 -0.64607536178E+02  0.64607536374E+02  0.50400001928E-02 0.  1.
    10030    2    1    2    0    0  0.00000000000E+00  0.00000000000E+00  0.23543694888E+04  0.24835845614E+04  0.79065579339E+03 0.  0.
        3    1    3    3  502    0  0.14805617406E+03 -0.99014060941E+01  0.23281803291E+04  0.23329042680E+04  0.10100000352E+00 0. -1.
       -3    1    3    3    0  502 -0.14805617406E+03  0.99014060941E+01  0.26189159672E+02  0.15068029336E+03  0.10100000352E+00 0.  1.
</event>
<event>
 5   0  0.3416160E-02  0.9554656E+03  0.7818609E-02  0.9358785E-01
        2   -1    0    0  501    0  0.00000000000E+00  0.00000000000E+00  0.10696344886E+04  0.10696344886E+04  0.25500000920E-02 0. -1.
       -2   -1    0    0    0  501  0.00000000000E+00  0.00000000000E+00 -0.21337069120E+03  0.21337069122E+03  0.25500000920E-02 0.  1.
    10030    2    1    2    0    0  0.00000000000E+00  0.00000000000E+00  0.85626379742E+03  0.12830051798E+04  0.95546564602E+03 0.  0.
        1    1    3    3  502    0 -0.15875826750E+03 -0.21542831642E+01 -0.17690596541E+03  0.23770685530E+03  0.50400001928E-02 0.  1.
       -1    1    3    3    0  502  0.15875826750E+03  0.21542831642E+01  0.10331697628E+04  0.10452983245E+04  0.50400001928E-02 0. -1.
</event>
<event>
 5   0  0.3467240E-02  0.7937077E+03  0.7818609E-02  0.9569170E-01
        2   -1    0    0  501    0  0.00000000000E+00  0.00000000000E+00  0.48387068058E+03  0.48387068059E+03  0.25500000920E-02 0. -1.
       -2   -1    0    0    0  501  0.00000000000E+00  0.00000000000E+00 -0.32548571795E+03  0.32548571796E+03  0.25500000920E-02 0.  1.
    10030    2    1    2    0    0  0.00000000000E+00  0.00000000000E+00  0.15838496263E+03  0.80935639855E+03  0.79370774438E+03 0.  0.
        2    1    3    3  502    0  0.24572702064E+03  0.11286630593E+03 -0.21700369674E+03  0.34671483397E+03  0.25500000920E-02 0.  1.
       -2    1    3    3    0  502 -0.24572702064E+03 -0.11286630593E+03  0.37538865937E+03  0.46264156458E+03  0.25500000920E-02 0. -1.
</event>
<event>
 5   0  0.2129257E-02  0.7976194E+03  0.7818609E-02  0.9563469E-01
       -1   -1    0    0    0  501  0.00000000000E+00  0.00000000000E+00  0.43111070262E+03  0.43111070265E+03  0.50400001928E-02 0. -1.
        1   -1    0    0  501    0  0.00000000000E+00  0.00000000000E+00 -0.36892881915E+03  0.36892881919E+03  0.50400001928E-02 0.  1.
    10030    2    1    2    0    0  0.00000000000E+00  0.00000000000E+00  0.62181883465E+02  0.80003952184E+03  0.79761936403E+03 0.  0.
        3    1    3    3  502    0  0.58432840994E+02  0.45963047267E+02 -0.36191695771E+03  0.36947380570E+03  0.10100000352E+00 0.  1.
       -3    1    3    3    0  502 -0.58432840994E+02 -0.45963047267E+02  0.42409884118E+03  0.43056571613E+03  0.10100000352E+00 0. -1.
</event>
<event>
 5   0  0.3416160E-02  0.7765276E+03  0.7818609E-02  0.9594628E-01
        2   -1    0    0  501    0  0.00000000000E+00  0.00000000000E+00  0.64184660418E+03  0.64184660419E+03  0.25500000920E-02 0. -1.
       -2   -1    0    0    0  501  0.00000000000E+00  0.00000000000E+00 -0.23486730653E+03  0.23486730655E+03  0.25500000920E-02 0.  1.
    10030    2    1    2    0    0  0.00000000000E+00  0.00000000000E+00  0.40697929765E+03  0.87671391073E+03  0.77652761223E+03 0.  0.
        1    1    3    3  502    0 -0.22236307279E+03  0.26723549929E+03  0.39867806237E+03  0.52896535393E+03  0.50400001928E-02 0. -1.
       -1    1    3    3    0  502  0.22236307279E+03 -0.26723549929E+03  0.83012352817E+01  0.34774855680E+03  0.50400001928E-02 0.  1.
</event>
<event>
 5   0  0.1989298E-02  0.7935698E+03  0.7818609E-02  0.9569371E-01
       -1   -1    0    0    0  501  0.00000000000E+00  0.00000000000E+00  0.43601170127E+03  0.43601170130E+03  0.50400001928E-02 0. -1.
        1   -1    0    0  501    0  0.00000000000E+00  0.00000000000E+00 -0.36108726626E+03  0.36108726629E+03  0.50400001928E-02 0.  1.
    10030    2    1    2    0    0  0.00000000000E+00  0.00000000000E+00  0.74924435010E+02  0.79709896759E+03  0.79356984140E+03 0.  0.
        1    1    3    3  502    0 -0.14568345860E+03  0.33770643318E+03  0.18701683680E+03  0.41260707992E+03  0.50400001928E-02 0.  1.
       -1    1    3    3    0  502  0.14568345860E+03 -0.33770643318E+03 -0.11209240179E+03  0.38449188768E+03  0.50400001928E-02 0. -1.
</event>
<event>
 5   0  0.2129257E-02  0.7554945E+03  0.7818609E-02  0.9626770E-01
       -1   -1    0    0    0  501  0.00000000000E+00  0.00000000000E+00  0.80140041626E+03  0.80140041628E+03  0.50400001928E-02 0.  1.
        1   -1    0    0  501    0  0.00000000000E+00  0.00000000000E+00 -0.17805454178E+03  0.17805454185E+03  0.50400001928E-02 0. -1.
    10030    2    1    2    0    0  0.00000000000E+00  0.00000000000E+00  0.62334587448E+03  0.97945495812E+03  0.75549449750E+03 0.  0.
        3    1    3    3  502    0  0.35133061943E+03 -0.10958105256E+03  0.20127144342E+03  0.41946563073E+03  0.10100000352E+00 0. -1.
       -3    1    3    3    0  502 -0.35133061943E+03  0.10958105256E+03  0.42207443106E+03  0.55998932739E+03  0.10100000352E+00 0.  1.
</event>
<event>
 5   0  0.3343036E-02  0.7946338E+03  0.7818609E-02  0.9567817E-01
       -2   -1    0    0    0  501  0.00000000000E+00  0.00000000000E+00  0.13775125110E+03  0.13775125113E+03  0.25500000920E-02 0. -1.
        2   -1    0    0  501    0  0.00000000000E+00  0.00000000000E+00 -0.11459838535E+04  0.11459838535E+04  0.25500000920E-02 0.  1.
    10030    2    1    2    0    0  0.00000000000E+00  0.00000000000E+00 -0.10082326024E+04  0.12837351046E+04  0.79463377622E+03 0.  0.
        4    1    3    3  502    0 -0.39700403253E+03  0.43052834354E+01 -0.52852911353E+03  0.66104112887E+03  0.12699999809E+01 0. -1.
       -4    1    3    3    0  502  0.39700403253E+03 -0.43052834354E+01 -0.47970348885E+03  0.62269397574E+03  0.12699999809E+01 0.  1.
</event>
<event>
 5   0  0.3404132E-02  0.7742761E+03  0.7818609E-02  0.9598016E-01
        2   -1    0    0  501    0  0.00000000000E+00  0.00000000000E+00  0.76505439155E+03  0.76505439155E+03  0.25500000920E-02 0. -1.
       -2   -1    0    0    0  501  0.00000000000E+00  0.00000000000E+00 -0.19590226283E+03  0.19590226285E+03  0.25500000920E-02 0.  1.
    10030    2    1    2    0    0  0.00000000000E+00  0.00000000000E+00  0.56915212871E+03  0.96095665440E+03  0.77427614326E+03 0.  0.
        5    1    3    3  502    0 -0.89076375147E+01  0.12918907617E+03  0.73734005195E+03  0.74863983705E+03  0.46999998093E+01 0. -1.
       -5    1    3    3    0  502  0.89076375147E+01 -0.12918907617E+03 -0.16818792324E+03  0.21231681735E+03  0.46999998093E+01 0.  1.
</event>
<event>
 5   0  0.1358000E-02  0.8041307E+03  0.7818609E-02  0.9554057E-01
        3   -1    0    0  501    0  0.00000000000E+00  0.00000000000E+00  0.47986861423E+03  0.47986862486E+03  0.10100000352E+00 0. -1.
       -3   -1    0    0    0  501  0.00000000000E+00  0.00000000000E+00 -0.33687667122E+03  0.33687668636E+03  0.10100000352E+00 0.  1.
    10030    2    1    2    0    0  0.00000000000E+00  0.00000000000E+00  0.14299194301E+03  0.81674531122E+03  0.80413071552E+03 0.  0.
        4    1    3    3  502    0  0.10776853055E+03 -0.38195992370E+03  0.60846126850E+01  0.39692074133E+03  0.12699999809E+01 0.  1.
       -4    1    3    3    0  502 -0.10776853055E+03  0.38195992370E+03  0.13690733033E+03  0.41982456989E+03  0.12699999809E+01 0. -1.
</event>
<event>
 5   0  0.3416160E-02  0.8042972E+03  0.7818609E-02  0.9553818E-01
        2   -1    0    0  501    0  0.00000000000E+00  0.00000000000E+00  0.64424835121E+03  0.64424835122E+03  0.25500000920E-02 0. -1.
       -2   -1    0    0    0  501  0.00000000000E+00  0.00000000000E+00 -0.25102664315E+03  0.25102664316E+03  0.25500000920E-02 0.  1.
    10030    2    1    2    0    0  0.00000000000E+00  0.00000000000E+00  0.39322170806E+03  0.89527499438E+03  0.80429721116E+03 0.  0.
        1    1    3    3  502    0 -0.35617912739E+03 -0.94822706209E+02  0.37564102430E+03  0.52627093361E+03  0.50400001928E-02 0.  1.
       -1    1    3    3    0  502  0.35617912739E+03  0.94822706209E+02  0.17580683765E+02  0.36900406078E+03  0.50400001928E-02 0. -1.
</event>
<event>
 5   0  0.3404132E-02  0.8006487E+03  0.7818609E-02  0.9559079E-01
        2   -1    0    0  501    0  0.00000000000E+00  0.00000000000E+00  0.11831176558E+04  0.11831176558E+04  0.25500000920E-02 0. -1.
       -2   -1    0    0    0  501  0.00000000000E+00  0.00000000000E+00 -0.13545531256E+03  0.13545531259E+03  0.25500000920E-02 0.  1.
    10030    2    1    2    0    0  0.00000000000E+00  0.00000000000E+00  0.10476623433E+04  0.13185729684E+04  0.80064866674E+03 0.  0.
        5    1    3    3  502    0 -0.70028097956E+02 -0.27012019887E+03  0.51177437873E+02  0.28374297610E+03  0.46999998093E+01 0.  1.
       -5    1    3    3    0  502  0.70028097956E+02  0.27012019887E+03  0.99648490539E+03  0.10348299923E+04  0.46999998093E+01 0. -1.
</event>
<event>
 5   0  0.3343036E-02  0.7975397E+03  0.7818609E-02  0.9563585E-01
        2   -1    0    0  501    0  0.00000000000E+00  0.00000000000E+00  0.62516485630E+03  0.62516485630E+03  0.25500000920E-02 0.  1.
       -2   -1    0    0    0  501  0.00000000000E+00  0.00000000000E+00 -0.25436074775E+03  0.25436074776E+03  0.25500000920E-02 0. -1.
    10030    2    1    2    0    0  0.00000000000E+00  0.00000000000E+00  0.37080410855E+03  0.87952560406E+03  0.79753971769E+03 0.  0.
        4    1    3    3  502    0 -0.14952129566E+03 -0.33359031139E+03  0.97256173733E+01  0.36569839245E+03  0.12699999809E+01 0. -1.
       -4    1    3    3    0  502  0.14952129566E+03  0.33359031139E+03  0.36107849118E+03  0.51382721162E+03  0.12699999809E+01 0.  1.
</event>
<event>
 5   0  0.2129257E-02  0.6917188E+03  0.7818609E-02  0.9731500E-01
        1   -1    0    0  501    0  0.00000000000E+00  0.00000000000E+00  0.78998953044E+03  0.78998953046E+03  0.50400001928E-02 0. -1.
       -1   -1    0    0    0  501  0.00000000000E+00  0.00000000000E+00 -0.15141809324E+03  0.15141809332E+03  0.50400001928E-02 0.  1.
    10030    2    1    2    0    0  0.00000000000E+00  0.00000000000E+00  0.63857143721E+03  0.94140762378E+03  0.69171875332E+03 0.  0.
        3    1    3    3  502    0 -0.14767235567E+03 -0.28505222092E+03  0.14416544499E+03  0.35191700586E+03  0.10100000352E+00 0.  1.
       -3    1    3    3    0  502  0.14767235567E+03  0.28505222092E+03  0.49440599221E+03  0.58949061792E+03  0.10100000352E+00 0. -1.
</event>
<event>
 5   0  0.2129257E-02  0.8124426E+03  0.7818609E-02  0.9542180E-01
        1   -1    0    0  501    0  0.00000000000E+00  0.00000000000E+00  0.60045626423E+03  0.60045626425E+03  0.50400001928E-02 0.  1.
       -1   -1    0    0    0  501  0.00000000000E+00  0.00000000000E+00 -0.27481727255E+03  0.27481727259E+03  0.50400001928E-02 0. -1.
    10030    2    1    2    0    0  0.00000000000E+00  0.00000000000E+00  0.32563899168E+03  0.87527353684E+03  0.81244262037E+03 0.  0.
        3    1    3    3  502    0 -0.58424686884E+02 -0.23967689590E+03 -0.18487348528E+03  0.30828018786E+03  0.10100000352E+00 0. -1.
       -3    1    3    3    0  502  0.58424686884E+02  0.23967689590E+03  0.51051247696E+03  0.56699334899E+03  0.10100000352E+00 0.  1.
</event>
<event>
 5   0  0.3550586E-02  0.7899387E+03  0.7818609E-02  0.9574696E-01
        2   -1    0    0  501    0  0.00000000000E+00  0.00000000000E+00  0.35711498497E+03  0.35711498498E+03  0.25500000920E-02 0.  1.
       -2   -1    0    0    0  501  0.00000000000E+00  0.00000000000E+00 -0.43683628775E+03  0.43683628776E+03  0.25500000920E-02 0. -1.
    10030    2    1    2    0    0  0.00000000000E+00  0.00000000000E+00 -0.79721302776E+02  0.79395127274E+03  0.78993869216E+03 0.  0.
        3    1    3    3  502    0  0.34582444439E+03  0.44235273440E+02 -0.22640913571E+03  0.41570712369E+03  0.10100000352E+00 0.  1.
       -3    1    3    3    0  502 -0.34582444439E+03 -0.44235273440E+02  0.14668783294E+03  0.37824414905E+03  0.10100000352E+00 0. -1.
</event>
<event>
 5   0  0.3343036E-02  0.8180218E+03  0.7818609E-02  0.9534292E-01
        2   -1    0    0  501    0  0.00000000000E+00  0.00000000000E+00  0.32686245460E+03  0.32686245461E+03  0.25500000920E-02 0.  1.
       -2   -1    0    0    0  501  0.00000000000E+00  0.00000000000E+00 -0.51180521516E+03  0.51180521516E+03  0.25500000920E-02 0. -1.
    10030    2    1    2    0    0  0.00000000000E+00  0.00000000000E+00 -0.18494276056E+03  0.83866766977E+03  0.81802178188E+03 0.  0.
        4    1    3    3  502    0 -0.20515739058E+03 -0.27547270059E+03 -0.32014257659E+03  0.46953982358E+03  0.12699999809E+01 0. -1.
       -4    1    3    3    0  502  0.20515739058E+03  0.27547270059E+03  0.13519981603E+03  0.36912784619E+03  0.12699999809E+01 0.  1.
</event>
<event>
 5   0  0.2063692E-02  0.7518539E+03  0.7818609E-02  0.9632446E-01
       -1   -1    0    0    0  501  0.00000000000E+00  0.00000000000E+00  0.29753298127E+03  0.29753298131E+03  0.50400001928E-02 0. -1.
        1   -1    0    0  501    0  0.00000000000E+00  0.00000000000E+00 -0.47497618063E+03  0.47497618066E+03  0.50400001928E-02 0.  1.
    10030    2    1    2    0    0  0.00000000000E+00  0.00000000000E+00 -0.17744319936E+03  0.77250916197E+03  0.75185391954E+03 0.  0.
        2    1    3    3  502    0 -0.96313982592E+02 -0.16406373241E+03  0.24442005081E+03  0.30973287326E+03  0.25500000920E-02 0. -1.
       -2    1    3    3    0  502  0.96313982592E+02  0.16406373241E+03 -0.42186325017E+03  0.46277628870E+03  0.25500000920E-02 0.  1.
</event>
<event>
 5   0  0.1989298E-02  0.8466147E+03  0.7818609E-02  0.9494892E-01
        1   -1    0    0  501    0  0.00000000000E+00  0.00000000000E+00  0.12165471563E+04  0.12165471564E+04  0.50400001928E-02 0.  1.
       -1   -1    0    0    0  501  0.00000000000E+00  0.00000000000E+00 -0.14729319791E+03  0.14729319800E+03  0.50400001928E-02 0. -1.
    10030    2    1    2    0    0  0.00000000000E+00  0.00000000000E+00  0.10692539584E+04  0.13638403544E+04  0.84661472024E+03 0.  0.
        1    1    3    3  502    0  0.23635086208E+03 -0.32210648413E+02  0.10979700469E+04  0.11235824312E+04  0.50400001928E-02 0.  1.
       -1    1    3    3    0  502 -0.23635086208E+03  0.32210648413E+02 -0.28716088420E+02  0.24025792315E+03  0.50400001928E-02 0. -1.
</event>
<event>
 5   0  0.2063692E-02  0.7646001E+03  0.7818609E-02  0.9612720E-01
       -1   -1    0    0    0  501  0.00000000000E+00  0.00000000000E+00  0.13563117318E+03  0.13563117327E+03  0.50400001928E-02 0. -1.
        1   -1    0    0  501    0  0.00000000000E+00  0.00000000000E+00 -0.10775790720E+04  0.10775790720E+04  0.50400001928E-02 0.  1.
    10030    2    1    2    0    0  0.00000000000E+00  0.00000000000E+00 -0.94194789884E+03  0.12132102453E+04  0.76460006225E+03 0.  0.
        2    1    3    3  502    0 -0.21841103232E+03 -0.28983381689E+03 -0.28026110012E+03  0.45853386429E+03  0.25500000920E-02 0. -1.
       -2    1    3    3    0  502  0.21841103232E+03  0.28983381689E+03 -0.66168679872E+03  0.75467638102E+03  0.25500000920E-02 0.  1.
</event>
<event>
 5   0  0.1358000E-02  0.7709524E+03  0.7818609E-02  0.9603041E-01
       -3   -1    0    0    0  501  0.00000000000E+00  0.00000000000E+00  0.72329081990E+03  0.72329082695E+03  0.10100000352E+00 0. -1.
        3   -1    0    0  501    0  0.00000000000E+00  0.00000000000E+00 -0.20543864919E+03  0.20543867402E+03  0.10100000352E+00 0.  1.
    10030    2    1    2    0    0  0.00000000000E+00  0.00000000000E+00  0.51785217071E+03  0.92872950097E+03  0.77095240791E+03 0.  0.
        1    1    3    3  502    0 -0.48973200601E+02 -0.19801407782E+03 -0.13509639007E+03  0.24466095730E+03  0.50400001928E-02 0.  1.
       -1    1    3    3    0  502  0.48973200601E+02  0.19801407782E+03  0.65294856078E+03  0.68406854367E+03  0.50400001928E-02 0. -1.
</event>
<event>
 5   0  0.3343036E-02  0.7428380E+03  0.7818609E-02  0.9646654E-01
       -2   -1    0    0    0  501  0.00000000000E+00  0.00000000000E+00  0.20041983812E+03  0.20041983814E+03  0.25500000920E-02 0. -1.
        2   -1    0    0  501    0  0.00000000000E+00  0.00000000000E+00 -0.68831551268E+03  0.68831551268E+03  0.25500000920E-02 0.  1.
    10030    2    1    2    0    0  0.00000000000E+00  0.00000000000E+00 -0.48789567456E+03  0.88873535082E+03  0.74283802712E+03 0.  0.
        4    1    3    3  502    0  0.10029000459E+03 -0.29648554782E+03 -0.47005617160E+01  0.31302631401E+03  0.12699999809E+01 0. -1.
       -4    1    3    3    0  502 -0.10029000459E+03  0.29648554782E+03 -0.48319511284E+03  0.57570903680E+03  0.12699999809E+01 0.  1.
</event>
<event>
 5   0  0.3343036E-02  0.8127094E+03  0.7818609E-02  0.9541801E-01
       -2   -1    0    0    0  501  0.00000000000E+00  0.00000000000E+00  0.34368846742E+03  0.34368846743E+03  0.25500000920E-02 0. -1.
        2   -1    0    0  501    0  0.00000000000E+00  0.00000000000E+00 -0.48044720179E+03  0.48044720180E+03  0.25500000920E-02 0.  1.
    10030    2    1    2    0    0  0.00000000000E+00  0.00000000000E+00 -0.13675873437E+03  0.82413566923E+03  0.81270944984E+03 0.  0.
        4    1    3    3  502    0 -0.31984792137E+02  0.26022957186E+03 -0.38319556622E+03  0.46430906934E+03  0.12699999809E+01 0.  1.
       -4    1    3    3    0  502  0.31984792137E+02 -0.26022957186E+03  0.24643683185E+03  0.35982659989E+03  0.12699999809E+01 0. -1.
</event>
<event>
 5   0  0.3404132E-02  0.7848478E+03  0.7818609E-02  0.9582212E-01
       -2   -1    0    0    0  501  0.00000000000E+00  0.00000000000E+00  0.18120403698E+03  0.18120403699E+03  0.25500000920E-02 0. -1.
        2   -1    0    0  501    0  0.00000000000E+00  0.00000000000E+00 -0.84985153146E+03  0.84985153146E+03  0.25500000920E-02 0.  1.
    10030    2    1    2    0    0  0.00000000000E+00  0.00000000000E+00 -0.66864749448E+03  0.10310555685E+04  0.78484782816E+03 0.  0.
        5    1    3    3  502    0 -0.22461223594E+03  0.24018479005E+03 -0.61557564308E+03  0.69792180956E+03  0.46999998093E+01 0.  1.
       -5    1    3    3    0  502  0.22461223594E+03 -0.24018479005E+03 -0.53071851396E+02  0.33313375889E+03  0.46999998093E+01 0. -1.
</event>
<event>
 5   0  0.1358000E-02  0.7937455E+03  0.7818609E-02  0.9569115E-01
       -3   -1    0    0    0  501  0.00000000000E+00  0.00000000000E+00  0.57024105639E+03  0.57024106534E+03  0.10100000352E+00 0.  1.
        3   -1    0    0  501    0  0.00000000000E+00  0.00000000000E+00 -0.27621293533E+03  0.27621295380E+03  0.10100000352E+00 0. -1.
    10030    2    1    2    0    0  0.00000000000E+00  0.00000000000E+00  0.29402812106E+03  0.84645401913E+03  0.79374546961E+03 0.  0.
        5    1    3    3  502    0 -0.12639039674E+03  0.24497977396E+03 -0.15741838719E+03  0.31747796878E+03  0.46999998093E+01 0. -1.
       -5    1    3    3    0  502  0.12639039674E+03 -0.24497977396E+03  0.45144650825E+03  0.52897605035E+03  0.46999998093E+01 0.  1.
</event>
<event>
 5   0  0.2129257E-02  0.7821164E+03  0.7818609E-02  0.9586270E-01
       -1   -1    0    0    0  501  0.00000000000E+00  0.00000000000E+00  0.20953952760E+03  0.20953952766E+03  0.50400001928E-02 0.  1.
        1   -1    0    0  501    0  0.00000000000E+00  0.00000000000E+00 -0.72982170953E+03  0.72982170955E+03  0.50400001928E-02 0. -1.
    10030    2    1    2    0    0  0.00000000000E+00  0.00000000000E+00 -0.52028218193E+03  0.93936123722E+03  0.78211635014E+03 0.  0.
        3    1    3    3  502    0 -0.31092995482E+03 -0.20594959503E+03 -0.11887685342E+03  0.39143887004E+03  0.10100000352E+00 0.  1.
       -3    1    3    3    0  502  0.31092995482E+03  0.20594959503E+03 -0.40140532851E+03  0.54792236718E+03  0.10100000352E+00 0. -1.
</event>
<event>
 5   0  0.2063692E-02  0.8043987E+03  0.7818609E-02  0.9553672E-01
       -1   -1    0    0    0  501  0.00000000000E+00  0.00000000000E+00  0.16852176260E+03  0.16852176268E+03  0.50400001928E-02 0. -1.
        1   -1    0    0  501    0  0.00000000000E+00  0.00000000000E+00 -0.95990159673E+03  0.95990159675E+03  0.50400001928E-02 0.  1.
    10030    2    1    2    0    0  0.00000000000E+00  0.00000000000E+00 -0.79137983413E+03  0.11284233594E+04  0.80439867990E+03 0.  0.
        2    1    3    3  502    0  0.11835862819E+03 -0.90954009190E+02  0.12822555264E+03  0.19678208509E+03  0.25500000920E-02 0. -1.
       -2    1    3    3    0  502 -0.11835862819E+03  0.90954009190E+02 -0.91960538678E+03  0.93164127434E+03  0.25500000920E-02 0.  1.
</event>
<event>
 5   0  0.3416160E-02  0.7851690E+03  0.7818609E-02  0.9581736E-01
       -2   -1    0    0    0  501  0.00000000000E+00  0.00000000000E+00  0.16593950090E+03  0.16593950092E+03  0.25500000920E-02 0. -1.
        2   -1    0    0  501    0  0.00000000000E+00  0.00000000000E+00 -0.92878780699E+03  0.92878780700E+03  0.25500000920E-02 0.  1.
    10030    2    1    2    0    0  0.00000000000E+00  0.00000000000E+00 -0.76284830609E+03  0.10947273079E+04  0.78516898856E+03 0.  0.
        1    1    3    3  502    0 -0.21570192018E+02 -0.32402041940E+03 -0.68900898778E+03  0.76170065685E+03  0.50400001928E-02 0.  1.
       -1    1    3    3    0  502  0.21570192018E+02  0.32402041940E+03 -0.73839318306E+02  0.33302665107E+03  0.50400001928E-02 0. -1.
</event>
<event>
 5   0  0.2063692E-02  0.8004514E+03  0.7818609E-02  0.9559364E-01
        1   -1    0    0  501    0  0.00000000000E+00  0.00000000000E+00  0.52053335371E+03  0.52053335373E+03  0.50400001928E-02 0. -1.
       -1   -1    0    0    0  501  0.00000000000E+00  0.00000000000E+00 -0.30772398804E+03  0.30772398808E+03  0.50400001928E-02 0.  1.
    10030    2    1    2    0    0  0.00000000000E+00  0.00000000000E+00  0.21280936567E+03  0.82825734181E+03  0.80045137151E+03 0.  0.
        2    1    3    3  502    0  0.30467626993E+02  0.16198801853E+03 -0.27097289076E+03  0.31716667854E+03  0.25500000920E-02 0.  1.
       -2    1    3    3    0  502 -0.30467626993E+02 -0.16198801853E+03  0.48378225643E+03  0.51109066327E+03  0.25500000920E-02 0. -1.
</event>
<event>
 5   0  0.3343036E-02  0.7885599E+03  0.7818609E-02  0.9576725E-01
        2   -1    0    0  501    0  0.00000000000E+00  0.00000000000E+00  0.12424162480E+04  0.12424162480E+04  0.25500000920E-02 0. -1.
       -2   -1    0    0    0  501  0.00000000000E+00  0.00000000000E+00 -0.12512446060E+03  0.12512446062E+03  0.25500000920E-02 0.  1.
    10030    2    1    2    0    0  0.00000000000E+00  0.00000000000E+00  0.11172917874E+04  0.13675407087E+04  0.78855985922E+03 0.  0.
        4    1    3    3  502    0  0.42656173745E+02 -0.92879048490E+02 -0.10174800282E+03  0.14422321514E+03  0.12699999809E+01 0.  1.
       -4    1    3    3    0  502 -0.42656173745E+02  0.92879048490E+02  0.12190397903E+04  0.12233174935E+04  0.12699999809E+01 0. -1.
</event>
<event>
 5   0  0.1358000E-02  0.7767937E+03  0.7818609E-02  0.9594228E-01
        3   -1    0    0  501    0  0.00000000000E+00  0.00000000000E+00  0.39772486128E+03  0.39772487411E+03  0.10100000352E+00 0. -1.
       -3   -1    0    0    0  501  0.00000000000E+00  0.00000000000E+00 -0.37928762030E+03  0.37928763374E+03  0.10100000352E+00 0.  1.
    10030    2    1    2    0    0  0.00000000000E+00  0.00000000000E+00  0.18437240985E+02  0.77701250785E+03  0.77679373420E+03 0.  0.
        2    1    3    3  502    0 -0.95907796567E+02 -0.36203364876E+01  0.38567646379E+03  0.39743898526E+03  0.25500000920E-02 0. -1.
       -2    1    3    3    0  502  0.95907796567E+02  0.36203364876E+01 -0.36723922280E+03  0.37957352259E+03  0.25500000920E-02 0.  1.
</event>
<event>
 5   0  0.3467240E-02  0.7801485E+03  0.7818609E-02  0.9589204E-01
        2   -1    0    0  501    0  0.00000000000E+00  0.00000000000E+00  0.38361732553E+03  0.38361732554E+03  0.25500000920E-02 0. -1.
       -2   -1    0    0    0  501  0.00000000000E+00  0.00000000000E+00 -0.39663983619E+03  0.39663983620E+03  0.25500000920E-02 0.  1.
    10030    2    1    2    0    0  0.00000000000E+00  0.00000000000E+00 -0.13022510657E+02  0.78025716174E+03  0.78014848117E+03 0.  0.
        2    1    3    3  502    0 -0.36913999868E+03 -0.12473468682E+03  0.11789720985E+02  0.38982313714E+03  0.25500000920E-02 0.  1.
       -2    1    3    3    0  502  0.36913999868E+03  0.12473468682E+03 -0.24812231642E+02  0.39043402460E+03  0.25500000920E-02 0. -1.
</event>
<event>
 5   0  0.2132540E-02  0.8062118E+03  0.7818609E-02  0.9551069E-01
       -1   -1    0    0    0  501  0.00000000000E+00  0.00000000000E+00  0.26995590960E+03  0.26995590965E+03  0.50400001928E-02 0. -1.
        1   -1    0    0  501    0  0.00000000000E+00  0.00000000000E+00 -0.60192933455E+03  0.60192933457E+03  0.50400001928E-02 0.  1.
    10030    2    1    2    0    0  0.00000000000E+00  0.00000000000E+00 -0.33197342495E+03  0.87188524422E+03  0.80621183582E+03 0.  0.
        4    1    3    3  502    0 -0.33866343057E+03  0.61240781311E+02  0.60989442067E+02  0.34952063951E+03  0.12699999809E+01 0. -1.
       -4    1    3    3    0  502  0.33866343057E+03 -0.61240781311E+02 -0.39296286701E+03  0.52236460471E+03  0.12699999809E+01 0.  1.
</event>
<event>
 5   0  0.3343036E-02  0.7884008E+03  0.7818609E-02  0.9576960E-01
       -2   -1    0    0    0  501  0.00000000000E+00  0.00000000000E+00  0.29661436118E+03  0.29661436119E+03  0.25500000920E-02 0. -1.
        2   -1    0    0  501    0  0.00000000000E+00  0.00000000000E+00 -0.52389226878E+03  0.52389226878E+03  0.25500000920E-02 0.  1.
    10030    2    1    2    0    0  0.00000000000E+00  0.00000000000E+00 -0.22727790760E+03  0.82050662998E+03  0.78840083876E+03 0.  0.
        4    1    3    3  502    0  0.22797441247E+02 -0.45406940671E+02 -0.52046814232E+03  0.52294379589E+03  0.12699999809E+01 0.  1.
       -4    1    3    3    0  502 -0.22797441247E+02  0.45406940671E+02  0.29319023473E+03  0.29756283408E+03  0.12699999809E+01 0. -1.
</event>
<event>
 5   0  0.2129257E-02  0.7473431E+03  0.7818609E-02  0.9639528E-01
       -1   -1    0    0    0  501  0.00000000000E+00  0.00000000000E+00  0.90251500554E+02  0.90251500694E+02  0.50400001928E-02 0. -1.
        1   -1    0    0  501    0  0.00000000000E+00  0.00000000000E+00 -0.15471260042E+04  0.15471260042E+04  0.50400001928E-02 0.  1.
    10030    2    1    2    0    0  0.00000000000E+00  0.00000000000E+00 -0.14568745036E+04  0.16373775049E+04  0.74734314352E+03 0.  0.
        3    1    3    3  502    0 -0.64148201940E+02 -0.36806303435E+03 -0.71373280959E+03  0.80560531450E+03  0.10100000352E+00 0. -1.
       -3    1    3    3    0  502  0.64148201940E+02  0.36806303435E+03 -0.74314169401E+03  0.83177219036E+03  0.10100000352E+00 0.  1.
</event>
<event>
 5   0  0.3404132E-02  0.7709045E+03  0.7818609E-02  0.9603113E-01
       -2   -1    0    0    0  501  0.00000000000E+00  0.00000000000E+00  0.15706905522E+03  0.15706905525E+03  0.25500000920E-02 0. -1.
        2   -1    0    0  501    0  0.00000000000E+00  0.00000000000E+00 -0.94591166665E+03  0.94591166665E+03  0.25500000920E-02 0.  1.
    10030    2    1    2    0    0  0.00000000000E+00  0.00000000000E+00 -0.78884261142E+03  0.11029807219E+04  0.77090453837E+03 0.  0.
        5    1    3    3  502    0 -0.33902113688E+03 -0.55146129535E+02 -0.14424274457E+03  0.37256474097E+03  0.46999998093E+01 0. -1.
       -5    1    3    3    0  502  0.33902113688E+03  0.55146129535E+02 -0.64459986685E+03  0.73041598093E+03  0.46999998093E+01 0.  1.
</event>
<event>
 5   0  0.3404132E-02  0.8042164E+03  0.7818609E-02  0.9553934E-01
       -2   -1    0    0    0  501  0.00000000000E+00  0.00000000000E+00  0.28341633593E+03  0.28341633594E+03  0.25500000920E-02 0. -1.
        2   -1    0    0  501    0  0.00000000000E+00  0.00000000000E+00 -0.57050698210E+03  0.57050698210E+03  0.25500000920E-02 0.  1.
    10030    2    1    2    0    0  0.00000000000E+00  0.00000000000E+00 -0.28709064617E+03  0.85392331804E+03  0.80421638504E+03 0.  0.
        5    1    3    3  502    0  0.33275213958E+03  0.22379230619E+03 -0.17471848773E+03  0.43744213635E+03  0.46999998093E+01 0. -1.
       -5    1    3    3    0  502 -0.33275213958E+03 -0.22379230619E+03 -0.11237215844E+03  0.41648118169E+03  0.46999998093E+01 0.  1.
</event>
<event>
 5   0  0.3416160E-02  0.7994601E+03  0.7818609E-02  0.9560799E-01
        2   -1    0    0  501    0  0.00000000000E+00  0.00000000000E+00  0.55012864712E+03  0.55012864713E+03  0.25500000920E-02 0.  1.
       -2   -1    0    0    0  501  0.00000000000E+00  0.00000000000E+00 -0.29044866095E+03  0.29044866096E+03  0.25500000920E-02 0. -1.
    10030    2    1    2    0    0  0.00000000000E+00  0.00000000000E+00  0.25967998618E+03  0.84057730809E+03  0.79946014013E+03 0.  0.
        1    1    3    3  502    0  0.38262629205E+03 -0.10435637318E+03  0.77363181583E+02  0.40407696530E+03  0.50400001928E-02 0. -1.
       -1    1    3    3    0  502 -0.38262629205E+03  0.10435637318E+03  0.18231680460E+03  0.43650034279E+03  0.50400001928E-02 0.  1.
</event>
<event>
 5   0  0.2063692E-02  0.8615451E+03  0.7818609E-02  0.9474971E-01
        1   -1    0    0  501    0  0.00000000000E+00  0.00000000000E+00  0.45482432813E+03  0.45482432816E+03  0.50400001928E-02 0.  1.
       -1   -1    0    0    0  501  0.00000000000E+00  0.00000000000E+00 -0.40799267378E+03  0.40799267381E+03  0.50400001928E-02 0. -1.
    10030    2    1    2    0    0  0.00000000000E+00  0.00000000000E+00  0.46831654351E+02  0.86281700197E+03  0.86154510912E+03 0.  0.
        2    1    3    3  502    0  0.40534044315E+03 -0.12793130923E+03 -0.46671051553E+02  0.42760435194E+03  0.25500000920E-02 0. -1.
       -2    1    3    3    0  502 -0.40534044315E+03  0.12793130923E+03  0.93502705904E+02  0.43521265004E+03  0.25500000920E-02 0.  1.
</event>
<event>
 5   0  0.2129257E-02  0.7694485E+03  0.7818609E-02  0.9605323E-01
        1   -1    0    0  501    0  0.00000000000E+00  0.00000000000E+00  0.70956332457E+03  0.70956332459E+03  0.50400001928E-02 0.  1.
       -1   -1    0    0    0  501  0.00000000000E+00  0.00000000000E+00 -0.20859695931E+03  0.20859695937E+03  0.50400001928E-02 0. -1.
    10030    2    1    2    0    0  0.00000000000E+00  0.00000000000E+00  0.50096636526E+03  0.91816028396E+03  0.76944850895E+03 0.  0.
        3    1    3    3  502    0  0.30683618381E+03 -0.13911320568E+03  0.28805060051E+02  0.33812818483E+03  0.10100000352E+00 0. -1.
       -3    1    3    3    0  502 -0.30683618381E+03  0.13911320568E+03  0.47216130521E+03  0.58003209913E+03  0.10100000352E+00 0.  1.
</event>
<event>
 5   0  0.1989298E-02  0.9085133E+03  0.7818609E-02  0.9415002E-01
       -1   -1    0    0    0  501  0.00000000000E+00  0.00000000000E+00  0.25758869336E+03  0.25758869341E+03  0.50400001928E-02 0. -1.
        1   -1    0    0  501    0  0.00000000000E+00  0.00000000000E+00 -0.80107978103E+03  0.80107978105E+03  0.50400001928E-02 0.  1.
    10030    2    1    2    0    0  0.00000000000E+00  0.00000000000E+00 -0.54349108767E+03  0.10586684745E+04  0.90851327808E+03 0.  0.
        1    1    3    3  502    0 -0.12507894663E+03 -0.11957575249E+03 -0.76116966127E+03  0.78059103039E+03  0.50400001928E-02 0.  1.
       -1    1    3    3    0  502  0.12507894663E+03  0.11957575249E+03  0.21767857359E+03  0.27807744407E+03  0.50400001928E-02 0. -1.
</event>
<event>
 5   0  0.3343036E-02  0.7884119E+03  0.7818609E-02  0.9576944E-01
       -2   -1    0    0    0  501  0.00000000000E+00  0.00000000000E+00  0.31854220283E+03  0.31854220284E+03  0.25500000920E-02 0.  1.
        2   -1    0    0  501    0  0.00000000000E+00  0.00000000000E+00 -0.48784218295E+03  0.48784218296E+03  0.25500000920E-02 0. -1.
    10030    2    1    2    0    0  0.00000000000E+00  0.00000000000E+00 -0.16929998013E+03  0.80638438580E+03  0.78841188118E+03 0.  0.
        4    1    3    3  502    0 -0.39229877918E+03 -0.30636373119E+02 -0.60450735949E+02  0.39811157215E+03  0.12699999809E+01 0. -1.
       -4    1    3    3    0  502  0.39229877918E+03  0.30636373119E+02 -0.10884924418E+03  0.40827281365E+03  0.12699999809E+01 0.  1.
</event>
<event>
 5   0  0.2077795E-02  0.8245132E+03  0.7818609E-02  0.9525198E-01
        1   -1    0    0  501    0  0.00000000000E+00  0.00000000000E+00  0.18315611866E+04  0.18315611866E+04  0.50400001928E-02 0.  1.
       -1   -1    0    0    0  501  0.00000000000E+00  0.00000000000E+00 -0.92792701599E+02  0.92792701736E+02  0.50400001928E-02 0. -1.
    10030    2    1    2    0    0  0.00000000000E+00  0.00000000000E+00  0.17387684850E+04  0.19243538884E+04  0.82451321588E+03 0.  0.
        5    1    3    3  502    0 -0.29964362256E+03 -0.10249314790E+02  0.20907636087E+03  0.36554939976E+03  0.46999998093E+01 0. -1.
       -5    1    3    3    0  502  0.29964362256E+03  0.10249314790E+02  0.15296921241E+04  0.15588044886E+04  0.46999998093E+01 0.  1.
</event>
<event>
 5   0  0.2132540E-02  0.8013347E+03  0.7818609E-02  0.9558087E-01
        1   -1    0    0  501    0  0.00000000000E+00  0.00000000000E+00  0.10155888839E+04  0.10155888839E+04  0.50400001928E-02 0. -1.
       -1   -1    0    0    0  501  0.00000000000E+00  0.00000000000E+00 -0.15807018012E+03  0.15807018020E+03  0.50400001928E-02 0.  1.
    10030    2    1    2    0    0  0.00000000000E+00  0.00000000000E+00  0.85751870378E+03  0.11736590641E+04  0.80133468130E+03 0.  0.
        4    1    3    3  502    0 -0.20708855438E+03  0.34256089591E+03  0.40343063811E+03  0.56832343734E+03  0.12699999809E+01 0. -1.
       -4    1    3    3    0  502  0.20708855438E+03 -0.34256089591E+03  0.45408806567E+03  0.60533562678E+03  0.12699999809E+01 0.  1.
</event>
<event>
 5   0  0.2063692E-02  0.8216879E+03  0.7818609E-02  0.9529145E-01
        1   -1    0    0  501    0  0.00000000000E+00  0.00000000000E+00  0.45008611819E+03  0.45008611821E+03  0.50400001928E-02 0.  1.
       -1   -1    0    0    0  501  0.00000000000E+00  0.00000000000E+00 -0.37502324245E+03  0.37502324249E+03  0.50400001928E-02 0. -1.
    10030    2    1    2    0    0  0.00000000000E+00  0.00000000000E+00  0.75062875735E+02  0.82510936070E+03  0.82168791022E+03 0.  0.
        2    1    3    3  502    0 -0.15049120953E+03  0.28597601236E+03  0.29228620722E+03  0.43573054831E+03  0.25500000920E-02 0.  1.
       -2    1    3    3    0  502  0.15049120953E+03 -0.28597601236E+03 -0.21722333149E+03  0.38937881239E+03  0.25500000920E-02 0. -1.
</event>
<event>
 5   0  0.3550586E-02  0.7943598E+03  0.7818609E-02  0.9568217E-01
       -2   -1    0    0    0  501  0.00000000000E+00  0.00000000000E+00  0.15980161326E+03  0.15980161328E+03  0.25500000920E-02 0.  1.
        2   -1    0    0  501    0  0.00000000000E+00  0.00000000000E+00 -0.98717314339E+03  0.98717314339E+03  0.25500000920E-02 0. -1.
    10030    2    1    2    0    0  0.00000000000E+00  0.00000000000E+00 -0.82737153013E+03  0.11469747567E+04  0.79435976961E+03 0.  0.
        3    1    3    3  502    0 -0.85480173899E+02 -0.22102703731E+03 -0.87390679265E+03  0.90546833396E+03  0.10100000352E+00 0. -1.
       -3    1    3    3    0  502  0.85480173899E+02  0.22102703731E+03  0.46535262527E+02  0.24150642271E+03  0.10100000352E+00 0.  1.
</event>
<event>
 5   0  0.3343036E-02  0.8025671E+03  0.7818609E-02  0.9556309E-01
        2   -1    0    0  501    0  0.00000000000E+00  0.00000000000E+00  0.13789153048E+04  0.13789153048E+04  0.25500000920E-02 0.  1.
       -2   -1    0    0    0  501  0.00000000000E+00  0.00000000000E+00 -0.11677910694E+03  0.11677910697E+03  0.25500000920E-02 0. -1.
    10030    2    1    2    0    0  0.00000000000E+00  0.00000000000E+00  0.12621361979E+04  0.14956944118E+04  0.80256712582E+03 0.  0.
        4    1    3    3  502    0 -0.17489461179E+02  0.24457425646E+03  0.12230611867E+04  0.12473983837E+04  0.12699999809E+01 0.  1.
       -4    1    3    3    0  502  0.17489461179E+02 -0.24457425646E+03  0.39075011124E+02  0.24829602810E+03  0.12699999809E+01 0. -1.
</event>
<event>
 5   0  0.3416160E-02  0.8182953E+03  0.7818609E-02  0.9533907E-01
        2   -1    0    0  501    0  0.00000000000E+00  0.00000000000E+00  0.60061573001E+03  0.60061573001E+03  0.25500000920E-02 0.  1.
       -2   -1    0    0    0  501  0.00000000000E+00  0.00000000000E+00 -0.27871694427E+03  0.27871694428E+03  0.25500000920E-02 0. -1.
    10030    2    1    2    0    0  0.00000000000E+00  0.00000000000E+00  0.32189878573E+03  0.87933267429E+03  0.81829525467E+03 0.  0.
        1    1    3    3  502    0  0.25034847163E+03  0.30101510780E+03  0.28862838314E+03  0.48640599909E+03  0.50400001928E-02 0.  1.
       -1    1    3    3    0  502 -0.25034847163E+03 -0.30101510780E+03  0.33270402590E+02  0.39292667520E+03  0.50400001928E-02 0. -1.
</event>
<event>
 5   0  0.3550586E-02  0.7809477E+03  0.7818609E-02  0.9588011E-01
       -2   -1    0    0    0  501  0.00000000000E+00  0.00000000000E+00  0.28747154102E+03  0.28747154103E+03  0.25500000920E-02 0. -1.
        2   -1    0    0  501    0  0.00000000000E+00  0.00000000000E+00 -0.53038239568E+03  0.53038239569E+03  0.25500000920E-02 0.  1.
    10030    2    1    2    0    0  0.00000000000E+00  0.00000000000E+00 -0.24291085466E+03  0.81785393672E+03  0.78094774377E+03 0.  0.
        3    1    3    3  502    0  0.14019193551E+03 -0.47525361055E+02  0.25694752239E+03  0.29653748193E+03  0.10100000352E+00 0. -1.
       -3    1    3    3    0  502 -0.14019193551E+03  0.47525361055E+02 -0.49985837705E+03  0.52131645479E+03  0.10100000352E+00 0.  1.
</event>
<event>
 5   0  0.2077795E-02  0.7965504E+03  0.7818609E-02  0.9565024E-01
       -1   -1    0    0    0  501  0.00000000000E+00  0.00000000000E+00  0.59688900207E+03  0.59688900209E+03  0.50400001928E-02 0.  1.
        1   -1    0    0  501    0  0.00000000000E+00  0.00000000000E+00 -0.26574977448E+03  0.26574977452E+03  0.50400001928E-02 0. -1.
    10030    2    1    2    0    0  0.00000000000E+00  0.00000000000E+00  0.33113922760E+03  0.86263877662E+03  0.79655035677E+03 0.  0.
        5    1    3    3  502    0  0.35836753750E+03  0.13652771336E+03  0.28187616916E+03  0.47596572690E+03  0.46999998093E+01 0.  1.
       -5    1    3    3    0  502 -0.35836753750E+03 -0.13652771336E+03  0.49263058440E+02  0.38667304971E+03  0.46999998093E+01 0. -1.
</event>
<event>
 5   0  0.2132540E-02  0.8070172E+03  0.7818609E-02  0.9549915E-01
       -1   -1    0    0    0  501  0.00000000000E+00  0.00000000000E+00  0.27761535994E+03  0.27761535998E+03  0.50400001928E-02 0.  1.
        1   -1    0    0  501    0  0.00000000000E+00  0.00000000000E+00 -0.58649202968E+03  0.58649202970E+03  0.50400001928E-02 0. -1.
    10030    2    1    2    0    0  0.00000000000E+00  0.00000000000E+00 -0.30887666974E+03  0.86410738968E+03  0.80701721406E+03 0.  0.
        4    1    3    3  502    0 -0.38332877990E+03 -0.12570517477E+03 -0.16370125065E+03  0.43536473999E+03  0.12699999809E+01 0. -1.
       -4    1    3    3    0  502  0.38332877990E+03  0.12570517477E+03 -0.14517541909E+03  0.42874264970E+03  0.12699999809E+01 0.  1.
</event>
<event>
 5   0  0.2077795E-02  0.8049835E+03  0.7818609E-02  0.9552832E-01
        1   -1    0    0  501    0  0.00000000000E+00  0.00000000000E+00  0.14990116478E+04  0.14990116478E+04  0.50400001928E-02 0.  1.
       -1   -1    0    0    0  501  0.00000000000E+00  0.00000000000E+00 -0.10807095233E+03  0.10807095245E+03  0.50400001928E-02 0. -1.
    10030    2    1    2    0    0  0.00000000000E+00  0.00000000000E+00  0.13909406954E+04  0.16070826002E+04  0.80498351892E+03 0.  0.
        5    1    3    3  502    0  0.19114540753E+03 -0.18724011213E+03  0.12956654183E+04  0.13230141316E+04  0.46999998093E+01 0.  1.
       -5    1    3    3    0  502 -0.19114540753E+03  0.18724011213E+03  0.95275277165E+02  0.28406846859E+03  0.46999998093E+01 0. -1.
</event>
<event>
 5   0  0.1989298E-02  0.7881218E+03  0.7818609E-02  0.9577371E-01
        1   -1    0    0  501    0  0.00000000000E+00  0.00000000000E+00  0.14855569874E+03  0.14855569882E+03  0.50400001928E-02 0.  1.
       -1   -1    0    0    0  501  0.00000000000E+00  0.00000000000E+00 -0.10452912677E+04  0.10452912678E+04  0.50400001928E-02 0. -1.
    10030    2    1    2    0    0  0.00000000000E+00  0.00000000000E+00 -0.89673556900E+03  0.11938469666E+04  0.78812175385E+03 0.  0.
        1    1    3    3  502    0 -0.10545409515E+03 -0.36758405758E+03 -0.30429946437E+03  0.48870928947E+03  0.50400001928E-02 0.  1.
       -1    1    3    3    0  502  0.10545409515E+03  0.36758405758E+03 -0.59243610463E+03  0.70513767710E+03  0.50400001928E-02 0. -1.
</event>
<event>
 5   0  0.3343036E-02  0.8055342E+03  0.7818609E-02  0.9552041E-01
        2   -1    0    0  501    0  0.00000000000E+00  0.00000000000E+00  0.14898689531E+04  0.14898689531E+04  0.25500000920E-02 0. -1.
       -2   -1    0    0    0  501  0.00000000000E+00  0.00000000000E+00 -0.10888294749E+03  0.10888294752E+03  0.25500000920E-02 0.  1.
    10030    2    1    2    0    0  0.00000000000E+00  0.00000000000E+00  0.13809860056E+04  0.15987519006E+04  0.80553416565E+03 0.  0.
        4    1    3    3  502    0 -0.38980073636E+03  0.12299385094E+02  0.89018899142E+03  0.97187136098E+03  0.12699999809E+01 0. -1.
       -4    1    3    3    0  502  0.38980073636E+03 -0.12299385094E+02  0.49079701419E+03  0.62688053964E+03  0.12699999809E+01 0.  1.
</event>
<event>
 5   0  0.3416160E-02  0.7840886E+03  0.7818609E-02  0.9583338E-01
       -2   -1    0    0    0  501  0.00000000000E+00  0.00000000000E+00  0.40631015597E+03  0.40631015598E+03  0.25500000920E-02 0. -1.
        2   -1    0    0  501    0  0.00000000000E+00  0.00000000000E+00 -0.37827932358E+03  0.37827932359E+03  0.25500000920E-02 0.  1.
    10030    2    1    2    0    0  0.00000000000E+00  0.00000000000E+00  0.28030832390E+02  0.78458947957E+03  0.78408859442E+03 0.  0.
        1    1    3    3  502    0 -0.31302548981E+03 -0.14985666830E+03  0.19649625310E+03  0.39881418707E+03  0.50400001928E-02 0. -1.
       -1    1    3    3    0  502  0.31302548981E+03  0.14985666830E+03 -0.16846542071E+03  0.38577529250E+03  0.50400001928E-02 0.  1.
</event>
<event>
 5   0  0.3467240E-02  0.8254243E+03  0.7818609E-02  0.9523928E-01
        2   -1    0    0  501    0  0.00000000000E+00  0.00000000000E+00  0.34758762776E+03  0.34758762777E+03  0.25500000920E-02 0.  1.
       -2   -1    0    0    0  501  0.00000000000E+00  0.00000000000E+00 -0.49003847530E+03  0.49003847530E+03  0.25500000920E-02 0. -1.
    10030    2    1    2    0    0  0.00000000000E+00  0.00000000000E+00 -0.14245084754E+03  0.83762610307E+03  0.82542428155E+03 0.  0.
        2    1    3    3  502    0  0.42549531452E+02 -0.37068725474E+03  0.10776738590E+03  0.38837264698E+03  0.25500000920E-02 0.  1.
       -2    1    3    3    0  502 -0.42549531452E+02  0.37068725474E+03 -0.25021823344E+03  0.44925345609E+03  0.25500000920E-02 0. -1.
</event>
<event>
 5   0  0.2129257E-02  0.9151112E+03  0.7818609E-02  0.9406886E-01
        1   -1    0    0  501    0  0.00000000000E+00  0.00000000000E+00  0.52142588830E+03  0.52142588832E+03  0.50400001928E-02 0.  1.
       -1   -1    0    0    0  501  0.00000000000E+00  0.00000000000E+00 -0.40150884712E+03  0.40150884715E+03  0.50400001928E-02 0. -1.
    10030    2    1    2    0    0  0.00000000000E+00  0.00000000000E+00  0.11991704118E+03  0.92293473547E+03  0.91511115673E+03 0.  0.
        3    1    3    3  502    0  0.28011714839E+03 -0.35774517472E+03  0.55541296645E+01  0.45439859750E+03  0.10100000352E+00 0. -1.
       -3    1    3    3    0  502 -0.28011714839E+03  0.35774517472E+03  0.11436291151E+03  0.46853613797E+03  0.10100000352E+00 0.  1.
</event>
<event>
 5   0  0.3550586E-02  0.8150287E+03  0.7818609E-02  0.9538515E-01
        2   -1    0    0  501    0  0.00000000000E+00  0.00000000000E+00  0.16997641950E+04  0.16997641950E+04  0.25500000920E-02 0.  1.
       -2   -1    0    0    0  501  0.00000000000E+00  0.00000000000E+00 -0.97700578874E+02  0.97700578907E+02  0.25500000920E-02 0. -1.
    10030    2    1    2    0    0  0.00000000000E+00  0.00000000000E+00  0.16020636161E+04  0.17974647739E+04  0.81502870092E+03 0.  0.
        3    1    3    3  502    0 -0.35869366876E+03  0.17814595268E+03  0.96710897402E+03  0.10467554186E+04  0.10100000352E+00 0. -1.
       -3    1    3    3    0  502  0.35869366876E+03 -0.17814595268E+03  0.63495464208E+03  0.75070935532E+03  0.10100000352E+00 0.  1.
</event>
<event>
 5   0  0.3404132E-02  0.7787819E+03  0.7818609E-02  0.9591248E-01
        2   -1    0    0  501    0  0.00000000000E+00  0.00000000000E+00  0.13594187582E+04  0.13594187582E+04  0.25500000920E-02 0. -1.
       -2   -1    0    0    0  501  0.00000000000E+00  0.00000000000E+00 -0.11153687872E+03  0.11153687875E+03  0.25500000920E-02 0.  1.
    10030    2    1    2    0    0  0.00000000000E+00  0.00000000000E+00  0.12478818795E+04  0.14709556370E+04  0.77878193402E+03 0.  0.
        5    1    3    3  502    0  0.33537830212E+03  0.18179957213E+03  0.47674194586E+03  0.61060188577E+03  0.46999998093E+01 0. -1.
       -5    1    3    3    0  502 -0.33537830212E+03 -0.18179957213E+03  0.77113993362E+03  0.86035375118E+03  0.46999998093E+01 0.  1.
</event>
<event>
 5   0  0.3416160E-02  0.8218477E+03  0.7818609E-02  0.9528921E-01
        2   -1    0    0  501    0  0.00000000000E+00  0.00000000000E+00  0.16102439919E+04  0.16102439919E+04  0.25500000920E-02 0.  1.
       -2   -1    0    0    0  501  0.00000000000E+00  0.00000000000E+00 -0.10486510756E+03  0.10486510759E+03  0.25500000920E-02 0. -1.
    10030    2    1    2    0    0  0.00000000000E+00  0.00000000000E+00  0.15053788843E+04  0.17151090995E+04  0.82184769740E+03 0.  0.
        1    1    3    3  502    0  0.68331750738E+02 -0.39952864406E+03  0.61167277504E+03  0.73378194944E+03  0.50400001928E-02 0. -1.
       -1    1    3    3    0  502 -0.68331750738E+02  0.39952864406E+03  0.89370610927E+03  0.98132715001E+03  0.50400001928E-02 0.  1.
</event>
<event>
 5   0  0.2129257E-02  0.7866555E+03  0.7818609E-02  0.9579536E-01
        1   -1    0    0  501    0  0.00000000000E+00  0.00000000000E+00  0.81689598217E+03  0.81689598219E+03  0.50400001928E-02 0.  1.
       -1   -1    0    0    0  501  0.00000000000E+00  0.00000000000E+00 -0.18938362619E+03  0.18938362626E+03  0.50400001928E-02 0. -1.
    10030    2    1    2    0    0  0.00000000000E+00  0.00000000000E+00  0.62751235598E+03  0.10062796084E+04  0.78665551130E+03 0.  0.
        3    1    3    3  502    0  0.21009639039E+03 -0.15090978758E+03 -0.65264305734E+02  0.26678398949E+03  0.10100000352E+00 0. -1.
       -3    1    3    3    0  502 -0.21009639039E+03  0.15090978758E+03  0.69277666172E+03  0.73949561896E+03  0.10100000352E+00 0.  1.
</event>
<event>
 5   0  0.2132540E-02  0.8125194E+03  0.7818609E-02  0.9542070E-01
        1   -1    0    0  501    0  0.00000000000E+00  0.00000000000E+00  0.45282935372E+03  0.45282935374E+03  0.50400001928E-02 0.  1.
       -1   -1    0    0    0  501  0.00000000000E+00  0.00000000000E+00 -0.36447935306E+03  0.36447935310E+03  0.50400001928E-02 0. -1.
    10030    2    1    2    0    0  0.00000000000E+00  0.00000000000E+00  0.88350000651E+02  0.81730870684E+03  0.81251941495E+03 0.  0.
        4    1    3    3  502    0  0.14862324264E+03 -0.20256077768E+03 -0.27696471418E+03  0.37393957093E+03  0.12699999809E+01 0. -1.
       -4    1    3    3    0  502 -0.14862324264E+03  0.20256077768E+03  0.36531471483E+03  0.44336913591E+03  0.12699999809E+01 0.  1.
</event>
<event>
 5   0  0.2129257E-02  0.7634942E+03  0.7818609E-02  0.9614415E-01
       -1   -1    0    0    0  501  0.00000000000E+00  0.00000000000E+00  0.10083677319E+03  0.10083677331E+03  0.50400001928E-02 0. -1.
        1   -1    0    0  501    0  0.00000000000E+00  0.00000000000E+00 -0.14452152770E+04  0.14452152770E+04  0.50400001928E-02 0.  1.
    10030    2    1    2    0    0  0.00000000000E+00  0.00000000000E+00 -0.13443785038E+04  0.15460520503E+04  0.76349419173E+03 0.  0.
        3    1    3    3  502    0  0.32062431240E+03 -0.20594067310E+03 -0.62604285852E+03  0.73289916185E+03  0.10100000352E+00 0. -1.
       -3    1    3    3    0  502 -0.32062431240E+03  0.20594067310E+03 -0.71833564530E+03  0.81315288848E+03  0.10100000352E+00 0.  1.
</event>
<event>
 5   0  0.3343036E-02  0.7969894E+03  0.7818609E-02  0.9564385E-01
       -2   -1    0    0    0  501  0.00000000000E+00  0.00000000000E+00  0.66182989017E+02  0.66182989066E+02  0.25500000920E-02 0.  1.
        2   -1    0    0  501    0  0.00000000000E+00  0.00000000000E+00 -0.23993781255E+04  0.23993781255E+04  0.25500000920E-02 0. -1.
    10030    2    1    2    0    0  0.00000000000E+00  0.00000000000E+00 -0.23331951364E+04  0.24655611145E+04  0.79698937556E+03 0.  0.
        4    1    3    3  502    0  0.21788016276E+03 -0.33056580183E+03 -0.13066963240E+04  0.13653579789E+04  0.12699999809E+01 0.  1.
       -4    1    3    3    0  502 -0.21788016276E+03  0.33056580183E+03 -0.10264988125E+04  0.11002031356E+04  0.12699999809E+01 0. -1.
</event>
<event>
 5   0  0.3404132E-02  0.8078877E+03  0.7818609E-02  0.9548670E-01
       -2   -1    0    0    0  501  0.00000000000E+00  0.00000000000E+00  0.15273885684E+03  0.15273885686E+03  0.25500000920E-02 0.  1.
        2   -1    0    0  501    0  0.00000000000E+00  0.00000000000E+00 -0.10682982065E+04  0.10682982065E+04  0.25500000920E-02 0. -1.
    10030    2    1    2    0    0  0.00000000000E+00  0.00000000000E+00 -0.91555934964E+03  0.12210370633E+04  0.80788773190E+03 0.  0.
        5    1    3    3  502    0  0.35127232220E+03 -0.19386950766E+03 -0.52820038381E+03  0.66332146490E+03  0.46999998093E+01 0. -1.
       -5    1    3    3    0  502 -0.35127232220E+03  0.19386950766E+03 -0.38735896584E+03  0.55771559845E+03  0.46999998093E+01 0.  1.
</event>
<event>
 5   0  0.3467240E-02  0.8078874E+03  0.7818609E-02  0.9548670E-01
        2   -1    0    0  501    0  0.00000000000E+00  0.00000000000E+00  0.60591312124E+03  0.60591312125E+03  0.25500000920E-02 0.  1.
       -2   -1    0    0    0  501  0.00000000000E+00  0.00000000000E+00 -0.26929685289E+03  0.26929685291E+03  0.25500000920E-02 0. -1.
    10030    2    1    2    0    0  0.00000000000E+00  0.00000000000E+00  0.33661626835E+03  0.87520997415E+03  0.80788736018E+03 0.  0.
        2    1    3    3  502    0  0.19293244188E+03 -0.34996410725E+03  0.10446787338E+03  0.41305125598E+03  0.25500000920E-02 0. -1.
       -2    1    3    3    0  502 -0.19293244188E+03  0.34996410725E+03  0.23214839497E+03  0.46215871817E+03  0.25500000920E-02 0.  1.
</event>
<event>
 5   0  0.3550586E-02  0.9432451E+03  0.7818609E-02  0.9373081E-01
       -2   -1    0    0    0  501  0.00000000000E+00  0.00000000000E+00  0.62554390806E+03  0.62554390806E+03  0.25500000920E-02 0.  1.
        2   -1    0    0  501    0  0.00000000000E+00  0.00000000000E+00 -0.35557505809E+03  0.35557505810E+03  0.25500000920E-02 0. -1.
    10030    2    1    2    0    0  0.00000000000E+00  0.00000000000E+00  0.26996884997E+03  0.98111896616E+03  0.94324506137E+03 0.  0.
        3    1    3    3  502    0  0.10631077378E+03  0.30091903641E+03 -0.22619513337E+03  0.39117578613E+03  0.10100000352E+00 0. -1.
       -3    1    3    3    0  502 -0.10631077378E+03 -0.30091903641E+03  0.49616398334E+03  0.58994318003E+03  0.10100000352E+00 0.  1.
</event>
<event>
 5   0  0.3467240E-02  0.7917432E+03  0.7818609E-02  0.9572046E-01
        2   -1    0    0  501    0  0.00000000000E+00  0.00000000000E+00  0.92492597911E+03  0.92492597911E+03  0.25500000920E-02 0.  1.
       -2   -1    0    0    0  501  0.00000000000E+00  0.00000000000E+00 -0.16943444313E+03  0.16943444315E+03  0.25500000920E-02 0. -1.
    10030    2    1    2    0    0  0.00000000000E+00  0.00000000000E+00  0.75549153597E+03  0.10943604223E+04  0.79174318619E+03 0.  0.
        2    1    3    3  502    0  0.26389339874E+03 -0.50885540679E+01  0.78555512477E+03  0.82871133294E+03  0.25500000920E-02 0.  1.
       -2    1    3    3    0  502 -0.26389339874E+03  0.50885540679E+01 -0.30063588800E+02  0.26564908932E+03  0.25500000920E-02 0. -1.
</event>
<event>
 5   0  0.3550586E-02  0.8064736E+03  0.7818609E-02  0.9550694E-01
       -2   -1    0    0    0  501  0.00000000000E+00  0.00000000000E+00  0.82732166132E+02  0.82732166171E+02  0.25500000920E-02 0.  1.
        2   -1    0    0  501    0  0.00000000000E+00  0.00000000000E+00 -0.19653772479E+04  0.19653772479E+04  0.25500000920E-02 0. -1.
    10030    2    1    2    0    0  0.00000000000E+00  0.00000000000E+00 -0.18826450818E+04  0.20481094141E+04  0.80647360038E+03 0.  0.
        3    1    3    3  502    0  0.64938896491E+02 -0.33078127117E+03 -0.15032923193E+04  0.15406236131E+04  0.10100000352E+00 0. -1.
       -3    1    3    3    0  502 -0.64938896491E+02  0.33078127117E+03 -0.37935276245E+03  0.50748580100E+03  0.10100000352E+00 0.  1.
</event>
<event>
 5   0  0.3550586E-02  0.7919504E+03  0.7818609E-02  0.9571742E-01
        2   -1    0    0  501    0  0.00000000000E+00  0.00000000000E+00  0.86947928054E+03  0.86947928054E+03  0.25500000920E-02 0.  1.
       -2   -1    0    0    0  501  0.00000000000E+00  0.00000000000E+00 -0.18033363055E+03  0.18033363056E+03  0.25500000920E-02 0. -1.
    10030    2    1    2    0    0  0.00000000000E+00  0.00000000000E+00  0.68914564999E+03  0.10498129111E+04  0.79195039076E+03 0.  0.
        3    1    3    3  502    0  0.33463308441E+03 -0.20919246865E+03  0.38764079204E+03  0.55317825697E+03  0.10100000352E+00 0. -1.
       -3    1    3    3    0  502 -0.33463308441E+03  0.20919246865E+03  0.30150485795E+03  0.49663465414E+03  0.10100000352E+00 0.  1.
</event>
<event>
 5   0  0.3343036E-02  0.6813727E+03  0.7818609E-02  0.9749629E-01
       -2   -1    0    0    0  501  0.00000000000E+00  0.00000000000E+00  0.24359032207E+03  0.24359032209E+03  0.25500000920E-02 0. -1.
        2   -1    0    0  501    0  0.00000000000E+00  0.00000000000E+00 -0.47648520713E+03  0.47648520714E+03  0.25500000920E-02 0.  1.
    10030    2    1    2    0    0  0.00000000000E+00  0.00000000000E+00 -0.23289488506E+03  0.72007552922E+03  0.68137268826E+03 0.  0.
        4    1    3    3  502    0  0.57408142376E+02  0.31001424874E+03 -0.25285688145E+03  0.40415683172E+03  0.12699999809E+01 0. -1.
       -4    1    3    3    0  502 -0.57408142376E+02 -0.31001424874E+03  0.19961996396E+02  0.31591869750E+03  0.12699999809E+01 0.  1.
</event>
<event>
 5   0  0.2129257E-02  0.7921416E+03  0.7818609E-02  0.9571462E-01
        1   -1    0    0  501    0  0.00000000000E+00  0.00000000000E+00  0.12880138392E+04  0.12880138392E+04  0.50400001928E-02 0. -1.
       -1   -1    0    0    0  501  0.00000000000E+00  0.00000000000E+00 -0.12179376815E+03  0.12179376825E+03  0.50400001928E-02 0.  1.
    10030    2    1    2    0    0  0.00000000000E+00  0.00000000000E+00  0.11662200710E+04  0.14098076074E+04  0.79214155043E+03 0.  0.
        3    1    3    3  502    0 -0.28980283190E+03  0.22782143891E+02  0.10618816174E+04  0.11009528996E+04  0.10100000352E+00 0. -1.
       -3    1    3    3    0  502  0.28980283190E+03 -0.22782143891E+02  0.10433845358E+03  0.30885470784E+03  0.10100000352E+00 0.  1.
</event>
<event>
 5   0  0.2063692E-02  0.7876809E+03  0.7818609E-02  0.9578022E-01
       -1   -1    0    0    0  501  0.00000000000E+00  0.00000000000E+00  0.30142237216E+03  0.30142237220E+03  0.50400001928E-02 0.  1.
        1   -1    0    0  501    0  0.00000000000E+00  0.00000000000E+00 -0.51459446517E+03  0.51459446520E+03  0.50400001928E-02 0. -1.
    10030    2    1    2    0    0  0.00000000000E+00  0.00000000000E+00 -0.21317209302E+03  0.81601683740E+03  0.78768086030E+03 0.  0.
        2    1    3    3  502    0  0.65186873814E+02  0.29678737343E+03 -0.36615532766E+03  0.47581697903E+03  0.25500000920E-02 0. -1.
       -2    1    3    3    0  502 -0.65186873814E+02 -0.29678737343E+03  0.15298323465E+03  0.34019985837E+03  0.25500000920E-02 0.  1.
</event>
<event>
 5   0  0.2063692E-02  0.8042632E+03  0.7818609E-02  0.9553867E-01
       -1   -1    0    0    0  501  0.00000000000E+00  0.00000000000E+00  0.77768858064E+02  0.77768858227E+02  0.50400001928E-02 0.  1.
        1   -1    0    0  501    0  0.00000000000E+00  0.00000000000E+00 -0.20793646347E+04  0.20793646347E+04  0.50400001928E-02 0. -1.
    10030    2    1    2    0    0  0.00000000000E+00  0.00000000000E+00 -0.20015957766E+04  0.21571334929E+04  0.80426317414E+03 0.  0.
        2    1    3    3  502    0  0.27412522365E+03 -0.15688636383E+03 -0.16683819461E+04  0.16980153968E+04  0.25500000920E-02 0. -1.
       -2    1    3    3    0  502 -0.27412522365E+03  0.15688636383E+03 -0.33321383047E+03  0.45911809616E+03  0.25500000920E-02 0.  1.
</event>
<event>
 5   0  0.2129257E-02  0.8019970E+03  0.7818609E-02  0.9557131E-01
       -1   -1    0    0    0  501  0.00000000000E+00  0.00000000000E+00  0.12906898336E+03  0.12906898346E+03  0.50400001928E-02 0. -1.
        1   -1    0    0  501    0  0.00000000000E+00  0.00000000000E+00 -0.12458438216E+04  0.12458438216E+04  0.50400001928E-02 0.  1.
    10030    2    1    2    0    0  0.00000000000E+00  0.00000000000E+00 -0.11167748382E+04  0.13749128050E+04  0.80199699637E+03 0.  0.
        3    1    3    3  502    0  0.78950159803E+02 -0.45035047475E+02 -0.12279515092E+04  0.12313107660E+04  0.10100000352E+00 0.  1.
       -3    1    3    3    0  502 -0.78950159803E+02  0.45035047475E+02  0.11117667103E+03  0.14360203904E+03  0.10100000352E+00 0. -1.
</event>
<event>
 5   0  0.3416160E-02  0.8063665E+03  0.7818609E-02  0.9550847E-01
        2   -1    0    0  501    0  0.00000000000E+00  0.00000000000E+00  0.96496353117E+03  0.96496353117E+03  0.25500000920E-02 0.  1.
       -2   -1    0    0    0  501  0.00000000000E+00  0.00000000000E+00 -0.16845893833E+03  0.16845893835E+03  0.25500000920E-02 0. -1.
    10030    2    1    2    0    0  0.00000000000E+00  0.00000000000E+00  0.79650459284E+03  0.11334224695E+04  0.80636649731E+03 0.  0.
        1    1    3    3  502    0  0.11746271587E+03 -0.11163927267E+03 -0.12066812551E+03  0.20204359273E+03  0.50400001928E-02 0. -1.
       -1    1    3    3    0  502 -0.11746271587E+03  0.11163927267E+03  0.91717271835E+03  0.93137887679E+03  0.50400001928E-02 0.  1.
</event>
<event>
 5   0  0.2129257E-02  0.8012998E+03  0.7818609E-02  0.9558138E-01
       -1   -1    0    0    0  501  0.00000000000E+00  0.00000000000E+00  0.12397356012E+03  0.12397356022E+03  0.50400001928E-02 0. -1.
        1   -1    0    0  501    0  0.00000000000E+00  0.00000000000E+00 -0.12947948611E+04  0.12947948611E+04  0.50400001928E-02 0.  1.
    10030    2    1    2    0    0  0.00000000000E+00  0.00000000000E+00 -0.11708213009E+04  0.14187684213E+04  0.80129976571E+03 0.  0.
        3    1    3    3  502    0 -0.38003488149E+03  0.90235583273E+02 -0.74329418685E+03  0.83967566956E+03  0.10100000352E+00 0.  1.
       -3    1    3    3    0  502  0.38003488149E+03 -0.90235583273E+02 -0.42752711409E+03  0.57909275174E+03  0.10100000352E+00 0. -1.
</event>
<event>
 5   0  0.3550586E-02  0.7986896E+03  0.7818609E-02  0.9561916E-01
        2   -1    0    0  501    0  0.00000000000E+00  0.00000000000E+00  0.58496387469E+03  0.58496387470E+03  0.25500000920E-02 0. -1.
       -2   -1    0    0    0  501  0.00000000000E+00  0.00000000000E+00 -0.27262584924E+03  0.27262584925E+03  0.25500000920E-02 0.  1.
    10030    2    1    2    0    0  0.00000000000E+00  0.00000000000E+00  0.31233802545E+03  0.85758972395E+03  0.79868960960E+03 0.  0.
        3    1    3    3  502    0 -0.30298047275E+03  0.19467346363E+03 -0.29130228573E+02  0.36130804686E+03  0.10100000352E+00 0.  1.
       -3    1    3    3    0  502  0.30298047275E+03 -0.19467346363E+03  0.34146825402E+03  0.49628167709E+03  0.10100000352E+00 0. -1.
</event>
<event>
 5   0  0.1989298E-02  0.7979954E+03  0.7818609E-02  0.9562923E-01
        1   -1    0    0  501    0  0.00000000000E+00  0.00000000000E+00  0.56416873096E+03  0.56416873099E+03  0.50400001928E-02 0.  1.
       -1   -1    0    0    0  501  0.00000000000E+00  0.00000000000E+00 -0.28218358230E+03  0.28218358235E+03  0.50400001928E-02 0. -1.
    10030    2    1    2    0    0  0.00000000000E+00  0.00000000000E+00  0.28198514866E+03  0.84635231333E+03  0.79799537231E+03 0.  0.
        1    1    3    3  502    0 -0.11259889326E+03 -0.31645178294E+03  0.36940045819E+03  0.49927641666E+03  0.50400001928E-02 0.  1.
       -1    1    3    3    0  502  0.11259889326E+03  0.31645178294E+03 -0.87415309534E+02  0.34707589668E+03  0.50400001928E-02 0. -1.
</event>
<event>
 5   0  0.3343036E-02  0.7812823E+03  0.7818609E-02  0.9587513E-01
       -2   -1    0    0    0  501  0.00000000000E+00  0.00000000000E+00  0.22828311109E+03  0.22828311110E+03  0.25500000920E-02 0.  1.
        2   -1    0    0  501    0  0.00000000000E+00  0.00000000000E+00 -0.66847038590E+03  0.66847038591E+03  0.25500000920E-02 0. -1.
    10030    2    1    2    0    0  0.00000000000E+00  0.00000000000E+00 -0.44018727481E+03  0.89675349701E+03  0.78128227773E+03 0.  0.
        4    1    3    3  502    0  0.51218518406E+02  0.60133326207E+02 -0.65920594850E+03  0.66392277336E+03  0.12699999809E+01 0. -1.
       -4    1    3    3    0  502 -0.51218518406E+02 -0.60133326207E+02  0.21901867369E+03  0.23283072365E+03  0.12699999809E+01 0.  1.
</event>
<event>
 5   0  0.3343036E-02  0.7128337E+03  0.7818609E-02  0.9695533E-01
        2   -1    0    0  501    0  0.00000000000E+00  0.00000000000E+00  0.11950124915E+04  0.11950124915E+04  0.25500000920E-02 0. -1.
       -2   -1    0    0    0  501  0.00000000000E+00  0.00000000000E+00 -0.10630263256E+03  0.10630263259E+03  0.25500000920E-02 0.  1.
    10030    2    1    2    0    0  0.00000000000E+00  0.00000000000E+00  0.10887098589E+04  0.13013151241E+04  0.71283370799E+03 0.  0.
        4    1    3    3  502    0  0.32207879619E+03  0.12099599867E+03  0.71420564431E+03  0.79275853696E+03  0.12699999809E+01 0. -1.
       -4    1    3    3    0  502 -0.32207879619E+03 -0.12099599867E+03  0.37450421460E+03  0.50855658712E+03  0.12699999809E+01 0.  1.
</event>
<event>
 5   0  0.2077795E-02  0.8032879E+03  0.7818609E-02  0.9555270E-01
       -1   -1    0    0    0  501  0.00000000000E+00  0.00000000000E+00  0.13122449422E+03  0.13122449432E+03  0.50400001928E-02 0. -1.
        1   -1    0    0  501    0  0.00000000000E+00  0.00000000000E+00 -0.12293273729E+04  0.12293273729E+04  0.50400001928E-02 0.  1.
    10030    2    1    2    0    0  0.00000000000E+00  0.00000000000E+00 -0.10981028786E+04  0.13605518672E+04  0.80328790059E+03 0.  0.
        5    1    3    3  502    0  0.31128167005E+03  0.90800469364E+02 -0.95041431669E+03  0.10042163446E+04  0.46999998093E+01 0.  1.
       -5    1    3    3    0  502 -0.31128167005E+03 -0.90800469364E+02 -0.14768856195E+03  0.35633552261E+03  0.46999998093E+01 0. -1.
</event>
<event>
 5   0  0.2129257E-02  0.8848251E+03  0.7818609E-02  0.9444752E-01
       -1   -1    0    0    0  501  0.00000000000E+00  0.00000000000E+00  0.37418950325E+03  0.37418950328E+03  0.50400001928E-02 0. -1.
        1   -1    0    0  501    0  0.00000000000E+00  0.00000000000E+00 -0.52307421337E+03  0.52307421339E+03  0.50400001928E-02 0.  1.
    10030    2    1    2    0    0  0.00000000000E+00  0.00000000000E+00 -0.14888471012E+03  0.89726371667E+03  0.88482513546E+03 0.  0.
        3    1    3    3  502    0 -0.38423895529E+03 -0.15010961166E+03 -0.23655335705E+03  0.47553125156E+03  0.10100000352E+00 0.  1.
       -3    1    3    3    0  502  0.38423895529E+03  0.15010961166E+03  0.87668646931E+02  0.42173246511E+03  0.10100000352E+00 0. -1.
</event>
<event>
 5   0  0.2063692E-02  0.8042034E+03  0.7818609E-02  0.9553953E-01
       -1   -1    0    0    0  501  0.00000000000E+00  0.00000000000E+00  0.20853608616E+03  0.20853608622E+03  0.50400001928E-02 0. -1.
        1   -1    0    0  501    0  0.00000000000E+00  0.00000000000E+00 -0.77533714945E+03  0.77533714946E+03  0.50400001928E-02 0.  1.
    10030    2    1    2    0    0  0.00000000000E+00  0.00000000000E+00 -0.56680106329E+03  0.98387323569E+03  0.80420339377E+03 0.  0.
        2    1    3    3  502    0 -0.80005086244E+02 -0.19527717211E+02  0.19810806069E+03  0.21454358364E+03  0.25500000920E-02 0. -1.
       -2    1    3    3    0  502  0.80005086244E+02  0.19527717211E+02 -0.76490912398E+03  0.76932965204E+03  0.25500000920E-02 0.  1.
</event>
<event>
 5   0  0.3343036E-02  0.7820005E+03  0.7818609E-02  0.9586442E-01
       -2   -1    0    0    0  501  0.00000000000E+00  0.00000000000E+00  0.14332828073E+03  0.14332828075E+03  0.25500000920E-02 0. -1.
        2   -1    0    0  501    0  0.00000000000E+00  0.00000000000E+00 -0.10666505018E+04  0.10666505018E+04  0.25500000920E-02 0.  1.
    10030    2    1    2    0    0  0.00000000000E+00  0.00000000000E+00 -0.92332222104E+03  0.12099787825E+04  0.78200046695E+03 0.  0.
        4    1    3    3  502    0 -0.11071083758E+03  0.53663700323E+02  0.11259461469E+03  0.16678082158E+03  0.12699999809E+01 0. -1.
       -4    1    3    3    0  502  0.11071083758E+03 -0.53663700323E+02 -0.10359168357E+04  0.10431979610E+04  0.12699999809E+01 0.  1.
</event>
<event>
 5   0  0.2129257E-02  0.8064292E+03  0.7818609E-02  0.9550757E-01
       -1   -1    0    0    0  501  0.00000000000E+00  0.00000000000E+00  0.51523934806E+03  0.51523934809E+03  0.50400001928E-02 0. -1.
        1   -1    0    0  501    0  0.00000000000E+00  0.00000000000E+00 -0.31554658858E+03  0.31554658862E+03  0.50400001928E-02 0.  1.
    10030    2    1    2    0    0  0.00000000000E+00  0.00000000000E+00  0.19969275948E+03  0.83078593671E+03  0.80642921230E+03 0.  0.
        3    1    3    3  502    0 -0.81297201353E+02 -0.36565427780E+03 -0.53891288052E+02  0.37843964770E+03  0.10100000352E+00 0.  1.
       -3    1    3    3    0  502  0.81297201353E+02  0.36565427780E+03  0.25358404754E+03  0.45234628901E+03  0.10100000352E+00 0. -1.
</event>
<event>
 5   0  0.3467240E-02  0.7125811E+03  0.7818609E-02  0.9695955E-01
       -2   -1    0    0    0  501  0.00000000000E+00  0.00000000000E+00  0.96728214345E+02  0.96728214378E+02  0.25500000920E-02 0. -1.
        2   -1    0    0  501    0  0.00000000000E+00  0.00000000000E+00 -0.13123675516E+04  0.13123675516E+04  0.25500000920E-02 0.  1.
    10030    2    1    2    0    0  0.00000000000E+00  0.00000000000E+00 -0.12156393372E+04  0.14090957659E+04  0.71258113882E+03 0.  0.
        2    1    3    3  502    0  0.11856859238E+03 -0.15762294118E+01 -0.12722026287E+04  0.12777169186E+04  0.25500000920E-02 0.  1.
       -2    1    3    3    0  502 -0.11856859238E+03  0.15762294118E+01  0.56563291433E+02  0.13137884739E+03  0.25500000920E-02 0. -1.
</event>
<event>
 5   0  0.3343036E-02  0.7917985E+03  0.7818609E-02  0.9571965E-01
       -2   -1    0    0    0  501  0.00000000000E+00  0.00000000000E+00  0.24822024523E+03  0.24822024524E+03  0.25500000920E-02 0. -1.
        2   -1    0    0  501    0  0.00000000000E+00  0.00000000000E+00 -0.63144007787E+03  0.63144007787E+03  0.25500000920E-02 0.  1.
    10030    2    1    2    0    0  0.00000000000E+00  0.00000000000E+00 -0.38321983264E+03  0.87966032311E+03  0.79179848694E+03 0.  0.
        4    1    3    3  502    0 -0.15996407659E+03 -0.15400793985E+03 -0.55574151457E+03  0.59846235909E+03  0.12699999809E+01 0.  1.
       -4    1    3    3    0  502  0.15996407659E+03  0.15400793985E+03  0.17252168192E+03  0.28119796402E+03  0.12699999809E+01 0. -1.
</event>
<event>
 5   0  0.2077795E-02  0.7908685E+03  0.7818609E-02  0.9573329E-01
       -1   -1    0    0    0  501  0.00000000000E+00  0.00000000000E+00  0.28345302528E+03  0.28345302533E+03  0.50400001928E-02 0.  1.
        1   -1    0    0  501    0  0.00000000000E+00  0.00000000000E+00 -0.55165490875E+03  0.55165490878E+03  0.50400001928E-02 0. -1.
    10030    2    1    2    0    0  0.00000000000E+00  0.00000000000E+00 -0.26820188347E+03  0.83510793410E+03  0.79086851708E+03 0.  0.
        5    1    3    3  502    0 -0.43224070492E+02 -0.38238955947E+03 -0.23004651373E+03  0.44836768833E+03  0.46999998093E+01 0. -1.
       -5    1    3    3    0  502  0.43224070492E+02  0.38238955947E+03 -0.38155369742E+02  0.38674024577E+03  0.46999998093E+01 0.  1.
</event>
<event>
 5   0  0.1358000E-02  0.5850891E+03  0.7818609E-02  0.9936834E-01
        4   -1    0    0  501    0  0.00000000000E+00  0.00000000000E+00  0.32539818732E+03  0.32540066566E+03  0.12699999809E+01 0.  1.
       -4   -1    0    0    0  501  0.00000000000E+00  0.00000000000E+00 -0.26300295697E+03  0.26300602327E+03  0.12699999809E+01 0. -1.
    10030    2    1    2    0    0  0.00000000000E+00  0.00000000000E+00  0.62395230354E+02  0.58840668893E+03  0.58508911014E+03 0.  0.
        1    1    3    3  502    0  0.28941600819E+03 -0.37516558280E+02  0.51640165546E+02  0.29637109283E+03  0.50400001928E-02 0.  1.
       -1    1    3    3    0  502 -0.28941600819E+03  0.37516558280E+02  0.10755064808E+02  0.29203559610E+03  0.50400001928E-02 0. -1.
</event>
<event>
 5   0  0.3467240E-02  0.8127596E+03  0.7818609E-02  0.9541730E-01
       -2   -1    0    0    0  501  0.00000000000E+00  0.00000000000E+00  0.17298030903E+03  0.17298030905E+03  0.25500000920E-02 0. -1.
        2   -1    0    0  501    0  0.00000000000E+00  0.00000000000E+00 -0.95470141524E+03  0.95470141525E+03  0.25500000920E-02 0.  1.
    10030    2    1    2    0    0  0.00000000000E+00  0.00000000000E+00 -0.78172110621E+03  0.11276817243E+04  0.81275960986E+03 0.  0.
        2    1    3    3  502    0  0.28716000219E+02  0.33444678197E+02 -0.95137441378E+03  0.95239510203E+03  0.25500000920E-02 0.  1.
       -2    1    3    3    0  502 -0.28716000219E+02 -0.33444678197E+02  0.16965330757E+03  0.17528662226E+03  0.25500000920E-02 0. -1.
</event>
<event>
 5   0  0.3550586E-02  0.7911275E+03  0.7818609E-02  0.9572949E-01
       -2   -1    0    0    0  501  0.00000000000E+00  0.00000000000E+00  0.11034885376E+03  0.11034885379E+03  0.25500000920E-02 0. -1.
        2   -1    0    0  501    0  0.00000000000E+00  0.00000000000E+00 -0.14179636648E+04  0.14179636648E+04  0.25500000920E-02 0.  1.
    10030    2    1    2    0    0  0.00000000000E+00  0.00000000000E+00 -0.13076148111E+04  0.15283125186E+04  0.79112746155E+03 0.  0.
        3    1    3    3  502    0  0.19114190322E+02  0.38893238185E+03 -0.51945374961E+03  0.64920409588E+03  0.10100000352E+00 0. -1.
       -3    1    3    3    0  502 -0.19114190322E+02 -0.38893238185E+03 -0.78816106144E+03  0.87910842272E+03  0.10100000352E+00 0.  1.
</event>
<event>
 5   0  0.3404132E-02  0.8021570E+03  0.7818609E-02  0.9556900E-01
        2   -1    0    0  501    0  0.00000000000E+00  0.00000000000E+00  0.78573182169E+03  0.78573182170E+03  0.25500000920E-02 0. -1.
       -2   -1    0    0    0  501  0.00000000000E+00  0.00000000000E+00 -0.20473140270E+03  0.20473140271E+03  0.25500000920E-02 0.  1.
    10030    2    1    2    0    0  0.00000000000E+00  0.00000000000E+00  0.58100041899E+03  0.99046322441E+03  0.80215703702E+03 0.  0.
        5    1    3    3  502    0 -0.16685019605E+03 -0.33979893901E+03  0.45402686936E+03  0.59115547445E+03  0.46999998093E+01 0. -1.
       -5    1    3    3    0  502  0.16685019605E+03  0.33979893901E+03  0.12697354963E+03  0.39930774996E+03  0.46999998093E+01 0.  1.
</event>
<event>
 5   0  0.2063692E-02  0.7987913E+03  0.7818609E-02  0.9561768E-01
       -1   -1    0    0    0  501  0.00000000000E+00  0.00000000000E+00  0.15455629665E+03  0.15455629673E+03  0.50400001928E-02 0. -1.
        1   -1    0    0  501    0  0.00000000000E+00  0.00000000000E+00 -0.10320957039E+04  0.10320957039E+04  0.50400001928E-02 0.  1.
    10030    2    1    2    0    0  0.00000000000E+00  0.00000000000E+00 -0.87753940727E+03  0.11866520007E+04  0.79879131153E+03 0.  0.
        2    1    3    3  502    0  0.36380712791E+02 -0.24818482169E+03  0.22944541785E+02  0.25188432659E+03  0.25500000920E-02 0. -1.
       -2    1    3    3    0  502 -0.36380712791E+02  0.24818482169E+03 -0.90048394905E+03  0.93476767407E+03  0.25500000920E-02 0.  1.
</event>
<event>
 5   0  0.3467240E-02  0.7952356E+03  0.7818609E-02  0.9566939E-01
        2   -1    0    0  501    0  0.00000000000E+00  0.00000000000E+00  0.42786482692E+03  0.42786482693E+03  0.25500000920E-02 0.  1.
       -2   -1    0    0    0  501  0.00000000000E+00  0.00000000000E+00 -0.36950901153E+03  0.36950901153E+03  0.25500000920E-02 0. -1.
    10030    2    1    2    0    0  0.00000000000E+00  0.00000000000E+00  0.58355815397E+02  0.79737383846E+03  0.79523558590E+03 0.  0.
        2    1    3    3  502    0 -0.22885019909E+03  0.20653844199E+03 -0.22263350805E+03  0.38025809729E+03  0.25500000920E-02 0. -1.
       -2    1    3    3    0  502  0.22885019909E+03 -0.20653844199E+03  0.28098932344E+03  0.41711574118E+03  0.25500000920E-02 0.  1.
</event>
<event>
 5   0  0.1358000E-02  0.8110325E+03  0.7818609E-02  0.9544184E-01
        4   -1    0    0  501    0  0.00000000000E+00  0.00000000000E+00  0.28047528950E+03  0.28047816478E+03  0.12699999809E+01 0.  1.
       -4   -1    0    0    0  501  0.00000000000E+00  0.00000000000E+00 -0.58629610840E+03  0.58629748390E+03  0.12699999809E+01 0. -1.
    10030    2    1    2    0    0  0.00000000000E+00  0.00000000000E+00 -0.30582081890E+03  0.86677564868E+03  0.81103246043E+03 0.  0.
        5    1    3    3  502    0 -0.98539064514E+02  0.23141797029E+03  0.18700170855E+03  0.31345805654E+03  0.46999998093E+01 0.  1.
       -5    1    3    3    0  502  0.98539064514E+02 -0.23141797029E+03 -0.49282252745E+03  0.55331759214E+03  0.46999998093E+01 0. -1.
</event>
<event>
 5   0  0.3404132E-02  0.7959720E+03  0.7818609E-02  0.9565866E-01
        2   -1    0    0  501    0  0.00000000000E+00  0.00000000000E+00  0.38442667376E+03  0.38442667377E+03  0.25500000920E-02 0. -1.
       -2   -1    0    0    0  501  0.00000000000E+00  0.00000000000E+00 -0.41202355377E+03  0.41202355377E+03  0.25500000920E-02 0.  1.
    10030    2    1    2    0    0  0.00000000000E+00  0.00000000000E+00 -0.27596880002E+02  0.79645022755E+03  0.79597197009E+03 0.  0.
        5    1    3    3  502    0  0.33937610003E+03  0.23866247163E+02 -0.22038076474E+03  0.40538316010E+03  0.46999998093E+01 0.  1.
       -5    1    3    3    0  502 -0.33937610003E+03 -0.23866247163E+02  0.19278388474E+03  0.39106706745E+03  0.46999998093E+01 0. -1.
</event>
<event>
 5   0  0.2132540E-02  0.8322833E+03  0.7818609E-02  0.9514429E-01
        1   -1    0    0  501    0  0.00000000000E+00  0.00000000000E+00  0.35640024706E+03  0.35640024710E+03  0.50400001928E-02 0.  1.
       -1   -1    0    0    0  501  0.00000000000E+00  0.00000000000E+00 -0.48589714081E+03  0.48589714084E+03  0.50400001928E-02 0. -1.
    10030    2    1    2    0    0  0.00000000000E+00  0.00000000000E+00 -0.12949689375E+03  0.84229738794E+03  0.83228327163E+03 0.  0.
        4    1    3    3  502    0  0.91848149544E+02 -0.45802469871E+02  0.34338830175E+03  0.35840073591E+03  0.12699999809E+01 0.  1.
       -4    1    3    3    0  502 -0.91848149544E+02  0.45802469871E+02 -0.47288519550E+03  0.48389665203E+03  0.12699999809E+01 0. -1.
</event>
<event>
 5   0  0.2063692E-02  0.7987593E+03  0.7818609E-02  0.9561815E-01
       -1   -1    0    0    0  501  0.00000000000E+00  0.00000000000E+00  0.39005213635E+03  0.39005213638E+03  0.50400001928E-02 0. -1.
        1   -1    0    0  501    0  0.00000000000E+00  0.00000000000E+00 -0.40893025360E+03  0.40893025363E+03  0.50400001928E-02 0.  1.
    10030    2    1    2    0    0  0.00000000000E+00  0.00000000000E+00 -0.18878117252E+02  0.79898239002E+03  0.79875933563E+03 0.  0.
        2    1    3    3  502    0  0.13912530203E+03  0.81486243491E+01 -0.38381870051E+03  0.40833692536E+03  0.25500000920E-02 0.  1.
       -2    1    3    3    0  502 -0.13912530203E+03 -0.81486243491E+01  0.36494058326E+03  0.39064546466E+03  0.25500000920E-02 0. -1.
</event>
<event>
 5   0  0.1989298E-02  0.7916023E+03  0.7818609E-02  0.9572253E-01
        1   -1    0    0  501    0  0.00000000000E+00  0.00000000000E+00  0.37728508892E+03  0.37728508895E+03  0.50400001928E-02 0. -1.
       -1   -1    0    0    0  501  0.00000000000E+00  0.00000000000E+00 -0.41522595390E+03  0.41522595394E+03  0.50400001928E-02 0.  1.
    10030    2    1    2    0    0  0.00000000000E+00  0.00000000000E+00 -0.37940864983E+02  0.79251104289E+03  0.79160232685E+03 0.  0.
        1    1    3    3  502    0 -0.16942507148E+03 -0.22718793878E+03  0.25764249911E+03  0.38301288718E+03  0.50400001928E-02 0. -1.
       -1    1    3    3    0  502  0.16942507148E+03  0.22718793878E+03 -0.29558336409E+03  0.40949815571E+03  0.50400001928E-02 0.  1.
</event>
<event>
 5   0  0.3404132E-02  0.8111327E+03  0.7818609E-02  0.9544041E-01
       -2   -1    0    0    0  501  0.00000000000E+00  0.00000000000E+00  0.78659563046E+03  0.78659563046E+03  0.25500000920E-02 0.  1.
        2   -1    0    0  501    0  0.00000000000E+00  0.00000000000E+00 -0.20910879821E+03  0.20910879822E+03  0.25500000920E-02 0. -1.
    10030    2    1    2    0    0  0.00000000000E+00  0.00000000000E+00  0.57748683225E+03  0.99570442868E+03  0.81113270670E+03 0.  0.
        5    1    3    3  502    0 -0.12717560242E+03  0.36734109242E+03  0.43057099683E+03  0.58010911503E+03  0.46999998093E+01 0. -1.
       -5    1    3    3    0  502  0.12717560242E+03 -0.36734109242E+03  0.14691583541E+03  0.41559531365E+03  0.46999998093E+01 0.  1.
</event>
<event>
 5   0  0.2077795E-02  0.7985623E+03  0.7818609E-02  0.9562101E-01
       -1   -1    0    0    0  501  0.00000000000E+00  0.00000000000E+00  0.14280498985E+03  0.14280498994E+03  0.50400001928E-02 0. -1.
        1   -1    0    0  501    0  0.00000000000E+00  0.00000000000E+00 -0.11163855224E+04  0.11163855224E+04  0.50400001928E-02 0.  1.
    10030    2    1    2    0    0  0.00000000000E+00  0.00000000000E+00 -0.97358053252E+03  0.12591905123E+04  0.79856226621E+03 0.  0.
        5    1    3    3  502    0 -0.64202648365E+02  0.31589075409E+03 -0.11533443719E+03  0.34239315264E+03  0.46999998093E+01 0. -1.
       -5    1    3    3    0  502  0.64202648365E+02 -0.31589075409E+03 -0.85824609533E+03  0.91679735968E+03  0.46999998093E+01 0.  1.
</event>
<event>
 5   0  0.2129257E-02  0.7995622E+03  0.7818609E-02  0.9560651E-01
        1   -1    0    0  501    0  0.00000000000E+00  0.00000000000E+00  0.10747691278E+04  0.10747691278E+04  0.50400001928E-02 0. -1.
       -1   -1    0    0    0  501  0.00000000000E+00  0.00000000000E+00 -0.14870628215E+03  0.14870628223E+03  0.50400001928E-02 0.  1.
    10030    2    1    2    0    0  0.00000000000E+00  0.00000000000E+00  0.92606284568E+03  0.12234754101E+04  0.79956218326E+03 0.  0.
        3    1    3    3  502    0 -0.56107863736E+02 -0.21952808446E+03 -0.40963687391E+02  0.23025791219E+03  0.10100000352E+00 0.  1.
       -3    1    3    3    0  502  0.56107863736E+02  0.21952808446E+03  0.96702653308E+03  0.99321749789E+03  0.10100000352E+00 0. -1.
</event>
<event>
 5   0  0.3416160E-02  0.7780576E+03  0.7818609E-02  0.9592332E-01
        2   -1    0    0  501    0  0.00000000000E+00  0.00000000000E+00  0.90229785194E+03  0.90229785194E+03  0.25500000920E-02 0. -1.
       -2   -1    0    0    0  501  0.00000000000E+00  0.00000000000E+00 -0.16773109937E+03  0.16773109939E+03  0.25500000920E-02 0.  1.
    10030    2    1    2    0    0  0.00000000000E+00  0.00000000000E+00  0.73456675257E+03  0.10700289513E+04  0.77805760886E+03 0.  0.
        1    1    3    3  502    0  0.31896763652E+03  0.19525119627E+03  0.21993164425E+03  0.43385863016E+03  0.50400001928E-02 0. -1.
       -1    1    3    3    0  502 -0.31896763652E+03 -0.19525119627E+03  0.51463510832E+03  0.63617032117E+03  0.50400001928E-02 0.  1.
</event>
<event>
 5   0  0.1989298E-02  0.8034918E+03  0.7818609E-02  0.9554977E-01
        1   -1    0    0  501    0  0.00000000000E+00  0.00000000000E+00  0.81281089520E+03  0.81281089522E+03  0.50400001928E-02 0.  1.
       -1   -1    0    0    0  501  0.00000000000E+00  0.00000000000E+00 -0.19856988191E+03  0.19856988198E+03  0.50400001928E-02 0. -1.
    10030    2    1    2    0    0  0.00000000000E+00  0.00000000000E+00  0.61424101329E+03  0.10113807772E+04  0.80349178843E+03 0.  0.
        1    1    3    3  502    0 -0.16620873942E+03 -0.97341496826E+02  0.75089992791E+03  0.77521056096E+03  0.50400001928E-02 0.  1.
       -1    1    3    3    0  502  0.16620873942E+03  0.97341496826E+02 -0.13665891462E+03  0.23617021623E+03  0.50400001928E-02 0. -1.
</event>
<event>
 5   0  0.3550586E-02  0.8157779E+03  0.7818609E-02  0.9537456E-01
        2   -1    0    0  501    0  0.00000000000E+00  0.00000000000E+00  0.18317749542E+04  0.18317749542E+04  0.25500000920E-02 0.  1.
       -2   -1    0    0    0  501  0.00000000000E+00  0.00000000000E+00 -0.90826331682E+02  0.90826331718E+02  0.25500000920E-02 0. -1.
    10030    2    1    2    0    0  0.00000000000E+00  0.00000000000E+00  0.17409486226E+04  0.19226012860E+04  0.81577790996E+03 0.  0.
        3    1    3    3  502    0  0.29118691706E+03  0.28412486210E+03  0.80149572345E+03  0.89883934206E+03  0.10100000352E+00 0. -1.
       -3    1    3    3    0  502 -0.29118691706E+03 -0.28412486210E+03  0.93945289910E+03  0.10237619439E+04  0.10100000352E+00 0.  1.
</event>
<event>
 5   0  0.1989298E-02  0.8055747E+03  0.7818609E-02  0.9551983E-01
       -1   -1    0    0    0  501  0.00000000000E+00  0.00000000000E+00  0.83198476218E+03  0.83198476220E+03  0.50400001928E-02 0.  1.
        1   -1    0    0  501    0  0.00000000000E+00  0.00000000000E+00 -0.19500076113E+03  0.19500076120E+03  0.50400001928E-02 0. -1.
    10030    2    1    2    0    0  0.00000000000E+00  0.00000000000E+00  0.63698400105E+03  0.10269855234E+04  0.80557473127E+03 0.  0.
        1    1    3    3  502    0 -0.32979868139E+03  0.22293641026E+03  0.24021747524E+03  0.46494327471E+03  0.50400001928E-02 0. -1.
       -1    1    3    3    0  502  0.32979868139E+03 -0.22293641026E+03  0.39676652582E+03  0.56204224868E+03  0.50400001928E-02 0.  1.
</event>
<event>
 5   0  0.2132540E-02  0.6351216E+03  0.7818609E-02  0.9835105E-01
       -1   -1    0    0    0  501  0.00000000000E+00  0.00000000000E+00  0.25836860519E+03  0.25836860524E+03  0.50400001928E-02 0.  1.
        1   -1    0    0  501    0  0.00000000000E+00  0.00000000000E+00 -0.39031390472E+03  0.39031390476E+03  0.50400001928E-02 0. -1.
    10030    2    1    2    0    0  0.00000000000E+00  0.00000000000E+00 -0.13194529953E+03  0.64868251000E+03  0.63512159206E+03 0.  0.
        4    1    3    3  502    0  0.29908318469E+03  0.92830022484E+02 -0.12168817706E+02  0.31339728375E+03  0.12699999809E+01 0.  1.
       -4    1    3    3    0  502 -0.29908318469E+03 -0.92830022484E+02 -0.11977648183E+03  0.33528522624E+03  0.12699999809E+01 0. -1.
</event>
<event>
 5   0  0.3416160E-02  0.7857577E+03  0.7818609E-02  0.9580864E-01
        2   -1    0    0  501    0  0.00000000000E+00  0.00000000000E+00  0.11805401652E+04  0.11805401652E+04  0.25500000920E-02 0.  1.
       -2   -1    0    0    0  501  0.00000000000E+00  0.00000000000E+00 -0.13074843459E+03  0.13074843462E+03  0.25500000920E-02 0. -1.
    10030    2    1    2    0    0  0.00000000000E+00  0.00000000000E+00  0.10497917306E+04  0.13112885998E+04  0.78575766899E+03 0.  0.
        1    1    3    3  502    0  0.33912900533E+03 -0.19606435185E+03  0.57507345371E+03  0.69581548525E+03  0.50400001928E-02 0. -1.
       -1    1    3    3    0  502 -0.33912900533E+03  0.19606435185E+03  0.47471827691E+03  0.61547311459E+03  0.50400001928E-02 0.  1.
</event>
<event>
 5   0  0.1989298E-02  0.8188206E+03  0.7818609E-02  0.9533168E-01
       -1   -1    0    0    0  501  0.00000000000E+00  0.00000000000E+00  0.10369287369E+04  0.10369287369E+04  0.50400001928E-02 0.  1.
        1   -1    0    0  501    0  0.00000000000E+00  0.00000000000E+00 -0.16164736256E+03  0.16164736264E+03  0.50400001928E-02 0. -1.
    10030    2    1    2    0    0  0.00000000000E+00  0.00000000000E+00  0.87528137437E+03  0.11985760996E+04  0.81882060438E+03 0.  0.
        1    1    3    3  502    0 -0.40777866595E+02 -0.40327903189E+02  0.10310196365E+04  0.10326135119E+04  0.50400001928E-02 0.  1.
       -1    1    3    3    0  502  0.40777866595E+02  0.40327903189E+02 -0.15573826213E+03  0.16596258764E+03  0.50400001928E-02 0. -1.
</event>
<event>
 5   0  0.1989298E-02  0.7842528E+03  0.7818609E-02  0.9583094E-01
       -1   -1    0    0    0  501  0.00000000000E+00  0.00000000000E+00  0.53652258083E+03  0.53652258085E+03  0.50400001928E-02 0. -1.
        1   -1    0    0  501    0  0.00000000000E+00  0.00000000000E+00 -0.28659209725E+03  0.28659209729E+03  0.50400001928E-02 0.  1.
    10030    2    1    2    0    0  0.00000000000E+00  0.00000000000E+00  0.24993048358E+03  0.82311467815E+03  0.78425284619E+03 0.  0.
        1    1    3    3  502    0  0.84630763575E+02  0.31595697803E+03  0.35195015780E+03  0.48047902317E+03  0.50400001928E-02 0. -1.
       -1    1    3    3    0  502 -0.84630763575E+02 -0.31595697803E+03 -0.10201967422E+03  0.34263565498E+03  0.50400001928E-02 0.  1.
</event>
<event>
 5   0  0.3550586E-02  0.8222147E+03  0.7818609E-02  0.9528407E-01
       -2   -1    0    0    0  501  0.00000000000E+00  0.00000000000E+00  0.75204642263E+03  0.75204642263E+03  0.25500000920E-02 0. -1.
        2   -1    0    0  501    0  0.00000000000E+00  0.00000000000E+00 -0.22473245587E+03  0.22473245589E+03  0.25500000920E-02 0.  1.
    10030    2    1    2    0    0  0.00000000000E+00  0.00000000000E+00  0.52731396676E+03  0.97677887852E+03  0.82221466661E+03 0.  0.
        3    1    3    3  502    0  0.22080399138E+03  0.34604160855E+03  0.23682766222E+03  0.47390563328E+03  0.10100000352E+00 0.  1.
       -3    1    3    3    0  502 -0.22080399138E+03 -0.34604160855E+03  0.29048630454E+03  0.50287324524E+03  0.10100000352E+00 0. -1.
</event>
<event>
 5   0  0.3404132E-02  0.8039070E+03  0.7818609E-02  0.9554379E-01
       -2   -1    0    0    0  501  0.00000000000E+00  0.00000000000E+00  0.17469045933E+03  0.17469045935E+03  0.25500000920E-02 0.  1.
        2   -1    0    0  501    0  0.00000000000E+00  0.00000000000E+00 -0.92487367984E+03  0.92487367984E+03  0.25500000920E-02 0. -1.
    10030    2    1    2    0    0  0.00000000000E+00  0.00000000000E+00 -0.75018322050E+03  0.10995641392E+04  0.80390697961E+03 0.  0.
        5    1    3    3  502    0  0.16496766342E+03 -0.30811175279E+03 -0.64657808309E+03  0.73500509503E+03  0.46999998093E+01 0. -1.
       -5    1    3    3    0  502 -0.16496766342E+03  0.30811175279E+03 -0.10360513741E+03  0.36455904416E+03  0.46999998093E+01 0.  1.
</event>
<event>
 5   0  0.3467240E-02  0.8276570E+03  0.7818609E-02  0.9520825E-01
        2   -1    0    0  501    0  0.00000000000E+00  0.00000000000E+00  0.11340261626E+04  0.11340261626E+04  0.25500000920E-02 0. -1.
       -2   -1    0    0    0  501  0.00000000000E+00  0.00000000000E+00 -0.15101418926E+03  0.15101418928E+03  0.25500000920E-02 0.  1.
    10030    2    1    2    0    0  0.00000000000E+00  0.00000000000E+00  0.98301197331E+03  0.12850403519E+04  0.82765703418E+03 0.  0.
        2    1    3    3  502    0 -0.19723176686E+03  0.69674952930E+02  0.10459017053E+04  0.10666139631E+04  0.25500000920E-02 0. -1.
       -2    1    3    3    0  502  0.19723176686E+03 -0.69674952930E+02 -0.62889732041E+02  0.21842638880E+03  0.25500000920E-02 0.  1.
</event>
<event>
 5   0  0.3467240E-02  0.8140641E+03  0.7818609E-02  0.9539880E-01
       -2   -1    0    0    0  501  0.00000000000E+00  0.00000000000E+00  0.15489262207E+03  0.15489262209E+03  0.25500000920E-02 0.  1.
        2   -1    0    0  501    0  0.00000000000E+00  0.00000000000E+00 -0.10696124761E+04  0.10696124761E+04  0.25500000920E-02 0. -1.
    10030    2    1    2    0    0  0.00000000000E+00  0.00000000000E+00 -0.91471985399E+03  0.12245050982E+04  0.81406407864E+03 0.  0.
        2    1    3    3  502    0 -0.19196974235E+03  0.35757574388E+03 -0.50402094272E+03  0.64710888210E+03  0.25500000920E-02 0.  1.
       -2    1    3    3    0  502  0.19196974235E+03 -0.35757574388E+03 -0.41069891126E+03  0.57739621605E+03  0.25500000920E-02 0. -1.
</event>
<event>
 5   0  0.3550586E-02  0.7895798E+03  0.7818609E-02  0.9575224E-01
        2   -1    0    0  501    0  0.00000000000E+00  0.00000000000E+00  0.26576276441E+03  0.26576276442E+03  0.25500000920E-02 0. -1.
       -2   -1    0    0    0  501  0.00000000000E+00  0.00000000000E+00 -0.58645933959E+03  0.58645933960E+03  0.25500000920E-02 0.  1.
    10030    2    1    2    0    0  0.00000000000E+00  0.00000000000E+00 -0.32069657518E+03  0.85222210402E+03  0.78957977510E+03 0.  0.
        3    1    3    3  502    0 -0.16037514667E+02 -0.30881865614E+03 -0.42524318732E+03  0.52579268046E+03  0.10100000352E+00 0.  1.
       -3    1    3    3    0  502  0.16037514667E+02  0.30881865614E+03  0.10454661214E+03  0.32642942356E+03  0.10100000352E+00 0. -1.
</event>
<event>
 5   0  0.2063692E-02  0.7915073E+03  0.7818609E-02  0.9572392E-01
        1   -1    0    0  501    0  0.00000000000E+00  0.00000000000E+00  0.49883567703E+03  0.49883567705E+03  0.50400001928E-02 0. -1.
       -1   -1    0    0    0  501  0.00000000000E+00  0.00000000000E+00 -0.31397301832E+03  0.31397301836E+03  0.50400001928E-02 0.  1.
    10030    2    1    2    0    0  0.00000000000E+00  0.00000000000E+00  0.18486265871E+03  0.81280869541E+03  0.79150727902E+03 0.  0.
        2    1    3    3  502    0  0.21474616367E+02 -0.32534364792E+02 -0.31199660537E+03  0.31442252752E+03  0.25500000920E-02 0.  1.
       -2    1    3    3    0  502 -0.21474616367E+02  0.32534364792E+02  0.49685926408E+03  0.49838616789E+03  0.25500000920E-02 0. -1.
</event>
<event>
 5   0  0.3416160E-02  0.7962148E+03  0.7818609E-02  0.9565512E-01
       -2   -1    0    0    0  501  0.00000000000E+00  0.00000000000E+00  0.69766984458E+03  0.69766984458E+03  0.25500000920E-02 0. -1.
        2   -1    0    0  501    0  0.00000000000E+00  0.00000000000E+00 -0.22716975364E+03  0.22716975366E+03  0.25500000920E-02 0.  1.
    10030    2    1    2    0    0  0.00000000000E+00  0.00000000000E+00  0.47050009094E+03  0.92483959824E+03  0.79621476179E+03 0.  0.
        1    1    3    3  502    0  0.77219070319E+02  0.14658167962E+03  0.65572388795E+03  0.67633038588E+03  0.50400001928E-02 0. -1.
       -1    1    3    3    0  502 -0.77219070319E+02 -0.14658167962E+03 -0.18522379701E+03  0.24850921236E+03  0.50400001928E-02 0.  1.
</event>
<event>
 5   0  0.1989298E-02  0.8089835E+03  0.7818609E-02  0.9547104E-01
       -1   -1    0    0    0  501  0.00000000000E+00  0.00000000000E+00  0.78436741046E+03  0.78436741048E+03  0.50400001928E-02 0.  1.
        1   -1    0    0  501    0  0.00000000000E+00  0.00000000000E+00 -0.20859305020E+03  0.20859305026E+03  0.50400001928E-02 0. -1.
    10030    2    1    2    0    0  0.00000000000E+00  0.00000000000E+00  0.57577436026E+03  0.99296046074E+03  0.80898353670E+03 0.  0.
        1    1    3    3  502    0 -0.34107589395E+03  0.87143145470E+02  0.53240800158E+03  0.63826716460E+03  0.50400001928E-02 0.  1.
       -1    1    3    3    0  502  0.34107589395E+03 -0.87143145470E+02  0.43366358687E+02  0.35469329614E+03  0.50400001928E-02 0. -1.
</event>
<event>
 5   0  0.2129257E-02  0.7887610E+03  0.7818609E-02  0.9576429E-01
        1   -1    0    0  501    0  0.00000000000E+00  0.00000000000E+00  0.35488403489E+03  0.35488403492E+03  0.50400001928E-02 0. -1.
       -1   -1    0    0    0  501  0.00000000000E+00  0.00000000000E+00 -0.43827268797E+03  0.43827268800E+03  0.50400001928E-02 0.  1.
    10030    2    1    2    0    0  0.00000000000E+00  0.00000000000E+00 -0.83388653082E+02  0.79315672292E+03  0.78876100288E+03 0.  0.
        3    1    3    3  502    0  0.12545802178E+03  0.34709314648E+03  0.98086107659E+02  0.38188252419E+03  0.10100000352E+00 0. -1.
       -3    1    3    3    0  502 -0.12545802178E+03 -0.34709314648E+03 -0.18147476074E+03  0.41127419874E+03  0.10100000352E+00 0.  1.
</event>
<event>
 5   0  0.2132540E-02  0.7968642E+03  0.7818609E-02  0.9564567E-01
        1   -1    0    0  501    0  0.00000000000E+00  0.00000000000E+00  0.45295239594E+03  0.45295239596E+03  0.50400001928E-02 0.  1.
       -1   -1    0    0    0  501  0.00000000000E+00  0.00000000000E+00 -0.35047420205E+03  0.35047420209E+03  0.50400001928E-02 0. -1.
    10030    2    1    2    0    0  0.00000000000E+00  0.00000000000E+00  0.10247819389E+03  0.80342659805E+03  0.79686417803E+03 0.  0.
        4    1    3    3  502    0 -0.33321153818E+03 -0.18957410609E+03  0.16066048192E+03  0.41567015075E+03  0.12699999809E+01 0.  1.
       -4    1    3    3    0  502  0.33321153818E+03  0.18957410609E+03 -0.58182288030E+02  0.38775644730E+03  0.12699999809E+01 0. -1.
</event>
<event>
 5   0  0.3343036E-02  0.7787979E+03  0.7818609E-02  0.9591224E-01
       -2   -1    0    0    0  501  0.00000000000E+00  0.00000000000E+00  0.10846666919E+03  0.10846666922E+03  0.25500000920E-02 0.  1.
        2   -1    0    0  501    0  0.00000000000E+00  0.00000000000E+00 -0.13979551724E+04  0.13979551724E+04  0.25500000920E-02 0. -1.
    10030    2    1    2    0    0  0.00000000000E+00  0.00000000000E+00 -0.12894885032E+04  0.15064218416E+04  0.77879789741E+03 0.  0.
        4    1    3    3  502    0 -0.38501073689E+03 -0.57089703381E+02 -0.66741977025E+03  0.77262103542E+03  0.12699999809E+01 0. -1.
       -4    1    3    3    0  502  0.38501073689E+03  0.57089703381E+02 -0.62206873294E+03  0.73380080618E+03  0.12699999809E+01 0.  1.
</event>
<event>
 5   0  0.2129257E-02  0.7671193E+03  0.7818609E-02  0.9608869E-01
        1   -1    0    0  501    0  0.00000000000E+00  0.00000000000E+00  0.11600846727E+04  0.11600846727E+04  0.50400001928E-02 0. -1.
       -1   -1    0    0    0  501  0.00000000000E+00  0.00000000000E+00 -0.12681662118E+03  0.12681662128E+03  0.50400001928E-02 0.  1.
    10030    2    1    2    0    0  0.00000000000E+00  0.00000000000E+00  0.10332680515E+04  0.12869012940E+04  0.76711933504E+03 0.  0.
        3    1    3    3  502    0  0.13298513706E+03 -0.36925768412E+02 -0.83716754521E+02  0.16142200668E+03  0.10100000352E+00 0.  1.
       -3    1    3    3    0  502 -0.13298513706E+03  0.36925768412E+02  0.11169848060E+04  0.11254792873E+04  0.10100000352E+00 0. -1.
</event>
<event>
 5   0  0.3404132E-02  0.8002080E+03  0.7818609E-02  0.9559716E-01
        2   -1    0    0  501    0  0.00000000000E+00  0.00000000000E+00  0.47506465892E+03  0.47506465893E+03  0.25500000920E-02 0.  1.
       -2   -1    0    0    0  501  0.00000000000E+00  0.00000000000E+00 -0.33697143135E+03  0.33697143136E+03  0.25500000920E-02 0. -1.
    10030    2    1    2    0    0  0.00000000000E+00  0.00000000000E+00  0.13809322758E+03  0.81203609028E+03  0.80020801822E+03 0.  0.
        5    1    3    3  502    0  0.19407964916E+03  0.22077466690E+03 -0.20635530294E+03  0.35918374798E+03  0.46999998093E+01 0. -1.
       -5    1    3    3    0  502 -0.19407964916E+03 -0.22077466690E+03  0.34444853052E+03  0.45285234231E+03  0.46999998093E+01 0.  1.
</event>
<event>
 5   0  0.2129257E-02  0.7932472E+03  0.7818609E-02  0.9569843E-01
       -1   -1    0    0    0  501  0.00000000000E+00  0.00000000000E+00  0.10226886186E+03  0.10226886199E+03  0.50400001928E-02 0. -1.
        1   -1    0    0  501    0  0.00000000000E+00  0.00000000000E+00 -0.15382029599E+04  0.15382029599E+04  0.50400001928E-02 0.  1.
    10030    2    1    2    0    0  0.00000000000E+00  0.00000000000E+00 -0.14359340981E+04  0.16404718219E+04  0.79324716484E+03 0.  0.
        3    1    3    3  502    0  0.31960917607E+03  0.20388705102E+03 -0.47687949924E+03  0.60920770021E+03  0.10100000352E+00 0. -1.
       -3    1    3    3    0  502 -0.31960917607E+03 -0.20388705102E+03 -0.95905459883E+03  0.10312641217E+04  0.10100000352E+00 0.  1.
</event>
<event>
 5   0  0.3416160E-02  0.8040549E+03  0.7818609E-02  0.9554166E-01
       -2   -1    0    0    0  501  0.00000000000E+00  0.00000000000E+00  0.31132306042E+03  0.31132306044E+03  0.25500000920E-02 0. -1.
        2   -1    0    0  501    0  0.00000000000E+00  0.00000000000E+00 -0.51915870637E+03  0.51915870638E+03  0.25500000920E-02 0.  1.
    10030    2    1    2    0    0  0.00000000000E+00  0.00000000000E+00 -0.20783564595E+03  0.83048176681E+03  0.80405491683E+03 0.  0.
        1    1    3    3  502    0  0.23029749630E+03 -0.30261951077E+03 -0.23862906838E+03  0.44895360273E+03  0.50400001928E-02 0. -1.
       -1    1    3    3    0  502 -0.23029749630E+03  0.30261951077E+03  0.30793422434E+02  0.38152816409E+03  0.50400001928E-02 0.  1.
</event>
<event>
 5   0  0.2129257E-02  0.7682435E+03  0.7818609E-02  0.9607156E-01
       -1   -1    0    0    0  501  0.00000000000E+00  0.00000000000E+00  0.22443225477E+03  0.22443225483E+03  0.50400001928E-02 0.  1.
        1   -1    0    0  501    0  0.00000000000E+00  0.00000000000E+00 -0.65743449504E+03  0.65743449506E+03  0.50400001928E-02 0. -1.
    10030    2    1    2    0    0  0.00000000000E+00  0.00000000000E+00 -0.43300224027E+03  0.88186674989E+03  0.76824346693E+03 0.  0.
        3    1    3    3  502    0  0.12709297249E+03 -0.18760888250E+03 -0.57253483902E+03  0.61574821846E+03  0.10100000352E+00 0. -1.
       -3    1    3    3    0  502 -0.12709297249E+03  0.18760888250E+03  0.13953259875E+03  0.26611853142E+03  0.10100000352E+00 0.  1.
</event>
<event>
 5   0  0.3404132E-02  0.7591589E+03  0.7818609E-02  0.9621090E-01
       -2   -1    0    0    0  501  0.00000000000E+00  0.00000000000E+00  0.10157763493E+03  0.10157763496E+03  0.25500000920E-02 0. -1.
        2   -1    0    0  501    0  0.00000000000E+00  0.00000000000E+00 -0.14184278310E+04  0.14184278310E+04  0.25500000920E-02 0.  1.
    10030    2    1    2    0    0  0.00000000000E+00  0.00000000000E+00 -0.13168501960E+04  0.15200054659E+04  0.75915886195E+03 0.  0.
        5    1    3    3  502    0 -0.19884766276E+03 -0.18038416501E+03 -0.12124830561E+03  0.29462192991E+03  0.46999998093E+01 0. -1.
       -5    1    3    3    0  502  0.19884766276E+03  0.18038416501E+03 -0.11956018904E+04  0.12253835360E+04  0.46999998093E+01 0.  1.
</event>
<event>
 5   0  0.3550586E-02  0.8071749E+03  0.7818609E-02  0.9549689E-01
       -2   -1    0    0    0  501  0.00000000000E+00  0.00000000000E+00  0.27678552176E+03  0.27678552177E+03  0.25500000920E-02 0.  1.
        2   -1    0    0  501    0  0.00000000000E+00  0.00000000000E+00 -0.58848030650E+03  0.58848030651E+03  0.25500000920E-02 0. -1.
    10030    2    1    2    0    0  0.00000000000E+00  0.00000000000E+00 -0.31169478474E+03  0.86526582828E+03  0.80717489725E+03 0.  0.
        3    1    3    3  502    0  0.18813304511E+03  0.34056026426E+03 -0.40854218199E+02  0.39120891298E+03  0.10100000352E+00 0.  1.
       -3    1    3    3    0  502 -0.18813304511E+03 -0.34056026426E+03 -0.27084056654E+03  0.47405691529E+03  0.10100000352E+00 0. -1.
</event>
<event>
 5   0  0.1358000E-02  0.9486239E+03  0.7818609E-02  0.9366761E-01
       -3   -1    0    0    0  501  0.00000000000E+00  0.00000000000E+00  0.84667036883E+03  0.84667037486E+03  0.10100000352E+00 0. -1.
        3   -1    0    0  501    0  0.00000000000E+00  0.00000000000E+00 -0.26571355765E+03  0.26571357684E+03  0.10100000352E+00 0.  1.
    10030    2    1    2    0    0  0.00000000000E+00  0.00000000000E+00  0.58095681119E+03  0.11123839517E+04  0.94862386621E+03 0.  0.
        5    1    3    3  502    0  0.14850991922E+02 -0.20071274655E+03  0.79408617028E+03  0.81920760154E+03  0.46999998093E+01 0. -1.
       -5    1    3    3    0  502 -0.14850991922E+02  0.20071274655E+03 -0.21312935910E+03  0.29317635016E+03  0.46999998093E+01 0.  1.
</event>
<event>
 5   0  0.3550586E-02  0.8176810E+03  0.7818609E-02  0.9534771E-01
        2   -1    0    0  501    0  0.00000000000E+00  0.00000000000E+00  0.27477828325E+03  0.27477828326E+03  0.25500000920E-02 0.  1.
       -2   -1    0    0    0  501  0.00000000000E+00  0.00000000000E+00 -0.60831064990E+03  0.60831064991E+03  0.25500000920E-02 0. -1.
    10030    2    1    2    0    0  0.00000000000E+00  0.00000000000E+00 -0.33353236665E+03  0.88308893317E+03  0.81768100399E+03 0.  0.
        3    1    3    3  502    0 -0.31648325429E+03  0.21792625503E+03 -0.31756742185E+03  0.49850033149E+03  0.10100000352E+00 0. -1.
       -3    1    3    3    0  502  0.31648325429E+03 -0.21792625503E+03 -0.15964944803E+02  0.38458860168E+03  0.10100000352E+00 0.  1.
</event>
<event>
 5   0  0.2132540E-02  0.8064780E+03  0.7818609E-02  0.9550688E-01
        1   -1    0    0  501    0  0.00000000000E+00  0.00000000000E+00  0.28643200889E+03  0.28643200894E+03  0.50400001928E-02 0.  1.
       -1   -1    0    0    0  501  0.00000000000E+00  0.00000000000E+00 -0.56767985340E+03  0.56767985342E+03  0.50400001928E-02 0. -1.
    10030    2    1    2    0    0  0.00000000000E+00  0.00000000000E+00 -0.28124784451E+03  0.85411186236E+03  0.80647797452E+03 0.  0.
        4    1    3    3  502    0 -0.31604409804E+03 -0.14556928365E+03  0.75190836154E+02  0.35599095914E+03  0.12699999809E+01 0.  1.
       -4    1    3    3    0  502  0.31604409804E+03  0.14556928365E+03 -0.35643868066E+03  0.49812090322E+03  0.12699999809E+01 0. -1.
</event>
<event>
 5   0  0.2132540E-02  0.8040326E+03  0.7818609E-02  0.9554198E-01
       -1   -1    0    0    0  501  0.00000000000E+00  0.00000000000E+00  0.24664607708E+03  0.24664607713E+03  0.50400001928E-02 0. -1.
        1   -1    0    0  501    0  0.00000000000E+00  0.00000000000E+00 -0.65525921049E+03  0.65525921051E+03  0.50400001928E-02 0.  1.
    10030    2    1    2    0    0  0.00000000000E+00  0.00000000000E+00 -0.40861313342E+03  0.90190528764E+03  0.80403262065E+03 0.  0.
        4    1    3    3  502    0  0.31085916158E+03 -0.16007982510E+03 -0.42684020889E+03  0.55177273000E+03  0.12699999809E+01 0.  1.
       -4    1    3    3    0  502 -0.31085916158E+03  0.16007982510E+03  0.18227075476E+02  0.35013255764E+03  0.12699999809E+01 0. -1.
</event>
<event>
 5   0  0.1989298E-02  0.8223515E+03  0.7818609E-02  0.9528216E-01
       -1   -1    0    0    0  501  0.00000000000E+00  0.00000000000E+00  0.10979362523E+03  0.10979362534E+03  0.50400001928E-02 0.  1.
        1   -1    0    0  501    0  0.00000000000E+00  0.00000000000E+00 -0.15398481776E+04  0.15398481776E+04  0.50400001928E-02 0. -1.
    10030    2    1    2    0    0  0.00000000000E+00  0.00000000000E+00 -0.14300545524E+04  0.16496418030E+04  0.82235153997E+03 0.  0.
        1    1    3    3  502    0  0.24569173326E+02 -0.25210399810E+03 -0.65299915501E+02  0.26158010078E+03  0.50400001928E-02 0.  1.
       -1    1    3    3    0  502 -0.24569173326E+02  0.25210399810E+03 -0.13647546369E+04  0.13880617022E+04  0.50400001928E-02 0. -1.
</event>
<event>
 5   0  0.2077795E-02  0.8067671E+03  0.7818609E-02  0.9550273E-01
       -1   -1    0    0    0  501  0.00000000000E+00  0.00000000000E+00  0.20143468362E+03  0.20143468368E+03  0.50400001928E-02 0. -1.
        1   -1    0    0  501    0  0.00000000000E+00  0.00000000000E+00 -0.80779683223E+03  0.80779683224E+03  0.50400001928E-02 0.  1.
    10030    2    1    2    0    0  0.00000000000E+00  0.00000000000E+00 -0.60636214861E+03  0.10092315159E+04  0.80676712716E+03 0.  0.
        5    1    3    3  502    0 -0.22373247290E+03 -0.30829870810E+03 -0.13726099717E+03  0.40492836921E+03  0.46999998093E+01 0. -1.
       -5    1    3    3    0  502  0.22373247290E+03  0.30829870810E+03 -0.46910115144E+03  0.60430314671E+03  0.46999998093E+01 0.  1.
</event>
<event>
 5   0  0.2129257E-02  0.8046291E+03  0.7818609E-02  0.9553341E-01
        1   -1    0    0  501    0  0.00000000000E+00  0.00000000000E+00  0.43819835540E+03  0.43819835543E+03  0.50400001928E-02 0.  1.
       -1   -1    0    0    0  501  0.00000000000E+00  0.00000000000E+00 -0.36936921755E+03  0.36936921759E+03  0.50400001928E-02 0. -1.
    10030    2    1    2    0    0  0.00000000000E+00  0.00000000000E+00  0.68829137853E+02  0.80756757302E+03  0.80462906657E+03 0.  0.
        3    1    3    3  502    0 -0.26773227125E+03  0.58038384753E+02  0.33012245450E+03  0.42898702584E+03  0.10100000352E+00 0. -1.
       -3    1    3    3    0  502  0.26773227125E+03 -0.58038384753E+02 -0.26129331665E+03  0.37858054718E+03  0.10100000352E+00 0.  1.
</event>
<event>
 5   0  0.2063692E-02  0.7847068E+03  0.7818609E-02  0.9582421E-01
       -1   -1    0    0    0  501  0.00000000000E+00  0.00000000000E+00  0.21193905984E+03  0.21193905990E+03  0.50400001928E-02 0.  1.
        1   -1    0    0  501    0  0.00000000000E+00  0.00000000000E+00 -0.72634641865E+03  0.72634641866E+03  0.50400001928E-02 0. -1.
    10030    2    1    2    0    0  0.00000000000E+00  0.00000000000E+00 -0.51440735881E+03  0.93828547856E+03  0.78470676592E+03 0.  0.
        2    1    3    3  502    0 -0.37744926398E+02 -0.28947828057E+03 -0.57065164332E+03  0.64098802829E+03  0.25500000920E-02 0. -1.
       -2    1    3    3    0  502  0.37744926398E+02  0.28947828057E+03  0.56244284507E+02  0.29729745027E+03  0.25500000920E-02 0.  1.
</event>
<event>
 5   0  0.2063692E-02  0.8031632E+03  0.7818609E-02  0.9555450E-01
       -1   -1    0    0    0  501  0.00000000000E+00  0.00000000000E+00  0.21561232065E+03  0.21561232071E+03  0.50400001928E-02 0.  1.
        1   -1    0    0  501    0  0.00000000000E+00  0.00000000000E+00 -0.74795262195E+03  0.74795262197E+03  0.50400001928E-02 0. -1.
    10030    2    1    2    0    0  0.00000000000E+00  0.00000000000E+00 -0.53234030130E+03  0.96356494267E+03  0.80316324764E+03 0.  0.
        2    1    3    3  502    0 -0.20916264256E+02 -0.10622359780E+03 -0.73011441459E+03  0.73809755537E+03  0.25500000920E-02 0. -1.
       -2    1    3    3    0  502  0.20916264256E+02  0.10622359780E+03  0.19777411330E+03  0.22546738730E+03  0.25500000920E-02 0.  1.
</event>
<event>
 5   0  0.3467240E-02  0.8565155E+03  0.7818609E-02  0.9481634E-01
       -2   -1    0    0    0  501  0.00000000000E+00  0.00000000000E+00  0.97018284830E+03  0.97018284830E+03  0.25500000920E-02 0. -1.
        2   -1    0    0  501    0  0.00000000000E+00  0.00000000000E+00 -0.18904135776E+03  0.18904135777E+03  0.25500000920E-02 0.  1.
    10030    2    1    2    0    0  0.00000000000E+00  0.00000000000E+00  0.78114149054E+03  0.11592242061E+04  0.85651545912E+03 0.  0.
        2    1    3    3  502    0  0.38264241659E+03  0.18221890303E+03  0.30729714162E+03  0.52349831026E+03  0.25500000920E-02 0. -1.
       -2    1    3    3    0  502 -0.38264241659E+03 -0.18221890303E+03  0.47384434892E+03  0.63572589581E+03  0.25500000920E-02 0.  1.
</event>
<event>
 5   0  0.2077795E-02  0.7823782E+03  0.7818609E-02  0.9585880E-01
        1   -1    0    0  501    0  0.00000000000E+00  0.00000000000E+00  0.13721085692E+03  0.13721085701E+03  0.50400001928E-02 0. -1.
       -1   -1    0    0    0  501  0.00000000000E+00  0.00000000000E+00 -0.11152829049E+04  0.11152829049E+04  0.50400001928E-02 0.  1.
    10030    2    1    2    0    0  0.00000000000E+00  0.00000000000E+00 -0.97807204794E+03  0.12524937619E+04  0.78237822859E+03 0.  0.
        5    1    3    3  502    0 -0.26254337425E+03 -0.28103153650E+03 -0.60335147977E+03  0.71551579019E+03  0.46999998093E+01 0.  1.
       -5    1    3    3    0  502  0.26254337425E+03  0.28103153650E+03 -0.37472056817E+03  0.53697797168E+03  0.46999998093E+01 0. -1.
</event>
<event>
 5   0  0.1989298E-02  0.8041337E+03  0.7818609E-02  0.9554053E-01
        1   -1    0    0  501    0  0.00000000000E+00  0.00000000000E+00  0.28680473880E+03  0.28680473885E+03  0.50400001928E-02 0.  1.
       -1   -1    0    0    0  501  0.00000000000E+00  0.00000000000E+00 -0.56365084099E+03  0.56365084102E+03  0.50400001928E-02 0. -1.
    10030    2    1    2    0    0  0.00000000000E+00  0.00000000000E+00 -0.27684610219E+03  0.85045557986E+03  0.80413365122E+03 0.  0.
        1    1    3    3  502    0  0.19095028171E+03 -0.74606694614E+02  0.22737606925E+03  0.30615036479E+03  0.50400001928E-02 0.  1.
       -1    1    3    3    0  502 -0.19095028171E+03  0.74606694614E+02 -0.50422217144E+03  0.54430521508E+03  0.50400001928E-02 0. -1.
</event>
<event>
 5   0  0.3467240E-02  0.7943876E+03  0.7818609E-02  0.9568177E-01
       -2   -1    0    0    0  501  0.00000000000E+00  0.00000000000E+00  0.38219554463E+03  0.38219554463E+03  0.25500000920E-02 0.  1.
        2   -1    0    0  501    0  0.00000000000E+00  0.00000000000E+00 -0.41278057463E+03  0.41278057464E+03  0.25500000920E-02 0. -1.
    10030    2    1    2    0    0  0.00000000000E+00  0.00000000000E+00 -0.30585030002E+02  0.79497611927E+03  0.79438755413E+03 0.  0.
        2    1    3    3  502    0 -0.10589410147E+03 -0.67885347678E+01 -0.39833353343E+03  0.41222475519E+03  0.25500000920E-02 0. -1.
       -2    1    3    3    0  502  0.10589410147E+03  0.67885347678E+01  0.36774850342E+03  0.38275136408E+03  0.25500000920E-02 0.  1.
</event>
<event>
 5   0  0.2063692E-02  0.8295807E+03  0.7818609E-02  0.9518160E-01
       -1   -1    0    0    0  501  0.00000000000E+00  0.00000000000E+00  0.19874351687E+03  0.19874351694E+03  0.50400001928E-02 0.  1.
        1   -1    0    0  501    0  0.00000000000E+00  0.00000000000E+00 -0.86569384012E+03  0.86569384013E+03  0.50400001928E-02 0. -1.
    10030    2    1    2    0    0  0.00000000000E+00  0.00000000000E+00 -0.66695032324E+03  0.10644373571E+04  0.82958070942E+03 0.  0.
        2    1    3    3  502    0 -0.33443365029E+01 -0.15544561722E+03  0.15993838080E+03  0.22305786280E+03  0.25500000920E-02 0.  1.
       -2    1    3    3    0  502  0.33443365029E+01  0.15544561722E+03 -0.82688870404E+03  0.84137949427E+03  0.25500000920E-02 0. -1.
</event>
<event>
 5   0  0.2129257E-02  0.7968039E+03  0.7818609E-02  0.9564655E-01
        1   -1    0    0  501    0  0.00000000000E+00  0.00000000000E+00  0.91829103663E+03  0.91829103664E+03  0.50400001928E-02 0.  1.
       -1   -1    0    0    0  501  0.00000000000E+00  0.00000000000E+00 -0.17284726762E+03  0.17284726769E+03  0.50400001928E-02 0. -1.
    10030    2    1    2    0    0  0.00000000000E+00  0.00000000000E+00  0.74544376901E+03  0.10911383043E+04  0.79680385694E+03 0.  0.
        3    1    3    3  502    0 -0.11210414845E+02  0.22961182401E+03 -0.72861333288E+02  0.24115564935E+03  0.10100000352E+00 0. -1.
       -3    1    3    3    0  502  0.11210414845E+02 -0.22961182401E+03  0.81830510230E+03  0.84998265498E+03  0.10100000352E+00 0.  1.
</event>
<event>
 5   0  0.3416160E-02  0.8002348E+03  0.7818609E-02  0.9559677E-01
       -2   -1    0    0    0  501  0.00000000000E+00  0.00000000000E+00  0.14084857194E+03  0.14084857196E+03  0.25500000920E-02 0.  1.
        2   -1    0    0  501    0  0.00000000000E+00  0.00000000000E+00 -0.11366386761E+04  0.11366386761E+04  0.25500000920E-02 0. -1.
    10030    2    1    2    0    0  0.00000000000E+00  0.00000000000E+00 -0.99579010418E+03  0.12774872481E+04  0.80023480144E+03 0.  0.
        1    1    3    3  502    0  0.80462785935E+02  0.19247543476E+03 -0.10429470111E+04  0.10636068451E+04  0.50400001928E-02 0. -1.
       -1    1    3    3    0  502 -0.80462785935E+02 -0.19247543476E+03  0.47156906902E+02  0.21388040303E+03  0.50400001928E-02 0.  1.
</event>
<event>
 5   0  0.3467240E-02  0.7881676E+03  0.7818609E-02  0.9577304E-01
        2   -1    0    0  501    0  0.00000000000E+00  0.00000000000E+00  0.16130536517E+04  0.16130536517E+04  0.25500000920E-02 0.  1.
       -2   -1    0    0    0  501  0.00000000000E+00  0.00000000000E+00 -0.96278274688E+02  0.96278274722E+02  0.25500000920E-02 0. -1.
    10030    2    1    2    0    0  0.00000000000E+00  0.00000000000E+00  0.15167753770E+04  0.17093319264E+04  0.78816755222E+03 0.  0.
        2    1    3    3  502    0  0.36384897063E+02  0.19601169617E+03  0.14956245912E+04  0.15088529960E+04  0.25500000920E-02 0.  1.
       -2    1    3    3    0  502 -0.36384897063E+02 -0.19601169617E+03  0.21150785748E+02  0.20047893035E+03  0.25500000920E-02 0. -1.
</event>
<event>
 5   0  0.3343036E-02  0.7799719E+03  0.7818609E-02  0.9589468E-01
        2   -1    0    0  501    0  0.00000000000E+00  0.00000000000E+00  0.51735185258E+03  0.51735185259E+03  0.25500000920E-02 0. -1.
       -2   -1    0    0    0  501  0.00000000000E+00  0.00000000000E+00 -0.29397603277E+03  0.29397603278E+03  0.25500000920E-02 0.  1.
    10030    2    1    2    0    0  0.00000000000E+00  0.00000000000E+00  0.22337581982E+03  0.81132788537E+03  0.77997191020E+03 0.  0.
        4    1    3    3  502    0 -0.69126585985E+02 -0.14212720208E+03  0.48254386731E+03  0.50776847405E+03  0.12699999809E+01 0. -1.
       -4    1    3    3    0  502  0.69126585985E+02  0.14212720208E+03 -0.25916804749E+03  0.30355941132E+03  0.12699999809E+01 0.  1.
</event>
<event>
 5   0  0.3404132E-02  0.8274300E+03  0.7818609E-02  0.9521141E-01
        2   -1    0    0  501    0  0.00000000000E+00  0.00000000000E+00  0.59095279485E+03  0.59095279485E+03  0.25500000920E-02 0.  1.
       -2   -1    0    0    0  501  0.00000000000E+00  0.00000000000E+00 -0.28963413290E+03  0.28963413291E+03  0.25500000920E-02 0. -1.
    10030    2    1    2    0    0  0.00000000000E+00  0.00000000000E+00  0.30131866194E+03  0.88058692777E+03  0.82742999784E+03 0.  0.
        5    1    3    3  502    0 -0.24883842174E+03 -0.26360289039E+03  0.36279101346E+03  0.51288054496E+03  0.46999998093E+01 0.  1.
       -5    1    3    3    0  502  0.24883842174E+03  0.26360289039E+03 -0.61472351513E+02  0.36770638281E+03  0.46999998093E+01 0. -1.
</event>
<event>
 5   0  0.3343036E-02  0.8031319E+03  0.7818609E-02  0.9555495E-01
        2   -1    0    0  501    0  0.00000000000E+00  0.00000000000E+00  0.52985743736E+03  0.52985743737E+03  0.25500000920E-02 0. -1.
       -2   -1    0    0    0  501  0.00000000000E+00  0.00000000000E+00 -0.30433701691E+03  0.30433701693E+03  0.25500000920E-02 0.  1.
    10030    2    1    2    0    0  0.00000000000E+00  0.00000000000E+00  0.22552042044E+03  0.83419445429E+03  0.80313194902E+03 0.  0.
        4    1    3    3  502    0 -0.34290234952E+03  0.13690689139E+02  0.32935397576E+03  0.47565230003E+03  0.12699999809E+01 0. -1.
       -4    1    3    3    0  502  0.34290234952E+03 -0.13690689139E+02 -0.10383355532E+03  0.35854215426E+03  0.12699999809E+01 0.  1.
</event>
<event>
 5   0  0.3416160E-02  0.7971283E+03  0.7818609E-02  0.9564183E-01
        2   -1    0    0  501    0  0.00000000000E+00  0.00000000000E+00  0.12840792650E+04  0.12840792650E+04  0.25500000920E-02 0.  1.
       -2   -1    0    0    0  501  0.00000000000E+00  0.00000000000E+00 -0.12370994807E+03  0.12370994810E+03  0.25500000920E-02 0. -1.
    10030    2    1    2    0    0  0.00000000000E+00  0.00000000000E+00  0.11603693169E+04  0.14077892131E+04  0.79712829386E+03 0.  0.
        1    1    3    3  502    0 -0.93179379883E+02 -0.14540208011E+03  0.12145704396E+04  0.12267866622E+04  0.50400001928E-02 0.  1.
       -1    1    3    3    0  502  0.93179379883E+02  0.14540208011E+03 -0.54201122631E+02  0.18100255096E+03  0.50400001928E-02 0. -1.
</event>
<event>
 5   0  0.2063692E-02  0.8752440E+03  0.7818609E-02  0.9457068E-01
       -1   -1    0    0    0  501  0.00000000000E+00  0.00000000000E+00  0.37285874420E+03  0.37285874423E+03  0.50400001928E-02 0.  1.
        1   -1    0    0  501    0  0.00000000000E+00  0.00000000000E+00 -0.51363418676E+03  0.51363418679E+03  0.50400001928E-02 0. -1.
    10030    2    1    2    0    0  0.00000000000E+00  0.00000000000E+00 -0.14077544257E+03  0.88649293102E+03  0.87524396114E+03 0.  0.
        2    1    3    3  502    0  0.39060689568E+03  0.17921021011E+03 -0.15405050223E+03  0.45653214958E+03  0.25500000920E-02 0.  1.
       -2    1    3    3    0  502 -0.39060689568E+03 -0.17921021011E+03  0.13275059665E+02  0.42996078144E+03  0.25500000920E-02 0. -1.
</event>
<event>
 5   0  0.3467240E-02  0.7979124E+03  0.7818609E-02  0.9563044E-01
       -2   -1    0    0    0  501  0.00000000000E+00  0.00000000000E+00  0.21632116397E+03  0.21632116398E+03  0.25500000920E-02 0. -1.
        2   -1    0    0  501    0  0.00000000000E+00  0.00000000000E+00 -0.73578579190E+03  0.73578579190E+03  0.25500000920E-02 0.  1.
    10030    2    1    2    0    0  0.00000000000E+00  0.00000000000E+00 -0.51946462793E+03  0.95210695589E+03  0.79791237349E+03 0.  0.
        2    1    3    3  502    0 -0.22005641757E+03 -0.29220920409E+02  0.13582041758E+03  0.26024195462E+03  0.25500000920E-02 0. -1.
       -2    1    3    3    0  502  0.22005641757E+03  0.29220920409E+02 -0.65528504551E+03  0.69186500127E+03  0.25500000920E-02 0.  1.
</event>
<event>
 5   0  0.3550586E-02  0.7851693E+03  0.7818609E-02  0.9581736E-01
       -2   -1    0    0    0  501  0.00000000000E+00  0.00000000000E+00  0.14251384565E+03  0.14251384567E+03  0.25500000920E-02 0.  1.
        2   -1    0    0  501    0  0.00000000000E+00  0.00000000000E+00 -0.10814577733E+04  0.10814577733E+04  0.25500000920E-02 0. -1.
    10030    2    1    2    0    0  0.00000000000E+00  0.00000000000E+00 -0.93894392769E+03  0.12239716190E+04  0.78516929690E+03 0.  0.
        3    1    3    3  502    0 -0.22431038584E+03 -0.16770982498E+03 -0.40625968196E+02  0.28300567853E+03  0.10100000352E+00 0.  1.
       -3    1    3    3    0  502  0.22431038584E+03  0.16770982498E+03 -0.89831795949E+03  0.94096594047E+03  0.10100000352E+00 0. -1.
</event>
<event>
 5   0  0.3404132E-02  0.7894829E+03  0.7818609E-02  0.9575366E-01
       -2   -1    0    0    0  501  0.00000000000E+00  0.00000000000E+00  0.24056901739E+03  0.24056901741E+03  0.25500000920E-02 0.  1.
        2   -1    0    0  501    0  0.00000000000E+00  0.00000000000E+00 -0.64771767637E+03  0.64771767638E+03  0.25500000920E-02 0. -1.
    10030    2    1    2    0    0  0.00000000000E+00  0.00000000000E+00 -0.40714865898E+03  0.88828669379E+03  0.78948288129E+03 0.  0.
        5    1    3    3  502    0 -0.15837718152E+03  0.31251745342E+03  0.96861625605E+00  0.35039052289E+03  0.46999998093E+01 0.  1.
       -5    1    3    3    0  502  0.15837718152E+03 -0.31251745342E+03 -0.40811727524E+03  0.53789617089E+03  0.46999998093E+01 0. -1.
</event>
<event>
 5   0  0.3416160E-02  0.5638571E+03  0.7818609E-02  0.9983365E-01
       -2   -1    0    0    0  501  0.00000000000E+00  0.00000000000E+00  0.63361459475E+03  0.63361459475E+03  0.25500000920E-02 0.  1.
        2   -1    0    0  501    0  0.00000000000E+00  0.00000000000E+00 -0.12544488829E+03  0.12544488831E+03  0.25500000920E-02 0. -1.
    10030    2    1    2    0    0  0.00000000000E+00  0.00000000000E+00  0.50816970646E+03  0.75905948306E+03  0.56385711689E+03 0.  0.
        1    1    3    3  502    0  0.70733576951E+02 -0.26059079962E+03  0.36322525049E+03  0.45259627304E+03  0.50400001928E-02 0.  1.
       -1    1    3    3    0  502 -0.70733576951E+02  0.26059079962E+03  0.14494445597E+03  0.30646321002E+03  0.50400001928E-02 0. -1.
</event>
<event>
 5   0  0.1989298E-02  0.7972611E+03  0.7818609E-02  0.9563990E-01
       -1   -1    0    0    0  501  0.00000000000E+00  0.00000000000E+00  0.41175274613E+03  0.41175274616E+03  0.50400001928E-02 0. -1.
        1   -1    0    0  501    0  0.00000000000E+00  0.00000000000E+00 -0.38592655117E+03  0.38592655120E+03  0.50400001928E-02 0.  1.
    10030    2    1    2    0    0  0.00000000000E+00  0.00000000000E+00  0.25826194959E+02  0.79767929736E+03  0.79726110471E+03 0.  0.
        1    1    3    3  502    0 -0.26009920823E+03  0.20938559096E+03 -0.20494498830E+03  0.39178613053E+03  0.50400001928E-02 0.  1.
       -1    1    3    3    0  502  0.26009920823E+03 -0.20938559096E+03  0.23077118326E+03  0.40589316682E+03  0.50400001928E-02 0. -1.
</event>
<event>
 5   0  0.3467240E-02  0.7787455E+03  0.7818609E-02  0.9591302E-01
        2   -1    0    0  501    0  0.00000000000E+00  0.00000000000E+00  0.12766880807E+04  0.12766880807E+04  0.25500000920E-02 0.  1.
       -2   -1    0    0    0  501  0.00000000000E+00  0.00000000000E+00 -0.11875348141E+03  0.11875348144E+03  0.25500000920E-02 0. -1.
    10030    2    1    2    0    0  0.00000000000E+00  0.00000000000E+00  0.11579345993E+04  0.13954415621E+04  0.77874554067E+03 0.  0.
        2    1    3    3  502    0 -0.15684483789E+03 -0.13133583101E+02  0.12171446556E+04  0.12272790665E+04  0.25500000920E-02 0.  1.
       -2    1    3    3    0  502  0.15684483789E+03  0.13133583101E+02 -0.59210056346E+02  0.16816249569E+03  0.25500000920E-02 0. -1.
</event>
<event>
 5   0  0.2129257E-02  0.8149928E+03  0.7818609E-02  0.9538566E-01
       -1   -1    0    0    0  501  0.00000000000E+00  0.00000000000E+00  0.47047606746E+03  0.47047606749E+03  0.50400001928E-02 0. -1.
        1   -1    0    0  501    0  0.00000000000E+00  0.00000000000E+00 -0.35294745642E+03  0.35294745645E+03  0.50400001928E-02 0.  1.
    10030    2    1    2    0    0  0.00000000000E+00  0.00000000000E+00  0.11752861105E+03  0.82342352394E+03  0.81499283762E+03 0.  0.
        3    1    3    3  502    0  0.14753926362E+03 -0.24002350977E+03  0.35621459972E+03  0.45416733789E+03  0.10100000352E+00 0. -1.
       -3    1    3    3    0  502 -0.14753926362E+03  0.24002350977E+03 -0.23868598867E+03  0.36925618605E+03  0.10100000352E+00 0.  1.
</event>
<event>
 5   0  0.3404132E-02  0.8135648E+03  0.7818609E-02  0.9540588E-01
       -2   -1    0    0    0  501  0.00000000000E+00  0.00000000000E+00  0.59121592910E+03  0.59121592910E+03  0.25500000920E-02 0.  1.
        2   -1    0    0  501    0  0.00000000000E+00  0.00000000000E+00 -0.27988408198E+03  0.27988408199E+03  0.25500000920E-02 0. -1.
    10030    2    1    2    0    0  0.00000000000E+00  0.00000000000E+00  0.31133184712E+03  0.87110001110E+03  0.81356481629E+03 0.  0.
        5    1    3    3  502    0 -0.40512724452E+03  0.87215630893E+01  0.11787561463E+03  0.42204371863E+03  0.46999998093E+01 0.  1.
       -5    1    3    3    0  502  0.40512724452E+03 -0.87215630893E+01  0.19345623249E+03  0.44905629246E+03  0.46999998093E+01 0. -1.
</event>
<event>
 5   0  0.2063692E-02  0.8033384E+03  0.7818609E-02  0.9555197E-01
        1   -1    0    0  501    0  0.00000000000E+00  0.00000000000E+00  0.11096355692E+04  0.11096355692E+04  0.50400001928E-02 0.  1.
       -1   -1    0    0    0  501  0.00000000000E+00  0.00000000000E+00 -0.14539742847E+03  0.14539742856E+03  0.50400001928E-02 0. -1.
    10030    2    1    2    0    0  0.00000000000E+00  0.00000000000E+00  0.96423814074E+03  0.12550329978E+04  0.80333843022E+03 0.  0.
        2    1    3    3  502    0  0.14483904448E+03  0.92042880621E+02  0.10494795839E+04  0.10634179036E+04  0.25500000920E-02 0.  1.
       -2    1    3    3    0  502 -0.14483904448E+03 -0.92042880621E+02 -0.85241443162E+02  0.19161509418E+03  0.25500000920E-02 0. -1.
</event>
<event>
 5   0  0.3343036E-02  0.8029084E+03  0.7818609E-02  0.9555817E-01
       -2   -1    0    0    0  501  0.00000000000E+00  0.00000000000E+00  0.21937383504E+03  0.21937383505E+03  0.25500000920E-02 0.  1.
        2   -1    0    0  501    0  0.00000000000E+00  0.00000000000E+00 -0.73466142611E+03  0.73466142612E+03  0.25500000920E-02 0. -1.
    10030    2    1    2    0    0  0.00000000000E+00  0.00000000000E+00 -0.51528759108E+03  0.95403526117E+03  0.80290844935E+03 0.  0.
        4    1    3    3  502    0  0.12170235826E+03 -0.17588706130E+03  0.14603106823E+03  0.25898727406E+03  0.12699999809E+01 0.  1.
       -4    1    3    3    0  502 -0.12170235826E+03  0.17588706130E+03 -0.66131865931E+03  0.69504798711E+03  0.12699999809E+01 0. -1.
</event>
<event>
 5   0  0.1989298E-02  0.7969594E+03  0.7818609E-02  0.9564429E-01
       -1   -1    0    0    0  501  0.00000000000E+00  0.00000000000E+00  0.94250753399E+03  0.94250753400E+03  0.50400001928E-02 0. -1.
        1   -1    0    0  501    0  0.00000000000E+00  0.00000000000E+00 -0.16847193213E+03  0.16847193220E+03  0.50400001928E-02 0.  1.
    10030    2    1    2    0    0  0.00000000000E+00  0.00000000000E+00  0.77403560186E+03  0.11109794662E+04  0.79695938502E+03 0.  0.
        1    1    3    3  502    0 -0.71778848289E+02  0.36302848702E+03  0.59305124145E+03  0.69903623687E+03  0.50400001928E-02 0. -1.
       -1    1    3    3    0  502  0.71778848289E+02 -0.36302848702E+03  0.18098436042E+03  0.41194322933E+03  0.50400001928E-02 0.  1.
</event>
<event>
 5   0  0.3416160E-02  0.7874831E+03  0.7818609E-02  0.9578314E-01
        2   -1    0    0  501    0  0.00000000000E+00  0.00000000000E+00  0.51158970253E+03  0.51158970253E+03  0.25500000920E-02 0. -1.
       -2   -1    0    0    0  501  0.00000000000E+00  0.00000000000E+00 -0.30304051000E+03  0.30304051001E+03  0.25500000920E-02 0.  1.
    10030    2    1    2    0    0  0.00000000000E+00  0.00000000000E+00  0.20854919253E+03  0.81463021254E+03  0.78748309029E+03 0.  0.
        1    1    3    3  502    0 -0.31445801117E+03  0.78708551203E+02 -0.12693313753E+03  0.34812483141E+03  0.50400001928E-02 0.  1.
       -1    1    3    3    0  502  0.31445801117E+03 -0.78708551203E+02  0.33548233005E+03  0.46650538113E+03  0.50400001928E-02 0. -1.
</event>
<event>
 5   0  0.2132540E-02  0.8630086E+03  0.7818609E-02  0.9473042E-01
       -1   -1    0    0    0  501  0.00000000000E+00  0.00000000000E+00  0.16134279082E+03  0.16134279089E+03  0.50400001928E-02 0. -1.
        1   -1    0    0  501    0  0.00000000000E+00  0.00000000000E+00 -0.11540395671E+04  0.11540395671E+04  0.50400001928E-02 0.  1.
    10030    2    1    2    0    0  0.00000000000E+00  0.00000000000E+00 -0.99269677624E+03  0.13153823580E+04  0.86300860834E+03 0.  0.
        4    1    3    3  502    0 -0.27506327685E+03  0.24285401368E+03 -0.15026680690E+03  0.39650927403E+03  0.12699999809E+01 0. -1.
       -4    1    3    3    0  502  0.27506327685E+03 -0.24285401368E+03 -0.84242996934E+03  0.91887308393E+03  0.12699999809E+01 0.  1.
</event>
<event>
 5   0  0.1358000E-02  0.7649243E+03  0.7818609E-02  0.9612223E-01
       -3   -1    0    0    0  501  0.00000000000E+00  0.00000000000E+00  0.60355189810E+03  0.60355190655E+03  0.10100000352E+00 0. -1.
        3   -1    0    0  501    0  0.00000000000E+00  0.00000000000E+00 -0.24236073240E+03  0.24236075344E+03  0.10100000352E+00 0.  1.
    10030    2    1    2    0    0  0.00000000000E+00  0.00000000000E+00  0.36119116570E+03  0.84591265999E+03  0.76492429047E+03 0.  0.
        4    1    3    3  502    0  0.31998739461E+03  0.58018067839E+02 -0.42006488179E+02  0.32790880875E+03  0.12699999809E+01 0.  1.
       -4    1    3    3    0  502 -0.31998739461E+03 -0.58018067839E+02  0.40319765388E+03  0.51800385124E+03  0.12699999809E+01 0. -1.
</event>
<event>
 5   0  0.3550586E-02  0.7826218E+03  0.7818609E-02  0.9585518E-01
       -2   -1    0    0    0  501  0.00000000000E+00  0.00000000000E+00  0.68964442128E+03  0.68964442128E+03  0.25500000920E-02 0.  1.
        2   -1    0    0  501    0  0.00000000000E+00  0.00000000000E+00 -0.22203359152E+03  0.22203359154E+03  0.25500000920E-02 0. -1.
    10030    2    1    2    0    0  0.00000000000E+00  0.00000000000E+00  0.46761082976E+03  0.91167801282E+03  0.78262181860E+03 0.  0.
        3    1    3    3  502    0  0.14180100564E+03  0.24301489731E+02  0.65771806159E+03  0.67326899999E+03  0.10100000352E+00 0.  1.
       -3    1    3    3    0  502 -0.14180100564E+03 -0.24301489731E+02 -0.19010723183E+03  0.23840901283E+03  0.10100000352E+00 0. -1.
</event>
<event>
 5   0  0.2129257E-02  0.8033122E+03  0.7818609E-02  0.9555235E-01
       -1   -1    0    0    0  501  0.00000000000E+00  0.00000000000E+00  0.89910482181E+03  0.89910482182E+03  0.50400001928E-02 0. -1.
        1   -1    0    0  501    0  0.00000000000E+00  0.00000000000E+00 -0.17943137935E+03  0.17943137942E+03  0.50400001928E-02 0.  1.
    10030    2    1    2    0    0  0.00000000000E+00  0.00000000000E+00  0.71967344246E+03  0.10785362012E+04  0.80331218938E+03 0.  0.
        3    1    3    3  502    0  0.17098720999E+03  0.29913703911E+03  0.82698761073E+02  0.35434261588E+03  0.10100000352E+00 0.  1.
       -3    1    3    3    0  502 -0.17098720999E+03 -0.29913703911E+03  0.63697468138E+03  0.72419358536E+03  0.10100000352E+00 0. -1.
</event>
<event>
 5   0  0.3416160E-02  0.7967732E+03  0.7818609E-02  0.9564700E-01
        2   -1    0    0  501    0  0.00000000000E+00  0.00000000000E+00  0.29071582232E+03  0.29071582233E+03  0.25500000920E-02 0.  1.
       -2   -1    0    0    0  501  0.00000000000E+00  0.00000000000E+00 -0.54593476593E+03  0.54593476593E+03  0.25500000920E-02 0. -1.
    10030    2    1    2    0    0  0.00000000000E+00  0.00000000000E+00 -0.25521894361E+03  0.83665058826E+03  0.79677317831E+03 0.  0.
        1    1    3    3  502    0  0.90527481732E+02 -0.38087403658E+03 -0.20513988729E+03  0.44197582521E+03  0.50400001928E-02 0. -1.
       -1    1    3    3    0  502 -0.90527481732E+02  0.38087403658E+03 -0.50079056319E+02  0.39467476306E+03  0.50400001928E-02 0.  1.
</event>
<event>
 5   0  0.2132540E-02  0.8009029E+03  0.7818609E-02  0.9558711E-01
        1   -1    0    0  501    0  0.00000000000E+00  0.00000000000E+00  0.59459960934E+03  0.59459960936E+03  0.50400001928E-02 0. -1.
       -1   -1    0    0    0  501  0.00000000000E+00  0.00000000000E+00 -0.26969639875E+03  0.26969639880E+03  0.50400001928E-02 0.  1.
    10030    2    1    2    0    0  0.00000000000E+00  0.00000000000E+00  0.32490321059E+03  0.86429600816E+03  0.80090292388E+03 0.  0.
        4    1    3    3  502    0  0.31771526924E+03 -0.13544673738E+03 -0.56249007341E+02  0.34993481493E+03  0.12699999809E+01 0.  1.
       -4    1    3    3    0  502 -0.31771526924E+03  0.13544673738E+03  0.38115221793E+03  0.51436119323E+03  0.12699999809E+01 0. -1.
</event>
<event>
 5   0  0.3550586E-02  0.8044809E+03  0.7818609E-02  0.9553554E-01
       -2   -1    0    0    0  501  0.00000000000E+00  0.00000000000E+00  0.11912256417E+03  0.11912256420E+03  0.25500000920E-02 0. -1.
        2   -1    0    0  501    0  0.00000000000E+00  0.00000000000E+00 -0.13582430692E+04  0.13582430692E+04  0.25500000920E-02 0.  1.
    10030    2    1    2    0    0  0.00000000000E+00  0.00000000000E+00 -0.12391205050E+04  0.14773656334E+04  0.80448094368E+03 0.  0.
        3    1    3    3  502    0 -0.46180596144E+02 -0.36837272893E+03 -0.33526312348E+03  0.50023243302E+03  0.10100000352E+00 0. -1.
       -3    1    3    3    0  502  0.46180596144E+02  0.36837272893E+03 -0.90385738154E+03  0.97713320036E+03  0.10100000352E+00 0.  1.
</event>
<event>
 5   0  0.2132540E-02  0.7882893E+03  0.7818609E-02  0.9577124E-01
        1   -1    0    0  501    0  0.00000000000E+00  0.00000000000E+00  0.31480735505E+03  0.31480735509E+03  0.50400001928E-02 0. -1.
       -1   -1    0    0    0  501  0.00000000000E+00  0.00000000000E+00 -0.49347636004E+03  0.49347636007E+03  0.50400001928E-02 0.  1.
    10030    2    1    2    0    0  0.00000000000E+00  0.00000000000E+00 -0.17866900500E+03  0.80828371516E+03  0.78828925582E+03 0.  0.
        4    1    3    3  502    0 -0.31199359307E+03 -0.23452859030E+03 -0.33128885232E+02  0.39171775262E+03  0.12699999809E+01 0.  1.
       -4    1    3    3    0  502  0.31199359307E+03  0.23452859030E+03 -0.14554011976E+03  0.41656596254E+03  0.12699999809E+01 0. -1.
</event>
<event>
 5   0  0.2077795E-02  0.7932262E+03  0.7818609E-02  0.9569874E-01
       -1   -1    0    0    0  501  0.00000000000E+00  0.00000000000E+00  0.11766351877E+03  0.11766351888E+03  0.50400001928E-02 0.  1.
        1   -1    0    0  501    0  0.00000000000E+00  0.00000000000E+00 -0.13368794820E+04  0.13368794820E+04  0.50400001928E-02 0. -1.
    10030    2    1    2    0    0  0.00000000000E+00  0.00000000000E+00 -0.12192159632E+04  0.14545430009E+04  0.79322618239E+03 0.  0.
        5    1    3    3  502    0  0.26094040730E+03 -0.14987412592E+03 -0.13593063416E+03  0.33022927957E+03  0.46999998093E+01 0.  1.
       -5    1    3    3    0  502 -0.26094040730E+03  0.14987412592E+03 -0.10832853290E+04  0.11243137213E+04  0.46999998093E+01 0. -1.
</event>
<event>
 5   0  0.2132540E-02  0.8238099E+03  0.7818609E-02  0.9526179E-01
       -1   -1    0    0    0  501  0.00000000000E+00  0.00000000000E+00  0.39803189500E+03  0.39803189503E+03  0.50400001928E-02 0. -1.
        1   -1    0    0  501    0  0.00000000000E+00  0.00000000000E+00 -0.42626151234E+03  0.42626151237E+03  0.50400001928E-02 0.  1.
    10030    2    1    2    0    0  0.00000000000E+00  0.00000000000E+00 -0.28229617337E+02  0.82429340740E+03  0.82380987503E+03 0.  0.
        4    1    3    3  502    0 -0.18947075201E+03 -0.20495583656E+01 -0.38006257125E+03  0.42467933493E+03  0.12699999809E+01 0.  1.
       -4    1    3    3    0  502  0.18947075201E+03  0.20495583656E+01  0.35183295391E+03  0.39961407247E+03  0.12699999809E+01 0. -1.
</event>
<event>
 5   0  0.2129257E-02  0.7855555E+03  0.7818609E-02  0.9581164E-01
        1   -1    0    0  501    0  0.00000000000E+00  0.00000000000E+00  0.28073871909E+03  0.28073871914E+03  0.50400001928E-02 0. -1.
       -1   -1    0    0    0  501  0.00000000000E+00  0.00000000000E+00 -0.54953001216E+03  0.54953001218E+03  0.50400001928E-02 0.  1.
    10030    2    1    2    0    0  0.00000000000E+00  0.00000000000E+00 -0.26879129307E+03  0.83026873132E+03  0.78555547670E+03 0.  0.
        3    1    3    3  502    0 -0.33475518717E+03 -0.17529978344E+03 -0.21136045309E+02  0.37846768954E+03  0.10100000352E+00 0. -1.
       -3    1    3    3    0  502  0.33475518717E+03  0.17529978344E+03 -0.24765524776E+03  0.45180104178E+03  0.10100000352E+00 0.  1.
</event>
<event>
 5   0  0.3467240E-02  0.8751248E+03  0.7818609E-02  0.9457222E-01
       -2   -1    0    0    0  501  0.00000000000E+00  0.00000000000E+00  0.13337378667E+03  0.13337378669E+03  0.25500000920E-02 0. -1.
        2   -1    0    0  501    0  0.00000000000E+00  0.00000000000E+00 -0.14355209271E+04  0.14355209271E+04  0.25500000920E-02 0.  1.
    10030    2    1    2    0    0  0.00000000000E+00  0.00000000000E+00 -0.13021471404E+04  0.15688947138E+04  0.87512481831E+03 0.  0.
        2    1    3    3  502    0 -0.10973433598E+01 -0.41692510436E+03 -0.41301253363E+03  0.58686207899E+03  0.25500000920E-02 0. -1.
       -2    1    3    3    0  502  0.10973433598E+01  0.41692510436E+03 -0.88913460676E+03  0.98203263477E+03  0.25500000920E-02 0.  1.
</event>
<event>
 5   0  0.3343036E-02  0.8111406E+03  0.7818609E-02  0.9544030E-01
        2   -1    0    0  501    0  0.00000000000E+00  0.00000000000E+00  0.25454606723E+03  0.25454606724E+03  0.25500000920E-02 0. -1.
       -2   -1    0    0    0  501  0.00000000000E+00  0.00000000000E+00 -0.64619845378E+03  0.64619845378E+03  0.25500000920E-02 0.  1.
    10030    2    1    2    0    0  0.00000000000E+00  0.00000000000E+00 -0.39165238654E+03  0.90074452102E+03  0.81114061683E+03 0.  0.
        4    1    3    3  502    0 -0.22027762703E+03  0.32886297298E+03 -0.97673423825E+02  0.40769449173E+03  0.12699999809E+01 0. -1.
       -4    1    3    3    0  502  0.22027762703E+03 -0.32886297298E+03 -0.29397896272E+03  0.49305002929E+03  0.12699999809E+01 0.  1.
</event>
<event>
 5   0  0.3404132E-02  0.8060051E+03  0.7818609E-02  0.9551365E-01
        2   -1    0    0  501    0  0.00000000000E+00  0.00000000000E+00  0.86079280568E+03  0.86079280568E+03  0.25500000920E-02 0. -1.
       -2   -1    0    0    0  501  0.00000000000E+00  0.00000000000E+00 -0.18867610977E+03  0.18867610979E+03  0.25500000920E-02 0.  1.
    10030    2    1    2    0    0  0.00000000000E+00  0.00000000000E+00  0.67211669590E+03  0.10494689155E+04  0.80600505683E+03 0.  0.
        5    1    3    3  502    0  0.12657075359E+03  0.37056075908E+03  0.45994954567E+03  0.60407872533E+03  0.46999998093E+01 0. -1.
       -5    1    3    3    0  502 -0.12657075359E+03 -0.37056075908E+03  0.21216715023E+03  0.44539019014E+03  0.46999998093E+01 0.  1.
</event>
<event>
 5   0  0.3404132E-02  0.8127424E+03  0.7818609E-02  0.9541754E-01
        2   -1    0    0  501    0  0.00000000000E+00  0.00000000000E+00  0.11294315628E+04  0.11294315628E+04  0.25500000920E-02 0.  1.
       -2   -1    0    0    0  501  0.00000000000E+00  0.00000000000E+00 -0.14621297069E+03  0.14621297072E+03  0.25500000920E-02 0. -1.
    10030    2    1    2    0    0  0.00000000000E+00  0.00000000000E+00  0.98321859212E+03  0.12756445335E+04  0.81274237988E+03 0.  0.
        5    1    3    3  502    0 -0.18146418098E+03 -0.13334151931E+03 -0.39277141171E+02  0.22863506636E+03  0.46999998093E+01 0. -1.
       -5    1    3    3    0  502  0.18146418098E+03  0.13334151931E+03  0.10224957333E+04  0.10470094672E+04  0.46999998093E+01 0.  1.
</event>
<event>
 5   0  0.2063692E-02  0.7567549E+03  0.7818609E-02  0.9624812E-01
        1   -1    0    0  501    0  0.00000000000E+00  0.00000000000E+00  0.17184812963E+03  0.17184812971E+03  0.50400001928E-02 0. -1.
       -1   -1    0    0    0  501  0.00000000000E+00  0.00000000000E+00 -0.83311642519E+03  0.83311642521E+03  0.50400001928E-02 0.  1.
    10030    2    1    2    0    0  0.00000000000E+00  0.00000000000E+00 -0.66126829556E+03  0.10049645549E+04  0.75675491272E+03 0.  0.
        2    1    3    3  502    0 -0.24906603979E+03 -0.70461059104E+02  0.35879276628E+02  0.26131585395E+03  0.25500000920E-02 0. -1.
       -2    1    3    3    0  502  0.24906603979E+03  0.70461059104E+02 -0.69714757219E+03  0.74364870096E+03  0.25500000920E-02 0.  1.
</event>
<event>
 5   0  0.1989298E-02  0.7969608E+03  0.7818609E-02  0.9564427E-01
       -1   -1    0    0    0  501  0.00000000000E+00  0.00000000000E+00  0.14020578859E+03  0.14020578868E+03  0.50400001928E-02 0.  1.
        1   -1    0    0  501    0  0.00000000000E+00  0.00000000000E+00 -0.11325254835E+04  0.11325254835E+04  0.50400001928E-02 0. -1.
    10030    2    1    2    0    0  0.00000000000E+00  0.00000000000E+00 -0.99231969492E+03  0.12727312722E+04  0.79696079848E+03 0.  0.
        1    1    3    3  502    0  0.18882239727E+03 -0.11328382086E+03 -0.10265391171E+04  0.10498903185E+04  0.50400001928E-02 0. -1.
       -1    1    3    3    0  502 -0.18882239727E+03  0.11328382086E+03  0.34219422214E+02  0.22284095373E+03  0.50400001928E-02 0.  1.
</event>
<event>
 5   0  0.3550586E-02  0.7959638E+03  0.7818609E-02  0.9565878E-01
        2   -1    0    0  501    0  0.00000000000E+00  0.00000000000E+00  0.60730711694E+03  0.60730711695E+03  0.25500000920E-02 0.  1.
       -2   -1    0    0    0  501  0.00000000000E+00  0.00000000000E+00 -0.26080640992E+03  0.26080640993E+03  0.25500000920E-02 0. -1.
    10030    2    1    2    0    0  0.00000000000E+00  0.00000000000E+00  0.34650070703E+03  0.86811352688E+03  0.79596379037E+03 0.  0.
        3    1    3    3  502    0  0.13977311848E+03  0.28877548904E+03 -0.83599947191E+02  0.33153697998E+03  0.10100000352E+00 0. -1.
       -3    1    3    3    0  502 -0.13977311848E+03 -0.28877548904E+03  0.43010065422E+03  0.53657654690E+03  0.10100000352E+00 0.  1.
</event>
<event>
 5   0  0.3416160E-02  0.7894068E+03  0.7818609E-02  0.9575478E-01
       -2   -1    0    0    0  501  0.00000000000E+00  0.00000000000E+00  0.92108911855E+02  0.92108911891E+02  0.25500000920E-02 0. -1.
        2   -1    0    0  501    0  0.00000000000E+00  0.00000000000E+00 -0.16913756400E+04  0.16913756400E+04  0.25500000920E-02 0.  1.
    10030    2    1    2    0    0  0.00000000000E+00  0.00000000000E+00 -0.15992667281E+04  0.17834845519E+04  0.78940678936E+03 0.  0.
        1    1    3    3  502    0  0.38878231348E+03  0.67927793359E+02 -0.81090651058E+03  0.90185100838E+03  0.50400001928E-02 0.  1.
       -1    1    3    3    0  502 -0.38878231348E+03 -0.67927793359E+02 -0.78836021757E+03  0.88163354352E+03  0.50400001928E-02 0. -1.
</event>
<event>
 5   0  0.1358000E-02  0.8047052E+03  0.7818609E-02  0.9553231E-01
       -3   -1    0    0    0  501  0.00000000000E+00  0.00000000000E+00  0.14958380815E+04  0.14958380849E+04  0.10100000352E+00 0.  1.
        3   -1    0    0  501    0  0.00000000000E+00  0.00000000000E+00 -0.10822532589E+03  0.10822537302E+03  0.10100000352E+00 0. -1.
    10030    2    1    2    0    0  0.00000000000E+00  0.00000000000E+00  0.13876127556E+04  0.16040634579E+04  0.80470517430E+03 0.  0.
        4    1    3    3  502    0 -0.29776726178E+03  0.26401224089E+03  0.81204085813E+03  0.90431176797E+03  0.12699999809E+01 0.  1.
       -4    1    3    3    0  502  0.29776726178E+03 -0.26401224089E+03  0.57557189746E+03  0.69975168994E+03  0.12699999809E+01 0. -1.
</event>
<event>
 5   0  0.3404132E-02  0.7958792E+03  0.7818609E-02  0.9566001E-01
       -2   -1    0    0    0  501  0.00000000000E+00  0.00000000000E+00  0.33022321234E+03  0.33022321235E+03  0.25500000920E-02 0. -1.
        2   -1    0    0  501    0  0.00000000000E+00  0.00000000000E+00 -0.47954205736E+03  0.47954205737E+03  0.25500000920E-02 0.  1.
    10030    2    1    2    0    0  0.00000000000E+00  0.00000000000E+00 -0.14931884502E+03  0.80976526972E+03  0.79587918340E+03 0.  0.
        5    1    3    3  502    0  0.42191571541E+02 -0.23923925521E+03  0.24598714311E+03  0.34575614892E+03  0.46999998093E+01 0. -1.
       -5    1    3    3    0  502 -0.42191571541E+02  0.23923925521E+03 -0.39530598813E+03  0.46400912080E+03  0.46999998093E+01 0.  1.
</event>
<event>
 5   0  0.2129257E-02  0.7945949E+03  0.7818609E-02  0.9567874E-01
       -1   -1    0    0    0  501  0.00000000000E+00  0.00000000000E+00  0.10066942523E+03  0.10066942536E+03  0.50400001928E-02 0. -1.
        1   -1    0    0  501    0  0.00000000000E+00  0.00000000000E+00 -0.15679565321E+04  0.15679565321E+04  0.50400001928E-02 0.  1.
    10030    2    1    2    0    0  0.00000000000E+00  0.00000000000E+00 -0.14672871069E+04  0.16686259574E+04  0.79459494834E+03 0.  0.
        3    1    3    3  502    0 -0.15700083958E+03  0.26664633384E+03 -0.21035154138E+03  0.37416214686E+03  0.10100000352E+00 0. -1.
       -3    1    3    3    0  502  0.15700083958E+03 -0.26664633384E+03 -0.12569355655E+04  0.12944638106E+04  0.10100000352E+00 0.  1.
</event>
<event>
 5   0  0.1358000E-02  0.7945643E+03  0.7818609E-02  0.9567918E-01
       -3   -1    0    0    0  501  0.00000000000E+00  0.00000000000E+00  0.10858971398E+04  0.10858971445E+04  0.10100000352E+00 0. -1.
        3   -1    0    0  501    0  0.00000000000E+00  0.00000000000E+00 -0.14534811281E+03  0.14534814790E+03  0.10100000352E+00 0.  1.
    10030    2    1    2    0    0  0.00000000000E+00  0.00000000000E+00  0.94054902703E+03  0.12312452924E+04  0.79456434472E+03 0.  0.
        1    1    3    3  502    0 -0.42120716202E+02  0.33726992946E+03  0.15154184741E+03  0.37214256891E+03  0.50400001928E-02 0.  1.
       -1    1    3    3    0  502  0.42120716202E+02 -0.33726992946E+03  0.78900717962E+03  0.85910272352E+03  0.50400001928E-02 0. -1.
</event>
<event>
 5   0  0.3467240E-02  0.8127145E+03  0.7818609E-02  0.9541794E-01
       -2   -1    0    0    0  501  0.00000000000E+00  0.00000000000E+00  0.39105937958E+03  0.39105937959E+03  0.25500000920E-02 0.  1.
        2   -1    0    0  501    0  0.00000000000E+00  0.00000000000E+00 -0.42225359999E+03  0.42225360000E+03  0.25500000920E-02 0. -1.
    10030    2    1    2    0    0  0.00000000000E+00  0.00000000000E+00 -0.31194220409E+02  0.81331297959E+03  0.81271453991E+03 0.  0.
        2    1    3    3  502    0  0.13899594522E+03 -0.29556594011E+03  0.22633932668E+03  0.39737713642E+03  0.25500000920E-02 0.  1.
       -2    1    3    3    0  502 -0.13899594522E+03  0.29556594011E+03 -0.25753354709E+03  0.41593584316E+03  0.25500000920E-02 0. -1.
</event>
<event>
 5   0  0.1989298E-02  0.8036184E+03  0.7818609E-02  0.9554794E-01
        1   -1    0    0  501    0  0.00000000000E+00  0.00000000000E+00  0.55252612491E+03  0.55252612493E+03  0.50400001928E-02 0.  1.
       -1   -1    0    0    0  501  0.00000000000E+00  0.00000000000E+00 -0.29220455529E+03  0.29220455533E+03  0.50400001928E-02 0. -1.
    10030    2    1    2    0    0  0.00000000000E+00  0.00000000000E+00  0.26032156962E+03  0.84473068026E+03  0.80361844339E+03 0.  0.
        1    1    3    3  502    0 -0.32767926105E+03 -0.12220874677E+03 -0.77803970014E+02  0.35827661615E+03  0.50400001928E-02 0. -1.
       -1    1    3    3    0  502  0.32767926105E+03  0.12220874677E+03  0.33812553964E+03  0.48645406411E+03  0.50400001928E-02 0.  1.
</event>
<event>
 5   0  0.3550586E-02  0.7491100E+03  0.7818609E-02  0.9636748E-01
       -2   -1    0    0    0  501  0.00000000000E+00  0.00000000000E+00  0.23690888526E+03  0.23690888527E+03  0.25500000920E-02 0.  1.
        2   -1    0    0  501    0  0.00000000000E+00  0.00000000000E+00 -0.59217468236E+03  0.59217468236E+03  0.25500000920E-02 0. -1.
    10030    2    1    2    0    0  0.00000000000E+00  0.00000000000E+00 -0.35526579710E+03  0.82908356764E+03  0.74910998894E+03 0.  0.
        3    1    3    3  502    0 -0.79125542343E+02  0.50212265774E+02 -0.57899001693E+03  0.58652499775E+03  0.10100000352E+00 0. -1.
       -3    1    3    3    0  502  0.79125542343E+02 -0.50212265774E+02  0.22372421983E+03  0.24255856988E+03  0.10100000352E+00 0.  1.
</event>
<event>
 5   0  0.3467240E-02  0.8014693E+03  0.7818609E-02  0.9557893E-01
        2   -1    0    0  501    0  0.00000000000E+00  0.00000000000E+00  0.14141578291E+04  0.14141578291E+04  0.25500000920E-02 0. -1.
       -2   -1    0    0    0  501  0.00000000000E+00  0.00000000000E+00 -0.11355753211E+03  0.11355753214E+03  0.25500000920E-02 0.  1.
    10030    2    1    2    0    0  0.00000000000E+00  0.00000000000E+00  0.13006002970E+04  0.15277153612E+04  0.80146933343E+03 0.  0.
        2    1    3    3  502    0  0.50671303377E+02 -0.47568980364E+02 -0.10198165226E+03  0.12341250457E+03  0.25500000920E-02 0.  1.
       -2    1    3    3    0  502 -0.50671303377E+02  0.47568980364E+02  0.14025819492E+04  0.14043028566E+04  0.25500000920E-02 0. -1.
</event>
<event>
 5   0  0.1989298E-02  0.8003569E+03  0.7818609E-02  0.9559501E-01
       -1   -1    0    0    0  501  0.00000000000E+00  0.00000000000E+00  0.10047764633E+03  0.10047764646E+03  0.50400001928E-02 0. -1.
        1   -1    0    0  501    0  0.00000000000E+00  0.00000000000E+00 -0.15938152202E+04  0.15938152202E+04  0.50400001928E-02 0.  1.
    10030    2    1    2    0    0  0.00000000000E+00  0.00000000000E+00 -0.14933375739E+04  0.16942928667E+04  0.80035692570E+03 0.  0.
        1    1    3    3  502    0  0.17710821538E+03 -0.14550163812E+03 -0.14410860479E+04  0.14592008238E+04  0.50400001928E-02 0.  1.
       -1    1    3    3    0  502 -0.17710821538E+03  0.14550163812E+03 -0.52251526015E+02  0.23509204293E+03  0.50400001928E-02 0. -1.
</event>
<event>
 5   0  0.3404132E-02  0.8073123E+03  0.7818609E-02  0.9549493E-01
       -2   -1    0    0    0  501  0.00000000000E+00  0.00000000000E+00  0.12848756830E+04  0.12848756830E+04  0.25500000920E-02 0.  1.
        2   -1    0    0  501    0  0.00000000000E+00  0.00000000000E+00 -0.12681248752E+03  0.12681248754E+03  0.25500000920E-02 0. -1.
    10030    2    1    2    0    0  0.00000000000E+00  0.00000000000E+00  0.11580631954E+04  0.14116881705E+04  0.80731228536E+03 0.  0.
        5    1    3    3  502    0 -0.25257992232E+03 -0.19784066750E+02  0.29594794382E+02  0.25511951770E+03  0.46999998093E+01 0. -1.
       -5    1    3    3    0  502  0.25257992232E+03  0.19784066750E+02  0.11284684011E+04  0.11565686528E+04  0.46999998093E+01 0.  1.
</event>
<event>
 5   0  0.3467240E-02  0.8023078E+03  0.7818609E-02  0.9556683E-01
        2   -1    0    0  501    0  0.00000000000E+00  0.00000000000E+00  0.19148400495E+04  0.19148400495E+04  0.25500000920E-02 0.  1.
       -2   -1    0    0    0  501  0.00000000000E+00  0.00000000000E+00 -0.84040666092E+02  0.84040666131E+02  0.25500000920E-02 0. -1.
    10030    2    1    2    0    0  0.00000000000E+00  0.00000000000E+00  0.18307993834E+04  0.19988807156E+04  0.80230775456E+03 0.  0.
        2    1    3    3  502    0  0.32423557079E+03  0.20454087978E+03  0.12097532243E+04  0.12690423714E+04  0.25500000920E-02 0.  1.
       -2    1    3    3    0  502 -0.32423557079E+03 -0.20454087978E+03  0.62104615911E+03  0.72983834417E+03  0.25500000920E-02 0. -1.
</event>
<event>
 5   0  0.3404132E-02  0.8229517E+03  0.7818609E-02  0.9527377E-01
       -2   -1    0    0    0  501  0.00000000000E+00  0.00000000000E+00  0.18554140161E+03  0.18554140162E+03  0.25500000920E-02 0. -1.
        2   -1    0    0  501    0  0.00000000000E+00  0.00000000000E+00 -0.91253142354E+03  0.91253142355E+03  0.25500000920E-02 0.  1.
    10030    2    1    2    0    0  0.00000000000E+00  0.00000000000E+00 -0.72699002194E+03  0.10980728252E+04  0.82295166163E+03 0.  0.
        5    1    3    3  502    0  0.28021687829E+02 -0.17149912069E+03  0.13413850183E+03  0.21957320205E+03  0.46999998093E+01 0. -1.
       -5    1    3    3    0  502 -0.28021687829E+02  0.17149912069E+03 -0.86112852376E+03  0.87849962312E+03  0.46999998093E+01 0.  1.
</event>
<event>
 5   0  0.1989298E-02  0.8040036E+03  0.7818609E-02  0.9554240E-01
        1   -1    0    0  501    0  0.00000000000E+00  0.00000000000E+00  0.99691893122E+03  0.99691893123E+03  0.50400001928E-02 0. -1.
       -1   -1    0    0    0  501  0.00000000000E+00  0.00000000000E+00 -0.16210490028E+03  0.16210490035E+03  0.50400001928E-02 0.  1.
    10030    2    1    2    0    0  0.00000000000E+00  0.00000000000E+00  0.83481403095E+03  0.11590238316E+04  0.80400359199E+03 0.  0.
        1    1    3    3  502    0 -0.51707018857E+02  0.97435208983E+02  0.97467642367E+03  0.98089824479E+03  0.50400001928E-02 0. -1.
       -1    1    3    3    0  502  0.51707018857E+02 -0.97435208983E+02 -0.13986239272E+03  0.17812558680E+03  0.50400001928E-02 0.  1.
</event>
<event>
 5   0  0.3343036E-02  0.8033256E+03  0.7818609E-02  0.9555216E-01
       -2   -1    0    0    0  501  0.00000000000E+00  0.00000000000E+00  0.30148362507E+03  0.30148362508E+03  0.25500000920E-02 0.  1.
        2   -1    0    0  501    0  0.00000000000E+00  0.00000000000E+00 -0.53513023316E+03  0.53513023316E+03  0.25500000920E-02 0. -1.
    10030    2    1    2    0    0  0.00000000000E+00  0.00000000000E+00 -0.23364660809E+03  0.83661385824E+03  0.80332559422E+03 0.  0.
        4    1    3    3  502    0  0.15008128977E+02  0.35868550106E+03  0.70782614872E+02  0.36591300069E+03  0.12699999809E+01 0.  1.
       -4    1    3    3    0  502 -0.15008128977E+02 -0.35868550106E+03 -0.30442922296E+03  0.47070085755E+03  0.12699999809E+01 0. -1.
</event>
<event>
 5   0  0.3550586E-02  0.7837393E+03  0.7818609E-02  0.9583857E-01
        2   -1    0    0  501    0  0.00000000000E+00  0.00000000000E+00  0.93485266140E+03  0.93485266141E+03  0.25500000920E-02 0. -1.
       -2   -1    0    0    0  501  0.00000000000E+00  0.00000000000E+00 -0.16426311023E+03  0.16426311025E+03  0.25500000920E-02 0.  1.
    10030    2    1    2    0    0  0.00000000000E+00  0.00000000000E+00  0.77058955117E+03  0.10991157717E+04  0.78373925711E+03 0.  0.
        3    1    3    3  502    0  0.11508057552E+03  0.36040126821E+03  0.24207698340E+03  0.44914795901E+03  0.10100000352E+00 0.  1.
       -3    1    3    3    0  502 -0.11508057552E+03 -0.36040126821E+03  0.52851256777E+03  0.64996781265E+03  0.10100000352E+00 0. -1.
</event>
<event>
 5   0  0.3404132E-02  0.7961967E+03  0.7818609E-02  0.9565539E-01
       -2   -1    0    0    0  501  0.00000000000E+00  0.00000000000E+00  0.22179288157E+03  0.22179288159E+03  0.25500000920E-02 0. -1.
        2   -1    0    0  501    0  0.00000000000E+00  0.00000000000E+00 -0.71455088495E+03  0.71455088496E+03  0.25500000920E-02 0.  1.
    10030    2    1    2    0    0  0.00000000000E+00  0.00000000000E+00 -0.49275800338E+03  0.93634376654E+03  0.79619670889E+03 0.  0.
        5    1    3    3  502    0 -0.26015298102E+03 -0.95694452148E+02  0.89607458046E+02  0.29135646251E+03  0.46999998093E+01 0. -1.
       -5    1    3    3    0  502  0.26015298102E+03  0.95694452148E+02 -0.58236546143E+03  0.64498730404E+03  0.46999998093E+01 0.  1.
</event>
<event>
 5   0  0.3550586E-02  0.8072166E+03  0.7818609E-02  0.9549630E-01
       -2   -1    0    0    0  501  0.00000000000E+00  0.00000000000E+00  0.90887723709E+02  0.90887723744E+02  0.25500000920E-02 0. -1.
        2   -1    0    0  501    0  0.00000000000E+00  0.00000000000E+00 -0.17923175091E+04  0.17923175091E+04  0.25500000920E-02 0.  1.
    10030    2    1    2    0    0  0.00000000000E+00  0.00000000000E+00 -0.17014297854E+04  0.18832052329E+04  0.80721659696E+03 0.  0.
        3    1    3    3  502    0 -0.53606019981E+02  0.15996365463E+03 -0.17061125600E+04  0.17144334498E+04  0.10100000352E+00 0.  1.
       -3    1    3    3    0  502  0.53606019981E+02 -0.15996365463E+03  0.46827745887E+01  0.16877178307E+03  0.10100000352E+00 0. -1.
</event>
<event>
 5   0  0.2129257E-02  0.8085102E+03  0.7818609E-02  0.9547780E-01
       -1   -1    0    0    0  501  0.00000000000E+00  0.00000000000E+00  0.67918476258E+03  0.67918476260E+03  0.50400001928E-02 0.  1.
        1   -1    0    0  501    0  0.00000000000E+00  0.00000000000E+00 -0.24061519797E+03  0.24061519802E+03  0.50400001928E-02 0. -1.
    10030    2    1    2    0    0  0.00000000000E+00  0.00000000000E+00  0.43856956461E+03  0.91979996062E+03  0.80851017591E+03 0.  0.
        3    1    3    3  502    0  0.15640327706E+03 -0.32409597750E+03  0.42881587696E+03  0.55980644355E+03  0.10100000352E+00 0.  1.
       -3    1    3    3    0  502 -0.15640327706E+03  0.32409597750E+03  0.97536876465E+01  0.35999351707E+03  0.10100000352E+00 0. -1.
</event>
<event>
 5   0  0.2129257E-02  0.8068031E+03  0.7818609E-02  0.9550222E-01
        1   -1    0    0  501    0  0.00000000000E+00  0.00000000000E+00  0.87048721321E+03  0.87048721323E+03  0.50400001928E-02 0. -1.
       -1   -1    0    0    0  501  0.00000000000E+00  0.00000000000E+00 -0.18694453147E+03  0.18694453154E+03  0.50400001928E-02 0.  1.
    10030    2    1    2    0    0  0.00000000000E+00  0.00000000000E+00  0.68354268174E+03  0.10574317448E+04  0.80680313403E+03 0.  0.
        3    1    3    3  502    0  0.85918046663E+02 -0.53454181200E+02  0.85358339528E+03  0.85956028475E+03  0.10100000352E+00 0. -1.
       -3    1    3    3    0  502 -0.85918046663E+02  0.53454181200E+02 -0.17004071353E+03  0.19787146002E+03  0.10100000352E+00 0.  1.
</event>
<event>
 5   0  0.3343036E-02  0.7967325E+03  0.7818609E-02  0.9564759E-01
        2   -1    0    0  501    0  0.00000000000E+00  0.00000000000E+00  0.54859189123E+03  0.54859189123E+03  0.25500000920E-02 0.  1.
       -2   -1    0    0    0  501  0.00000000000E+00  0.00000000000E+00 -0.28927816427E+03  0.28927816428E+03  0.25500000920E-02 0. -1.
    10030    2    1    2    0    0  0.00000000000E+00  0.00000000000E+00  0.25931372695E+03  0.83787005551E+03  0.79673246510E+03 0.  0.
        4    1    3    3  502    0 -0.27799548045E+02 -0.37667746012E+03 -0.35120789223E+01  0.37772036142E+03  0.12699999809E+01 0. -1.
       -4    1    3    3    0  502  0.27799548045E+02  0.37667746012E+03  0.26282580588E+03  0.46014969409E+03  0.12699999809E+01 0.  1.
</event>
<event>
 5   0  0.2077795E-02  0.8622020E+03  0.7818609E-02  0.9474105E-01
       -1   -1    0    0    0  501  0.00000000000E+00  0.00000000000E+00  0.36285104120E+03  0.36285104124E+03  0.50400001928E-02 0. -1.
        1   -1    0    0  501    0  0.00000000000E+00  0.00000000000E+00 -0.51218836004E+03  0.51218836006E+03  0.50400001928E-02 0.  1.
    10030    2    1    2    0    0  0.00000000000E+00  0.00000000000E+00 -0.14933731884E+03  0.87503940130E+03  0.86220201753E+03 0.  0.
        5    1    3    3  502    0 -0.89700825221E+02  0.20078281928E+03  0.30161576308E+03  0.37330167036E+03  0.46999998093E+01 0. -1.
       -5    1    3    3    0  502  0.89700825221E+02 -0.20078281928E+03 -0.45095308191E+03  0.50173773094E+03  0.46999998093E+01 0.  1.
</event>
<event>
 5   0  0.1358000E-02  0.8272900E+03  0.7818609E-02  0.9521335E-01
        3   -1    0    0  501    0  0.00000000000E+00  0.00000000000E+00  0.47595752604E+03  0.47595753675E+03  0.10100000352E+00 0. -1.
       -3   -1    0    0    0  501  0.00000000000E+00  0.00000000000E+00 -0.35949044849E+03  0.35949046268E+03  0.10100000352E+00 0.  1.
    10030    2    1    2    0    0  0.00000000000E+00  0.00000000000E+00  0.11646707755E+03  0.83544799943E+03  0.82729002146E+03 0.  0.
        4    1    3    3  502    0  0.18034636121E+02  0.34472420401E+03 -0.17191855967E+03  0.38563924721E+03  0.12699999809E+01 0.  1.
       -4    1    3    3    0  502 -0.18034636121E+02 -0.34472420401E+03  0.28838563721E+03  0.44980875223E+03  0.12699999809E+01 0. -1.
</event>
<event>
 5   0  0.2129257E-02  0.8012149E+03  0.7818609E-02  0.9558260E-01
        1   -1    0    0  501    0  0.00000000000E+00  0.00000000000E+00  0.12104672910E+04  0.12104672910E+04  0.50400001928E-02 0.  1.
       -1   -1    0    0    0  501  0.00000000000E+00  0.00000000000E+00 -0.13258211594E+03  0.13258211604E+03  0.50400001928E-02 0. -1.
    10030    2    1    2    0    0  0.00000000000E+00  0.00000000000E+00  0.10778851750E+04  0.13430494070E+04  0.80121486454E+03 0.  0.
        3    1    3    3  502    0 -0.23682671325E+03  0.21076651730E+03  0.94946318682E+03  0.10009943907E+04  0.10100000352E+00 0. -1.
       -3    1    3    3    0  502  0.23682671325E+03 -0.21076651730E+03  0.12842198821E+03  0.34205501630E+03  0.10100000352E+00 0.  1.
</event>
<event>
 5   0  0.2077795E-02  0.8086379E+03  0.7818609E-02  0.9547598E-01
        1   -1    0    0  501    0  0.00000000000E+00  0.00000000000E+00  0.22073446590E+04  0.22073446590E+04  0.50400001928E-02 0.  1.
       -1   -1    0    0    0  501  0.00000000000E+00  0.00000000000E+00 -0.74059033951E+02  0.74059034123E+02  0.50400001928E-02 0. -1.
    10030    2    1    2    0    0  0.00000000000E+00  0.00000000000E+00  0.21332856250E+04  0.22814036931E+04  0.80863789978E+03 0.  0.
        5    1    3    3  502    0 -0.27325913863E+02  0.40336607233E+03  0.10640734702E+04  0.11382993164E+04  0.46999998093E+01 0.  1.
       -5    1    3    3    0  502  0.27325913863E+02 -0.40336607233E+03  0.10692121548E+04  0.11431043766E+04  0.46999998093E+01 0. -1.
</event>
<event>
 5   0  0.2129257E-02  0.7954050E+03  0.7818609E-02  0.9566692E-01
       -1   -1    0    0    0  501  0.00000000000E+00  0.00000000000E+00  0.12406737328E+03  0.12406737338E+03  0.50400001928E-02 0. -1.
        1   -1    0    0  501    0  0.00000000000E+00  0.00000000000E+00 -0.12748499429E+04  0.12748499429E+04  0.50400001928E-02 0.  1.
    10030    2    1    2    0    0  0.00000000000E+00  0.00000000000E+00 -0.11507825696E+04  0.13989173163E+04  0.79540501335E+03 0.  0.
        3    1    3    3  502    0  0.22773559433E+03  0.30149949728E+03 -0.79365916268E+03  0.87901099224E+03  0.10100000352E+00 0.  1.
       -3    1    3    3    0  502 -0.22773559433E+03 -0.30149949728E+03 -0.35712340692E+03  0.51990632402E+03  0.10100000352E+00 0. -1.
</event>
<event>
 5   0  0.3416160E-02  0.8364582E+03  0.7818609E-02  0.9508695E-01
       -2   -1    0    0    0  501  0.00000000000E+00  0.00000000000E+00  0.80985899208E+02  0.80985899248E+02  0.25500000920E-02 0. -1.
        2   -1    0    0  501    0  0.00000000000E+00  0.00000000000E+00 -0.21598276694E+04  0.21598276694E+04  0.25500000920E-02 0.  1.
    10030    2    1    2    0    0  0.00000000000E+00  0.00000000000E+00 -0.20788417702E+04  0.22408135687E+04  0.83645821411E+03 0.  0.
        1    1    3    3  502    0  0.85669467533E+02  0.40105301096E+03 -0.81960469467E+03  0.91647947649E+03  0.50400001928E-02 0. -1.
       -1    1    3    3    0  502 -0.85669467533E+02 -0.40105301096E+03 -0.12592370755E+04  0.13243340922E+04  0.50400001928E-02 0.  1.
</event>
<event>
 5   0  0.2063692E-02  0.7756699E+03  0.7818609E-02  0.9595917E-01
       -1   -1    0    0    0  501  0.00000000000E+00  0.00000000000E+00  0.29563793510E+03  0.29563793514E+03  0.50400001928E-02 0. -1.
        1   -1    0    0  501    0  0.00000000000E+00  0.00000000000E+00 -0.50878435664E+03  0.50878435667E+03  0.50400001928E-02 0.  1.
    10030    2    1    2    0    0  0.00000000000E+00  0.00000000000E+00 -0.21314642154E+03  0.80442229181E+03  0.77566992113E+03 0.  0.
        2    1    3    3  502    0 -0.72142739022E+02  0.34783545696E+03  0.54829580487E+02  0.35944451980E+03  0.25500000920E-02 0.  1.
       -2    1    3    3    0  502  0.72142739022E+02 -0.34783545696E+03 -0.26797600203E+03  0.44497777201E+03  0.25500000920E-02 0. -1.
</event>
<event>
 5   0  0.2129257E-02  0.7756220E+03  0.7818609E-02  0.9595989E-01
       -1   -1    0    0    0  501  0.00000000000E+00  0.00000000000E+00  0.13663176613E+03  0.13663176623E+03  0.50400001928E-02 0.  1.
        1   -1    0    0  501    0  0.00000000000E+00  0.00000000000E+00 -0.11007495891E+04  0.11007495892E+04  0.50400001928E-02 0. -1.
    10030    2    1    2    0    0  0.00000000000E+00  0.00000000000E+00 -0.96411782301E+03  0.12373813554E+04  0.77562197107E+03 0.  0.
        3    1    3    3  502    0  0.55837733077E+02  0.37864988065E+03 -0.38238182403E+03  0.54102629705E+03  0.10100000352E+00 0.  1.
       -3    1    3    3    0  502 -0.55837733077E+02 -0.37864988065E+03 -0.58173599899E+03  0.69635505833E+03  0.10100000352E+00 0. -1.
</event>
<event>
 5   0  0.2063692E-02  0.7504055E+03  0.7818609E-02  0.9634714E-01
       -1   -1    0    0    0  501  0.00000000000E+00  0.00000000000E+00  0.69734669136E+03  0.69734669137E+03  0.50400001928E-02 0. -1.
        1   -1    0    0  501    0  0.00000000000E+00  0.00000000000E+00 -0.20187534415E+03  0.20187534421E+03  0.50400001928E-02 0.  1.
    10030    2    1    2    0    0  0.00000000000E+00  0.00000000000E+00  0.49547134721E+03  0.89922203558E+03  0.75040549930E+03 0.  0.
        2    1    3    3  502    0 -0.11443228602E+03  0.31656167449E+03  0.49122224530E+02  0.34017500612E+03  0.25500000920E-02 0.  1.
       -2    1    3    3    0  502  0.11443228602E+03 -0.31656167449E+03  0.44634912268E+03  0.55904702947E+03  0.25500000920E-02 0. -1.
</event>
<event>
 5   0  0.2129257E-02  0.8539642E+03  0.7818609E-02  0.9485032E-01
       -1   -1    0    0    0  501  0.00000000000E+00  0.00000000000E+00  0.28683563467E+03  0.28683563471E+03  0.50400001928E-02 0.  1.
        1   -1    0    0  501    0  0.00000000000E+00  0.00000000000E+00 -0.63560337285E+03  0.63560337287E+03  0.50400001928E-02 0. -1.
    10030    2    1    2    0    0  0.00000000000E+00  0.00000000000E+00 -0.34876773818E+03  0.92243900759E+03  0.85396416056E+03 0.  0.
        3    1    3    3  502    0  0.11126115841E+03 -0.11284109939E+03 -0.60266249084E+03  0.62314865574E+03  0.10100000352E+00 0. -1.
       -3    1    3    3    0  502 -0.11126115841E+03  0.11284109939E+03  0.25389475266E+03  0.29929035185E+03  0.10100000352E+00 0.  1.
</event>
<event>
 5   0  0.3404132E-02  0.7729808E+03  0.7818609E-02  0.9599971E-01
        2   -1    0    0  501    0  0.00000000000E+00  0.00000000000E+00  0.25186173267E+03  0.25186173268E+03  0.25500000920E-02 0. -1.
       -2   -1    0    0    0  501  0.00000000000E+00  0.00000000000E+00 -0.59308271837E+03  0.59308271838E+03  0.25500000920E-02 0.  1.
    10030    2    1    2    0    0  0.00000000000E+00  0.00000000000E+00 -0.34122098570E+03  0.84494445106E+03  0.77298083048E+03 0.  0.
        5    1    3    3  502    0  0.29199164742E+02 -0.37610622407E+01  0.25060293669E+03  0.25237008279E+03  0.46999998093E+01 0. -1.
       -5    1    3    3    0  502 -0.29199164742E+02  0.37610622407E+01 -0.59182392240E+03  0.59257436827E+03  0.46999998093E+01 0.  1.
</event>
<event>
 5   0  0.3416160E-02  0.7944832E+03  0.7818609E-02  0.9568037E-01
        2   -1    0    0  501    0  0.00000000000E+00  0.00000000000E+00  0.52874628103E+03  0.52874628104E+03  0.25500000920E-02 0.  1.
       -2   -1    0    0    0  501  0.00000000000E+00  0.00000000000E+00 -0.29844352388E+03  0.29844352389E+03  0.25500000920E-02 0. -1.
    10030    2    1    2    0    0  0.00000000000E+00  0.00000000000E+00  0.23030275716E+03  0.82718980493E+03  0.79448323672E+03 0.  0.
        1    1    3    3  502    0 -0.21023897915E+03  0.37451239961E+02  0.46390020884E+03  0.51069210638E+03  0.50400001928E-02 0.  1.
       -1    1    3    3    0  502  0.21023897915E+03 -0.37451239961E+02 -0.23359745169E+03  0.31649769855E+03  0.50400001928E-02 0. -1.
</event>
<event>
 5   0  0.1989298E-02  0.7862944E+03  0.7818609E-02  0.9580070E-01
       -1   -1    0    0    0  501  0.00000000000E+00  0.00000000000E+00  0.13821126161E+03  0.13821126170E+03  0.50400001928E-02 0. -1.
        1   -1    0    0  501    0  0.00000000000E+00  0.00000000000E+00 -0.11183221963E+04  0.11183221964E+04  0.50400001928E-02 0.  1.
    10030    2    1    2    0    0  0.00000000000E+00  0.00000000000E+00 -0.98011093473E+03  0.12565334581E+04  0.78629440214E+03 0.  0.
        1    1    3    3  502    0 -0.30545834247E+03  0.24594645634E+03 -0.44570395034E+03  0.59367202204E+03  0.50400001928E-02 0. -1.
       -1    1    3    3    0  502  0.30545834247E+03 -0.24594645634E+03 -0.53440698439E+03  0.66286143602E+03  0.50400001928E-02 0.  1.
</event>
<event>
 5   0  0.3467240E-02  0.6362421E+03  0.7818609E-02  0.9832943E-01
        2   -1    0    0  501    0  0.00000000000E+00  0.00000000000E+00  0.32942157745E+03  0.32942157746E+03  0.25500000920E-02 0. -1.
       -2   -1    0    0    0  501  0.00000000000E+00  0.00000000000E+00 -0.30720817271E+03  0.30720817272E+03  0.25500000920E-02 0.  1.
    10030    2    1    2    0    0  0.00000000000E+00  0.00000000000E+00  0.22213404738E+02  0.63662975018E+03  0.63624209501E+03 0.  0.
        2    1    3    3  502    0 -0.18338597153E+03  0.68536391073E+02 -0.23979166111E+03  0.30956048230E+03  0.25500000920E-02 0.  1.
       -2    1    3    3    0  502  0.18338597153E+03 -0.68536391073E+02  0.26200506585E+03  0.32706926788E+03  0.25500000920E-02 0. -1.
</event>
<event>
 5   0  0.3404132E-02  0.8290403E+03  0.7818609E-02  0.9518908E-01
        2   -1    0    0  501    0  0.00000000000E+00  0.00000000000E+00  0.48365505865E+03  0.48365505866E+03  0.25500000920E-02 0.  1.
       -2   -1    0    0    0  501  0.00000000000E+00  0.00000000000E+00 -0.35526754044E+03  0.35526754045E+03  0.25500000920E-02 0. -1.
    10030    2    1    2    0    0  0.00000000000E+00  0.00000000000E+00  0.12838751821E+03  0.83892259911E+03  0.82904027192E+03 0.  0.
        5    1    3    3  502    0  0.67444082961E+02  0.29059120993E+03 -0.22700884624E+03  0.37489606810E+03  0.46999998093E+01 0. -1.
       -5    1    3    3    0  502 -0.67444082961E+02 -0.29059120993E+03  0.35539636445E+03  0.46402653100E+03  0.46999998093E+01 0.  1.
</event>
<event>
 5   0  0.2063692E-02  0.7883855E+03  0.7818609E-02  0.9576982E-01
       -1   -1    0    0    0  501  0.00000000000E+00  0.00000000000E+00  0.23214932155E+03  0.23214932161E+03  0.50400001928E-02 0. -1.
        1   -1    0    0  501    0  0.00000000000E+00  0.00000000000E+00 -0.66934472701E+03  0.66934472703E+03  0.50400001928E-02 0.  1.
    10030    2    1    2    0    0  0.00000000000E+00  0.00000000000E+00 -0.43719540545E+03  0.90149404863E+03  0.78838550035E+03 0.  0.
        2    1    3    3  502    0  0.31833553280E+03  0.17205658956E+03 -0.39810465168E+02  0.36404100675E+03  0.25500000920E-02 0. -1.
       -2    1    3    3    0  502 -0.31833553280E+03 -0.17205658956E+03 -0.39738494029E+03  0.53745304188E+03  0.25500000920E-02 0.  1.
</event>
<event>
 5   0  0.3467240E-02  0.8073302E+03  0.7818609E-02  0.9549467E-01
       -2   -1    0    0    0  501  0.00000000000E+00  0.00000000000E+00  0.24528724998E+03  0.24528725000E+03  0.25500000920E-02 0. -1.
        2   -1    0    0  501    0  0.00000000000E+00  0.00000000000E+00 -0.66430490828E+03  0.66430490829E+03  0.25500000920E-02 0.  1.
    10030    2    1    2    0    0  0.00000000000E+00  0.00000000000E+00 -0.41901765830E+03  0.90959215828E+03  0.80733022763E+03 0.  0.
        2    1    3    3  502    0  0.32852920063E+03  0.11875305964E+03 -0.43739595135E+03  0.55977579717E+03  0.25500000920E-02 0.  1.
       -2    1    3    3    0  502 -0.32852920063E+03 -0.11875305964E+03  0.18378293049E+02  0.34981636111E+03  0.25500000920E-02 0. -1.
</event>
<event>
 5   0  0.3550586E-02  0.8242963E+03  0.7818609E-02  0.9525500E-01
        2   -1    0    0  501    0  0.00000000000E+00  0.00000000000E+00  0.44210910275E+03  0.44210910276E+03  0.25500000920E-02 0.  1.
       -2   -1    0    0    0  501  0.00000000000E+00  0.00000000000E+00 -0.38421760464E+03  0.38421760465E+03  0.25500000920E-02 0. -1.
    10030    2    1    2    0    0  0.00000000000E+00  0.00000000000E+00  0.57891498113E+02  0.82632670741E+03  0.82429630706E+03 0.  0.
        3    1    3    3  502    0  0.74660804045E+02 -0.76392660253E+02 -0.37010010388E+03  0.38520666050E+03  0.10100000352E+00 0. -1.
       -3    1    3    3    0  502 -0.74660804045E+02  0.76392660253E+02  0.42799160200E+03  0.44112004691E+03  0.10100000352E+00 0.  1.
</event>
<event>
 5   0  0.2077795E-02  0.7905521E+03  0.7818609E-02  0.9573794E-01
        1   -1    0    0  501    0  0.00000000000E+00  0.00000000000E+00  0.80088071076E+03  0.80088071078E+03  0.50400001928E-02 0.  1.
       -1   -1    0    0    0  501  0.00000000000E+00  0.00000000000E+00 -0.19508916643E+03  0.19508916650E+03  0.50400001928E-02 0. -1.
    10030    2    1    2    0    0  0.00000000000E+00  0.00000000000E+00  0.60579154433E+03  0.99596987727E+03  0.79055208636E+03 0.  0.
        5    1    3    3  502    0 -0.77154415697E+02 -0.27532829667E+03 -0.40887523243E+02  0.28888121151E+03  0.46999998093E+01 0. -1.
       -5    1    3    3    0  502  0.77154415697E+02  0.27532829667E+03  0.64667906757E+03  0.70708866576E+03  0.46999998093E+01 0.  1.
</event>
<event>
 5   0  0.2077795E-02  0.8116081E+03  0.7818609E-02  0.9543365E-01
       -1   -1    0    0    0  501  0.00000000000E+00  0.00000000000E+00  0.32061078076E+03  0.32061078080E+03  0.50400001928E-02 0. -1.
        1   -1    0    0  501    0  0.00000000000E+00  0.00000000000E+00 -0.51363507593E+03  0.51363507596E+03  0.50400001928E-02 0.  1.
    10030    2    1    2    0    0  0.00000000000E+00  0.00000000000E+00 -0.19302429518E+03  0.83424585675E+03  0.81160813881E+03 0.  0.
        5    1    3    3  502    0 -0.32258493490E+03  0.23370891293E+03 -0.17595936563E+03  0.43550509131E+03  0.46999998093E+01 0.  1.
       -5    1    3    3    0  502  0.32258493490E+03 -0.23370891293E+03 -0.17064929546E+02  0.39874076544E+03  0.46999998093E+01 0. -1.
</event>
<event>
 5   0  0.3416160E-02  0.8113417E+03  0.7818609E-02  0.9543744E-01
       -2   -1    0    0    0  501  0.00000000000E+00  0.00000000000E+00  0.21326763533E+03  0.21326763535E+03  0.25500000920E-02 0.  1.
        2   -1    0    0  501    0  0.00000000000E+00  0.00000000000E+00 -0.77165406230E+03  0.77165406231E+03  0.25500000920E-02 0. -1.
    10030    2    1    2    0    0  0.00000000000E+00  0.00000000000E+00 -0.55838642697E+03  0.98492169766E+03  0.81134169663E+03 0.  0.
        1    1    3    3  502    0 -0.76819093077E+02  0.15874313203E+03 -0.72268639220E+03  0.74389258400E+03  0.50400001928E-02 0. -1.
       -1    1    3    3    0  502  0.76819093077E+02 -0.15874313203E+03  0.16429996524E+03  0.24102911366E+03  0.50400001928E-02 0.  1.
</event>
<event>
 5   0  0.2132540E-02  0.8168230E+03  0.7818609E-02  0.9535981E-01
        1   -1    0    0  501    0  0.00000000000E+00  0.00000000000E+00  0.15785930529E+04  0.15785930529E+04  0.50400001928E-02 0. -1.
       -1   -1    0    0    0  501  0.00000000000E+00  0.00000000000E+00 -0.10566368377E+03  0.10566368389E+03  0.50400001928E-02 0.  1.
    10030    2    1    2    0    0  0.00000000000E+00  0.00000000000E+00  0.14729293691E+04  0.16842567368E+04  0.81682300960E+03 0.  0.
        4    1    3    3  502    0  0.26347582024E+03  0.24752882516E+03  0.11282822976E+04  0.11847837706E+04  0.12699999809E+01 0.  1.
       -4    1    3    3    0  502 -0.26347582024E+03 -0.24752882516E+03  0.34464707150E+03  0.49947296616E+03  0.12699999809E+01 0. -1.
</event>
<event>
 5   0  0.2063692E-02  0.8006756E+03  0.7818609E-02  0.9559040E-01
       -1   -1    0    0    0  501  0.00000000000E+00  0.00000000000E+00  0.12144538503E+03  0.12144538514E+03  0.50400001928E-02 0. -1.
        1   -1    0    0  501    0  0.00000000000E+00  0.00000000000E+00 -0.13196906896E+04  0.13196906896E+04  0.50400001928E-02 0.  1.
    10030    2    1    2    0    0  0.00000000000E+00  0.00000000000E+00 -0.11982453046E+04  0.14411360747E+04  0.80067557476E+03 0.  0.
        2    1    3    3  502    0 -0.26044680167E+03 -0.14275347400E+03 -0.10822852279E+04  0.11222978239E+04  0.25500000920E-02 0.  1.
       -2    1    3    3    0  502  0.26044680167E+03  0.14275347400E+03 -0.11596007661E+03  0.31883825086E+03  0.25500000920E-02 0. -1.
</event>
<event>
 5   0  0.3343036E-02  0.7994259E+03  0.7818609E-02  0.9560848E-01
        2   -1    0    0  501    0  0.00000000000E+00  0.00000000000E+00  0.13572333215E+04  0.13572333216E+04  0.25500000920E-02 0. -1.
       -2   -1    0    0    0  501  0.00000000000E+00  0.00000000000E+00 -0.11771774018E+03  0.11771774020E+03  0.25500000920E-02 0.  1.
    10030    2    1    2    0    0  0.00000000000E+00  0.00000000000E+00  0.12395155814E+04  0.14749510618E+04  0.79942589282E+03 0.  0.
        4    1    3    3  502    0 -0.16478832365E+03  0.25606003217E+03  0.14202094793E+03  0.33599627116E+03  0.12699999809E+01 0.  1.
       -4    1    3    3    0  502  0.16478832365E+03 -0.25606003217E+03  0.10974946334E+04  0.11389547906E+04  0.12699999809E+01 0. -1.
</event>
<event>
 5   0  0.3467240E-02  0.7925209E+03  0.7818609E-02  0.9570906E-01
       -2   -1    0    0    0  501  0.00000000000E+00  0.00000000000E+00  0.15742236201E+03  0.15742236203E+03  0.25500000920E-02 0.  1.
        2   -1    0    0  501    0  0.00000000000E+00  0.00000000000E+00 -0.99745897135E+03  0.99745897136E+03  0.25500000920E-02 0. -1.
    10030    2    1    2    0    0  0.00000000000E+00  0.00000000000E+00 -0.84003660935E+03  0.11548813334E+04  0.79252090771E+03 0.  0.
        2    1    3    3  502    0 -0.67655805128E+02 -0.39296492531E+02  0.14605469500E+03  0.16569096605E+03  0.25500000920E-02 0.  1.
       -2    1    3    3    0  502  0.67655805128E+02  0.39296492531E+02 -0.98609130435E+03  0.98919036733E+03  0.25500000920E-02 0. -1.
</event>
<event>
 5   0  0.3550586E-02  0.8123520E+03  0.7818609E-02  0.9542308E-01
        2   -1    0    0  501    0  0.00000000000E+00  0.00000000000E+00  0.86546684530E+03  0.86546684530E+03  0.25500000920E-02 0.  1.
       -2   -1    0    0    0  501  0.00000000000E+00  0.00000000000E+00 -0.19062421288E+03  0.19062421290E+03  0.25500000920E-02 0. -1.
    10030    2    1    2    0    0  0.00000000000E+00  0.00000000000E+00  0.67484263242E+03  0.10560910582E+04  0.81235198324E+03 0.  0.
        3    1    3    3  502    0  0.25978419741E+03  0.15150219501E+02  0.74286239886E+03  0.78712255223E+03  0.10100000352E+00 0.  1.
       -3    1    3    3    0  502 -0.25978419741E+03 -0.15150219501E+02 -0.68019766448E+02  0.26896850597E+03  0.10100000352E+00 0. -1.
</event>
<event>
 5   0  0.1358000E-02  0.8021479E+03  0.7818609E-02  0.9556913E-01
       -4   -1    0    0    0  501  0.00000000000E+00  0.00000000000E+00  0.57469850178E+03  0.57469990503E+03  0.12699999809E+01 0. -1.
        4   -1    0    0  501    0  0.00000000000E+00  0.00000000000E+00 -0.27990062080E+03  0.27990350199E+03  0.12699999809E+01 0.  1.
    10030    2    1    2    0    0  0.00000000000E+00  0.00000000000E+00  0.29479788098E+03  0.85460340702E+03  0.80214786209E+03 0.  0.
        4    1    3    3  502    0 -0.99968447200E+02 -0.33269011023E+03  0.36096267492E+03  0.50097112239E+03  0.12699999809E+01 0. -1.
       -4    1    3    3    0  502  0.99968447200E+02  0.33269011023E+03 -0.66164793942E+02  0.35363228463E+03  0.12699999809E+01 0.  1.
</event>
<event>
 5   0  0.3343036E-02  0.8038143E+03  0.7818609E-02  0.9554512E-01
       -2   -1    0    0    0  501  0.00000000000E+00  0.00000000000E+00  0.16346311920E+03  0.16346311922E+03  0.25500000920E-02 0. -1.
        2   -1    0    0  501    0  0.00000000000E+00  0.00000000000E+00 -0.98817003020E+03  0.98817003020E+03  0.25500000920E-02 0.  1.
    10030    2    1    2    0    0  0.00000000000E+00  0.00000000000E+00 -0.82470691100E+03  0.11516331494E+04  0.80381429560E+03 0.  0.
        4    1    3    3  502    0 -0.15017436451E+03  0.76378566132E+02  0.11042238516E+03  0.20144662113E+03  0.12699999809E+01 0. -1.
       -4    1    3    3    0  502  0.15017436451E+03 -0.76378566132E+02 -0.93512929616E+03  0.95018652830E+03  0.12699999809E+01 0.  1.
</event>
<event>
 5   0  0.3550586E-02  0.8024464E+03  0.7818609E-02  0.9556483E-01
        2   -1    0    0  501    0  0.00000000000E+00  0.00000000000E+00  0.11608407578E+04  0.11608407578E+04  0.25500000920E-02 0. -1.
       -2   -1    0    0    0  501  0.00000000000E+00  0.00000000000E+00 -0.13867540965E+03  0.13867540967E+03  0.25500000920E-02 0.  1.
    10030    2    1    2    0    0  0.00000000000E+00  0.00000000000E+00  0.10221653481E+04  0.12995161674E+04  0.80244642845E+03 0.  0.
        3    1    3    3  502    0 -0.39922641949E+02  0.65119542670E+02 -0.12679219110E+03  0.14802243784E+03  0.10100000352E+00 0.  1.
       -3    1    3    3    0  502  0.39922641949E+02 -0.65119542670E+02  0.11489575392E+04  0.11514937296E+04  0.10100000352E+00 0. -1.
</event>
<event>
 5   0  0.2129257E-02  0.8236012E+03  0.7818609E-02  0.9526470E-01
        1   -1    0    0  501    0  0.00000000000E+00  0.00000000000E+00  0.11403640669E+04  0.11403640670E+04  0.50400001928E-02 0. -1.
       -1   -1    0    0    0  501  0.00000000000E+00  0.00000000000E+00 -0.14870665351E+03  0.14870665360E+03  0.50400001928E-02 0.  1.
    10030    2    1    2    0    0  0.00000000000E+00  0.00000000000E+00  0.99165741344E+03  0.12890707206E+04  0.82360117591E+03 0.  0.
        3    1    3    3  502    0  0.32351730803E+03  0.12671919858E+03  0.14986551424E+03  0.37839250315E+03  0.10100000352E+00 0.  1.
       -3    1    3    3    0  502 -0.32351730803E+03 -0.12671919858E+03  0.84179189920E+03  0.91067821740E+03  0.10100000352E+00 0. -1.
</event>
<event>
 5   0  0.3550586E-02  0.8333437E+03  0.7818609E-02  0.9512969E-01
        2   -1    0    0  501    0  0.00000000000E+00  0.00000000000E+00  0.72058196459E+03  0.72058196460E+03  0.25500000920E-02 0.  1.
       -2   -1    0    0    0  501  0.00000000000E+00  0.00000000000E+00 -0.24093776894E+03  0.24093776895E+03  0.25500000920E-02 0. -1.
    10030    2    1    2    0    0  0.00000000000E+00  0.00000000000E+00  0.47964419565E+03  0.96151973355E+03  0.83334365275E+03 0.  0.
        3    1    3    3  502    0  0.23930414857E+03  0.33996560608E+03  0.20775715868E+03  0.46476460281E+03  0.10100000352E+00 0. -1.
       -3    1    3    3    0  502 -0.23930414857E+03 -0.33996560608E+03  0.27188703697E+03  0.49675513074E+03  0.10100000352E+00 0.  1.
</event>
<event>
 5   0  0.2063692E-02  0.8278343E+03  0.7818609E-02  0.9520580E-01
        1   -1    0    0  501    0  0.00000000000E+00  0.00000000000E+00  0.25516679179E+04  0.25516679179E+04  0.50400001928E-02 0. -1.
       -1   -1    0    0    0  501  0.00000000000E+00  0.00000000000E+00 -0.67143301309E+02  0.67143301498E+02  0.50400001928E-02 0.  1.
    10030    2    1    2    0    0  0.00000000000E+00  0.00000000000E+00  0.24845246166E+04  0.26188112194E+04  0.82783430251E+03 0.  0.
        2    1    3    3  502    0 -0.35057931409E+03 -0.21936683156E+03  0.12970316292E+04  0.13613664860E+04  0.25500000920E-02 0.  1.
       -2    1    3    3    0  502  0.35057931409E+03  0.21936683156E+03  0.11874929874E+04  0.12574447333E+04  0.25500000920E-02 0. -1.
</event>
<event>
 5   0  0.1989298E-02  0.8329768E+03  0.7818609E-02  0.9513474E-01
        1   -1    0    0  501    0  0.00000000000E+00  0.00000000000E+00  0.46101650979E+03  0.46101650982E+03  0.50400001928E-02 0. -1.
       -1   -1    0    0    0  501  0.00000000000E+00  0.00000000000E+00 -0.37626108757E+03  0.37626108761E+03  0.50400001928E-02 0.  1.
    10030    2    1    2    0    0  0.00000000000E+00  0.00000000000E+00  0.84755422219E+02  0.83727759742E+03  0.83297676651E+03 0.  0.
        1    1    3    3  502    0 -0.22989549163E+03 -0.87496260503E+02 -0.29544542647E+03  0.38444184570E+03  0.50400001928E-02 0.  1.
       -1    1    3    3    0  502  0.22989549163E+03  0.87496260503E+02  0.38020084869E+03  0.45283575173E+03  0.50400001928E-02 0. -1.
</event>
<event>
 5   0  0.3343036E-02  0.8090776E+03  0.7818609E-02  0.9546970E-01
       -2   -1    0    0    0  501  0.00000000000E+00  0.00000000000E+00  0.29630431579E+03  0.29630431580E+03  0.25500000920E-02 0. -1.
        2   -1    0    0  501    0  0.00000000000E+00  0.00000000000E+00 -0.55230928008E+03  0.55230928008E+03  0.25500000920E-02 0.  1.
    10030    2    1    2    0    0  0.00000000000E+00  0.00000000000E+00 -0.25600496429E+03  0.84861359588E+03  0.80907755708E+03 0.  0.
        4    1    3    3  502    0  0.39618913231E+03 -0.26443220446E+02 -0.46859744181E+02  0.39982811431E+03  0.12699999809E+01 0. -1.
       -4    1    3    3    0  502 -0.39618913231E+03  0.26443220446E+02 -0.20914522011E+03  0.44878548157E+03  0.12699999809E+01 0.  1.
</event>
<event>
 5   0  0.3343036E-02  0.7907931E+03  0.7818609E-02  0.9573440E-01
       -2   -1    0    0    0  501  0.00000000000E+00  0.00000000000E+00  0.35750574731E+03  0.35750574732E+03  0.25500000920E-02 0.  1.
        2   -1    0    0  501    0  0.00000000000E+00  0.00000000000E+00 -0.43730323934E+03  0.43730323935E+03  0.25500000920E-02 0. -1.
    10030    2    1    2    0    0  0.00000000000E+00  0.00000000000E+00 -0.79797492031E+02  0.79480898666E+03  0.79079307378E+03 0.  0.
        4    1    3    3  502    0 -0.82562517447E+02 -0.29329090294E+03 -0.29317187670E+03  0.42283269176E+03  0.12699999809E+01 0. -1.
       -4    1    3    3    0  502  0.82562517447E+02  0.29329090294E+03  0.21337438467E+03  0.37197629490E+03  0.12699999809E+01 0.  1.
</event>
<event>
 5   0  0.3343036E-02  0.8023855E+03  0.7818609E-02  0.9556571E-01
        2   -1    0    0  501    0  0.00000000000E+00  0.00000000000E+00  0.52143983220E+03  0.52143983221E+03  0.25500000920E-02 0. -1.
       -2   -1    0    0    0  501  0.00000000000E+00  0.00000000000E+00 -0.30867538150E+03  0.30867538151E+03  0.25500000920E-02 0.  1.
    10030    2    1    2    0    0  0.00000000000E+00  0.00000000000E+00  0.21276445071E+03  0.83011521372E+03  0.80238554109E+03 0.  0.
        4    1    3    3  502    0 -0.11898717033E+03 -0.21970163494E+03 -0.21835606990E+03  0.33182486534E+03  0.12699999809E+01 0.  1.
       -4    1    3    3    0  502  0.11898717033E+03  0.21970163494E+03  0.43112052060E+03  0.49829034837E+03  0.12699999809E+01 0. -1.
</event>
<event>
 5   0  0.1358000E-02  0.8281997E+03  0.7818609E-02  0.9520073E-01
        3   -1    0    0  501    0  0.00000000000E+00  0.00000000000E+00  0.13027094510E+03  0.13027098425E+03  0.10100000352E+00 0. -1.
       -3   -1    0    0    0  501  0.00000000000E+00  0.00000000000E+00 -0.13163232067E+04  0.13163232105E+04  0.10100000352E+00 0.  1.
    10030    2    1    2    0    0  0.00000000000E+00  0.00000000000E+00 -0.11860522616E+04  0.14465941948E+04  0.82819973270E+03 0.  0.
        4    1    3    3  502    0 -0.25686761957E+03  0.10422146656E+03 -0.11303488783E+04  0.11638441853E+04  0.12699999809E+01 0.  1.
       -4    1    3    3    0  502  0.25686761957E+03 -0.10422146656E+03 -0.55703383297E+02  0.28275000952E+03  0.12699999809E+01 0. -1.
</event>
<event>
 5   0  0.1989298E-02  0.8112395E+03  0.7818609E-02  0.9543889E-01
       -1   -1    0    0    0  501  0.00000000000E+00  0.00000000000E+00  0.16664941678E+03  0.16664941686E+03  0.50400001928E-02 0. -1.
        1   -1    0    0  501    0  0.00000000000E+00  0.00000000000E+00 -0.98726651492E+03  0.98726651494E+03  0.50400001928E-02 0.  1.
    10030    2    1    2    0    0  0.00000000000E+00  0.00000000000E+00 -0.82061709814E+03  0.11539159318E+04  0.81123951820E+03 0.  0.
        1    1    3    3  502    0 -0.13409882649E+03  0.37652557637E+03 -0.31203463385E+03  0.50706963790E+03  0.50400001928E-02 0. -1.
       -1    1    3    3    0  502  0.13409882649E+03 -0.37652557637E+03 -0.50858246429E+03  0.64684629390E+03  0.50400001928E-02 0.  1.
</event>
<event>
 5   0  0.1358000E-02  0.8059522E+03  0.7818609E-02  0.9551441E-01
       -3   -1    0    0    0  501  0.00000000000E+00  0.00000000000E+00  0.96413544301E+03  0.96413544830E+03  0.10100000352E+00 0.  1.
        3   -1    0    0  501    0  0.00000000000E+00  0.00000000000E+00 -0.16843038475E+03  0.16843041504E+03  0.10100000352E+00 0. -1.
    10030    2    1    2    0    0  0.00000000000E+00  0.00000000000E+00  0.79570505826E+03  0.11325658633E+04  0.80595216673E+03 0.  0.
        4    1    3    3  502    0  0.25546900379E+03 -0.18399475348E+03  0.75132194844E+03  0.81461939844E+03  0.12699999809E+01 0. -1.
       -4    1    3    3    0  502 -0.25546900379E+03  0.18399475348E+03  0.44383109816E+02  0.31794646490E+03  0.12699999809E+01 0.  1.
</event>
<event>
 5   0  0.3550586E-02  0.8141561E+03  0.7818609E-02  0.9539750E-01
        2   -1    0    0  501    0  0.00000000000E+00  0.00000000000E+00  0.19902983038E+03  0.19902983040E+03  0.25500000920E-02 0. -1.
       -2   -1    0    0    0  501  0.00000000000E+00  0.00000000000E+00 -0.83260158114E+03  0.83260158114E+03  0.25500000920E-02 0.  1.
    10030    2    1    2    0    0  0.00000000000E+00  0.00000000000E+00 -0.63357175076E+03  0.10316314115E+04  0.81415613116E+03 0.  0.
        3    1    3    3  502    0  0.13664219679E+03 -0.29774654276E+03 -0.10603404248E+02  0.32777513031E+03  0.10100000352E+00 0. -1.
       -3    1    3    3    0  502 -0.13664219679E+03  0.29774654276E+03 -0.62296834651E+03  0.70385628123E+03  0.10100000352E+00 0.  1.
</event>
<event>
 5   0  0.1358000E-02  0.8125583E+03  0.7818609E-02  0.9542015E-01
        3   -1    0    0  501    0  0.00000000000E+00  0.00000000000E+00  0.30799668849E+03  0.30799670505E+03  0.10100000352E+00 0.  1.
       -3   -1    0    0    0  501  0.00000000000E+00  0.00000000000E+00 -0.53592370243E+03  0.53592371195E+03  0.10100000352E+00 0. -1.
    10030    2    1    2    0    0  0.00000000000E+00  0.00000000000E+00 -0.22792701394E+03  0.84392041699E+03  0.81255827270E+03 0.  0.
        3    1    3    3  502    0  0.31306315952E+02  0.36769844932E+03 -0.29046535899E+03  0.46963003527E+03  0.10100000352E+00 0.  1.
       -3    1    3    3    0  502 -0.31306315952E+02 -0.36769844932E+03  0.62538345051E+02  0.37429038173E+03  0.10100000352E+00 0. -1.
</event>
<event>
 5   0  0.3416160E-02  0.8353973E+03  0.7818609E-02  0.9510149E-01
        2   -1    0    0  501    0  0.00000000000E+00  0.00000000000E+00  0.35768342893E+03  0.35768342894E+03  0.25500000920E-02 0. -1.
       -2   -1    0    0    0  501  0.00000000000E+00  0.00000000000E+00 -0.48778370108E+03  0.48778370108E+03  0.25500000920E-02 0.  1.
    10030    2    1    2    0    0  0.00000000000E+00  0.00000000000E+00 -0.13010027215E+03  0.84546713002E+03  0.83539726306E+03 0.  0.
        1    1    3    3  502    0  0.35828728079E+03  0.58799263260E+02 -0.27404606662E+03  0.45489380693E+03  0.50400001928E-02 0.  1.
       -1    1    3    3    0  502 -0.35828728079E+03 -0.58799263260E+02  0.14394579447E+03  0.39057332308E+03  0.50400001928E-02 0. -1.
</event>
<event>
 5   0  0.1358000E-02  0.8063635E+03  0.7818609E-02  0.9550852E-01
       -4   -1    0    0    0  501  0.00000000000E+00  0.00000000000E+00  0.10040487160E+03  0.10041290325E+03  0.12699999809E+01 0. -1.
        4   -1    0    0  501    0  0.00000000000E+00  0.00000000000E+00 -0.16189274685E+04  0.16189279667E+04  0.12699999809E+01 0.  1.
    10030    2    1    2    0    0  0.00000000000E+00  0.00000000000E+00 -0.15185225969E+04  0.17193408699E+04  0.80636353439E+03 0.  0.
        4    1    3    3  502    0  0.22159225684E+03  0.18462102075E+02 -0.42158352819E+02  0.22632480447E+03  0.12699999809E+01 0. -1.
       -4    1    3    3    0  502 -0.22159225684E+03 -0.18462102075E+02 -0.14763642441E+04  0.14930160655E+04  0.12699999809E+01 0.  1.
</event>
<event>
 5   0  0.1989298E-02  0.8129332E+03  0.7818609E-02  0.9541483E-01
        1   -1    0    0  501    0  0.00000000000E+00  0.00000000000E+00  0.14459870854E+04  0.14459870854E+04  0.50400001928E-02 0. -1.
       -1   -1    0    0    0  501  0.00000000000E+00  0.00000000000E+00 -0.11425764366E+03  0.11425764377E+03  0.50400001928E-02 0.  1.
    10030    2    1    2    0    0  0.00000000000E+00  0.00000000000E+00  0.13317294417E+04  0.15602447291E+04  0.81293315155E+03 0.  0.
        1    1    3    3  502    0 -0.76958135238E+02  0.18579502291E+03  0.13438148252E+04  0.13587790952E+04  0.50400001928E-02 0. -1.
       -1    1    3    3    0  502  0.76958135238E+02 -0.18579502291E+03 -0.12085383539E+02  0.20146563389E+03  0.50400001928E-02 0.  1.
</event>
<event>
 5   0  0.2063692E-02  0.7867126E+03  0.7818609E-02  0.9579452E-01
       -1   -1    0    0    0  501  0.00000000000E+00  0.00000000000E+00  0.10736874161E+03  0.10736874173E+03  0.50400001928E-02 0.  1.
        1   -1    0    0  501    0  0.00000000000E+00  0.00000000000E+00 -0.14411009230E+04  0.14411009231E+04  0.50400001928E-02 0. -1.
    10030    2    1    2    0    0  0.00000000000E+00  0.00000000000E+00 -0.13337321814E+04  0.15484696648E+04  0.78671263558E+03 0.  0.
        2    1    3    3  502    0  0.22830524188E+03  0.31538404469E+03 -0.77713912912E+03  0.86921551132E+03  0.25500000920E-02 0. -1.
       -2    1    3    3    0  502 -0.22830524188E+03 -0.31538404469E+03 -0.55659305231E+03  0.67925415346E+03  0.25500000920E-02 0.  1.
</event>
<event>
 5   0  0.3550586E-02  0.8859947E+03  0.7818609E-02  0.9443260E-01
       -2   -1    0    0    0  501  0.00000000000E+00  0.00000000000E+00  0.12708388304E+03  0.12708388306E+03  0.25500000920E-02 0. -1.
        2   -1    0    0  501    0  0.00000000000E+00  0.00000000000E+00 -0.15442291268E+04  0.15442291268E+04  0.25500000920E-02 0.  1.
    10030    2    1    2    0    0  0.00000000000E+00  0.00000000000E+00 -0.14171452437E+04  0.16713130098E+04  0.88599465857E+03 0.  0.
        3    1    3    3  502    0  0.11763141768E+03  0.11526455668E+02 -0.15139365360E+04  0.15185433333E+04  0.10100000352E+00 0.  1.
       -3    1    3    3    0  502 -0.11763141768E+03 -0.11526455668E+02  0.96791292328E+02  0.15276967657E+03  0.10100000352E+00 0. -1.
</event>
<event>
 5   0  0.2063692E-02  0.7606555E+03  0.7818609E-02  0.9618780E-01
       -1   -1    0    0    0  501  0.00000000000E+00  0.00000000000E+00  0.12349429270E+04  0.12349429270E+04  0.50400001928E-02 0.  1.
        1   -1    0    0  501    0  0.00000000000E+00  0.00000000000E+00 -0.11713026442E+03  0.11713026453E+03  0.50400001928E-02 0. -1.
    10030    2    1    2    0    0  0.00000000000E+00  0.00000000000E+00  0.11178126625E+04  0.13520731915E+04  0.76065548485E+03 0.  0.
        2    1    3    3  502    0  0.26134148860E+03 -0.16339412075E+03  0.95498491290E+03  0.10034905063E+04  0.25500000920E-02 0.  1.
       -2    1    3    3    0  502 -0.26134148860E+03  0.16339412075E+03  0.16282774963E+03  0.34858268519E+03  0.25500000920E-02 0. -1.
</event>
<event>
 5   0  0.3343036E-02  0.7922077E+03  0.7818609E-02  0.9571365E-01
        2   -1    0    0  501    0  0.00000000000E+00  0.00000000000E+00  0.12723556884E+04  0.12723556884E+04  0.25500000920E-02 0. -1.
       -2   -1    0    0    0  501  0.00000000000E+00  0.00000000000E+00 -0.12331321404E+03  0.12331321406E+03  0.25500000920E-02 0.  1.
    10030    2    1    2    0    0  0.00000000000E+00  0.00000000000E+00  0.11490424743E+04  0.13956689024E+04  0.79220772364E+03 0.  0.
        4    1    3    3  502    0 -0.87285020285E+02 -0.14728504144E+03 -0.54757859789E+02  0.17975426089E+03  0.12699999809E+01 0.  1.
       -4    1    3    3    0  502  0.87285020285E+02  0.14728504144E+03  0.12038003341E+04  0.12159146415E+04  0.12699999809E+01 0. -1.
</event>
<event>
 5   0  0.2129257E-02  0.7944468E+03  0.7818609E-02  0.9568090E-01
        1   -1    0    0  501    0  0.00000000000E+00  0.00000000000E+00  0.33725491265E+03  0.33725491269E+03  0.50400001928E-02 0.  1.
       -1   -1    0    0    0  501  0.00000000000E+00  0.00000000000E+00 -0.46785514557E+03  0.46785514559E+03  0.50400001928E-02 0. -1.
    10030    2    1    2    0    0  0.00000000000E+00  0.00000000000E+00 -0.13060023291E+03  0.80511005828E+03  0.79444684222E+03 0.  0.
        3    1    3    3  502    0  0.36306702487E+03 -0.51881056581E+02 -0.21991635437E+03  0.42763596867E+03  0.10100000352E+00 0.  1.
       -3    1    3    3    0  502 -0.36306702487E+03  0.51881056581E+02  0.89316121456E+02  0.37747408962E+03  0.10100000352E+00 0. -1.
</event>
<event>
 5   0  0.1989298E-02  0.8113596E+03  0.7818609E-02  0.9543719E-01
        1   -1    0    0  501    0  0.00000000000E+00  0.00000000000E+00  0.10476313452E+04  0.10476313452E+04  0.50400001928E-02 0.  1.
       -1   -1    0    0    0  501  0.00000000000E+00  0.00000000000E+00 -0.15709352800E+03  0.15709352808E+03  0.50400001928E-02 0. -1.
    10030    2    1    2    0    0  0.00000000000E+00  0.00000000000E+00  0.89053781717E+03  0.12047248733E+04  0.81135960983E+03 0.  0.
        1    1    3    3  502    0 -0.38382978121E+03  0.11905350634E+03  0.52763394273E+03  0.66324702476E+03  0.50400001928E-02 0. -1.
       -1    1    3    3    0  502  0.38382978121E+03 -0.11905350634E+03  0.36290387445E+03  0.54147784851E+03  0.50400001928E-02 0.  1.
</event>
<event>
 5   0  0.3343036E-02  0.7758552E+03  0.7818609E-02  0.9595639E-01
       -2   -1    0    0    0  501  0.00000000000E+00  0.00000000000E+00  0.88865809152E+02  0.88865809189E+02  0.25500000920E-02 0. -1.
        2   -1    0    0  501    0  0.00000000000E+00  0.00000000000E+00 -0.16934275793E+04  0.16934275793E+04  0.25500000920E-02 0.  1.
    10030    2    1    2    0    0  0.00000000000E+00  0.00000000000E+00 -0.16045617701E+04  0.17822933885E+04  0.77585517233E+03 0.  0.
        4    1    3    3  502    0 -0.27485413069E+03 -0.93654392153E+02 -0.21135915623E+03  0.35915211840E+03  0.12699999809E+01 0. -1.
       -4    1    3    3    0  502  0.27485413069E+03  0.93654392153E+02 -0.13932026139E+04  0.14231412701E+04  0.12699999809E+01 0.  1.
</event>
<event>
 5   0  0.3404132E-02  0.7876484E+03  0.7818609E-02  0.9578070E-01
       -2   -1    0    0    0  501  0.00000000000E+00  0.00000000000E+00  0.45426589801E+03  0.45426589801E+03  0.25500000920E-02 0.  1.
        2   -1    0    0  501    0  0.00000000000E+00  0.00000000000E+00 -0.34142451931E+03  0.34142451932E+03  0.25500000920E-02 0. -1.
    10030    2    1    2    0    0  0.00000000000E+00  0.00000000000E+00  0.11284137870E+03  0.79569041733E+03  0.78764843902E+03 0.  0.
        5    1    3    3  502    0  0.98806127477E+02  0.27075603777E+03  0.32749592940E+03  0.43628792854E+03  0.46999998093E+01 0.  1.
       -5    1    3    3    0  502 -0.98806127477E+02 -0.27075603777E+03 -0.21465455070E+03  0.35940248879E+03  0.46999998093E+01 0. -1.
</event>
<event>
 5   0  0.2063692E-02  0.7953172E+03  0.7818609E-02  0.9566820E-01
        1   -1    0    0  501    0  0.00000000000E+00  0.00000000000E+00  0.45951169366E+03  0.45951169369E+03  0.50400001928E-02 0. -1.
       -1   -1    0    0    0  501  0.00000000000E+00  0.00000000000E+00 -0.34413131693E+03  0.34413131696E+03  0.50400001928E-02 0.  1.
    10030    2    1    2    0    0  0.00000000000E+00  0.00000000000E+00  0.11538037674E+03  0.80364301066E+03  0.79531720542E+03 0.  0.
        2    1    3    3  502    0 -0.29535993538E+03 -0.21857194830E+03 -0.95958110646E+02  0.37976196099E+03  0.25500000920E-02 0.  1.
       -2    1    3    3    0  502  0.29535993538E+03  0.21857194830E+03  0.21133848738E+03  0.42388104967E+03  0.25500000920E-02 0. -1.
</event>
<event>
 5   0  0.2063692E-02  0.7930609E+03  0.7818609E-02  0.9570116E-01
       -1   -1    0    0    0  501  0.00000000000E+00  0.00000000000E+00  0.13303709921E+03  0.13303709930E+03  0.50400001928E-02 0.  1.
        1   -1    0    0  501    0  0.00000000000E+00  0.00000000000E+00 -0.11818988501E+04  0.11818988501E+04  0.50400001928E-02 0. -1.
    10030    2    1    2    0    0  0.00000000000E+00  0.00000000000E+00 -0.10488617509E+04  0.13149359494E+04  0.79306089209E+03 0.  0.
        2    1    3    3  502    0 -0.25048983686E+03 -0.30167354942E+03 -0.62230236522E+03  0.73553539858E+03  0.25500000920E-02 0. -1.
       -2    1    3    3    0  502  0.25048983686E+03  0.30167354942E+03 -0.42655938564E+03  0.57940055081E+03  0.25500000920E-02 0.  1.
</event>
<event>
 5   0  0.1989298E-02  0.8685753E+03  0.7818609E-02  0.9465739E-01
        1   -1    0    0  501    0  0.00000000000E+00  0.00000000000E+00  0.67819840526E+03  0.67819840528E+03  0.50400001928E-02 0.  1.
       -1   -1    0    0    0  501  0.00000000000E+00  0.00000000000E+00 -0.27809821661E+03  0.27809821666E+03  0.50400001928E-02 0. -1.
    10030    2    1    2    0    0  0.00000000000E+00  0.00000000000E+00  0.40010018865E+03  0.95629662193E+03  0.86857530944E+03 0.  0.
        1    1    3    3  502    0  0.35853640315E+03 -0.24333476923E+03  0.16803396399E+03  0.46475324139E+03  0.50400001928E-02 0. -1.
       -1    1    3    3    0  502 -0.35853640315E+03  0.24333476923E+03  0.23206622466E+03  0.49154338054E+03  0.50400001928E-02 0.  1.
</event>
<event>
 5   0  0.2077795E-02  0.8074314E+03  0.7818609E-02  0.9549322E-01
       -1   -1    0    0    0  501  0.00000000000E+00  0.00000000000E+00  0.20431906300E+03  0.20431906306E+03  0.50400001928E-02 0. -1.
        1   -1    0    0  501    0  0.00000000000E+00  0.00000000000E+00 -0.79770519687E+03  0.79770519688E+03  0.50400001928E-02 0.  1.
    10030    2    1    2    0    0  0.00000000000E+00  0.00000000000E+00 -0.59338613387E+03  0.10020242599E+04  0.80743142970E+03 0.  0.
        5    1    3    3  502    0  0.40105655959E+03  0.44557742967E+02 -0.31097979922E+03  0.50947255272E+03  0.46999998093E+01 0. -1.
       -5    1    3    3    0  502 -0.40105655959E+03 -0.44557742967E+02 -0.28240633465E+03  0.49255170723E+03  0.46999998093E+01 0.  1.
</event>
<event>
 5   0  0.2129257E-02  0.8927882E+03  0.7818609E-02  0.9434642E-01
       -1   -1    0    0    0  501  0.00000000000E+00  0.00000000000E+00  0.95671583103E+03  0.95671583104E+03  0.50400001928E-02 0.  1.
        1   -1    0    0  501    0  0.00000000000E+00  0.00000000000E+00 -0.20828305060E+03  0.20828305066E+03  0.50400001928E-02 0. -1.
    10030    2    1    2    0    0  0.00000000000E+00  0.00000000000E+00  0.74843278043E+03  0.11649988817E+04  0.89278819859E+03 0.  0.
        3    1    3    3  502    0  0.15921575716E+03 -0.26390788843E+03 -0.47148271038E+02  0.31180121963E+03  0.10100000352E+00 0. -1.
       -3    1    3    3    0  502 -0.15921575716E+03  0.26390788843E+03  0.79558105146E+03  0.85319766206E+03  0.10100000352E+00 0.  1.
</event>
<event>
 5   0  0.3416160E-02  0.7924158E+03  0.7818609E-02  0.9571060E-01
        2   -1    0    0  501    0  0.00000000000E+00  0.00000000000E+00  0.13352972669E+04  0.13352972669E+04  0.25500000920E-02 0.  1.
       -2   -1    0    0    0  501  0.00000000000E+00  0.00000000000E+00 -0.11756236661E+03  0.11756236664E+03  0.25500000920E-02 0. -1.
    10030    2    1    2    0    0  0.00000000000E+00  0.00000000000E+00  0.12177349003E+04  0.14528596336E+04  0.79241581724E+03 0.  0.
        1    1    3    3  502    0 -0.95654422041E+02 -0.74816488109E+02  0.13003343023E+04  0.13059925624E+04  0.50400001928E-02 0.  1.
       -1    1    3    3    0  502  0.95654422041E+02  0.74816488109E+02 -0.82599401996E+02  0.14686707114E+03  0.50400001928E-02 0. -1.
</event>
<event>
 5   0  0.2129257E-02  0.7993034E+03  0.7818609E-02  0.9561026E-01
       -1   -1    0    0    0  501  0.00000000000E+00  0.00000000000E+00  0.33583105121E+03  0.33583105125E+03  0.50400001928E-02 0. -1.
        1   -1    0    0  501    0  0.00000000000E+00  0.00000000000E+00 -0.47560073183E+03  0.47560073186E+03  0.50400001928E-02 0.  1.
    10030    2    1    2    0    0  0.00000000000E+00  0.00000000000E+00 -0.13976968062E+03  0.81143178311E+03  0.79930343113E+03 0.  0.
        3    1    3    3  502    0 -0.39236599740E+03  0.51633065648E+02 -0.12644772692E+03  0.41545888753E+03  0.10100000352E+00 0. -1.
       -3    1    3    3    0  502  0.39236599740E+03 -0.51633065648E+02 -0.13321953701E+02  0.39597289558E+03  0.10100000352E+00 0.  1.
</event>
<event>
 5   0  0.1989298E-02  0.5799075E+03  0.7818609E-02  0.9947991E-01
       -1   -1    0    0    0  501  0.00000000000E+00  0.00000000000E+00  0.60610345099E+02  0.60610345308E+02  0.50400001928E-02 0. -1.
        1   -1    0    0  501    0  0.00000000000E+00  0.00000000000E+00 -0.13871094706E+04  0.13871094706E+04  0.50400001928E-02 0.  1.
    10030    2    1    2    0    0  0.00000000000E+00  0.00000000000E+00 -0.13264991255E+04  0.14477198159E+04  0.57990752319E+03 0.  0.
        1    1    3    3  502    0 -0.20394375687E+03 -0.34439273429E+02 -0.11705550863E+04  0.11886876501E+04  0.50400001928E-02 0.  1.
       -1    1    3    3    0  502  0.20394375687E+03  0.34439273429E+02 -0.15594403923E+03  0.25903216580E+03  0.50400001928E-02 0. -1.
</event>
<event>
 5   0  0.1989298E-02  0.7960531E+03  0.7818609E-02  0.9565748E-01
        1   -1    0    0  501    0  0.00000000000E+00  0.00000000000E+00  0.75900652836E+03  0.75900652838E+03  0.50400001928E-02 0.  1.
       -1   -1    0    0    0  501  0.00000000000E+00  0.00000000000E+00 -0.20872694930E+03  0.20872694936E+03  0.50400001928E-02 0. -1.
    10030    2    1    2    0    0  0.00000000000E+00  0.00000000000E+00  0.55027957906E+03  0.96773347774E+03  0.79605305653E+03 0.  0.
        1    1    3    3  502    0 -0.19444855961E+03  0.98551960364E+02 -0.12970093730E+03  0.25366328940E+03  0.50400001928E-02 0. -1.
       -1    1    3    3    0  502  0.19444855961E+03 -0.98551960364E+02  0.67998051636E+03  0.71407018834E+03  0.50400001928E-02 0.  1.
</event>
<event>
 5   0  0.2063692E-02  0.7893962E+03  0.7818609E-02  0.9575494E-01
        1   -1    0    0  501    0  0.00000000000E+00  0.00000000000E+00  0.40477784363E+03  0.40477784366E+03  0.50400001928E-02 0. -1.
       -1   -1    0    0    0  501  0.00000000000E+00  0.00000000000E+00 -0.38486937522E+03  0.38486937526E+03  0.50400001928E-02 0.  1.
    10030    2    1    2    0    0  0.00000000000E+00  0.00000000000E+00  0.19908468408E+02  0.78964721892E+03  0.78939621435E+03 0.  0.
        2    1    3    3  502    0 -0.28504812603E+03  0.27199526907E+03  0.33472032081E+02  0.39541653669E+03  0.25500000920E-02 0. -1.
       -2    1    3    3    0  502  0.28504812603E+03 -0.27199526907E+03 -0.13563563673E+02  0.39423068223E+03  0.25500000920E-02 0.  1.
</event>
<event>
 5   0  0.2129257E-02  0.7890728E+03  0.7818609E-02  0.9575970E-01
        1   -1    0    0  501    0  0.00000000000E+00  0.00000000000E+00  0.75397415775E+03  0.75397415777E+03  0.50400001928E-02 0.  1.
       -1   -1    0    0    0  501  0.00000000000E+00  0.00000000000E+00 -0.20645135192E+03  0.20645135198E+03  0.50400001928E-02 0. -1.
    10030    2    1    2    0    0  0.00000000000E+00  0.00000000000E+00  0.54752280584E+03  0.96042550975E+03  0.78907283369E+03 0.  0.
        3    1    3    3  502    0  0.28679952404E+03  0.23460415739E+03  0.43871153200E+03  0.57424811377E+03  0.10100000352E+00 0.  1.
       -3    1    3    3    0  502 -0.28679952404E+03 -0.23460415739E+03  0.10881127384E+03  0.38617739598E+03  0.10100000352E+00 0. -1.
</event>
<event>
 5   0  0.3416160E-02  0.9011939E+03  0.7818609E-02  0.9424090E-01
        2   -1    0    0  501    0  0.00000000000E+00  0.00000000000E+00  0.91622599138E+03  0.91622599138E+03  0.25500000920E-02 0. -1.
       -2   -1    0    0    0  501  0.00000000000E+00  0.00000000000E+00 -0.22160211135E+03  0.22160211136E+03  0.25500000920E-02 0.  1.
    10030    2    1    2    0    0  0.00000000000E+00  0.00000000000E+00  0.69462388004E+03  0.11378281027E+04  0.90119390626E+03 0.  0.
        1    1    3    3  502    0 -0.29287515012E+03 -0.32204693072E+03  0.49426835556E+03  0.65862833714E+03  0.50400001928E-02 0. -1.
       -1    1    3    3    0  502  0.29287515012E+03  0.32204693072E+03  0.20035552447E+03  0.47919976561E+03  0.50400001928E-02 0.  1.
</event>
<event>
 5   0  0.3550586E-02  0.8043409E+03  0.7818609E-02  0.9553755E-01
        2   -1    0    0  501    0  0.00000000000E+00  0.00000000000E+00  0.11691959280E+04  0.11691959280E+04  0.25500000920E-02 0.  1.
       -2   -1    0    0    0  501  0.00000000000E+00  0.00000000000E+00 -0.13833529789E+03  0.13833529791E+03  0.25500000920E-02 0. -1.
    10030    2    1    2    0    0  0.00000000000E+00  0.00000000000E+00  0.10308606301E+04  0.13075312259E+04  0.80434089044E+03 0.  0.
        3    1    3    3  502    0  0.32611015232E+03  0.13640676542E+03  0.20364498116E+03  0.40795333759E+03  0.10100000352E+00 0. -1.
       -3    1    3    3    0  502 -0.32611015232E+03 -0.13640676542E+03  0.82721564897E+03  0.89957788835E+03  0.10100000352E+00 0.  1.
</event>
<event>
 5   0  0.2129257E-02  0.7895160E+03  0.7818609E-02  0.9575317E-01
        1   -1    0    0  501    0  0.00000000000E+00  0.00000000000E+00  0.11414204609E+04  0.11414204609E+04  0.50400001928E-02 0. -1.
       -1   -1    0    0    0  501  0.00000000000E+00  0.00000000000E+00 -0.13652628066E+03  0.13652628076E+03  0.50400001928E-02 0.  1.
    10030    2    1    2    0    0  0.00000000000E+00  0.00000000000E+00  0.10048941802E+04  0.12779467416E+04  0.78951602963E+03 0.  0.
        3    1    3    3  502    0  0.15527521422E+03  0.32181457152E+03  0.77406563002E+03  0.85255652034E+03  0.10100000352E+00 0.  1.
       -3    1    3    3    0  502 -0.15527521422E+03 -0.32181457152E+03  0.23082855017E+03  0.42539022129E+03  0.10100000352E+00 0. -1.
</event>
<event>
 5   0  0.3404132E-02  0.7740361E+03  0.7818609E-02  0.9598378E-01
       -2   -1    0    0    0  501  0.00000000000E+00  0.00000000000E+00  0.14923928945E+03  0.14923928947E+03  0.25500000920E-02 0. -1.
        2   -1    0    0  501    0  0.00000000000E+00  0.00000000000E+00 -0.10036429282E+04  0.10036429282E+04  0.25500000920E-02 0.  1.
    10030    2    1    2    0    0  0.00000000000E+00  0.00000000000E+00 -0.85440363872E+03  0.11528822177E+04  0.77403606500E+03 0.  0.
        5    1    3    3  502    0 -0.12411961573E+03  0.17336994216E+03 -0.90822038827E+03  0.93292506640E+03  0.46999998093E+01 0.  1.
       -5    1    3    3    0  502  0.12411961573E+03 -0.17336994216E+03  0.53816749550E+02  0.21995715125E+03  0.46999998093E+01 0. -1.
</event>
<event>
 5   0  0.2132540E-02  0.8137017E+03  0.7818609E-02  0.9540394E-01
       -1   -1    0    0    0  501  0.00000000000E+00  0.00000000000E+00  0.17359662354E+03  0.17359662361E+03  0.50400001928E-02 0. -1.
        1   -1    0    0  501    0  0.00000000000E+00  0.00000000000E+00 -0.95351856109E+03  0.95351856110E+03  0.50400001928E-02 0.  1.
    10030    2    1    2    0    0  0.00000000000E+00  0.00000000000E+00 -0.77992193755E+03  0.11271151847E+04  0.81370167194E+03 0.  0.
        4    1    3    3  502    0 -0.10856193079E+03 -0.38904276053E+03 -0.45762234304E+03  0.61037675585E+03  0.12699999809E+01 0.  1.
       -4    1    3    3    0  502  0.10856193079E+03  0.38904276053E+03 -0.32229959451E+03  0.51673842886E+03  0.12699999809E+01 0. -1.
</event>
<event>
 5   0  0.2063692E-02  0.8056869E+03  0.7818609E-02  0.9551822E-01
       -1   -1    0    0    0  501  0.00000000000E+00  0.00000000000E+00  0.18398033974E+03  0.18398033981E+03  0.50400001928E-02 0.  1.
        1   -1    0    0  501    0  0.00000000000E+00  0.00000000000E+00 -0.88206633136E+03  0.88206633137E+03  0.50400001928E-02 0. -1.
    10030    2    1    2    0    0  0.00000000000E+00  0.00000000000E+00 -0.69808599162E+03  0.10660466712E+04  0.80568694506E+03 0.  0.
        2    1    3    3  502    0 -0.18845639068E+02 -0.15874061642E+03 -0.83830377674E+03  0.85340902474E+03  0.25500000920E-02 0. -1.
       -2    1    3    3    0  502  0.18845639068E+02  0.15874061642E+03  0.14021778512E+03  0.21263764644E+03  0.25500000920E-02 0.  1.
</event>
<event>
 5   0  0.1989298E-02  0.8062871E+03  0.7818609E-02  0.9550961E-01
        1   -1    0    0  501    0  0.00000000000E+00  0.00000000000E+00  0.34177547759E+03  0.34177547763E+03  0.50400001928E-02 0.  1.
       -1   -1    0    0    0  501  0.00000000000E+00  0.00000000000E+00 -0.47553061772E+03  0.47553061774E+03  0.50400001928E-02 0. -1.
    10030    2    1    2    0    0  0.00000000000E+00  0.00000000000E+00 -0.13375514013E+03  0.81730609537E+03  0.80628705559E+03 0.  0.
        1    1    3    3  502    0 -0.90813160406E+02  0.38221565040E+03  0.24851512719E+02  0.39364124685E+03  0.50400001928E-02 0.  1.
       -1    1    3    3    0  502  0.90813160406E+02 -0.38221565040E+03 -0.15860665285E+03  0.42366484852E+03  0.50400001928E-02 0. -1.
</event>
<event>
 5   0  0.2077795E-02  0.7457952E+03  0.7818609E-02  0.9641970E-01
        1   -1    0    0  501    0  0.00000000000E+00  0.00000000000E+00  0.98726448842E+03  0.98726448843E+03  0.50400001928E-02 0. -1.
       -1   -1    0    0    0  501  0.00000000000E+00  0.00000000000E+00 -0.14084636564E+03  0.14084636573E+03  0.50400001928E-02 0.  1.
    10030    2    1    2    0    0  0.00000000000E+00  0.00000000000E+00  0.84641812278E+03  0.11281108542E+04  0.74579518684E+03 0.  0.
        5    1    3    3  502    0 -0.30160245800E+03  0.17875574197E+03  0.61521674829E+03  0.70811820718E+03  0.46999998093E+01 0. -1.
       -5    1    3    3    0  502  0.30160245800E+03 -0.17875574197E+03  0.23120137449E+03  0.41999264698E+03  0.46999998093E+01 0.  1.
</event>
<event>
 5   0  0.3404132E-02  0.8005822E+03  0.7818609E-02  0.9559175E-01
        2   -1    0    0  501    0  0.00000000000E+00  0.00000000000E+00  0.18246175841E+04  0.18246175841E+04  0.25500000920E-02 0. -1.
       -2   -1    0    0    0  501  0.00000000000E+00  0.00000000000E+00 -0.87817296641E+02  0.87817296678E+02  0.25500000920E-02 0.  1.
    10030    2    1    2    0    0  0.00000000000E+00  0.00000000000E+00  0.17368002875E+04  0.19124348808E+04  0.80058224731E+03 0.  0.
        5    1    3    3  502    0  0.21793249086E+03 -0.34354031309E+02  0.16661899339E+04  0.16807396455E+04  0.46999998093E+01 0. -1.
       -5    1    3    3    0  502 -0.21793249086E+03  0.34354031309E+02  0.70610353573E+02  0.23169523532E+03  0.46999998093E+01 0.  1.
</event>
<event>
 5   0  0.3343036E-02  0.8028189E+03  0.7818609E-02  0.9555946E-01
       -2   -1    0    0    0  501  0.00000000000E+00  0.00000000000E+00  0.22278276082E+03  0.22278276083E+03  0.25500000920E-02 0. -1.
        2   -1    0    0  501    0  0.00000000000E+00  0.00000000000E+00 -0.72325858297E+03  0.72325858297E+03  0.25500000920E-02 0.  1.
    10030    2    1    2    0    0  0.00000000000E+00  0.00000000000E+00 -0.50047582215E+03  0.94604134381E+03  0.80281889342E+03 0.  0.
        4    1    3    3  502    0  0.16325886070E+03  0.31829554381E+03 -0.35644860366E+02  0.35949642248E+03  0.12699999809E+01 0. -1.
       -4    1    3    3    0  502 -0.16325886070E+03 -0.31829554381E+03 -0.46483096178E+03  0.58654492133E+03  0.12699999809E+01 0.  1.
</event>
<event>
 5   0  0.2077795E-02  0.8086650E+03  0.7818609E-02  0.9547559E-01
        1   -1    0    0  501    0  0.00000000000E+00  0.00000000000E+00  0.34297217843E+03  0.34297217847E+03  0.50400001928E-02 0. -1.
       -1   -1    0    0    0  501  0.00000000000E+00  0.00000000000E+00 -0.47667069327E+03  0.47667069330E+03  0.50400001928E-02 0.  1.
    10030    2    1    2    0    0  0.00000000000E+00  0.00000000000E+00 -0.13369851484E+03  0.81964287177E+03  0.80866503842E+03 0.  0.
        5    1    3    3  502    0  0.20543758526E+02 -0.74836569749E+02  0.33532450092E+03  0.34421965241E+03  0.46999998093E+01 0. -1.
       -5    1    3    3    0  502 -0.20543758526E+02  0.74836569749E+02 -0.46902301577E+03  0.47542321936E+03  0.46999998093E+01 0.  1.
</event>
<event>
 5   0  0.2077795E-02  0.7972864E+03  0.7818609E-02  0.9563953E-01
        1   -1    0    0  501    0  0.00000000000E+00  0.00000000000E+00  0.20045486730E+04  0.20045486730E+04  0.50400001928E-02 0.  1.
       -1   -1    0    0    0  501  0.00000000000E+00  0.00000000000E+00 -0.79277894014E+02  0.79277894174E+02  0.50400001928E-02 0. -1.
    10030    2    1    2    0    0  0.00000000000E+00  0.00000000000E+00  0.19252707790E+04  0.20838265672E+04  0.79728639125E+03 0.  0.
        5    1    3    3  502    0  0.37957458328E+03  0.66806654299E+02  0.12285902224E+04  0.12876319420E+04  0.46999998093E+01 0.  1.
       -5    1    3    3    0  502 -0.37957458328E+03 -0.66806654299E+02  0.69668055657E+03  0.79619462523E+03  0.46999998093E+01 0. -1.
</event>
<event>
 5   0  0.3416160E-02  0.8006835E+03  0.7818609E-02  0.9559028E-01
        2   -1    0    0  501    0  0.00000000000E+00  0.00000000000E+00  0.64005992287E+03  0.64005992287E+03  0.25500000920E-02 0. -1.
       -2   -1    0    0    0  501  0.00000000000E+00  0.00000000000E+00 -0.25040395428E+03  0.25040395429E+03  0.25500000920E-02 0.  1.
    10030    2    1    2    0    0  0.00000000000E+00  0.00000000000E+00  0.38965596859E+03  0.89046387717E+03  0.80068354716E+03 0.  0.
        1    1    3    3  502    0  0.28838076472E+03 -0.89014888893E+02 -0.97698930364E+02  0.31722578225E+03  0.50400001928E-02 0.  1.
       -1    1    3    3    0  502 -0.28838076472E+03  0.89014888893E+02  0.48735489895E+03  0.57323809492E+03  0.50400001928E-02 0. -1.
</event>
<event>
 5   0  0.3343036E-02  0.7995494E+03  0.7818609E-02  0.9560670E-01
       -2   -1    0    0    0  501  0.00000000000E+00  0.00000000000E+00  0.80730283486E+02  0.80730283526E+02  0.25500000920E-02 0.  1.
        2   -1    0    0  501    0  0.00000000000E+00  0.00000000000E+00 -0.19796759111E+04  0.19796759111E+04  0.25500000920E-02 0. -1.
    10030    2    1    2    0    0  0.00000000000E+00  0.00000000000E+00 -0.18989456276E+04  0.20604061946E+04  0.79954936697E+03 0.  0.
        4    1    3    3  502    0 -0.32571877607E+03 -0.14936574286E+03 -0.14062226860E+04  0.14511604673E+04  0.12699999809E+01 0. -1.
       -4    1    3    3    0  502  0.32571877607E+03  0.14936574286E+03 -0.49272294163E+03  0.60924572738E+03  0.12699999809E+01 0.  1.
</event>
<event>
 5   0  0.3343036E-02  0.7975658E+03  0.7818609E-02  0.9563547E-01
        2   -1    0    0  501    0  0.00000000000E+00  0.00000000000E+00  0.70615018463E+03  0.70615018463E+03  0.25500000920E-02 0. -1.
       -2   -1    0    0    0  501  0.00000000000E+00  0.00000000000E+00 -0.22520395923E+03  0.22520395924E+03  0.25500000920E-02 0.  1.
    10030    2    1    2    0    0  0.00000000000E+00  0.00000000000E+00  0.48094622540E+03  0.93135414388E+03  0.79756584028E+03 0.  0.
        4    1    3    3  502    0  0.16370668639E+03  0.30148989831E+02 -0.18269154049E+03  0.24715714156E+03  0.12699999809E+01 0.  1.
       -4    1    3    3    0  502 -0.16370668639E+03 -0.30148989831E+02  0.66363776590E+03  0.68419700232E+03  0.12699999809E+01 0. -1.
</event>
<event>
 5   0  0.2132540E-02  0.7323433E+03  0.7818609E-02  0.9663466E-01
       -1   -1    0    0    0  501  0.00000000000E+00  0.00000000000E+00  0.18561547710E+03  0.18561547717E+03  0.50400001928E-02 0. -1.
        1   -1    0    0  501    0  0.00000000000E+00  0.00000000000E+00 -0.72236252778E+03  0.72236252779E+03  0.50400001928E-02 0.  1.
    10030    2    1    2    0    0  0.00000000000E+00  0.00000000000E+00 -0.53674705068E+03  0.90797800496E+03  0.73234326725E+03 0.  0.
        4    1    3    3  502    0  0.32549933569E+03 -0.98523747638E+02 -0.43665814191E+03  0.55346968497E+03  0.12699999809E+01 0.  1.
       -4    1    3    3    0  502 -0.32549933569E+03  0.98523747638E+02 -0.10008890877E+03  0.35450831999E+03  0.12699999809E+01 0. -1.
</event>
<event>
 5   0  0.2129257E-02  0.8101439E+03  0.7818609E-02  0.9545449E-01
        1   -1    0    0  501    0  0.00000000000E+00  0.00000000000E+00  0.52335774949E+03  0.52335774951E+03  0.50400001928E-02 0. -1.
       -1   -1    0    0    0  501  0.00000000000E+00  0.00000000000E+00 -0.31352033539E+03  0.31352033543E+03  0.50400001928E-02 0.  1.
    10030    2    1    2    0    0  0.00000000000E+00  0.00000000000E+00  0.20983741409E+03  0.83687808494E+03  0.81014393085E+03 0.  0.
        3    1    3    3  502    0  0.14847420351E+03 -0.28122305454E+03 -0.15426385818E+03  0.35345203869E+03  0.10100000352E+00 0.  1.
       -3    1    3    3    0  502 -0.14847420351E+03  0.28122305454E+03  0.36410127228E+03  0.48342604625E+03  0.10100000352E+00 0. -1.
</event>
<event>
 5   0  0.1989298E-02  0.8016570E+03  0.7818609E-02  0.9557622E-01
        1   -1    0    0  501    0  0.00000000000E+00  0.00000000000E+00  0.38220804367E+03  0.38220804370E+03  0.50400001928E-02 0. -1.
       -1   -1    0    0    0  501  0.00000000000E+00  0.00000000000E+00 -0.42035610621E+03  0.42035610624E+03  0.50400001928E-02 0.  1.
    10030    2    1    2    0    0  0.00000000000E+00  0.00000000000E+00 -0.38148062545E+02  0.80256414994E+03  0.80165699654E+03 0.  0.
        1    1    3    3  502    0  0.87911266984E+02  0.38238938209E+03  0.62954360505E+02  0.39738304183E+03  0.50400001928E-02 0. -1.
       -1    1    3    3    0  502 -0.87911266984E+02 -0.38238938209E+03 -0.10110242305E+03  0.40518110811E+03  0.50400001928E-02 0.  1.
</event>
<event>
 5   0  0.3343036E-02  0.7714086E+03  0.7818609E-02  0.9602350E-01
        2   -1    0    0  501    0  0.00000000000E+00  0.00000000000E+00  0.35254750053E+03  0.35254750054E+03  0.25500000920E-02 0.  1.
       -2   -1    0    0    0  501  0.00000000000E+00  0.00000000000E+00 -0.42197948172E+03  0.42197948173E+03  0.25500000920E-02 0. -1.
    10030    2    1    2    0    0  0.00000000000E+00  0.00000000000E+00 -0.69431981186E+02  0.77452698227E+03  0.77140861173E+03 0.  0.
        4    1    3    3  502    0 -0.17303131083E+02 -0.27335606364E+03  0.23793886963E+03  0.36282151873E+03  0.12699999809E+01 0.  1.
       -4    1    3    3    0  502  0.17303131083E+02  0.27335606364E+03 -0.30737085082E+03  0.41170546354E+03  0.12699999809E+01 0. -1.
</event>
<event>
 5   0  0.2132540E-02  0.7875748E+03  0.7818609E-02  0.9578178E-01
        1   -1    0    0  501    0  0.00000000000E+00  0.00000000000E+00  0.42527659341E+03  0.42527659344E+03  0.50400001928E-02 0.  1.
       -1   -1    0    0    0  501  0.00000000000E+00  0.00000000000E+00 -0.36462975400E+03  0.36462975403E+03  0.50400001928E-02 0. -1.
    10030    2    1    2    0    0  0.00000000000E+00  0.00000000000E+00  0.60646839411E+02  0.78990634747E+03  0.78757475749E+03 0.  0.
        4    1    3    3  502    0 -0.18943018045E+03  0.14785830460E+03 -0.28256330060E+03  0.37093059088E+03  0.12699999809E+01 0. -1.
       -4    1    3    3    0  502  0.18943018045E+03 -0.14785830460E+03  0.34321014001E+03  0.41897575659E+03  0.12699999809E+01 0.  1.
</event>
<event>
 5   0  0.3416160E-02  0.8095953E+03  0.7818609E-02  0.9546231E-01
        2   -1    0    0  501    0  0.00000000000E+00  0.00000000000E+00  0.63002687570E+03  0.63002687571E+03  0.25500000920E-02 0.  1.
       -2   -1    0    0    0  501  0.00000000000E+00  0.00000000000E+00 -0.26008595952E+03  0.26008595953E+03  0.25500000920E-02 0. -1.
    10030    2    1    2    0    0  0.00000000000E+00  0.00000000000E+00  0.36994091619E+03  0.89011283524E+03  0.80959531742E+03 0.  0.
        1    1    3    3  502    0  0.11623140953E+03 -0.64052849602E+02  0.60542881480E+03  0.61980364464E+03  0.50400001928E-02 0.  1.
       -1    1    3    3    0  502 -0.11623140953E+03  0.64052849602E+02 -0.23548789861E+03  0.27030919059E+03  0.50400001928E-02 0. -1.
</event>
<event>
 5   0  0.2077795E-02  0.8243768E+03  0.7818609E-02  0.9525388E-01
        1   -1    0    0  501    0  0.00000000000E+00  0.00000000000E+00  0.73891791351E+03  0.73891791352E+03  0.50400001928E-02 0. -1.
       -1   -1    0    0    0  501  0.00000000000E+00  0.00000000000E+00 -0.22992985991E+03  0.22992985997E+03  0.50400001928E-02 0.  1.
    10030    2    1    2    0    0  0.00000000000E+00  0.00000000000E+00  0.50898805359E+03  0.96884777349E+03  0.82437683707E+03 0.  0.
        5    1    3    3  502    0  0.18413006185E+03  0.15389153283E+03 -0.13932953514E+03  0.27752710303E+03  0.46999998093E+01 0.  1.
       -5    1    3    3    0  502 -0.18413006185E+03 -0.15389153283E+03  0.64831758873E+03  0.69132067047E+03  0.46999998093E+01 0. -1.
</event>
<event>
 5   0  0.3550586E-02  0.7891012E+03  0.7818609E-02  0.9575928E-01
       -2   -1    0    0    0  501  0.00000000000E+00  0.00000000000E+00  0.24051620795E+03  0.24051620796E+03  0.25500000920E-02 0.  1.
        2   -1    0    0  501    0  0.00000000000E+00  0.00000000000E+00 -0.64723360984E+03  0.64723360984E+03  0.25500000920E-02 0. -1.
    10030    2    1    2    0    0  0.00000000000E+00  0.00000000000E+00 -0.40671740189E+03  0.88774981781E+03  0.78910119378E+03 0.  0.
        3    1    3    3  502    0 -0.24057789514E+03  0.31271213470E+03 -0.20548151699E+03  0.44484746469E+03  0.10100000352E+00 0.  1.
       -3    1    3    3    0  502  0.24057789514E+03 -0.31271213470E+03 -0.20123588490E+03  0.44290235311E+03  0.10100000352E+00 0. -1.
</event>
<event>
 5   0  0.3416160E-02  0.7988229E+03  0.7818609E-02  0.9561722E-01
       -2   -1    0    0    0  501  0.00000000000E+00  0.00000000000E+00  0.15541621512E+03  0.15541621514E+03  0.25500000920E-02 0.  1.
        2   -1    0    0  501    0  0.00000000000E+00  0.00000000000E+00 -0.10264663937E+04  0.10264663937E+04  0.25500000920E-02 0. -1.
    10030    2    1    2    0    0  0.00000000000E+00  0.00000000000E+00 -0.87105017861E+03  0.11818826089E+04  0.79882293877E+03 0.  0.
        1    1    3    3  502    0  0.35001969570E+03  0.12175117636E+03 -0.21511787334E+03  0.42850068352E+03  0.50400001928E-02 0.  1.
       -1    1    3    3    0  502 -0.35001969570E+03 -0.12175117636E+03 -0.65593230528E+03  0.75338192536E+03  0.50400001928E-02 0. -1.
</event>
<event>
 5   0  0.2077795E-02  0.7940648E+03  0.7818609E-02  0.9568648E-01
        1   -1    0    0  501    0  0.00000000000E+00  0.00000000000E+00  0.64866717927E+03  0.64866717928E+03  0.50400001928E-02 0.  1.
       -1   -1    0    0    0  501  0.00000000000E+00  0.00000000000E+00 -0.24301323271E+03  0.24301323276E+03  0.50400001928E-02 0. -1.
    10030    2    1    2    0    0  0.00000000000E+00  0.00000000000E+00  0.40565394656E+03  0.89168041204E+03  0.79406475357E+03 0.  0.
        5    1    3    3  502    0  0.11973083305E+03 -0.33354182149E+03  0.18661361087E+01  0.35441669195E+03  0.46999998093E+01 0. -1.
       -5    1    3    3    0  502 -0.11973083305E+03  0.33354182149E+03  0.40378781045E+03  0.53726372010E+03  0.46999998093E+01 0.  1.
</event>
<event>
 5   0  0.2063692E-02  0.8189352E+03  0.7818609E-02  0.9533007E-01
       -1   -1    0    0    0  501  0.00000000000E+00  0.00000000000E+00  0.63202766587E+02  0.63202766788E+02  0.50400001928E-02 0. -1.
        1   -1    0    0  501    0  0.00000000000E+00  0.00000000000E+00 -0.26527905481E+04  0.26527905481E+04  0.50400001928E-02 0.  1.
    10030    2    1    2    0    0  0.00000000000E+00  0.00000000000E+00 -0.25895877815E+04  0.27159933149E+04  0.81893516739E+03 0.  0.
        2    1    3    3  502    0 -0.22265372259E+03  0.25825599617E+03 -0.20466428079E+04  0.20748536389E+04  0.25500000920E-02 0.  1.
       -2    1    3    3    0  502  0.22265372259E+03 -0.25825599617E+03 -0.54294497358E+03  0.64113967596E+03  0.25500000920E-02 0. -1.
</event>
<event>
 5   0  0.3467240E-02  0.7901236E+03  0.7818609E-02  0.9574424E-01
        2   -1    0    0  501    0  0.00000000000E+00  0.00000000000E+00  0.78841388797E+03  0.78841388797E+03  0.25500000920E-02 0.  1.
       -2   -1    0    0    0  501  0.00000000000E+00  0.00000000000E+00 -0.19795923621E+03  0.19795923623E+03  0.25500000920E-02 0. -1.
    10030    2    1    2    0    0  0.00000000000E+00  0.00000000000E+00  0.59045465175E+03  0.98637312420E+03  0.79012356272E+03 0.  0.
        2    1    3    3  502    0  0.48373960507E+02  0.15839036531E+03  0.74298682186E+03  0.76122070738E+03  0.25500000920E-02 0.  1.
       -2    1    3    3    0  502 -0.48373960507E+02 -0.15839036531E+03 -0.15253217010E+03  0.22515241682E+03  0.25500000920E-02 0. -1.
</event>
<event>
 5   0  0.3467240E-02  0.7922439E+03  0.7818609E-02  0.9571312E-01
        2   -1    0    0  501    0  0.00000000000E+00  0.00000000000E+00  0.79653278708E+03  0.79653278709E+03  0.25500000920E-02 0. -1.
       -2   -1    0    0    0  501  0.00000000000E+00  0.00000000000E+00 -0.19699451078E+03  0.19699451079E+03  0.25500000920E-02 0.  1.
    10030    2    1    2    0    0  0.00000000000E+00  0.00000000000E+00  0.59953827630E+03  0.99352729788E+03  0.79224386831E+03 0.  0.
        2    1    3    3  502    0  0.56822475804E+02  0.23857738578E+03  0.68987207887E+03  0.73216900233E+03  0.25500000920E-02 0. -1.
       -2    1    3    3    0  502 -0.56822475804E+02 -0.23857738578E+03 -0.90333802565E+02  0.26135829555E+03  0.25500000920E-02 0.  1.
</event>
<event>
 5   0  0.1989298E-02  0.8062085E+03  0.7818609E-02  0.9551074E-01
        1   -1    0    0  501    0  0.00000000000E+00  0.00000000000E+00  0.99161277242E+03  0.99161277243E+03  0.50400001928E-02 0. -1.
       -1   -1    0    0    0  501  0.00000000000E+00  0.00000000000E+00 -0.16386744036E+03  0.16386744044E+03  0.50400001928E-02 0.  1.
    10030    2    1    2    0    0  0.00000000000E+00  0.00000000000E+00  0.82774533206E+03  0.11554802129E+04  0.80620852613E+03 0.  0.
        1    1    3    3  502    0  0.33188270160E+03 -0.14283245424E+03  0.67003901187E+03  0.76124865521E+03  0.50400001928E-02 0. -1.
       -1    1    3    3    0  502 -0.33188270160E+03  0.14283245424E+03  0.15770632018E+03  0.39423155766E+03  0.50400001928E-02 0.  1.
</event>
<event>
 5   0  0.2063692E-02  0.7920561E+03  0.7818609E-02  0.9571587E-01
        1   -1    0    0  501    0  0.00000000000E+00  0.00000000000E+00  0.49895864182E+03  0.49895864184E+03  0.50400001928E-02 0.  1.
       -1   -1    0    0    0  501  0.00000000000E+00  0.00000000000E+00 -0.31433109313E+03  0.31433109318E+03  0.50400001928E-02 0. -1.
    10030    2    1    2    0    0  0.00000000000E+00  0.00000000000E+00  0.18462754868E+03  0.81328973502E+03  0.79205609735E+03 0.  0.
        2    1    3    3  502    0 -0.27923098827E+03 -0.10097156770E+03 -0.17676683381E+03  0.34556000323E+03  0.25500000920E-02 0. -1.
       -2    1    3    3    0  502  0.27923098827E+03  0.10097156770E+03  0.36139438249E+03  0.46772973178E+03  0.25500000920E-02 0.  1.
</event>
<event>
 5   0  0.3416160E-02  0.8535070E+03  0.7818609E-02  0.9485642E-01
       -2   -1    0    0    0  501  0.00000000000E+00  0.00000000000E+00  0.22301330466E+03  0.22301330467E+03  0.25500000920E-02 0. -1.
        2   -1    0    0  501    0  0.00000000000E+00  0.00000000000E+00 -0.81662629579E+03  0.81662629579E+03  0.25500000920E-02 0.  1.
    10030    2    1    2    0    0  0.00000000000E+00  0.00000000000E+00 -0.59361299113E+03  0.10396396005E+04  0.85350695112E+03 0.  0.
        1    1    3    3  502    0  0.22892169775E+03  0.35663961212E+03 -0.35797268973E+03  0.55474444860E+03  0.50400001928E-02 0.  1.
       -1    1    3    3    0  502 -0.22892169775E+03 -0.35663961212E+03 -0.23564030140E+03  0.48489515187E+03  0.50400001928E-02 0. -1.
</event>
<event>
 5   0  0.2132540E-02  0.8506184E+03  0.7818609E-02  0.9489507E-01
       -1   -1    0    0    0  501  0.00000000000E+00  0.00000000000E+00  0.22975809824E+03  0.22975809829E+03  0.50400001928E-02 0.  1.
        1   -1    0    0  501    0  0.00000000000E+00  0.00000000000E+00 -0.78729732176E+03  0.78729732178E+03  0.50400001928E-02 0. -1.
    10030    2    1    2    0    0  0.00000000000E+00  0.00000000000E+00 -0.55753922353E+03  0.10170554201E+04  0.85061844661E+03 0.  0.
        4    1    3    3  502    0  0.11136821064E+03  0.19083767451E+03 -0.71328258358E+03  0.74672321063E+03  0.12699999809E+01 0. -1.
       -4    1    3    3    0  502 -0.11136821064E+03 -0.19083767451E+03  0.15574336006E+03  0.27033220943E+03  0.12699999809E+01 0.  1.
</event>
<event>
 5   0  0.3416160E-02  0.6719746E+03  0.7818609E-02  0.9766397E-01
       -2   -1    0    0    0  501  0.00000000000E+00  0.00000000000E+00  0.11269475647E+03  0.11269475650E+03  0.25500000920E-02 0.  1.
        2   -1    0    0  501    0  0.00000000000E+00  0.00000000000E+00 -0.10017101132E+04  0.10017101132E+04  0.25500000920E-02 0. -1.
    10030    2    1    2    0    0  0.00000000000E+00  0.00000000000E+00 -0.88901535673E+03  0.11144048697E+04  0.67197463429E+03 0.  0.
        1    1    3    3  502    0 -0.81002025592E+02 -0.40256015245E+02 -0.98113784312E+03  0.98529860558E+03  0.50400001928E-02 0. -1.
       -1    1    3    3    0  502  0.81002025592E+02  0.40256015245E+02  0.92122486395E+02  0.12910626413E+03  0.50400001928E-02 0.  1.
</event>
<event>
 5   0  0.1989298E-02  0.7981542E+03  0.7818609E-02  0.9562693E-01
       -1   -1    0    0    0  501  0.00000000000E+00  0.00000000000E+00  0.18057317564E+03  0.18057317571E+03  0.50400001928E-02 0. -1.
        1   -1    0    0  501    0  0.00000000000E+00  0.00000000000E+00 -0.88198329134E+03  0.88198329136E+03  0.50400001928E-02 0.  1.
    10030    2    1    2    0    0  0.00000000000E+00  0.00000000000E+00 -0.70141011571E+03  0.10625564671E+04  0.79815418015E+03 0.  0.
        1    1    3    3  502    0 -0.24506413452E+03  0.13421008134E+03 -0.73004320682E+03  0.78168526902E+03  0.50400001928E-02 0.  1.
       -1    1    3    3    0  502  0.24506413452E+03 -0.13421008134E+03  0.28633091108E+02  0.28087119805E+03  0.50400001928E-02 0. -1.
</event>
<event>
 5   0  0.3343036E-02  0.8131037E+03  0.7818609E-02  0.9541241E-01
        2   -1    0    0  501    0  0.00000000000E+00  0.00000000000E+00  0.70460511881E+03  0.70460511882E+03  0.25500000920E-02 0.  1.
       -2   -1    0    0    0  501  0.00000000000E+00  0.00000000000E+00 -0.23457735770E+03  0.23457735771E+03  0.25500000920E-02 0. -1.
    10030    2    1    2    0    0  0.00000000000E+00  0.00000000000E+00  0.47002776111E+03  0.93918247653E+03  0.81310370065E+03 0.  0.
        4    1    3    3  502    0  0.17637665515E+03 -0.36259644849E+03  0.17501878178E+03  0.43956580374E+03  0.12699999809E+01 0.  1.
       -4    1    3    3    0  502 -0.17637665515E+03  0.36259644849E+03  0.29500897933E+03  0.49961667279E+03  0.12699999809E+01 0. -1.
</event>
<event>
 5   0  0.2077795E-02  0.6879244E+03  0.7818609E-02  0.9738109E-01
        1   -1    0    0  501    0  0.00000000000E+00  0.00000000000E+00  0.67970796101E+03  0.67970796103E+03  0.50400001928E-02 0.  1.
       -1   -1    0    0    0  501  0.00000000000E+00  0.00000000000E+00 -0.17406006381E+03  0.17406006389E+03  0.50400001928E-02 0. -1.
    10030    2    1    2    0    0  0.00000000000E+00  0.00000000000E+00  0.50564789719E+03  0.85376802491E+03  0.68792444674E+03 0.  0.
        5    1    3    3  502    0  0.19221459808E+02 -0.11603311484E+03  0.65393376159E+03  0.66444307717E+03  0.46999998093E+01 0.  1.
       -5    1    3    3    0  502 -0.19221459808E+02  0.11603311484E+03 -0.14828586440E+03  0.18932494774E+03  0.46999998093E+01 0. -1.
</event>
<event>
 5   0  0.3550586E-02  0.8097081E+03  0.7818609E-02  0.9546070E-01
       -2   -1    0    0    0  501  0.00000000000E+00  0.00000000000E+00  0.51839490241E+03  0.51839490242E+03  0.25500000920E-02 0.  1.
        2   -1    0    0  501    0  0.00000000000E+00  0.00000000000E+00 -0.31618131495E+03  0.31618131496E+03  0.25500000920E-02 0. -1.
    10030    2    1    2    0    0  0.00000000000E+00  0.00000000000E+00  0.20221358746E+03  0.83457621738E+03  0.80970805088E+03 0.  0.
        3    1    3    3  502    0 -0.33634189242E+03 -0.79920831398E+01  0.33322780427E+03  0.47352985305E+03  0.10100000352E+00 0.  1.
       -3    1    3    3    0  502  0.33634189242E+03  0.79920831398E+01 -0.13101421681E+03  0.36104636433E+03  0.10100000352E+00 0. -1.
</event>
<event>
 5   0  0.3467240E-02  0.8087277E+03  0.7818609E-02  0.9547469E-01
       -2   -1    0    0    0  501  0.00000000000E+00  0.00000000000E+00  0.12495002824E+03  0.12495002827E+03  0.25500000920E-02 0. -1.
        2   -1    0    0  501    0  0.00000000000E+00  0.00000000000E+00 -0.13086042190E+04  0.13086042190E+04  0.25500000920E-02 0.  1.
    10030    2    1    2    0    0  0.00000000000E+00  0.00000000000E+00 -0.11836541907E+04  0.14335542473E+04  0.80872772709E+03 0.  0.
        2    1    3    3  502    0 -0.14785991303E+03 -0.28045529690E+03 -0.10367204302E+04  0.10841157585E+04  0.25500000920E-02 0.  1.
       -2    1    3    3    0  502  0.14785991303E+03  0.28045529690E+03 -0.14693376058E+03  0.34943848879E+03  0.25500000920E-02 0. -1.
</event>
<event>
 5   0  0.3416160E-02  0.7861553E+03  0.7818609E-02  0.9580276E-01
        2   -1    0    0  501    0  0.00000000000E+00  0.00000000000E+00  0.12230461294E+04  0.12230461294E+04  0.25500000920E-02 0.  1.
       -2   -1    0    0    0  501  0.00000000000E+00  0.00000000000E+00 -0.12633215410E+03  0.12633215412E+03  0.25500000920E-02 0. -1.
    10030    2    1    2    0    0  0.00000000000E+00  0.00000000000E+00  0.10967139753E+04  0.13493782836E+04  0.78615533354E+03 0.  0.
        1    1    3    3  502    0  0.20173288074E+03 -0.10489168142E+03 -0.20025257645E+01  0.22738168383E+03  0.50400001928E-02 0. -1.
       -1    1    3    3    0  502 -0.20173288074E+03  0.10489168142E+03  0.10987165011E+04  0.11219965997E+04  0.50400001928E-02 0.  1.
</event>
<event>
 5   0  0.2063692E-02  0.8003109E+03  0.7818609E-02  0.9559567E-01
        1   -1    0    0  501    0  0.00000000000E+00  0.00000000000E+00  0.24725702715E+03  0.24725702720E+03  0.50400001928E-02 0. -1.
       -1   -1    0    0    0  501  0.00000000000E+00  0.00000000000E+00 -0.64760295754E+03  0.64760295755E+03  0.50400001928E-02 0.  1.
    10030    2    1    2    0    0  0.00000000000E+00  0.00000000000E+00 -0.40034593039E+03  0.89485998475E+03  0.80031089480E+03 0.  0.
        2    1    3    3  502    0  0.14103426245E+03 -0.37320921288E+03 -0.16573492343E+03  0.43202296769E+03  0.25500000920E-02 0. -1.
       -2    1    3    3    0  502 -0.14103426245E+03  0.37320921288E+03 -0.23461100696E+03  0.46283701706E+03  0.25500000920E-02 0.  1.
</event>
<event>
 5   0  0.3467240E-02  0.7944795E+03  0.7818609E-02  0.9568042E-01
        2   -1    0    0  501    0  0.00000000000E+00  0.00000000000E+00  0.10184393320E+04  0.10184393320E+04  0.25500000920E-02 0. -1.
       -2   -1    0    0    0  501  0.00000000000E+00  0.00000000000E+00 -0.15494238732E+03  0.15494238734E+03  0.25500000920E-02 0.  1.
    10030    2    1    2    0    0  0.00000000000E+00  0.00000000000E+00  0.86349694469E+03  0.11733817194E+04  0.79447950623E+03 0.  0.
        2    1    3    3  502    0  0.47781929663E+02 -0.64793555273E+02  0.10062643878E+04  0.10094797352E+04  0.25500000920E-02 0. -1.
       -2    1    3    3    0  502 -0.47781929663E+02  0.64793555273E+02 -0.14276744309E+03  0.16390198418E+03  0.25500000920E-02 0.  1.
</event>
<event>
 5   0  0.2129257E-02  0.7966652E+03  0.7818609E-02  0.9564857E-01
       -1   -1    0    0    0  501  0.00000000000E+00  0.00000000000E+00  0.30981081627E+03  0.30981081631E+03  0.50400001928E-02 0. -1.
        1   -1    0    0  501    0  0.00000000000E+00  0.00000000000E+00 -0.51214759807E+03  0.51214759810E+03  0.50400001928E-02 0.  1.
    10030    2    1    2    0    0  0.00000000000E+00  0.00000000000E+00 -0.20233678181E+03  0.82195841440E+03  0.79666521308E+03 0.  0.
        3    1    3    3  502    0  0.19418254832E+03 -0.34773007239E+03 -0.10815005444E+03  0.41269784321E+03  0.10100000352E+00 0.  1.
       -3    1    3    3    0  502 -0.19418254832E+03  0.34773007239E+03 -0.94186727370E+02  0.40926057119E+03  0.10100000352E+00 0. -1.
</event>
<event>
 5   0  0.2132540E-02  0.8025188E+03  0.7818609E-02  0.9556378E-01
        1   -1    0    0  501    0  0.00000000000E+00  0.00000000000E+00  0.65139550032E+03  0.65139550033E+03  0.50400001928E-02 0.  1.
       -1   -1    0    0    0  501  0.00000000000E+00  0.00000000000E+00 -0.24717562091E+03  0.24717562096E+03  0.50400001928E-02 0. -1.
    10030    2    1    2    0    0  0.00000000000E+00  0.00000000000E+00  0.40421987940E+03  0.89857112130E+03  0.80251875313E+03 0.  0.
        4    1    3    3  502    0 -0.18384037239E+03  0.11544592232E+03 -0.17574545894E+03  0.27930829335E+03  0.12699999809E+01 0. -1.
       -4    1    3    3    0  502  0.18384037239E+03 -0.11544592232E+03  0.57996533834E+03  0.61926282795E+03  0.12699999809E+01 0.  1.
</event>
<event>
 5   0  0.2063692E-02  0.8065278E+03  0.7818609E-02  0.9550616E-01
        1   -1    0    0  501    0  0.00000000000E+00  0.00000000000E+00  0.23411013454E+03  0.23411013459E+03  0.50400001928E-02 0. -1.
       -1   -1    0    0    0  501  0.00000000000E+00  0.00000000000E+00 -0.69463794340E+03  0.69463794342E+03  0.50400001928E-02 0.  1.
    10030    2    1    2    0    0  0.00000000000E+00  0.00000000000E+00 -0.46052780887E+03  0.92874807801E+03  0.80652782325E+03 0.  0.
        2    1    3    3  502    0 -0.34658269108E+03  0.60896841728E+02 -0.34552046257E+01  0.35190897337E+03  0.25500000920E-02 0. -1.
       -2    1    3    3    0  502  0.34658269108E+03 -0.60896841728E+02 -0.45707260424E+03  0.57683910464E+03  0.25500000920E-02 0.  1.
</event>
<event>
 5   0  0.2077795E-02  0.8016854E+03  0.7818609E-02  0.9557581E-01
       -1   -1    0    0    0  501  0.00000000000E+00  0.00000000000E+00  0.41850133459E+03  0.41850133463E+03  0.50400001928E-02 0. -1.
        1   -1    0    0  501    0  0.00000000000E+00  0.00000000000E+00 -0.38392913016E+03  0.38392913019E+03  0.50400001928E-02 0.  1.
    10030    2    1    2    0    0  0.00000000000E+00  0.00000000000E+00  0.34572204437E+02  0.80243046482E+03  0.80168535820E+03 0.  0.
        5    1    3    3  502    0 -0.27639816133E+03  0.23957475046E+03 -0.14675874555E+03  0.39414746484E+03  0.46999998093E+01 0.  1.
       -5    1    3    3    0  502  0.27639816133E+03 -0.23957475046E+03  0.18133094999E+03  0.40828299998E+03  0.46999998093E+01 0. -1.
</event>
<event>
 5   0  0.3416160E-02  0.8464857E+03  0.7818609E-02  0.9495066E-01
       -2   -1    0    0    0  501  0.00000000000E+00  0.00000000000E+00  0.20611748320E+03  0.20611748322E+03  0.25500000920E-02 0. -1.
        2   -1    0    0  501    0  0.00000000000E+00  0.00000000000E+00 -0.86908944469E+03  0.86908944469E+03  0.25500000920E-02 0.  1.
    10030    2    1    2    0    0  0.00000000000E+00  0.00000000000E+00 -0.66297196148E+03  0.10752069279E+04  0.84648574477E+03 0.  0.
        1    1    3    3  502    0 -0.19909778778E+03 -0.17824069755E+03  0.85412547147E+02  0.28054407603E+03  0.50400001928E-02 0. -1.
       -1    1    3    3    0  502  0.19909778778E+03  0.17824069755E+03 -0.74838450863E+03  0.79466285187E+03  0.50400001928E-02 0.  1.
</event>
<event>
 5   0  0.3343036E-02  0.7994547E+03  0.7818609E-02  0.9560807E-01
        2   -1    0    0  501    0  0.00000000000E+00  0.00000000000E+00  0.81296537002E+03  0.81296537002E+03  0.25500000920E-02 0.  1.
       -2   -1    0    0    0  501  0.00000000000E+00  0.00000000000E+00 -0.19654216427E+03  0.19654216429E+03  0.25500000920E-02 0. -1.
    10030    2    1    2    0    0  0.00000000000E+00  0.00000000000E+00  0.61642320575E+03  0.10095075343E+04  0.79945474746E+03 0.  0.
        4    1    3    3  502    0 -0.61430760986E+02 -0.33588117844E+02 -0.18873667513E+03  0.20130833439E+03  0.12699999809E+01 0. -1.
       -4    1    3    3    0  502  0.61430760986E+02  0.33588117844E+02  0.80515988088E+03  0.80819919991E+03  0.12699999809E+01 0.  1.
</event>
<event>
 5   0  0.3550586E-02  0.8090450E+03  0.7818609E-02  0.9547016E-01
        2   -1    0    0  501    0  0.00000000000E+00  0.00000000000E+00  0.50417669831E+03  0.50417669832E+03  0.25500000920E-02 0.  1.
       -2   -1    0    0    0  501  0.00000000000E+00  0.00000000000E+00 -0.32456569686E+03  0.32456569687E+03  0.25500000920E-02 0. -1.
    10030    2    1    2    0    0  0.00000000000E+00  0.00000000000E+00  0.17961100145E+03  0.82874239519E+03  0.80904502084E+03 0.  0.
        3    1    3    3  502    0  0.13521073141E+02 -0.14572997800E+03  0.47610555496E+03  0.49809291861E+03  0.10100000352E+00 0.  1.
       -3    1    3    3    0  502 -0.13521073141E+02  0.14572997800E+03 -0.29649455350E+03  0.33064947658E+03  0.10100000352E+00 0. -1.
</event>
<event>
 5   0  0.2063692E-02  0.8119672E+03  0.7818609E-02  0.9542855E-01
        1   -1    0    0  501    0  0.00000000000E+00  0.00000000000E+00  0.54086812585E+03  0.54086812588E+03  0.50400001928E-02 0.  1.
       -1   -1    0    0    0  501  0.00000000000E+00  0.00000000000E+00 -0.30473730657E+03  0.30473730662E+03  0.50400001928E-02 0. -1.
    10030    2    1    2    0    0  0.00000000000E+00  0.00000000000E+00  0.23613081928E+03  0.84560543249E+03  0.81196723065E+03 0.  0.
        2    1    3    3  502    0  0.32256112842E+03  0.23804146378E+03  0.18485721467E+03  0.44145397254E+03  0.25500000920E-02 0.  1.
       -2    1    3    3    0  502 -0.32256112842E+03 -0.23804146378E+03  0.51273604608E+02  0.40415145995E+03  0.25500000920E-02 0. -1.
</event>
<event>
 5   0  0.1358000E-02  0.7089875E+03  0.7818609E-02  0.9701985E-01
        4   -1    0    0  501    0  0.00000000000E+00  0.00000000000E+00  0.18941483247E+03  0.18941909001E+03  0.12699999809E+01 0. -1.
       -4   -1    0    0    0  501  0.00000000000E+00  0.00000000000E+00 -0.66343000533E+03  0.66343122091E+03  0.12699999809E+01 0.  1.
    10030    2    1    2    0    0  0.00000000000E+00  0.00000000000E+00 -0.47401517286E+03  0.85285031091E+03  0.70898749546E+03 0.  0.
        4    1    3    3  502    0 -0.18408359610E+03  0.35527852196E+02 -0.59891294022E+03  0.62757256273E+03  0.12699999809E+01 0.  1.
       -4    1    3    3    0  502  0.18408359610E+03 -0.35527852196E+02  0.12489776735E+03  0.22527774818E+03  0.12699999809E+01 0. -1.
</event>
<event>
 5   0  0.1358000E-02  0.7990726E+03  0.7818609E-02  0.9561360E-01
        3   -1    0    0  501    0  0.00000000000E+00  0.00000000000E+00  0.39311634201E+03  0.39311635499E+03  0.10100000352E+00 0. -1.
       -3   -1    0    0    0  501  0.00000000000E+00  0.00000000000E+00 -0.40606112619E+03  0.40606113875E+03  0.10100000352E+00 0.  1.
    10030    2    1    2    0    0  0.00000000000E+00  0.00000000000E+00 -0.12944784176E+02  0.79917749374E+03  0.79907264942E+03 0.  0.
        2    1    3    3  502    0  0.37212386769E+03 -0.10024239024E+03 -0.11186441857E+03  0.40129584829E+03  0.25500000920E-02 0.  1.
       -2    1    3    3    0  502 -0.37212386769E+03  0.10024239024E+03  0.98919634391E+02  0.39788164545E+03  0.25500000920E-02 0. -1.
</event>
<event>
 5   0  0.2077795E-02  0.7856204E+03  0.7818609E-02  0.9581067E-01
        1   -1    0    0  501    0  0.00000000000E+00  0.00000000000E+00  0.56508198946E+03  0.56508198948E+03  0.50400001928E-02 0. -1.
       -1   -1    0    0    0  501  0.00000000000E+00  0.00000000000E+00 -0.27305744018E+03  0.27305744023E+03  0.50400001928E-02 0.  1.
    10030    2    1    2    0    0  0.00000000000E+00  0.00000000000E+00  0.29202454928E+03  0.83813942971E+03  0.78562037032E+03 0.  0.
        5    1    3    3  502    0 -0.13265131573E+03  0.25167134547E+03  0.43493560791E+03  0.51973638580E+03  0.46999998093E+01 0. -1.
       -5    1    3    3    0  502  0.13265131573E+03 -0.25167134547E+03 -0.14291105863E+03  0.31840304392E+03  0.46999998093E+01 0.  1.
</event>
<event>
 5   0  0.2132540E-02  0.8002400E+03  0.7818609E-02  0.9559670E-01
        1   -1    0    0  501    0  0.00000000000E+00  0.00000000000E+00  0.11929491904E+04  0.11929491904E+04  0.50400001928E-02 0. -1.
       -1   -1    0    0    0  501  0.00000000000E+00  0.00000000000E+00 -0.13420188390E+03  0.13420188400E+03  0.50400001928E-02 0.  1.
    10030    2    1    2    0    0  0.00000000000E+00  0.00000000000E+00  0.10587473065E+04  0.13271510744E+04  0.80024003604E+03 0.  0.
        4    1    3    3  502    0 -0.37710094461E+03  0.84061195015E+02  0.35683988916E+03  0.52593509706E+03  0.12699999809E+01 0. -1.
       -4    1    3    3    0  502  0.37710094461E+03 -0.84061195015E+02  0.70190741734E+03  0.80121597734E+03  0.12699999809E+01 0.  1.
</event>
<event>
 5   0  0.1989298E-02  0.9701704E+03  0.7818609E-02  0.9341880E-01
       -1   -1    0    0    0  501  0.00000000000E+00  0.00000000000E+00  0.42118954964E+03  0.42118954967E+03  0.50400001928E-02 0.  1.
        1   -1    0    0  501    0  0.00000000000E+00  0.00000000000E+00 -0.55867397920E+03  0.55867397922E+03  0.50400001928E-02 0. -1.
    10030    2    1    2    0    0  0.00000000000E+00  0.00000000000E+00 -0.13748442956E+03  0.97986352889E+03  0.97017038033E+03 0.  0.
        1    1    3    3  502    0 -0.33294598357E+03  0.58689129731E+02 -0.42008300269E+03  0.53922831073E+03  0.50400001928E-02 0. -1.
       -1    1    3    3    0  502  0.33294598357E+03 -0.58689129731E+02  0.28259857312E+03  0.44063521816E+03  0.50400001928E-02 0.  1.
</event>
<event>
 5   0  0.3343036E-02  0.7950355E+03  0.7818609E-02  0.9567231E-01
        2   -1    0    0  501    0  0.00000000000E+00  0.00000000000E+00  0.12168409447E+04  0.12168409447E+04  0.25500000920E-02 0.  1.
       -2   -1    0    0    0  501  0.00000000000E+00  0.00000000000E+00 -0.12986114231E+03  0.12986114234E+03  0.25500000920E-02 0. -1.
    10030    2    1    2    0    0  0.00000000000E+00  0.00000000000E+00  0.10869798024E+04  0.13467020870E+04  0.79503548376E+03 0.  0.
        4    1    3    3  502    0  0.44290240099E+01  0.39214045085E+03  0.43338719195E+03  0.58448252368E+03  0.12699999809E+01 0.  1.
       -4    1    3    3    0  502 -0.44290240099E+01 -0.39214045085E+03  0.65359261043E+03  0.76221956335E+03  0.12699999809E+01 0. -1.
</event>
<event>
 5   0  0.3404132E-02  0.8020893E+03  0.7818609E-02  0.9556998E-01
        2   -1    0    0  501    0  0.00000000000E+00  0.00000000000E+00  0.67190713657E+03  0.67190713658E+03  0.25500000920E-02 0.  1.
       -2   -1    0    0    0  501  0.00000000000E+00  0.00000000000E+00 -0.23937356067E+03  0.23937356068E+03  0.25500000920E-02 0. -1.
    10030    2    1    2    0    0  0.00000000000E+00  0.00000000000E+00  0.43253357591E+03  0.91128069726E+03  0.80208928114E+03 0.  0.
        5    1    3    3  502    0  0.31743742791E+03 -0.29350554066E+02  0.49266909352E+03  0.58683294162E+03  0.46999998093E+01 0.  1.
       -5    1    3    3    0  502 -0.31743742791E+03  0.29350554066E+02 -0.60135517610E+02  0.32444775564E+03  0.46999998093E+01 0. -1.
</event>
<event>
 5   0  0.2077795E-02  0.7915810E+03  0.7818609E-02  0.9572284E-01
        1   -1    0    0  501    0  0.00000000000E+00  0.00000000000E+00  0.95260465224E+03  0.95260465225E+03  0.50400001928E-02 0. -1.
       -1   -1    0    0    0  501  0.00000000000E+00  0.00000000000E+00 -0.16444401135E+03  0.16444401143E+03  0.50400001928E-02 0.  1.
    10030    2    1    2    0    0  0.00000000000E+00  0.00000000000E+00  0.78816064089E+03  0.11170486637E+04  0.79158102630E+03 0.  0.
        5    1    3    3  502    0 -0.37806415811E+03 -0.74778752897E+02  0.26704701117E+03  0.46889291497E+03  0.46999998093E+01 0.  1.
       -5    1    3    3    0  502  0.37806415811E+03  0.74778752897E+02  0.52111362971E+03  0.64815574872E+03  0.46999998093E+01 0. -1.
</event>
<event>
 5   0  0.3416160E-02  0.7972550E+03  0.7818609E-02  0.9563999E-01
       -2   -1    0    0    0  501  0.00000000000E+00  0.00000000000E+00  0.17455332501E+03  0.17455332503E+03  0.25500000920E-02 0. -1.
        2   -1    0    0  501    0  0.00000000000E+00  0.00000000000E+00 -0.91034587127E+03  0.91034587128E+03  0.25500000920E-02 0.  1.
    10030    2    1    2    0    0  0.00000000000E+00  0.00000000000E+00 -0.73579254626E+03  0.10848991963E+04  0.79725503762E+03 0.  0.
        1    1    3    3  502    0 -0.40005741730E+02  0.38103684903E+03 -0.21812023590E+03  0.44086956917E+03  0.50400001928E-02 0.  1.
       -1    1    3    3    0  502  0.40005741730E+02 -0.38103684903E+03 -0.51767231036E+03  0.64402962713E+03  0.50400001928E-02 0. -1.
</event>
<event>
 5   0  0.3467240E-02  0.8007684E+03  0.7818609E-02  0.9558906E-01
        2   -1    0    0  501    0  0.00000000000E+00  0.00000000000E+00  0.20829455524E+04  0.20829455524E+04  0.25500000920E-02 0.  1.
       -2   -1    0    0    0  501  0.00000000000E+00  0.00000000000E+00 -0.76961934358E+02  0.76961934400E+02  0.25500000920E-02 0. -1.
    10030    2    1    2    0    0  0.00000000000E+00  0.00000000000E+00  0.20059836180E+04  0.21599074868E+04  0.80076842824E+03 0.  0.
        2    1    3    3  502    0 -0.29409872618E+03 -0.16267524163E+03  0.15899257527E+04  0.16250603663E+04  0.25500000920E-02 0.  1.
       -2    1    3    3    0  502  0.29409872618E+03  0.16267524163E+03  0.41605786526E+03  0.53484712043E+03  0.25500000920E-02 0. -1.
</event>
<event>
 5   0  0.3467240E-02  0.8063700E+03  0.7818609E-02  0.9550842E-01
        2   -1    0    0  501    0  0.00000000000E+00  0.00000000000E+00  0.15059767569E+04  0.15059767569E+04  0.25500000920E-02 0. -1.
       -2   -1    0    0    0  501  0.00000000000E+00  0.00000000000E+00 -0.10794199768E+03  0.10794199771E+03  0.25500000920E-02 0.  1.
    10030    2    1    2    0    0  0.00000000000E+00  0.00000000000E+00  0.13980347592E+04  0.16139187546E+04  0.80636998860E+03 0.  0.
        2    1    3    3  502    0 -0.34888396840E+03 -0.15433755190E+03  0.43792028737E+03  0.58078763884E+03  0.25500000920E-02 0.  1.
       -2    1    3    3    0  502  0.34888396840E+03  0.15433755190E+03  0.96011447184E+03  0.10331311158E+04  0.25500000920E-02 0. -1.
</event>
<event>
 5   0  0.2132540E-02  0.8162226E+03  0.7818609E-02  0.9536828E-01
       -1   -1    0    0    0  501  0.00000000000E+00  0.00000000000E+00  0.15845388010E+03  0.15845388018E+03  0.50400001928E-02 0. -1.
        1   -1    0    0  501    0  0.00000000000E+00  0.00000000000E+00 -0.10511250674E+04  0.10511250674E+04  0.50400001928E-02 0.  1.
    10030    2    1    2    0    0  0.00000000000E+00  0.00000000000E+00 -0.89267118728E+03  0.12095789476E+04  0.81622263004E+03 0.  0.
        4    1    3    3  502    0 -0.69774301279E+02  0.38631073228E+02 -0.10394610562E+04  0.10425170086E+04  0.12699999809E+01 0.  1.
       -4    1    3    3    0  502  0.69774301279E+02 -0.38631073228E+02  0.14678986892E+03  0.16706193898E+03  0.12699999809E+01 0. -1.
</event>
<event>
 5   0  0.1989298E-02  0.7958844E+03  0.7818609E-02  0.9565993E-01
        1   -1    0    0  501    0  0.00000000000E+00  0.00000000000E+00  0.12606870339E+03  0.12606870349E+03  0.50400001928E-02 0.  1.
       -1   -1    0    0    0  501  0.00000000000E+00  0.00000000000E+00 -0.12561246046E+04  0.12561246047E+04  0.50400001928E-02 0. -1.
    10030    2    1    2    0    0  0.00000000000E+00  0.00000000000E+00 -0.11300559013E+04  0.13821933082E+04  0.79588441444E+03 0.  0.
        1    1    3    3  502    0 -0.79390463046E+02  0.38810480556E+03 -0.63069668407E+03  0.74478620627E+03  0.50400001928E-02 0. -1.
       -1    1    3    3    0  502  0.79390463046E+02 -0.38810480556E+03 -0.49935921718E+03  0.63740710188E+03  0.50400001928E-02 0.  1.
</event>
<event>
 5   0  0.3404132E-02  0.8044977E+03  0.7818609E-02  0.9553530E-01
        2   -1    0    0  501    0  0.00000000000E+00  0.00000000000E+00  0.65046100801E+03  0.65046100801E+03  0.25500000920E-02 0.  1.
       -2   -1    0    0    0  501  0.00000000000E+00  0.00000000000E+00 -0.24875301105E+03  0.24875301106E+03  0.25500000920E-02 0. -1.
    10030    2    1    2    0    0  0.00000000000E+00  0.00000000000E+00  0.40170799696E+03  0.89921401907E+03  0.80449769253E+03 0.  0.
        5    1    3    3  502    0  0.20252668154E+03  0.68776891112E+02  0.58159728855E+03  0.61969735640E+03  0.46999998093E+01 0.  1.
       -5    1    3    3    0  502 -0.20252668154E+03 -0.68776891112E+02 -0.17988929159E+03  0.27951666267E+03  0.46999998093E+01 0. -1.
</event>
<event>
 5   0  0.2077795E-02  0.7806152E+03  0.7818609E-02  0.9588508E-01
       -1   -1    0    0    0  501  0.00000000000E+00  0.00000000000E+00  0.48309564376E+03  0.48309564379E+03  0.50400001928E-02 0. -1.
        1   -1    0    0  501    0  0.00000000000E+00  0.00000000000E+00 -0.31534129159E+03  0.31534129163E+03  0.50400001928E-02 0.  1.
    10030    2    1    2    0    0  0.00000000000E+00  0.00000000000E+00  0.16775435218E+03  0.79843693541E+03  0.78061515304E+03 0.  0.
        5    1    3    3  502    0 -0.32799195120E+03  0.19000475665E+03  0.17893652233E+03  0.41919076400E+03  0.46999998093E+01 0.  1.
       -5    1    3    3    0  502  0.32799195120E+03 -0.19000475665E+03 -0.11182170157E+02  0.37924617141E+03  0.46999998093E+01 0. -1.
</event>
<event>
 5   0  0.3467240E-02  0.8016648E+03  0.7818609E-02  0.9557611E-01
        2   -1    0    0  501    0  0.00000000000E+00  0.00000000000E+00  0.45900288008E+03  0.45900288008E+03  0.25500000920E-02 0.  1.
       -2   -1    0    0    0  501  0.00000000000E+00  0.00000000000E+00 -0.35003395813E+03  0.35003395814E+03  0.25500000920E-02 0. -1.
    10030    2    1    2    0    0  0.00000000000E+00  0.00000000000E+00  0.10896892194E+03  0.80903683822E+03  0.80166475515E+03 0.  0.
        2    1    3    3  502    0 -0.68181153664E+02 -0.10693715578E+03 -0.32925209735E+03  0.35283306055E+03  0.25500000920E-02 0. -1.
       -2    1    3    3    0  502  0.68181153664E+02  0.10693715578E+03  0.43822101930E+03  0.45620377767E+03  0.25500000920E-02 0.  1.
</event>
<event>
 5   0  0.3343036E-02  0.7969427E+03  0.7818609E-02  0.9564453E-01
        2   -1    0    0  501    0  0.00000000000E+00  0.00000000000E+00  0.17470522953E+04  0.17470522953E+04  0.25500000920E-02 0.  1.
       -2   -1    0    0    0  501  0.00000000000E+00  0.00000000000E+00 -0.90884189985E+02  0.90884190021E+02  0.25500000920E-02 0. -1.
    10030    2    1    2    0    0  0.00000000000E+00  0.00000000000E+00  0.16561681053E+04  0.18379364853E+04  0.79694274011E+03 0.  0.
        4    1    3    3  502    0 -0.38993683977E+03 -0.62709090170E+01  0.63948321903E+03  0.74901966838E+03  0.12699999809E+01 0. -1.
       -4    1    3    3    0  502  0.38993683977E+03  0.62709090170E+01  0.10166848863E+04  0.10889168169E+04  0.12699999809E+01 0.  1.
</event>
<event>
 5   0  0.2132540E-02  0.8505504E+03  0.7818609E-02  0.9489599E-01
       -1   -1    0    0    0  501  0.00000000000E+00  0.00000000000E+00  0.16096512574E+03  0.16096512582E+03  0.50400001928E-02 0.  1.
        1   -1    0    0  501    0  0.00000000000E+00  0.00000000000E+00 -0.11235910944E+04  0.11235910944E+04  0.50400001928E-02 0. -1.
    10030    2    1    2    0    0  0.00000000000E+00  0.00000000000E+00 -0.96262596862E+03  0.12845562202E+04  0.85055036733E+03 0.  0.
        4    1    3    3  502    0 -0.11128567916E+03 -0.36782835225E+03 -0.20623257784E+03  0.43613723547E+03  0.12699999809E+01 0.  1.
       -4    1    3    3    0  502  0.11128567916E+03  0.36782835225E+03 -0.75639339078E+03  0.84841898472E+03  0.12699999809E+01 0. -1.
</event>
<event>
 5   0  0.3404132E-02  0.7831157E+03  0.7818609E-02  0.9584783E-01
        2   -1    0    0  501    0  0.00000000000E+00  0.00000000000E+00  0.13885730255E+04  0.13885730255E+04  0.25500000920E-02 0. -1.
       -2   -1    0    0    0  501  0.00000000000E+00  0.00000000000E+00 -0.11041375765E+03  0.11041375768E+03  0.25500000920E-02 0.  1.
    10030    2    1    2    0    0  0.00000000000E+00  0.00000000000E+00  0.12781592679E+04  0.14989867832E+04  0.78311573996E+03 0.  0.
        5    1    3    3  502    0 -0.26988391296E+02 -0.31634226015E+03  0.10776401037E+04  0.11234460744E+04  0.46999998093E+01 0. -1.
       -5    1    3    3    0  502  0.26988391296E+02  0.31634226015E+03  0.20051916416E+03  0.37554070886E+03  0.46999998093E+01 0.  1.
</event>
<event>
 5   0  0.3550586E-02  0.8127194E+03  0.7818609E-02  0.9541787E-01
        2   -1    0    0  501    0  0.00000000000E+00  0.00000000000E+00  0.18455362040E+04  0.18455362040E+04  0.25500000920E-02 0.  1.
       -2   -1    0    0    0  501  0.00000000000E+00  0.00000000000E+00 -0.89474374619E+02  0.89474374655E+02  0.25500000920E-02 0. -1.
    10030    2    1    2    0    0  0.00000000000E+00  0.00000000000E+00  0.17560618294E+04  0.19350105787E+04  0.81271938017E+03 0.  0.
        3    1    3    3  502    0 -0.38218875747E+03  0.24936119213E+02  0.55473428486E+03  0.67410695990E+03  0.10100000352E+00 0. -1.
       -3    1    3    3    0  502  0.38218875747E+03 -0.24936119213E+02  0.12013275445E+04  0.12609036188E+04  0.10100000352E+00 0.  1.
</event>
<event>
 5   0  0.3343036E-02  0.7978818E+03  0.7818609E-02  0.9563088E-01
        2   -1    0    0  501    0  0.00000000000E+00  0.00000000000E+00  0.52706932112E+03  0.52706932112E+03  0.25500000920E-02 0.  1.
       -2   -1    0    0    0  501  0.00000000000E+00  0.00000000000E+00 -0.30195997330E+03  0.30195997332E+03  0.25500000920E-02 0. -1.
    10030    2    1    2    0    0  0.00000000000E+00  0.00000000000E+00  0.22510934781E+03  0.82902929444E+03  0.79788179110E+03 0.  0.
        4    1    3    3  502    0  0.62631831784E+02  0.38831634036E+03  0.18178842358E+03  0.43331393977E+03  0.12699999809E+01 0.  1.
       -4    1    3    3    0  502 -0.62631831784E+02 -0.38831634036E+03  0.43320924229E+02  0.39571535467E+03  0.12699999809E+01 0. -1.
</event>
<event>
 5   0  0.2063692E-02  0.8391479E+03  0.7818609E-02  0.9505019E-01
       -1   -1    0    0    0  501  0.00000000000E+00  0.00000000000E+00  0.57809785363E+03  0.57809785365E+03  0.50400001928E-02 0.  1.
        1   -1    0    0  501    0  0.00000000000E+00  0.00000000000E+00 -0.30451992783E+03  0.30451992787E+03  0.50400001928E-02 0. -1.
    10030    2    1    2    0    0  0.00000000000E+00  0.00000000000E+00  0.27357792580E+03  0.88261778152E+03  0.83914794093E+03 0.  0.
        2    1    3    3  502    0  0.95041173724E+02  0.19892213737E+03 -0.23869044699E+03  0.32492456190E+03  0.25500000920E-02 0. -1.
       -2    1    3    3    0  502 -0.95041173724E+02 -0.19892213737E+03  0.51226837279E+03  0.55769321961E+03  0.25500000920E-02 0.  1.
</event>
<event>
 5   0  0.3404132E-02  0.7946731E+03  0.7818609E-02  0.9567760E-01
       -2   -1    0    0    0  501  0.00000000000E+00  0.00000000000E+00  0.10313245557E+03  0.10313245561E+03  0.25500000920E-02 0.  1.
        2   -1    0    0  501    0  0.00000000000E+00  0.00000000000E+00 -0.15308112614E+04  0.15308112614E+04  0.25500000920E-02 0. -1.
    10030    2    1    2    0    0  0.00000000000E+00  0.00000000000E+00 -0.14276788058E+04  0.16339437170E+04  0.79467307601E+03 0.  0.
        5    1    3    3  502    0 -0.16238017369E+03  0.20867344433E+03 -0.10409542267E+03  0.28420041203E+03  0.46999998093E+01 0.  1.
       -5    1    3    3    0  502  0.16238017369E+03 -0.20867344433E+03 -0.13235833831E+04  0.13497433050E+04  0.46999998093E+01 0. -1.
</event>
<event>
 5   0  0.2129257E-02  0.7956361E+03  0.7818609E-02  0.9566355E-01
       -1   -1    0    0    0  501  0.00000000000E+00  0.00000000000E+00  0.20007283021E+03  0.20007283028E+03  0.50400001928E-02 0.  1.
        1   -1    0    0  501    0  0.00000000000E+00  0.00000000000E+00 -0.79100788719E+03  0.79100788720E+03  0.50400001928E-02 0. -1.
    10030    2    1    2    0    0  0.00000000000E+00  0.00000000000E+00 -0.59093505697E+03  0.99108071748E+03  0.79563606442E+03 0.  0.
        3    1    3    3  502    0  0.13369338232E+03  0.34692680073E+03 -0.11918751786E+03  0.39043283694E+03  0.10100000352E+00 0.  1.
       -3    1    3    3    0  502 -0.13369338232E+03 -0.34692680073E+03 -0.47174753911E+03  0.60064788054E+03  0.10100000352E+00 0. -1.
</event>
<event>
 5   0  0.3343036E-02  0.7976989E+03  0.7818609E-02  0.9563354E-01
        2   -1    0    0  501    0  0.00000000000E+00  0.00000000000E+00  0.17922788546E+04  0.17922788546E+04  0.25500000920E-02 0.  1.
       -2   -1    0    0    0  501  0.00000000000E+00  0.00000000000E+00 -0.88759000477E+02  0.88759000513E+02  0.25500000920E-02 0. -1.
    10030    2    1    2    0    0  0.00000000000E+00  0.00000000000E+00  0.17035198541E+04  0.18810378551E+04  0.79769888992E+03 0.  0.
        4    1    3    3  502    0 -0.16227096239E+03  0.22020944453E+03  0.16728599883E+03  0.32064042633E+03  0.12699999809E+01 0. -1.
       -4    1    3    3    0  502  0.16227096239E+03 -0.22020944453E+03  0.15362338553E+04  0.15603974288E+04  0.12699999809E+01 0.  1.
</event>
<event>
 5   0  0.1989298E-02  0.8045795E+03  0.7818609E-02  0.9553412E-01
        1   -1    0    0  501    0  0.00000000000E+00  0.00000000000E+00  0.12989667723E+04  0.12989667723E+04  0.50400001928E-02 0.  1.
       -1   -1    0    0    0  501  0.00000000000E+00  0.00000000000E+00 -0.12458904253E+03  0.12458904263E+03  0.50400001928E-02 0. -1.
    10030    2    1    2    0    0  0.00000000000E+00  0.00000000000E+00  0.11743777297E+04  0.14235558149E+04  0.80457945913E+03 0.  0.
        1    1    3    3  502    0  0.96518688354E+02  0.32524757657E+03  0.20469230489E+03  0.39623324314E+03  0.50400001928E-02 0. -1.
       -1    1    3    3    0  502 -0.96518688354E+02 -0.32524757657E+03  0.96968542484E+03  0.10273225718E+04  0.50400001928E-02 0.  1.
</event>
<event>
 5   0  0.3404132E-02  0.7987451E+03  0.7818609E-02  0.9561835E-01
        2   -1    0    0  501    0  0.00000000000E+00  0.00000000000E+00  0.91799008563E+03  0.91799008563E+03  0.25500000920E-02 0. -1.
       -2   -1    0    0    0  501  0.00000000000E+00  0.00000000000E+00 -0.17374743725E+03  0.17374743727E+03  0.25500000920E-02 0.  1.
    10030    2    1    2    0    0  0.00000000000E+00  0.00000000000E+00  0.74424264838E+03  0.10917375229E+04  0.79874507777E+03 0.  0.
        5    1    3    3  502    0 -0.76630024733E+01 -0.33587660961E+03  0.66719063678E+03  0.74701891160E+03  0.46999998093E+01 0. -1.
       -5    1    3    3    0  502  0.76630024733E+01  0.33587660961E+03  0.77052011596E+02  0.34471861130E+03  0.46999998093E+01 0.  1.
</event>
<event>
 5   0  0.2077795E-02  0.8211192E+03  0.7818609E-02  0.9529941E-01
       -1   -1    0    0    0  501  0.00000000000E+00  0.00000000000E+00  0.12221980156E+03  0.12221980166E+03  0.50400001928E-02 0.  1.
        1   -1    0    0  501    0  0.00000000000E+00  0.00000000000E+00 -0.13791480420E+04  0.13791480421E+04  0.50400001928E-02 0. -1.
    10030    2    1    2    0    0  0.00000000000E+00  0.00000000000E+00 -0.12569282405E+04  0.15013678437E+04  0.82111923641E+03 0.  0.
        5    1    3    3  502    0 -0.26047740899E+02 -0.26105386212E+03 -0.12058274095E+04  0.12340459616E+04  0.46999998093E+01 0. -1.
       -5    1    3    3    0  502  0.26047740899E+02  0.26105386212E+03 -0.51100830936E+02  0.26732188211E+03  0.46999998093E+01 0.  1.
</event>
<event>
 5   0  0.2077795E-02  0.7929968E+03  0.7818609E-02  0.9570210E-01
       -1   -1    0    0    0  501  0.00000000000E+00  0.00000000000E+00  0.23715285252E+03  0.23715285257E+03  0.50400001928E-02 0. -1.
        1   -1    0    0  501    0  0.00000000000E+00  0.00000000000E+00 -0.66290995229E+03  0.66290995231E+03  0.50400001928E-02 0.  1.
    10030    2    1    2    0    0  0.00000000000E+00  0.00000000000E+00 -0.42575709977E+03  0.90006280488E+03  0.79299681256E+03 0.  0.
        5    1    3    3  502    0  0.11976971964E+03 -0.25669693525E+03 -0.52773161496E+03  0.59896648465E+03  0.46999998093E+01 0.  1.
       -5    1    3    3    0  502 -0.11976971964E+03  0.25669693525E+03  0.10197451519E+03  0.30109632023E+03  0.46999998093E+01 0. -1.
</event>
<event>
 5   0  0.3404132E-02  0.8849508E+03  0.7818609E-02  0.9444592E-01
        2   -1    0    0  501    0  0.00000000000E+00  0.00000000000E+00  0.13158637519E+04  0.13158637519E+04  0.25500000920E-02 0.  1.
       -2   -1    0    0    0  501  0.00000000000E+00  0.00000000000E+00 -0.14878779312E+03  0.14878779315E+03  0.25500000920E-02 0. -1.
    10030    2    1    2    0    0  0.00000000000E+00  0.00000000000E+00  0.11670759588E+04  0.14646515451E+04  0.88495076409E+03 0.  0.
        5    1    3    3  502    0  0.37415391594E+03  0.68172407841E+02  0.20931837957E+03  0.43413696460E+03  0.46999998093E+01 0. -1.
       -5    1    3    3    0  502 -0.37415391594E+03 -0.68172407841E+02  0.95775757920E+03  0.10305145805E+04  0.46999998093E+01 0.  1.
</event>
<event>
 5   0  0.2132540E-02  0.8162910E+03  0.7818609E-02  0.9536731E-01
       -1   -1    0    0    0  501  0.00000000000E+00  0.00000000000E+00  0.84272511267E+03  0.84272511268E+03  0.50400001928E-02 0.  1.
        1   -1    0    0  501    0  0.00000000000E+00  0.00000000000E+00 -0.19767149299E+03  0.19767149306E+03  0.50400001928E-02 0. -1.
    10030    2    1    2    0    0  0.00000000000E+00  0.00000000000E+00  0.64505361967E+03  0.10403966057E+04  0.81629095608E+03 0.  0.
        4    1    3    3  502    0 -0.40723270173E+03  0.22690888501E+00  0.28779483214E+03  0.49866421884E+03  0.12699999809E+01 0. -1.
       -4    1    3    3    0  502  0.40723270173E+03 -0.22690888501E+00  0.35725878754E+03  0.54173238690E+03  0.12699999809E+01 0.  1.
</event>
<event>
 5   0  0.2132540E-02  0.7985556E+03  0.7818609E-02  0.9562110E-01
       -1   -1    0    0    0  501  0.00000000000E+00  0.00000000000E+00  0.24917037388E+03  0.24917037393E+03  0.50400001928E-02 0.  1.
        1   -1    0    0  501    0  0.00000000000E+00  0.00000000000E+00 -0.63981424599E+03  0.63981424601E+03  0.50400001928E-02 0. -1.
    10030    2    1    2    0    0  0.00000000000E+00  0.00000000000E+00 -0.39064387211E+03  0.88898461994E+03  0.79855558334E+03 0.  0.
        4    1    3    3  502    0  0.32106407008E+03  0.40644837242E+02 -0.45565609424E+03  0.55889017616E+03  0.12699999809E+01 0. -1.
       -4    1    3    3    0  502 -0.32106407008E+03 -0.40644837242E+02  0.65012222130E+02  0.33009444378E+03  0.12699999809E+01 0.  1.
</event>
<event>
 5   0  0.2077795E-02  0.7867884E+03  0.7818609E-02  0.9579340E-01
        1   -1    0    0  501    0  0.00000000000E+00  0.00000000000E+00  0.67708120607E+03  0.67708120609E+03  0.50400001928E-02 0. -1.
       -1   -1    0    0    0  501  0.00000000000E+00  0.00000000000E+00 -0.22856787560E+03  0.22856787566E+03  0.50400001928E-02 0.  1.
    10030    2    1    2    0    0  0.00000000000E+00  0.00000000000E+00  0.44851333047E+03  0.90564908174E+03  0.78678844148E+03 0.  0.
        5    1    3    3  502    0  0.15379108643E+03  0.32203998393E+03  0.33805866241E+02  0.35850575463E+03  0.46999998093E+01 0.  1.
       -5    1    3    3    0  502 -0.15379108643E+03 -0.32203998393E+03  0.41470746423E+03  0.54714332711E+03  0.46999998093E+01 0. -1.
</event>
<event>
 5   0  0.2063692E-02  0.8109649E+03  0.7818609E-02  0.9544280E-01
       -1   -1    0    0    0  501  0.00000000000E+00  0.00000000000E+00  0.35561738854E+03  0.35561738857E+03  0.50400001928E-02 0. -1.
        1   -1    0    0  501    0  0.00000000000E+00  0.00000000000E+00 -0.46233963513E+03  0.46233963515E+03  0.50400001928E-02 0.  1.
    10030    2    1    2    0    0  0.00000000000E+00  0.00000000000E+00 -0.10672224659E+03  0.81795702373E+03  0.81096489119E+03 0.  0.
        2    1    3    3  502    0  0.32768729247E+03  0.94776399957E+02 -0.27446451339E+03  0.43782678853E+03  0.25500000920E-02 0.  1.
       -2    1    3    3    0  502 -0.32768729247E+03 -0.94776399957E+02  0.16774226680E+03  0.38013023520E+03  0.25500000920E-02 0. -1.
</event>
<event>
 5   0  0.2132540E-02  0.8063858E+03  0.7818609E-02  0.9550820E-01
       -1   -1    0    0    0  501  0.00000000000E+00  0.00000000000E+00  0.14256554747E+03  0.14256554756E+03  0.50400001928E-02 0.  1.
        1   -1    0    0  501    0  0.00000000000E+00  0.00000000000E+00 -0.11402790558E+04  0.11402790558E+04  0.50400001928E-02 0. -1.
    10030    2    1    2    0    0  0.00000000000E+00  0.00000000000E+00 -0.99771350835E+03  0.12828446034E+04  0.80638578342E+03 0.  0.
        4    1    3    3  502    0 -0.13680144278E+03  0.31164431474E+03 -0.15497362539E+03  0.37397225983E+03  0.12699999809E+01 0.  1.
       -4    1    3    3    0  502  0.13680144278E+03 -0.31164431474E+03 -0.84273988296E+03  0.90887234356E+03  0.12699999809E+01 0. -1.
</event>
<event>
 5   0  0.2132540E-02  0.8130696E+03  0.7818609E-02  0.9541290E-01
       -1   -1    0    0    0  501  0.00000000000E+00  0.00000000000E+00  0.29302625683E+03  0.29302625687E+03  0.50400001928E-02 0.  1.
        1   -1    0    0  501    0  0.00000000000E+00  0.00000000000E+00 -0.56401277859E+03  0.56401277861E+03  0.50400001928E-02 0. -1.
    10030    2    1    2    0    0  0.00000000000E+00  0.00000000000E+00 -0.27098652176E+03  0.85703903548E+03  0.81306962393E+03 0.  0.
        4    1    3    3  502    0  0.13365815853E+03  0.56846726138E+02 -0.53572789204E+03  0.55506940181E+03  0.12699999809E+01 0. -1.
       -4    1    3    3    0  502 -0.13365815853E+03 -0.56846726138E+02  0.26474137029E+03  0.30196963367E+03  0.12699999809E+01 0.  1.
</event>
<event>
 5   0  0.1989298E-02  0.7782754E+03  0.7818609E-02  0.9592006E-01
       -1   -1    0    0    0  501  0.00000000000E+00  0.00000000000E+00  0.86203296488E+03  0.86203296489E+03  0.50400001928E-02 0.  1.
        1   -1    0    0  501    0  0.00000000000E+00  0.00000000000E+00 -0.17566401121E+03  0.17566401128E+03  0.50400001928E-02 0. -1.
    10030    2    1    2    0    0  0.00000000000E+00  0.00000000000E+00  0.68636895367E+03  0.10376969762E+04  0.77827544855E+03 0.  0.
        1    1    3    3  502    0 -0.22232676099E+03  0.76336005540E+02  0.75667073391E+03  0.79234271245E+03  0.50400001928E-02 0.  1.
       -1    1    3    3    0  502  0.22232676099E+03 -0.76336005540E+02 -0.70301780246E+02  0.24535426372E+03  0.50400001928E-02 0. -1.
</event>
<event>
 5   0  0.3467240E-02  0.7454298E+03  0.7818609E-02  0.9642548E-01
        2   -1    0    0  501    0  0.00000000000E+00  0.00000000000E+00  0.11701123140E+04  0.11701123140E+04  0.25500000920E-02 0. -1.
       -2   -1    0    0    0  501  0.00000000000E+00  0.00000000000E+00 -0.11872055082E+03  0.11872055085E+03  0.25500000920E-02 0.  1.
    10030    2    1    2    0    0  0.00000000000E+00  0.00000000000E+00  0.10513917632E+04  0.12888328649E+04  0.74542975112E+03 0.  0.
        2    1    3    3  502    0  0.21435766210E+03 -0.17311912650E+03  0.91735977616E+02  0.29040476728E+03  0.25500000920E-02 0.  1.
       -2    1    3    3    0  502 -0.21435766210E+03  0.17311912650E+03  0.95965578559E+03  0.99842809760E+03  0.25500000920E-02 0. -1.
</event>
<event>
 5   0  0.1989298E-02  0.7981946E+03  0.7818609E-02  0.9562634E-01
        1   -1    0    0  501    0  0.00000000000E+00  0.00000000000E+00  0.38869352147E+03  0.38869352150E+03  0.50400001928E-02 0. -1.
       -1   -1    0    0    0  501  0.00000000000E+00  0.00000000000E+00 -0.40977959156E+03  0.40977959159E+03  0.50400001928E-02 0.  1.
    10030    2    1    2    0    0  0.00000000000E+00  0.00000000000E+00 -0.21086070090E+02  0.79847311309E+03  0.79819464417E+03 0.  0.
        1    1    3    3  502    0 -0.13079855678E+03 -0.34510831230E+03  0.14140025400E+03  0.39522403967E+03  0.50400001928E-02 0. -1.
       -1    1    3    3    0  502  0.13079855678E+03  0.34510831230E+03 -0.16248632409E+03  0.40324907342E+03  0.50400001928E-02 0.  1.
</event>
<event>
 5   0  0.2132540E-02  0.7999832E+03  0.7818609E-02  0.9560041E-01
        1   -1    0    0  501    0  0.00000000000E+00  0.00000000000E+00  0.11210262989E+04  0.11210262990E+04  0.50400001928E-02 0. -1.
       -1   -1    0    0    0  501  0.00000000000E+00  0.00000000000E+00 -0.14272035195E+03  0.14272035204E+03  0.50400001928E-02 0.  1.
    10030    2    1    2    0    0  0.00000000000E+00  0.00000000000E+00  0.97830594699E+03  0.12637466510E+04  0.79998316982E+03 0.  0.
        4    1    3    3  502    0 -0.39511753662E+03 -0.57416552944E+02  0.52710323649E+03  0.66125181521E+03  0.12699999809E+01 0. -1.
       -4    1    3    3    0  502  0.39511753662E+03  0.57416552944E+02  0.45120271050E+03  0.60249483579E+03  0.12699999809E+01 0.  1.
</event>
<event>
 5   0  0.3404132E-02  0.8014379E+03  0.7818609E-02  0.9557938E-01
       -2   -1    0    0    0  501  0.00000000000E+00  0.00000000000E+00  0.24975584039E+03  0.24975584040E+03  0.25500000920E-02 0. -1.
        2   -1    0    0  501    0  0.00000000000E+00  0.00000000000E+00 -0.64293058130E+03  0.64293058131E+03  0.25500000920E-02 0.  1.
    10030    2    1    2    0    0  0.00000000000E+00  0.00000000000E+00 -0.39317474092E+03  0.89268642170E+03  0.80143787694E+03 0.  0.
        5    1    3    3  502    0  0.53519489085E+02 -0.32602036558E+03 -0.44911591111E+03  0.55756686244E+03  0.46999998093E+01 0.  1.
       -5    1    3    3    0  502 -0.53519489085E+02  0.32602036558E+03  0.55941170189E+02  0.33511955927E+03  0.46999998093E+01 0. -1.
</event>
<event>
 5   0  0.1358000E-02  0.8039054E+03  0.7818609E-02  0.9554381E-01
       -4   -1    0    0    0  501  0.00000000000E+00  0.00000000000E+00  0.30527329311E+03  0.30527593483E+03  0.12699999809E+01 0. -1.
        4   -1    0    0  501    0  0.00000000000E+00  0.00000000000E+00 -0.52924462362E+03  0.52924614740E+03  0.12699999809E+01 0.  1.
    10030    2    1    2    0    0  0.00000000000E+00  0.00000000000E+00 -0.22397133052E+03  0.83452208222E+03  0.80390543525E+03 0.  0.
        2    1    3    3  502    0 -0.21556367830E+03 -0.18851597290E+03 -0.40479188539E+03  0.49584517939E+03  0.25500000920E-02 0.  1.
       -2    1    3    3    0  502  0.21556367830E+03  0.18851597290E+03  0.18082055487E+03  0.33867690283E+03  0.25500000920E-02 0. -1.
</event>
<event>
 5   0  0.2129257E-02  0.8072840E+03  0.7818609E-02  0.9549533E-01
        1   -1    0    0  501    0  0.00000000000E+00  0.00000000000E+00  0.10064305447E+04  0.10064305447E+04  0.50400001928E-02 0. -1.
       -1   -1    0    0    0  501  0.00000000000E+00  0.00000000000E+00 -0.16188584983E+03  0.16188584991E+03  0.50400001928E-02 0.  1.
    10030    2    1    2    0    0  0.00000000000E+00  0.00000000000E+00  0.84454469487E+03  0.11683163946E+04  0.80728399978E+03 0.  0.
        3    1    3    3  502    0  0.39910840685E+03  0.57522855804E+02  0.39596421780E+03  0.56514075356E+03  0.10100000352E+00 0.  1.
       -3    1    3    3    0  502 -0.39910840685E+03 -0.57522855804E+02  0.44858047707E+03  0.60317564106E+03  0.10100000352E+00 0. -1.
</event>
<event>
 5   0  0.2132540E-02  0.8028058E+03  0.7818609E-02  0.9555965E-01
        1   -1    0    0  501    0  0.00000000000E+00  0.00000000000E+00  0.11094637573E+04  0.11094637573E+04  0.50400001928E-02 0. -1.
       -1   -1    0    0    0  501  0.00000000000E+00  0.00000000000E+00 -0.14522719090E+03  0.14522719099E+03  0.50400001928E-02 0.  1.
    10030    2    1    2    0    0  0.00000000000E+00  0.00000000000E+00  0.96423656635E+03  0.12546909483E+04  0.80280584188E+03 0.  0.
        4    1    3    3  502    0 -0.69275994872E+02 -0.13055626246E+03  0.10653866494E+04  0.10755902690E+04  0.12699999809E+01 0. -1.
       -4    1    3    3    0  502  0.69275994872E+02  0.13055626246E+03 -0.10115008301E+03  0.17910067930E+03  0.12699999809E+01 0.  1.
</event>
<event>
 5   0  0.2063692E-02  0.8475037E+03  0.7818609E-02  0.9493694E-01
        1   -1    0    0  501    0  0.00000000000E+00  0.00000000000E+00  0.27215090588E+03  0.27215090592E+03  0.50400001928E-02 0. -1.
       -1   -1    0    0    0  501  0.00000000000E+00  0.00000000000E+00 -0.65980166116E+03  0.65980166118E+03  0.50400001928E-02 0.  1.
    10030    2    1    2    0    0  0.00000000000E+00  0.00000000000E+00 -0.38765075528E+03  0.93195256711E+03  0.84750367507E+03 0.  0.
        2    1    3    3  502    0  0.16338238804E+03 -0.25764237099E+03  0.12957516956E+03  0.33145606138E+03  0.25500000920E-02 0. -1.
       -2    1    3    3    0  502 -0.16338238804E+03  0.25764237099E+03 -0.51722592484E+03  0.60049650573E+03  0.25500000920E-02 0.  1.
</event>
<event>
 5   0  0.3343036E-02  0.8301401E+03  0.7818609E-02  0.9517387E-01
       -2   -1    0    0    0  501  0.00000000000E+00  0.00000000000E+00  0.91233078668E+03  0.91233078668E+03  0.25500000920E-02 0.  1.
        2   -1    0    0  501    0  0.00000000000E+00  0.00000000000E+00 -0.18883848645E+03  0.18883848647E+03  0.25500000920E-02 0. -1.
    10030    2    1    2    0    0  0.00000000000E+00  0.00000000000E+00  0.72349230023E+03  0.11011692732E+04  0.83014014458E+03 0.  0.
        4    1    3    3  502    0 -0.18422775309E+03 -0.25878680216E+03  0.71612173775E+03  0.78341714952E+03  0.12699999809E+01 0.  1.
       -4    1    3    3    0  502  0.18422775309E+03  0.25878680216E+03  0.73705624784E+01  0.31775212363E+03  0.12699999809E+01 0. -1.
</event>
<event>
 5   0  0.1358000E-02  0.7561787E+03  0.7818609E-02  0.9625706E-01
        3   -1    0    0  501    0  0.00000000000E+00  0.00000000000E+00  0.25276765567E+03  0.25276767585E+03  0.10100000352E+00 0. -1.
       -3   -1    0    0    0  501  0.00000000000E+00  0.00000000000E+00 -0.56554526349E+03  0.56554527251E+03  0.10100000352E+00 0.  1.
    10030    2    1    2    0    0  0.00000000000E+00  0.00000000000E+00 -0.31277760783E+03  0.81831294836E+03  0.75617871532E+03 0.  0.
        2    1    3    3  502    0  0.11575318092E+03 -0.18870184004E+03  0.17529966562E+03  0.28237768343E+03  0.25500000920E-02 0. -1.
       -2    1    3    3    0  502 -0.11575318092E+03  0.18870184004E+03 -0.48807727345E+03  0.53593526493E+03  0.25500000920E-02 0.  1.
</event>
<event>
 5   0  0.2129257E-02  0.8002408E+03  0.7818609E-02  0.9559669E-01
       -1   -1    0    0    0  501  0.00000000000E+00  0.00000000000E+00  0.50598310964E+03  0.50598310967E+03  0.50400001928E-02 0.  1.
        1   -1    0    0  501    0  0.00000000000E+00  0.00000000000E+00 -0.31640649800E+03  0.31640649804E+03  0.50400001928E-02 0. -1.
    10030    2    1    2    0    0  0.00000000000E+00  0.00000000000E+00  0.18957661164E+03  0.82238960771E+03  0.80024082324E+03 0.  0.
        3    1    3    3  502    0 -0.37531262102E+03  0.13193565538E+03  0.50828766003E+02  0.40106128499E+03  0.10100000352E+00 0. -1.
       -3    1    3    3    0  502  0.37531262102E+03 -0.13193565538E+03  0.13874784564E+03  0.42132832272E+03  0.10100000352E+00 0.  1.
</event>
<event>
 5   0  0.3467240E-02  0.7857529E+03  0.7818609E-02  0.9580871E-01
       -2   -1    0    0    0  501  0.00000000000E+00  0.00000000000E+00  0.14844705626E+03  0.14844705628E+03  0.25500000920E-02 0.  1.
        2   -1    0    0  501    0  0.00000000000E+00  0.00000000000E+00 -0.10397774508E+04  0.10397774508E+04  0.25500000920E-02 0. -1.
    10030    2    1    2    0    0  0.00000000000E+00  0.00000000000E+00 -0.89133039454E+03  0.11882245071E+04  0.78575289182E+03 0.  0.
        2    1    3    3  502    0  0.92570091040E+01 -0.74751021510E+02 -0.10287565415E+04  0.10315102661E+04  0.25500000920E-02 0. -1.
       -2    1    3    3    0  502 -0.92570091040E+01  0.74751021510E+02  0.13742614698E+03  0.15671424094E+03  0.25500000920E-02 0.  1.
</event>
<event>
 5   0  0.3404132E-02  0.7781350E+03  0.7818609E-02  0.9592216E-01
       -2   -1    0    0    0  501  0.00000000000E+00  0.00000000000E+00  0.18678680063E+03  0.18678680065E+03  0.25500000920E-02 0. -1.
        2   -1    0    0  501    0  0.00000000000E+00  0.00000000000E+00 -0.81040807585E+03  0.81040807585E+03  0.25500000920E-02 0.  1.
    10030    2    1    2    0    0  0.00000000000E+00  0.00000000000E+00 -0.62362127522E+03  0.99719487651E+03  0.77813503123E+03 0.  0.
        5    1    3    3  502    0  0.32399714408E+03 -0.54567197966E+02 -0.57878435025E+03  0.66555626551E+03  0.46999998093E+01 0.  1.
       -5    1    3    3    0  502 -0.32399714408E+03  0.54567197966E+02 -0.44836924962E+02  0.33163861100E+03  0.46999998093E+01 0. -1.
</event>
<event>
 5   0  0.3550586E-02  0.7920414E+03  0.7818609E-02  0.9571609E-01
       -2   -1    0    0    0  501  0.00000000000E+00  0.00000000000E+00  0.18314546100E+03  0.18314546101E+03  0.25500000920E-02 0.  1.
        2   -1    0    0  501    0  0.00000000000E+00  0.00000000000E+00 -0.85632696520E+03  0.85632696520E+03  0.25500000920E-02 0. -1.
    10030    2    1    2    0    0  0.00000000000E+00  0.00000000000E+00 -0.67318150420E+03  0.10394724262E+04  0.79204140502E+03 0.  0.
        3    1    3    3  502    0  0.63980133826E+02 -0.30172737585E+03 -0.66258202951E+03  0.73085417347E+03  0.10100000352E+00 0. -1.
       -3    1    3    3    0  502 -0.63980133826E+02  0.30172737585E+03 -0.10599474695E+02  0.30861825274E+03  0.10100000352E+00 0.  1.
</event>
<event>
 5   0  0.1358000E-02  0.8060482E+03  0.7818609E-02  0.9551304E-01
       -4   -1    0    0    0  501  0.00000000000E+00  0.00000000000E+00  0.27042362744E+03  0.27042660960E+03  0.12699999809E+01 0.  1.
        4   -1    0    0  501    0  0.00000000000E+00  0.00000000000E+00 -0.60063742302E+03  0.60063876567E+03  0.12699999809E+01 0. -1.
    10030    2    1    2    0    0  0.00000000000E+00  0.00000000000E+00 -0.33021379558E+03  0.87106537527E+03  0.80604822263E+03 0.  0.
        5    1    3    3  502    0 -0.98994874473E+02  0.19746011054E+03  0.19915119869E+03  0.29744540737E+03  0.46999998093E+01 0.  1.
       -5    1    3    3    0  502  0.98994874473E+02 -0.19746011054E+03 -0.52936499427E+03  0.57361996790E+03  0.46999998093E+01 0. -1.
</event>
<event>
 5   0  0.3550586E-02  0.7668347E+03  0.7818609E-02  0.9609303E-01
       -2   -1    0    0    0  501  0.00000000000E+00  0.00000000000E+00  0.15285957698E+03  0.15285957700E+03  0.25500000920E-02 0. -1.
        2   -1    0    0  501    0  0.00000000000E+00  0.00000000000E+00 -0.96172496916E+03  0.96172496916E+03  0.25500000920E-02 0.  1.
    10030    2    1    2    0    0  0.00000000000E+00  0.00000000000E+00 -0.80886539218E+03  0.11145845462E+04  0.76683472005E+03 0.  0.
        3    1    3    3  502    0  0.19278633464E+03 -0.15078764158E+03  0.24544033627E+02  0.24597947773E+03  0.10100000352E+00 0. -1.
       -3    1    3    3    0  502 -0.19278633464E+03  0.15078764158E+03 -0.83340942581E+03  0.86860506843E+03  0.10100000352E+00 0.  1.
</event>
<event>
 5   0  0.2077795E-02  0.8151777E+03  0.7818609E-02  0.9538304E-01
       -1   -1    0    0    0  501  0.00000000000E+00  0.00000000000E+00  0.45835748100E+03  0.45835748103E+03  0.50400001928E-02 0.  1.
        1   -1    0    0  501    0  0.00000000000E+00  0.00000000000E+00 -0.36244346331E+03  0.36244346334E+03  0.50400001928E-02 0. -1.
    10030    2    1    2    0    0  0.00000000000E+00  0.00000000000E+00  0.95914017691E+02  0.82080094437E+03  0.81517770546E+03 0.  0.
        5    1    3    3  502    0  0.14727647155E+03 -0.14550374780E+02  0.43031923029E+03  0.45508109435E+03  0.46999998093E+01 0.  1.
       -5    1    3    3    0  502 -0.14727647155E+03  0.14550374780E+02 -0.33440521260E+03  0.36571985001E+03  0.46999998093E+01 0. -1.
</event>
<event>
 5   0  0.2129257E-02  0.7913633E+03  0.7818609E-02  0.9572603E-01
       -1   -1    0    0    0  501  0.00000000000E+00  0.00000000000E+00  0.43007955242E+03  0.43007955245E+03  0.50400001928E-02 0.  1.
        1   -1    0    0  501    0  0.00000000000E+00  0.00000000000E+00 -0.36403487516E+03  0.36403487519E+03  0.50400001928E-02 0. -1.
    10030    2    1    2    0    0  0.00000000000E+00  0.00000000000E+00  0.66044677262E+02  0.79411442764E+03  0.79136326980E+03 0.  0.
        3    1    3    3  502    0  0.46691142481E+02 -0.11312101175E+03  0.41061164359E+03  0.42846045108E+03  0.10100000352E+00 0.  1.
       -3    1    3    3    0  502 -0.46691142481E+02  0.11312101175E+03 -0.34456696633E+03  0.36565397656E+03  0.10100000352E+00 0. -1.
</event>
<event>
 5   0  0.1358000E-02  0.8089507E+03  0.7818609E-02  0.9547151E-01
        3   -1    0    0  501    0  0.00000000000E+00  0.00000000000E+00  0.80777259529E+03  0.80777260161E+03  0.10100000352E+00 0. -1.
       -3   -1    0    0    0  501  0.00000000000E+00  0.00000000000E+00 -0.20253263355E+03  0.20253265873E+03  0.10100000352E+00 0.  1.
    10030    2    1    2    0    0  0.00000000000E+00  0.00000000000E+00  0.60523996174E+03  0.10103052603E+04  0.80895074497E+03 0.  0.
        3    1    3    3  502    0 -0.26703536950E+03 -0.22435534793E+03  0.46800685947E+02  0.35189987939E+03  0.10100000352E+00 0.  1.
       -3    1    3    3    0  502  0.26703536950E+03  0.22435534793E+03  0.55843927580E+03  0.65840538095E+03  0.10100000352E+00 0. -1.
</event>
<event>
 5   0  0.2132540E-02  0.8003056E+03  0.7818609E-02  0.9559575E-01
        1   -1    0    0  501    0  0.00000000000E+00  0.00000000000E+00  0.19880363738E+03  0.19880363745E+03  0.50400001928E-02 0.  1.
       -1   -1    0    0    0  501  0.00000000000E+00  0.00000000000E+00 -0.80542924331E+03  0.80542924332E+03  0.50400001928E-02 0. -1.
    10030    2    1    2    0    0  0.00000000000E+00  0.00000000000E+00 -0.60662560592E+03  0.10042328808E+04  0.80030559979E+03 0.  0.
        4    1    3    3  502    0  0.36441824320E+03  0.15673146272E+03 -0.36917838500E+03  0.54190377396E+03  0.12699999809E+01 0.  1.
       -4    1    3    3    0  502 -0.36441824320E+03 -0.15673146272E+03 -0.23744722092E+03  0.46232910681E+03  0.12699999809E+01 0. -1.
</event>
<event>
 5   0  0.3343036E-02  0.7848452E+03  0.7818609E-02  0.9582216E-01
       -2   -1    0    0    0  501  0.00000000000E+00  0.00000000000E+00  0.68144770669E+03  0.68144770669E+03  0.25500000920E-02 0. -1.
        2   -1    0    0  501    0  0.00000000000E+00  0.00000000000E+00 -0.22598286926E+03  0.22598286927E+03  0.25500000920E-02 0.  1.
    10030    2    1    2    0    0  0.00000000000E+00  0.00000000000E+00  0.45546483743E+03  0.90743057596E+03  0.78484522809E+03 0.  0.
        4    1    3    3  502    0  0.85222244153E+02  0.37620217319E+02  0.66847578113E+03  0.67493673371E+03  0.12699999809E+01 0. -1.
       -4    1    3    3    0  502 -0.85222244153E+02 -0.37620217319E+02 -0.21301094370E+03  0.23249384226E+03  0.12699999809E+01 0.  1.
</event>
<event>
 5   0  0.2132540E-02  0.8064509E+03  0.7818609E-02  0.9550726E-01
       -1   -1    0    0    0  501  0.00000000000E+00  0.00000000000E+00  0.56357667052E+03  0.56357667054E+03  0.50400001928E-02 0. -1.
        1   -1    0    0  501    0  0.00000000000E+00  0.00000000000E+00 -0.28849803830E+03  0.28849803835E+03  0.50400001928E-02 0.  1.
    10030    2    1    2    0    0  0.00000000000E+00  0.00000000000E+00  0.27507863222E+03  0.85207470889E+03  0.80645090094E+03 0.  0.
        4    1    3    3  502    0  0.37648149013E+03  0.12284928500E+03  0.57358734564E+02  0.40015234169E+03  0.12699999809E+01 0.  1.
       -4    1    3    3    0  502 -0.37648149013E+03 -0.12284928500E+03  0.21771989765E+03  0.45192236719E+03  0.12699999809E+01 0. -1.
</event>
<event>
 5   0  0.3404132E-02  0.8167690E+03  0.7818609E-02  0.9536057E-01
        2   -1    0    0  501    0  0.00000000000E+00  0.00000000000E+00  0.10889151018E+04  0.10889151018E+04  0.25500000920E-02 0. -1.
       -2   -1    0    0    0  501  0.00000000000E+00  0.00000000000E+00 -0.15315968485E+03  0.15315968487E+03  0.25500000920E-02 0.  1.
    10030    2    1    2    0    0  0.00000000000E+00  0.00000000000E+00  0.93575541696E+03  0.12420747867E+04  0.81676898529E+03 0.  0.
        5    1    3    3  502    0  0.38445448437E+03 -0.12885043787E+03  0.54156769234E+03  0.67655401948E+03  0.46999998093E+01 0.  1.
       -5    1    3    3    0  502 -0.38445448437E+03  0.12885043787E+03  0.39418772462E+03  0.56552076720E+03  0.46999998093E+01 0. -1.
</event>
<event>
 5   0  0.2129257E-02  0.8171805E+03  0.7818609E-02  0.9535477E-01
        1   -1    0    0  501    0  0.00000000000E+00  0.00000000000E+00  0.53757634910E+03  0.53757634913E+03  0.50400001928E-02 0.  1.
       -1   -1    0    0    0  501  0.00000000000E+00  0.00000000000E+00 -0.31055304723E+03  0.31055304727E+03  0.50400001928E-02 0. -1.
    10030    2    1    2    0    0  0.00000000000E+00  0.00000000000E+00  0.22702330188E+03  0.84812939639E+03  0.81718045341E+03 0.  0.
        3    1    3    3  502    0  0.29322645971E+02 -0.39316610622E+03  0.21804557706E+01  0.39426408565E+03  0.10100000352E+00 0. -1.
       -3    1    3    3    0  502 -0.29322645971E+02  0.39316610622E+03  0.22484284611E+03  0.45386531074E+03  0.10100000352E+00 0.  1.
</event>
<event>
 5   0  0.3467240E-02  0.8095808E+03  0.7818609E-02  0.9546252E-01
       -2   -1    0    0    0  501  0.00000000000E+00  0.00000000000E+00  0.13984079170E+03  0.13984079173E+03  0.25500000920E-02 0.  1.
        2   -1    0    0  501    0  0.00000000000E+00  0.00000000000E+00 -0.11717273418E+04  0.11717273418E+04  0.25500000920E-02 0. -1.
    10030    2    1    2    0    0  0.00000000000E+00  0.00000000000E+00 -0.10318865501E+04  0.13115681336E+04  0.80958082774E+03 0.  0.
        2    1    3    3  502    0  0.17283998720E+03 -0.31124095100E+03 -0.82803348606E+03  0.90132349619E+03  0.25500000920E-02 0. -1.
       -2    1    3    3    0  502 -0.17283998720E+03  0.31124095100E+03 -0.20385306407E+03  0.41024463737E+03  0.25500000920E-02 0.  1.
</event>
<event>
 5   0  0.3343036E-02  0.6456275E+03  0.7818609E-02  0.9815019E-01
       -2   -1    0    0    0  501  0.00000000000E+00  0.00000000000E+00  0.25026726481E+03  0.25026726483E+03  0.25500000920E-02 0. -1.
        2   -1    0    0  501    0  0.00000000000E+00  0.00000000000E+00 -0.41638970809E+03  0.41638970809E+03  0.25500000920E-02 0.  1.
    10030    2    1    2    0    0  0.00000000000E+00  0.00000000000E+00 -0.16612244327E+03  0.66665697292E+03  0.64562748809E+03 0.  0.
        4    1    3    3  502    0  0.23314533468E+03 -0.18221468472E+03 -0.21629169181E+03  0.36652782603E+03  0.12699999809E+01 0.  1.
       -4    1    3    3    0  502 -0.23314533468E+03  0.18221468472E+03  0.50169248540E+02  0.30012914688E+03  0.12699999809E+01 0. -1.
</event>
<event>
 5   0  0.3467240E-02  0.8118489E+03  0.7818609E-02  0.9543023E-01
       -2   -1    0    0    0  501  0.00000000000E+00  0.00000000000E+00  0.16893101947E+03  0.16893101949E+03  0.25500000920E-02 0. -1.
        2   -1    0    0  501    0  0.00000000000E+00  0.00000000000E+00 -0.97539604783E+03  0.97539604783E+03  0.25500000920E-02 0.  1.
    10030    2    1    2    0    0  0.00000000000E+00  0.00000000000E+00 -0.80646502836E+03  0.11443270673E+04  0.81184887451E+03 0.  0.
        2    1    3    3  502    0 -0.15300102667E+03 -0.27235561494E+03 -0.76859170617E+03  0.82965059269E+03  0.25500000920E-02 0.  1.
       -2    1    3    3    0  502  0.15300102667E+03  0.27235561494E+03 -0.37873322193E+02  0.31467647464E+03  0.25500000920E-02 0. -1.
</event>
<event>
 5   0  0.2132540E-02  0.7972502E+03  0.7818609E-02  0.9564006E-01
        1   -1    0    0  501    0  0.00000000000E+00  0.00000000000E+00  0.48189433988E+03  0.48189433991E+03  0.50400001928E-02 0. -1.
       -1   -1    0    0    0  501  0.00000000000E+00  0.00000000000E+00 -0.32974444181E+03  0.32974444185E+03  0.50400001928E-02 0.  1.
    10030    2    1    2    0    0  0.00000000000E+00  0.00000000000E+00  0.15214989807E+03  0.81163878176E+03  0.79725022457E+03 0.  0.
        4    1    3    3  502    0 -0.19224178259E+03 -0.11087242692E+03 -0.26103687187E+03  0.34262437070E+03  0.12699999809E+01 0.  1.
       -4    1    3    3    0  502  0.19224178259E+03  0.11087242692E+03  0.41318676994E+03  0.46901441106E+03  0.12699999809E+01 0. -1.
</event>
<event>
 5   0  0.3404132E-02  0.8593474E+03  0.7818609E-02  0.9477876E-01
        2   -1    0    0  501    0  0.00000000000E+00  0.00000000000E+00  0.12676427783E+04  0.12676427783E+04  0.25500000920E-02 0.  1.
       -2   -1    0    0    0  501  0.00000000000E+00  0.00000000000E+00 -0.14563998503E+03  0.14563998505E+03  0.25500000920E-02 0. -1.
    10030    2    1    2    0    0  0.00000000000E+00  0.00000000000E+00  0.11220027933E+04  0.14132827633E+04  0.85934736928E+03 0.  0.
        5    1    3    3  502    0  0.73299156386E+02 -0.15959850549E+03  0.12058711675E+04  0.12186024010E+04  0.46999998093E+01 0.  1.
       -5    1    3    3    0  502 -0.73299156386E+02  0.15959850549E+03 -0.83868374207E+02  0.19468036231E+03  0.46999998093E+01 0. -1.
</event>
<event>
 5   0  0.2063692E-02  0.8119459E+03  0.7818609E-02  0.9542885E-01
       -1   -1    0    0    0  501  0.00000000000E+00  0.00000000000E+00  0.15465370918E+03  0.15465370926E+03  0.50400001928E-02 0. -1.
        1   -1    0    0  501    0  0.00000000000E+00  0.00000000000E+00 -0.10656971466E+04  0.10656971466E+04  0.50400001928E-02 0.  1.
    10030    2    1    2    0    0  0.00000000000E+00  0.00000000000E+00 -0.91104343742E+03  0.12203508559E+04  0.81194585199E+03 0.  0.
        2    1    3    3  502    0 -0.30104010710E+03  0.25565998723E+03 -0.31431339219E+03  0.50475745034E+03  0.25500000920E-02 0. -1.
       -2    1    3    3    0  502  0.30104010710E+03 -0.25565998723E+03 -0.59673004523E+03  0.71559340553E+03  0.25500000920E-02 0.  1.
</event>
<event>
 5   0  0.1989298E-02  0.7574747E+03  0.7818609E-02  0.9623696E-01
        1   -1    0    0  501    0  0.00000000000E+00  0.00000000000E+00  0.61270592795E+03  0.61270592797E+03  0.50400001928E-02 0. -1.
       -1   -1    0    0    0  501  0.00000000000E+00  0.00000000000E+00 -0.23411226176E+03  0.23411226181E+03  0.50400001928E-02 0.  1.
    10030    2    1    2    0    0  0.00000000000E+00  0.00000000000E+00  0.37859366619E+03  0.84681818978E+03  0.75747467447E+03 0.  0.
        1    1    3    3  502    0 -0.60377094648E+02 -0.13116045717E+03  0.58072836140E+03  0.59840946587E+03  0.50400001928E-02 0. -1.
       -1    1    3    3    0  502  0.60377094648E+02  0.13116045717E+03 -0.20213469521E+03  0.24840872391E+03  0.50400001928E-02 0.  1.
</event>
<event>
 5   0  0.2077795E-02  0.7994128E+03  0.7818609E-02  0.9560868E-01
       -1   -1    0    0    0  501  0.00000000000E+00  0.00000000000E+00  0.19161995028E+03  0.19161995034E+03  0.50400001928E-02 0. -1.
        1   -1    0    0  501    0  0.00000000000E+00  0.00000000000E+00 -0.83376071786E+03  0.83376071788E+03  0.50400001928E-02 0.  1.
    10030    2    1    2    0    0  0.00000000000E+00  0.00000000000E+00 -0.64214076758E+03  0.10253806682E+04  0.79941275282E+03 0.  0.
        5    1    3    3  502    0  0.19652277503E+03  0.15396064372E+03  0.79273957557E+02  0.26197620362E+03  0.46999998093E+01 0. -1.
       -5    1    3    3    0  502 -0.19652277503E+03 -0.15396064372E+03 -0.72141472514E+03  0.76340446460E+03  0.46999998093E+01 0.  1.
</event>
<event>
 5   0  0.2132540E-02  0.8279380E+03  0.7818609E-02  0.9520436E-01
        1   -1    0    0  501    0  0.00000000000E+00  0.00000000000E+00  0.78200195141E+03  0.78200195142E+03  0.50400001928E-02 0.  1.
       -1   -1    0    0    0  501  0.00000000000E+00  0.00000000000E+00 -0.21914309008E+03  0.21914309014E+03  0.50400001928E-02 0. -1.
    10030    2    1    2    0    0  0.00000000000E+00  0.00000000000E+00  0.56285886133E+03  0.10011450416E+04  0.82793797863E+03 0.  0.
        4    1    3    3  502    0  0.38794058380E+02  0.12413948556E+03 -0.19379366534E+03  0.23339491954E+03  0.12699999809E+01 0. -1.
       -4    1    3    3    0  502 -0.38794058380E+02 -0.12413948556E+03  0.75665252667E+03  0.76775012202E+03  0.12699999809E+01 0.  1.
</event>
<event>
 5   0  0.3416160E-02  0.7990066E+03  0.7818609E-02  0.9561456E-01
       -2   -1    0    0    0  501  0.00000000000E+00  0.00000000000E+00  0.18154619157E+03  0.18154619159E+03  0.25500000920E-02 0. -1.
        2   -1    0    0  501    0  0.00000000000E+00  0.00000000000E+00 -0.87913100719E+03  0.87913100719E+03  0.25500000920E-02 0.  1.
    10030    2    1    2    0    0  0.00000000000E+00  0.00000000000E+00 -0.69758481562E+03  0.10606771988E+04  0.79900659887E+03 0.  0.
        1    1    3    3  502    0 -0.19333116804E+03  0.30493979160E+03 -0.57578110954E+03  0.67962423674E+03  0.50400001928E-02 0.  1.
       -1    1    3    3    0  502  0.19333116804E+03 -0.30493979160E+03 -0.12180370607E+03  0.38105296204E+03  0.50400001928E-02 0. -1.
</event>
<event>
 5   0  0.1989298E-02  0.7967068E+03  0.7818609E-02  0.9564796E-01
       -1   -1    0    0    0  501  0.00000000000E+00  0.00000000000E+00  0.42520278766E+03  0.42520278769E+03  0.50400001928E-02 0.  1.
        1   -1    0    0  501    0  0.00000000000E+00  0.00000000000E+00 -0.37319944032E+03  0.37319944035E+03  0.50400001928E-02 0. -1.
    10030    2    1    2    0    0  0.00000000000E+00  0.00000000000E+00  0.52003347338E+02  0.79840222804E+03  0.79670682789E+03 0.  0.
        1    1    3    3  502    0 -0.36319449295E+03 -0.15596206530E+03 -0.23611627097E+02  0.39596958783E+03  0.50400001928E-02 0. -1.
       -1    1    3    3    0  502  0.36319449295E+03  0.15596206530E+03  0.75614974435E+02  0.40243264021E+03  0.50400001928E-02 0.  1.
</event>
<event>
 5   0  0.3550586E-02  0.8043619E+03  0.7818609E-02  0.9553725E-01
        2   -1    0    0  501    0  0.00000000000E+00  0.00000000000E+00  0.40528418662E+03  0.40528418663E+03  0.25500000920E-02 0. -1.
       -2   -1    0    0    0  501  0.00000000000E+00  0.00000000000E+00 -0.39910148648E+03  0.39910148649E+03  0.25500000920E-02 0.  1.
    10030    2    1    2    0    0  0.00000000000E+00  0.00000000000E+00  0.61827001425E+01  0.80438567312E+03  0.80436191192E+03 0.  0.
        3    1    3    3  502    0  0.26750966050E+03  0.17583664561E+03  0.24655195979E+03  0.40406413288E+03  0.10100000352E+00 0. -1.
       -3    1    3    3    0  502 -0.26750966050E+03 -0.17583664561E+03 -0.24036925965E+03  0.40032154024E+03  0.10100000352E+00 0.  1.
</event>
<event>
 5   0  0.3416160E-02  0.7904064E+03  0.7818609E-02  0.9574008E-01
        2   -1    0    0  501    0  0.00000000000E+00  0.00000000000E+00  0.12200646130E+04  0.12200646130E+04  0.25500000920E-02 0. -1.
       -2   -1    0    0    0  501  0.00000000000E+00  0.00000000000E+00 -0.12801416726E+03  0.12801416728E+03  0.25500000920E-02 0.  1.
    10030    2    1    2    0    0  0.00000000000E+00  0.00000000000E+00  0.10920504458E+04  0.13480787803E+04  0.79040636499E+03 0.  0.
        1    1    3    3  502    0  0.23235693042E+03  0.26828805874E+03  0.84250350561E+03  0.91421025075E+03  0.50400001928E-02 0. -1.
       -1    1    3    3    0  502 -0.23235693042E+03 -0.26828805874E+03  0.24954694016E+03  0.43386852956E+03  0.50400001928E-02 0.  1.
</event>
<event>
 5   0  0.3416160E-02  0.7981565E+03  0.7818609E-02  0.9562689E-01
        2   -1    0    0  501    0  0.00000000000E+00  0.00000000000E+00  0.11120437125E+04  0.11120437125E+04  0.25500000920E-02 0. -1.
       -2   -1    0    0    0  501  0.00000000000E+00  0.00000000000E+00 -0.14321688585E+03  0.14321688587E+03  0.25500000920E-02 0.  1.
    10030    2    1    2    0    0  0.00000000000E+00  0.00000000000E+00  0.96882682665E+03  0.12552605984E+04  0.79815646949E+03 0.  0.
        1    1    3    3  502    0  0.36515087117E+03  0.13868674447E+03  0.35573747946E+03  0.52831650185E+03  0.50400001928E-02 0.  1.
       -1    1    3    3    0  502 -0.36515087117E+03 -0.13868674447E+03  0.61308934719E+03  0.72694409653E+03  0.50400001928E-02 0. -1.
</event>
<event>
 5   0  0.3404132E-02  0.8873445E+03  0.7818609E-02  0.9441541E-01
       -2   -1    0    0    0  501  0.00000000000E+00  0.00000000000E+00  0.37316344072E+03  0.37316344073E+03  0.25500000920E-02 0.  1.
        2   -1    0    0  501    0  0.00000000000E+00  0.00000000000E+00 -0.52750365747E+03  0.52750365748E+03  0.25500000920E-02 0. -1.
    10030    2    1    2    0    0  0.00000000000E+00  0.00000000000E+00 -0.15434021675E+03  0.90066709821E+03  0.88734453246E+03 0.  0.
        5    1    3    3  502    0 -0.91844877845E+01  0.31684700312E+03  0.23788769684E+03  0.39634457800E+03  0.46999998093E+01 0.  1.
       -5    1    3    3    0  502  0.91844877845E+01 -0.31684700312E+03 -0.39222791358E+03  0.50432252021E+03  0.46999998093E+01 0. -1.
</event>
<event>
 5   0  0.2077795E-02  0.8205505E+03  0.7818609E-02  0.9530738E-01
       -1   -1    0    0    0  501  0.00000000000E+00  0.00000000000E+00  0.13113374750E+03  0.13113374759E+03  0.50400001928E-02 0. -1.
        1   -1    0    0  501    0  0.00000000000E+00  0.00000000000E+00 -0.12836191128E+04  0.12836191128E+04  0.50400001928E-02 0.  1.
    10030    2    1    2    0    0  0.00000000000E+00  0.00000000000E+00 -0.11524853653E+04  0.14147528604E+04  0.82055050958E+03 0.  0.
        5    1    3    3  502    0 -0.19559896892E+03 -0.35741729569E+03 -0.49359819903E+03  0.64005261658E+03  0.46999998093E+01 0.  1.
       -5    1    3    3    0  502  0.19559896892E+03  0.35741729569E+03 -0.65888716625E+03  0.77470024381E+03  0.46999998093E+01 0. -1.
</event>
<event>
 5   0  0.3550586E-02  0.7442915E+03  0.7818609E-02  0.9644349E-01
       -2   -1    0    0    0  501  0.00000000000E+00  0.00000000000E+00  0.77728604216E+02  0.77728604257E+02  0.25500000920E-02 0.  1.
        2   -1    0    0  501    0  0.00000000000E+00  0.00000000000E+00 -0.17817437774E+04  0.17817437774E+04  0.25500000920E-02 0. -1.
    10030    2    1    2    0    0  0.00000000000E+00  0.00000000000E+00 -0.17040151732E+04  0.18594723817E+04  0.74429149379E+03 0.  0.
        3    1    3    3  502    0 -0.12475368251E+03  0.21995867029E+03 -0.15341298045E+04  0.15548310407E+04  0.10100000352E+00 0. -1.
       -3    1    3    3    0  502  0.12475368251E+03 -0.21995867029E+03 -0.16988536877E+03  0.30464134102E+03  0.10100000352E+00 0.  1.
</event>
<event>
 5   0  0.2063692E-02  0.8198382E+03  0.7818609E-02  0.9531738E-01
        1   -1    0    0  501    0  0.00000000000E+00  0.00000000000E+00  0.12567758941E+04  0.12567758941E+04  0.50400001928E-02 0.  1.
       -1   -1    0    0    0  501  0.00000000000E+00  0.00000000000E+00 -0.13370217921E+03  0.13370217930E+03  0.50400001928E-02 0. -1.
    10030    2    1    2    0    0  0.00000000000E+00  0.00000000000E+00  0.11230737149E+04  0.13904780734E+04  0.81983821792E+03 0.  0.
        2    1    3    3  502    0 -0.78173718763E+02 -0.16907858342E+02 -0.12033997071E+03  0.14449468688E+03  0.25500000920E-02 0. -1.
       -2    1    3    3    0  502  0.78173718763E+02  0.16907858342E+02  0.12434136856E+04  0.12459833865E+04  0.25500000920E-02 0.  1.
</event>
<event>
 5   0  0.1989298E-02  0.7865558E+03  0.7818609E-02  0.9579684E-01
       -1   -1    0    0    0  501  0.00000000000E+00  0.00000000000E+00  0.31440770977E+03  0.31440770981E+03  0.50400001928E-02 0. -1.
        1   -1    0    0  501    0  0.00000000000E+00  0.00000000000E+00 -0.49193291167E+03  0.49193291170E+03  0.50400001928E-02 0.  1.
    10030    2    1    2    0    0  0.00000000000E+00  0.00000000000E+00 -0.17752520191E+03  0.80634062151E+03  0.78655578351E+03 0.  0.
        1    1    3    3  502    0 -0.66146748142E+02  0.35423406974E+03 -0.25023760174E+03  0.43872089738E+03  0.50400001928E-02 0.  1.
       -1    1    3    3    0  502  0.66146748142E+02 -0.35423406974E+03  0.72712399829E+02  0.36761972412E+03  0.50400001928E-02 0. -1.
</event>
<event>
 5   0  0.2129257E-02  0.8280644E+03  0.7818609E-02  0.9520261E-01
       -1   -1    0    0    0  501  0.00000000000E+00  0.00000000000E+00  0.17587043307E+03  0.17587043315E+03  0.50400001928E-02 0.  1.
        1   -1    0    0  501    0  0.00000000000E+00  0.00000000000E+00 -0.97470986575E+03  0.97470986577E+03  0.50400001928E-02 0. -1.
    10030    2    1    2    0    0  0.00000000000E+00  0.00000000000E+00 -0.79883943268E+03  0.11505802989E+04  0.82806436045E+03 0.  0.
        3    1    3    3  502    0 -0.11356025713E+03 -0.10416610934E+03 -0.93337880767E+03  0.94601401636E+03  0.10100000352E+00 0. -1.
       -3    1    3    3    0  502  0.11356025713E+03  0.10416610934E+03  0.13453937499E+03  0.20456628256E+03  0.10100000352E+00 0.  1.
</event>
<event>
 5   0  0.2129257E-02  0.7916743E+03  0.7818609E-02  0.9572147E-01
       -1   -1    0    0    0  501  0.00000000000E+00  0.00000000000E+00  0.27233745841E+03  0.27233745845E+03  0.50400001928E-02 0.  1.
        1   -1    0    0  501    0  0.00000000000E+00  0.00000000000E+00 -0.57534152795E+03  0.57534152797E+03  0.50400001928E-02 0. -1.
    10030    2    1    2    0    0  0.00000000000E+00  0.00000000000E+00 -0.30300406954E+03  0.84767898642E+03  0.79167430037E+03 0.  0.
        3    1    3    3  502    0  0.20462471814E+03  0.73242470982E+02  0.20273612355E+03  0.29721655543E+03  0.10100000352E+00 0.  1.
       -3    1    3    3    0  502 -0.20462471814E+03 -0.73242470982E+02 -0.50574019309E+03  0.55046243099E+03  0.10100000352E+00 0. -1.
</event>
<event>
 5   0  0.3467240E-02  0.8127330E+03  0.7818609E-02  0.9541767E-01
        2   -1    0    0  501    0  0.00000000000E+00  0.00000000000E+00  0.72440986531E+03  0.72440986532E+03  0.25500000920E-02 0.  1.
       -2   -1    0    0    0  501  0.00000000000E+00  0.00000000000E+00 -0.22795623621E+03  0.22795623622E+03  0.25500000920E-02 0. -1.
    10030    2    1    2    0    0  0.00000000000E+00  0.00000000000E+00  0.49645362911E+03  0.95236610154E+03  0.81273303458E+03 0.  0.
        2    1    3    3  502    0 -0.17749434233E+02  0.37401994272E+02  0.72193222664E+03  0.72311831083E+03  0.25500000920E-02 0.  1.
       -2    1    3    3    0  502  0.17749434233E+02 -0.37401994272E+02 -0.22547859753E+03  0.22924779071E+03  0.25500000920E-02 0. -1.
</event>
<event>
 5   0  0.2077795E-02  0.8127700E+03  0.7818609E-02  0.9541715E-01
       -1   -1    0    0    0  501  0.00000000000E+00  0.00000000000E+00  0.16930263977E+03  0.16930263984E+03  0.50400001928E-02 0.  1.
        1   -1    0    0  501    0  0.00000000000E+00  0.00000000000E+00 -0.97546488270E+03  0.97546488272E+03  0.50400001928E-02 0. -1.
    10030    2    1    2    0    0  0.00000000000E+00  0.00000000000E+00 -0.80616224293E+03  0.11447675226E+04  0.81277002822E+03 0.  0.
        5    1    3    3  502    0  0.28586866212E+03  0.97563433730E+02 -0.78593596708E+03  0.84199581349E+03  0.46999998093E+01 0. -1.
       -5    1    3    3    0  502 -0.28586866212E+03 -0.97563433730E+02 -0.20226275849E+02  0.30277170907E+03  0.46999998093E+01 0.  1.
</event>
<event>
 5   0  0.3404132E-02  0.7867173E+03  0.7818609E-02  0.9579445E-01
       -2   -1    0    0    0  501  0.00000000000E+00  0.00000000000E+00  0.21893067245E+03  0.21893067246E+03  0.25500000920E-02 0.  1.
        2   -1    0    0  501    0  0.00000000000E+00  0.00000000000E+00 -0.70675809895E+03  0.70675809896E+03  0.25500000920E-02 0. -1.
    10030    2    1    2    0    0  0.00000000000E+00  0.00000000000E+00 -0.48782742651E+03  0.92568877142E+03  0.78671729578E+03 0.  0.
        5    1    3    3  502    0  0.20962649669E+03  0.32975392105E+03 -0.19092512600E+03  0.43492000448E+03  0.46999998093E+01 0.  1.
       -5    1    3    3    0  502 -0.20962649669E+03 -0.32975392105E+03 -0.29690230051E+03  0.49076876694E+03  0.46999998093E+01 0. -1.
</event>
<event>
 5   0  0.1358000E-02  0.7742839E+03  0.7818609E-02  0.9598005E-01
        4   -1    0    0  501    0  0.00000000000E+00  0.00000000000E+00  0.72906403312E+03  0.72906513926E+03  0.12699999809E+01 0.  1.
       -4   -1    0    0    0  501  0.00000000000E+00  0.00000000000E+00 -0.20557391804E+03  0.20557784093E+03  0.12699999809E+01 0. -1.
    10030    2    1    2    0    0  0.00000000000E+00  0.00000000000E+00  0.52349011507E+03  0.93464298019E+03  0.77428392714E+03 0.  0.
        5    1    3    3  502    0  0.37409106917E+03 -0.34361407762E+02  0.14894696366E+03  0.40414369023E+03  0.46999998093E+01 0. -1.
       -5    1    3    3    0  502 -0.37409106917E+03  0.34361407762E+02  0.37454315142E+03  0.53049928996E+03  0.46999998093E+01 0.  1.
</event>
<event>
 5   0  0.1358000E-02  0.7995075E+03  0.7818609E-02  0.9560730E-01
       -4   -1    0    0    0  501  0.00000000000E+00  0.00000000000E+00  0.27539108699E+03  0.27539401535E+03  0.12699999809E+01 0.  1.
        4   -1    0    0  501    0  0.00000000000E+00  0.00000000000E+00 -0.58027010799E+03  0.58027149777E+03  0.12699999809E+01 0. -1.
    10030    2    1    2    0    0  0.00000000000E+00  0.00000000000E+00 -0.30487902101E+03  0.85566551313E+03  0.79950750647E+03 0.  0.
        2    1    3    3  502    0  0.47877132838E+00 -0.18594654431E+03 -0.53116974763E+03  0.56277672959E+03  0.25500000920E-02 0. -1.
       -2    1    3    3    0  502 -0.47877132838E+00  0.18594654431E+03  0.22629072662E+03  0.29288878354E+03  0.25500000920E-02 0.  1.
</event>
<event>
 5   0  0.1989298E-02  0.8061294E+03  0.7818609E-02  0.9551187E-01
       -1   -1    0    0    0  501  0.00000000000E+00  0.00000000000E+00  0.40468011036E+03  0.40468011039E+03  0.50400001928E-02 0. -1.
        1   -1    0    0  501    0  0.00000000000E+00  0.00000000000E+00 -0.40145569106E+03  0.40145569109E+03  0.50400001928E-02 0.  1.
    10030    2    1    2    0    0  0.00000000000E+00  0.00000000000E+00  0.32244192998E+01  0.80613580148E+03  0.80612935287E+03 0.  0.
        1    1    3    3  502    0 -0.40499259284E+02  0.84499516067E+02  0.39363674190E+03  0.40463593862E+03  0.50400001928E-02 0. -1.
       -1    1    3    3    0  502  0.40499259284E+02 -0.84499516067E+02 -0.39041232260E+03  0.40149986287E+03  0.50400001928E-02 0.  1.
</event>
<event>
 5   0  0.2063692E-02  0.8188913E+03  0.7818609E-02  0.9533068E-01
        1   -1    0    0  501    0  0.00000000000E+00  0.00000000000E+00  0.75744055001E+03  0.75744055003E+03  0.50400001928E-02 0. -1.
       -1   -1    0    0    0  501  0.00000000000E+00  0.00000000000E+00 -0.22133186953E+03  0.22133186959E+03  0.50400001928E-02 0.  1.
    10030    2    1    2    0    0  0.00000000000E+00  0.00000000000E+00  0.53610868048E+03  0.97877241962E+03  0.81889128224E+03 0.  0.
        2    1    3    3  502    0 -0.28262535397E+03  0.20032956036E+03  0.52892567071E+03  0.63227477303E+03  0.25500000920E-02 0. -1.
       -2    1    3    3    0  502  0.28262535397E+03 -0.20032956036E+03  0.71830097624E+01  0.34649764659E+03  0.25500000920E-02 0.  1.
</event>
<event>
 5   0  0.3416160E-02  0.7719254E+03  0.7818609E-02  0.9601567E-01
       -2   -1    0    0    0  501  0.00000000000E+00  0.00000000000E+00  0.11488236115E+03  0.11488236118E+03  0.25500000920E-02 0.  1.
        2   -1    0    0  501    0  0.00000000000E+00  0.00000000000E+00 -0.12966934186E+04  0.12966934186E+04  0.25500000920E-02 0. -1.
    10030    2    1    2    0    0  0.00000000000E+00  0.00000000000E+00 -0.11818110575E+04  0.14115757798E+04  0.77192538926E+03 0.  0.
        1    1    3    3  502    0 -0.31559939332E+03 -0.71269350947E+02 -0.20608633336E+03  0.38360640541E+03  0.50400001928E-02 0.  1.
       -1    1    3    3    0  502  0.31559939332E+03  0.71269350947E+02 -0.97572472412E+03  0.10279693744E+04  0.50400001928E-02 0. -1.
</event>
<event>
 5   0  0.3416160E-02  0.7959047E+03  0.7818609E-02  0.9565964E-01
        2   -1    0    0  501    0  0.00000000000E+00  0.00000000000E+00  0.78227439978E+03  0.78227439978E+03  0.25500000920E-02 0. -1.
       -2   -1    0    0    0  501  0.00000000000E+00  0.00000000000E+00 -0.20244310956E+03  0.20244310957E+03  0.25500000920E-02 0.  1.
    10030    2    1    2    0    0  0.00000000000E+00  0.00000000000E+00  0.57983129022E+03  0.98471750935E+03  0.79590467275E+03 0.  0.
        1    1    3    3  502    0  0.45346288098E+02  0.14308991612E+03 -0.16607562952E+03  0.22385737577E+03  0.50400001928E-02 0.  1.
       -1    1    3    3    0  502 -0.45346288098E+02 -0.14308991612E+03  0.74590691974E+03  0.76086013359E+03  0.50400001928E-02 0. -1.
</event>
<event>
 5   0  0.1358000E-02  0.8078766E+03  0.7818609E-02  0.9548686E-01
        3   -1    0    0  501    0  0.00000000000E+00  0.00000000000E+00  0.94480129945E+03  0.94480130485E+03  0.10100000352E+00 0.  1.
       -3   -1    0    0    0  501  0.00000000000E+00  0.00000000000E+00 -0.17269889104E+03  0.17269892057E+03  0.10100000352E+00 0. -1.
    10030    2    1    2    0    0  0.00000000000E+00  0.00000000000E+00  0.77210240841E+03  0.11175002254E+04  0.80787661479E+03 0.  0.
        2    1    3    3  502    0 -0.26258338077E+03  0.18426515332E+02 -0.37768584198E+02  0.26592486586E+03  0.25500000920E-02 0. -1.
       -2    1    3    3    0  502  0.26258338077E+03 -0.18426515332E+02  0.80987099261E+03  0.85157535955E+03  0.25500000920E-02 0.  1.
</event>
<event>
 5   0  0.2132540E-02  0.8130541E+03  0.7818609E-02  0.9541312E-01
       -1   -1    0    0    0  501  0.00000000000E+00  0.00000000000E+00  0.26408486293E+03  0.26408486298E+03  0.50400001928E-02 0. -1.
        1   -1    0    0  501    0  0.00000000000E+00  0.00000000000E+00 -0.62579978255E+03  0.62579978257E+03  0.50400001928E-02 0.  1.
    10030    2    1    2    0    0  0.00000000000E+00  0.00000000000E+00 -0.36171491962E+03  0.88988464554E+03  0.81305411831E+03 0.  0.
        4    1    3    3  502    0  0.93805262678E+02  0.33817667410E+03  0.43713709784E+02  0.35365999425E+03  0.12699999809E+01 0. -1.
       -4    1    3    3    0  502 -0.93805262678E+02 -0.33817667410E+03 -0.40542862940E+03  0.53622465129E+03  0.12699999809E+01 0.  1.
</event>
<event>
 5   0  0.3404132E-02  0.7771686E+03  0.7818609E-02  0.9593666E-01
       -2   -1    0    0    0  501  0.00000000000E+00  0.00000000000E+00  0.30691810220E+03  0.30691810222E+03  0.25500000920E-02 0.  1.
        2   -1    0    0  501    0  0.00000000000E+00  0.00000000000E+00 -0.49198061636E+03  0.49198061637E+03  0.25500000920E-02 0. -1.
    10030    2    1    2    0    0  0.00000000000E+00  0.00000000000E+00 -0.18506251416E+03  0.79889871858E+03  0.77716859716E+03 0.  0.
        5    1    3    3  502    0  0.26233316310E+02  0.37721439026E+03 -0.60614599327E+00  0.37815518047E+03  0.46999998093E+01 0. -1.
       -5    1    3    3    0  502 -0.26233316310E+02 -0.37721439026E+03 -0.18445636816E+03  0.42074353811E+03  0.46999998093E+01 0.  1.
</event>
<event>
 5   0  0.2077795E-02  0.7829846E+03  0.7818609E-02  0.9584978E-01
        1   -1    0    0  501    0  0.00000000000E+00  0.00000000000E+00  0.57432622449E+03  0.57432622451E+03  0.50400001928E-02 0.  1.
       -1   -1    0    0    0  501  0.00000000000E+00  0.00000000000E+00 -0.26686262950E+03  0.26686262955E+03  0.50400001928E-02 0. -1.
    10030    2    1    2    0    0  0.00000000000E+00  0.00000000000E+00  0.30746359499E+03  0.84118885406E+03  0.78298456303E+03 0.  0.
        5    1    3    3  502    0 -0.26880962804E+03 -0.23407490614E+03 -0.20146291294E+02  0.35704011100E+03  0.46999998093E+01 0. -1.
       -5    1    3    3    0  502  0.26880962804E+03  0.23407490614E+03  0.32760988628E+03  0.48414874306E+03  0.46999998093E+01 0.  1.
</event>
<event>
 5   0  0.2063692E-02  0.8039905E+03  0.7818609E-02  0.9554259E-01
       -1   -1    0    0    0  501  0.00000000000E+00  0.00000000000E+00  0.87567881372E+03  0.87567881374E+03  0.50400001928E-02 0. -1.
        1   -1    0    0  501    0  0.00000000000E+00  0.00000000000E+00 -0.18454274379E+03  0.18454274386E+03  0.50400001928E-02 0.  1.
    10030    2    1    2    0    0  0.00000000000E+00  0.00000000000E+00  0.69113606993E+03  0.10602215576E+04  0.80399047510E+03 0.  0.
        2    1    3    3  502    0  0.34317115366E+02 -0.34341021468E+03  0.61739902128E+03  0.70731166499E+03  0.25500000920E-02 0. -1.
       -2    1    3    3    0  502 -0.34317115366E+02  0.34341021468E+03  0.73737048649E+02  0.35290989261E+03  0.25500000920E-02 0.  1.
</event>
<event>
 5   0  0.3404132E-02  0.7616209E+03  0.7818609E-02  0.9617293E-01
        2   -1    0    0  501    0  0.00000000000E+00  0.00000000000E+00  0.57357325497E+03  0.57357325497E+03  0.25500000920E-02 0.  1.
       -2   -1    0    0    0  501  0.00000000000E+00  0.00000000000E+00 -0.25283015912E+03  0.25283015913E+03  0.25500000920E-02 0. -1.
    10030    2    1    2    0    0  0.00000000000E+00  0.00000000000E+00  0.32074309585E+03  0.82640341410E+03  0.76162094857E+03 0.  0.
        5    1    3    3  502    0 -0.34943710849E+02 -0.37772222469E+03  0.19634881743E+03  0.42716517889E+03  0.46999998093E+01 0.  1.
       -5    1    3    3    0  502  0.34943710849E+02  0.37772222469E+03  0.12439427842E+03  0.39923823521E+03  0.46999998093E+01 0. -1.
</event>
<event>
 5   0  0.3416160E-02  0.8160305E+03  0.7818609E-02  0.9537099E-01
       -2   -1    0    0    0  501  0.00000000000E+00  0.00000000000E+00  0.76250321536E+03  0.76250321537E+03  0.25500000920E-02 0. -1.
        2   -1    0    0  501    0  0.00000000000E+00  0.00000000000E+00 -0.21832884354E+03  0.21832884355E+03  0.25500000920E-02 0.  1.
    10030    2    1    2    0    0  0.00000000000E+00  0.00000000000E+00  0.54417437183E+03  0.98083205892E+03  0.81603050240E+03 0.  0.
        1    1    3    3  502    0 -0.40185432406E+03 -0.13234676165E+02  0.35548581824E+03  0.53668633430E+03  0.50400001928E-02 0. -1.
       -1    1    3    3    0  502  0.40185432406E+03  0.13234676165E+02  0.18868855359E+03  0.44414572462E+03  0.50400001928E-02 0.  1.
</event>
<event>
 5   0  0.2063692E-02  0.8945644E+03  0.7818609E-02  0.9432402E-01
       -1   -1    0    0    0  501  0.00000000000E+00  0.00000000000E+00  0.28042214467E+03  0.28042214471E+03  0.50400001928E-02 0. -1.
        1   -1    0    0  501    0  0.00000000000E+00  0.00000000000E+00 -0.71342920776E+03  0.71342920778E+03  0.50400001928E-02 0.  1.
    10030    2    1    2    0    0  0.00000000000E+00  0.00000000000E+00 -0.43300706310E+03  0.99385135249E+03  0.89456435999E+03 0.  0.
        2    1    3    3  502    0 -0.28591077085E+03 -0.20729412576E+03 -0.52146050817E+03  0.62979114399E+03  0.25500000920E-02 0.  1.
       -2    1    3    3    0  502  0.28591077085E+03  0.20729412576E+03  0.88453445073E+02  0.36406020850E+03  0.25500000920E-02 0. -1.
</event>
<event>
 5   0  0.2077795E-02  0.8372070E+03  0.7818609E-02  0.9507670E-01
        1   -1    0    0  501    0  0.00000000000E+00  0.00000000000E+00  0.50052796001E+03  0.50052796003E+03  0.50400001928E-02 0.  1.
       -1   -1    0    0    0  501  0.00000000000E+00  0.00000000000E+00 -0.35008809405E+03  0.35008809408E+03  0.50400001928E-02 0. -1.
    10030    2    1    2    0    0  0.00000000000E+00  0.00000000000E+00  0.15043986596E+03  0.85061605412E+03  0.83720697456E+03 0.  0.
        5    1    3    3  502    0  0.15975297949E+03  0.37072931576E+03 -0.37212051779E+02  0.40542331805E+03  0.46999998093E+01 0.  1.
       -5    1    3    3    0  502 -0.15975297949E+03 -0.37072931576E+03  0.18765191774E+03  0.44519273607E+03  0.46999998093E+01 0. -1.
</event>
<event>
 5   0  0.2129257E-02  0.8082414E+03  0.7818609E-02  0.9548164E-01
       -1   -1    0    0    0  501  0.00000000000E+00  0.00000000000E+00  0.71438394414E+02  0.71438394592E+02  0.50400001928E-02 0. -1.
        1   -1    0    0  501    0  0.00000000000E+00  0.00000000000E+00 -0.22860749831E+04  0.22860749831E+04  0.50400001928E-02 0.  1.
    10030    2    1    2    0    0  0.00000000000E+00  0.00000000000E+00 -0.22146365887E+04  0.23575133777E+04  0.80824136623E+03 0.  0.
        3    1    3    3  502    0 -0.14702134332E+03  0.33479383297E+03 -0.16092470200E+04  0.16502660900E+04  0.10100000352E+00 0.  1.
       -3    1    3    3    0  502  0.14702134332E+03 -0.33479383297E+03 -0.60538956868E+03  0.70724728777E+03  0.10100000352E+00 0. -1.
</event>
<event>
 5   0  0.2129257E-02  0.8421845E+03  0.7818609E-02  0.9500887E-01
       -1   -1    0    0    0  501  0.00000000000E+00  0.00000000000E+00  0.20519941067E+03  0.20519941073E+03  0.50400001928E-02 0. -1.
        1   -1    0    0  501    0  0.00000000000E+00  0.00000000000E+00 -0.86412862880E+03  0.86412862882E+03  0.50400001928E-02 0.  1.
    10030    2    1    2    0    0  0.00000000000E+00  0.00000000000E+00 -0.65892921813E+03  0.10693280396E+04  0.84218450571E+03 0.  0.
        3    1    3    3  502    0  0.31637778355E+03  0.24490913945E+03 -0.49619460223E+03  0.63740448853E+03  0.10100000352E+00 0.  1.
       -3    1    3    3    0  502 -0.31637778355E+03 -0.24490913945E+03 -0.16273461590E+03  0.43192355102E+03  0.10100000352E+00 0. -1.
</event>
<event>
 5   0  0.2077795E-02  0.8019508E+03  0.7818609E-02  0.9557198E-01
        1   -1    0    0  501    0  0.00000000000E+00  0.00000000000E+00  0.28795247531E+03  0.28795247535E+03  0.50400001928E-02 0.  1.
       -1   -1    0    0    0  501  0.00000000000E+00  0.00000000000E+00 -0.55836048783E+03  0.55836048786E+03  0.50400001928E-02 0. -1.
    10030    2    1    2    0    0  0.00000000000E+00  0.00000000000E+00 -0.27040801252E+03  0.84631296321E+03  0.80195083294E+03 0.  0.
        5    1    3    3  502    0 -0.19509433160E+03 -0.34870872144E+03 -0.10020905829E+03  0.41197514002E+03  0.46999998093E+01 0. -1.
       -5    1    3    3    0  502  0.19509433160E+03  0.34870872144E+03 -0.17019895423E+03  0.43433782319E+03  0.46999998093E+01 0.  1.
</event>
<event>
 5   0  0.2132540E-02  0.8006967E+03  0.7818609E-02  0.9559009E-01
       -1   -1    0    0    0  501  0.00000000000E+00  0.00000000000E+00  0.27890288260E+03  0.27890288264E+03  0.50400001928E-02 0.  1.
        1   -1    0    0  501    0  0.00000000000E+00  0.00000000000E+00 -0.57467604346E+03  0.57467604348E+03  0.50400001928E-02 0. -1.
    10030    2    1    2    0    0  0.00000000000E+00  0.00000000000E+00 -0.29577316086E+03  0.85357892612E+03  0.80069670939E+03 0.  0.
        4    1    3    3  502    0 -0.25845127409E+02  0.20550058467E+03 -0.51311986266E+03  0.55334624537E+03  0.12699999809E+01 0. -1.
       -4    1    3    3    0  502  0.25845127409E+02 -0.20550058467E+03  0.21734670179E+03  0.30023268075E+03  0.12699999809E+01 0.  1.
</event>
<event>
 5   0  0.2129257E-02  0.7644796E+03  0.7818609E-02  0.9612904E-01
       -1   -1    0    0    0  501  0.00000000000E+00  0.00000000000E+00  0.29140881446E+03  0.29140881450E+03  0.50400001928E-02 0.  1.
        1   -1    0    0  501    0  0.00000000000E+00  0.00000000000E+00 -0.50138245838E+03  0.50138245840E+03  0.50400001928E-02 0. -1.
    10030    2    1    2    0    0  0.00000000000E+00  0.00000000000E+00 -0.20997364392E+03  0.79279127290E+03  0.76447960813E+03 0.  0.
        3    1    3    3  502    0  0.26098592192E+03 -0.51851962894E+00  0.18462861541E+03  0.31968993749E+03  0.10100000352E+00 0.  1.
       -3    1    3    3    0  502 -0.26098592192E+03  0.51851962894E+00 -0.39460225933E+03  0.47310133542E+03  0.10100000352E+00 0. -1.
</event>
<event>
 5   0  0.3343036E-02  0.8206922E+03  0.7818609E-02  0.9530540E-01
        2   -1    0    0  501    0  0.00000000000E+00  0.00000000000E+00  0.80947808177E+03  0.80947808177E+03  0.25500000920E-02 0.  1.
       -2   -1    0    0    0  501  0.00000000000E+00  0.00000000000E+00 -0.20801544137E+03  0.20801544138E+03  0.25500000920E-02 0. -1.
    10030    2    1    2    0    0  0.00000000000E+00  0.00000000000E+00  0.60146264040E+03  0.10174935232E+04  0.82069224553E+03 0.  0.
        4    1    3    3  502    0 -0.69912752068E+02 -0.27841343647E+03 -0.62807914909E+02  0.29385078115E+03  0.12699999809E+01 0. -1.
       -4    1    3    3    0  502  0.69912752068E+02  0.27841343647E+03  0.66427055531E+03  0.72364274201E+03  0.12699999809E+01 0.  1.
</event>
<event>
 5   0  0.2129257E-02  0.8084098E+03  0.7818609E-02  0.9547923E-01
       -1   -1    0    0    0  501  0.00000000000E+00  0.00000000000E+00  0.29290447775E+03  0.29290447780E+03  0.50400001928E-02 0. -1.
        1   -1    0    0  501    0  0.00000000000E+00  0.00000000000E+00 -0.55779823176E+03  0.55779823179E+03  0.50400001928E-02 0.  1.
    10030    2    1    2    0    0  0.00000000000E+00  0.00000000000E+00 -0.26489375401E+03  0.85070270959E+03  0.80840979657E+03 0.  0.
        3    1    3    3  502    0 -0.32228062587E+03  0.21955785287E+03 -0.24436473256E+03  0.46020059245E+03  0.10100000352E+00 0.  1.
       -3    1    3    3    0  502  0.32228062587E+03 -0.21955785287E+03 -0.20529021451E+02  0.39050211714E+03  0.10100000352E+00 0. -1.
</event>
<event>
 5   0  0.3550586E-02  0.7464942E+03  0.7818609E-02  0.9640866E-01
        2   -1    0    0  501    0  0.00000000000E+00  0.00000000000E+00  0.24658416753E+04  0.24658416753E+04  0.25500000920E-02 0.  1.
       -2   -1    0    0    0  501  0.00000000000E+00  0.00000000000E+00 -0.56497300855E+02  0.56497300912E+02  0.25500000920E-02 0. -1.
    10030    2    1    2    0    0  0.00000000000E+00  0.00000000000E+00  0.24093443744E+04  0.25223389762E+04  0.74649420376E+03 0.  0.
        3    1    3    3  502    0 -0.25094476423E+03 -0.25239197647E+03  0.82481256290E+03  0.89832664360E+03  0.10100000352E+00 0. -1.
       -3    1    3    3    0  502  0.25094476423E+03  0.25239197647E+03  0.15845318115E+04  0.16240123326E+04  0.10100000352E+00 0.  1.
</event>
<event>
 5   0  0.3550586E-02  0.7754383E+03  0.7818609E-02  0.9596266E-01
        2   -1    0    0  501    0  0.00000000000E+00  0.00000000000E+00  0.97722641710E+03  0.97722641711E+03  0.25500000920E-02 0.  1.
       -2   -1    0    0    0  501  0.00000000000E+00  0.00000000000E+00 -0.15382940082E+03  0.15382940084E+03  0.25500000920E-02 0. -1.
    10030    2    1    2    0    0  0.00000000000E+00  0.00000000000E+00  0.82339701628E+03  0.11310558179E+04  0.77543833855E+03 0.  0.
        3    1    3    3  502    0  0.13430912158E+03 -0.14250355771E+03  0.89979634604E+03  0.92085812080E+03  0.10100000352E+00 0.  1.
       -3    1    3    3    0  502 -0.13430912158E+03  0.14250355771E+03 -0.76399329756E+02  0.21019769715E+03  0.10100000352E+00 0. -1.
</event>
<event>
 5   0  0.1358000E-02  0.8088840E+03  0.7818609E-02  0.9547246E-01
        4   -1    0    0  501    0  0.00000000000E+00  0.00000000000E+00  0.39483443456E+03  0.39483647705E+03  0.12699999809E+01 0.  1.
       -4   -1    0    0    0  501  0.00000000000E+00  0.00000000000E+00 -0.41427929837E+03  0.41428124500E+03  0.12699999809E+01 0. -1.
    10030    2    1    2    0    0  0.00000000000E+00  0.00000000000E+00 -0.19444863812E+02  0.80911772205E+03  0.80888403706E+03 0.  0.
        4    1    3    3  502    0  0.13687453944E+03 -0.35850679889E+03  0.11802495263E+03  0.40148881272E+03  0.12699999809E+01 0.  1.
       -4    1    3    3    0  502 -0.13687453944E+03  0.35850679889E+03 -0.13746981644E+03  0.40762890933E+03  0.12699999809E+01 0. -1.
</event>
<event>
 5   0  0.3404132E-02  0.7968270E+03  0.7818609E-02  0.9564621E-01
        2   -1    0    0  501    0  0.00000000000E+00  0.00000000000E+00  0.22803824715E+04  0.22803824715E+04  0.25500000920E-02 0.  1.
       -2   -1    0    0    0  501  0.00000000000E+00  0.00000000000E+00 -0.69608204445E+02  0.69608204492E+02  0.25500000920E-02 0. -1.
    10030    2    1    2    0    0  0.00000000000E+00  0.00000000000E+00  0.22107742671E+04  0.23499906760E+04  0.79682703103E+03 0.  0.
        5    1    3    3  502    0 -0.12840675965E+03 -0.22461097488E+03  0.19988143911E+04  0.20154948390E+04  0.46999998093E+01 0.  1.
       -5    1    3    3    0  502  0.12840675965E+03  0.22461097488E+03  0.21195987598E+03  0.33449583702E+03  0.46999998093E+01 0. -1.
</event>
<event>
 5   0  0.2077795E-02  0.7745298E+03  0.7818609E-02  0.9597634E-01
        1   -1    0    0  501    0  0.00000000000E+00  0.00000000000E+00  0.11705293225E+04  0.11705293225E+04  0.50400001928E-02 0.  1.
       -1   -1    0    0    0  501  0.00000000000E+00  0.00000000000E+00 -0.12812504307E+03  0.12812504317E+03  0.50400001928E-02 0. -1.
    10030    2    1    2    0    0  0.00000000000E+00  0.00000000000E+00  0.10424042795E+04  0.12986543657E+04  0.77452984433E+03 0.  0.
        5    1    3    3  502    0 -0.24593536976E+03  0.27801275361E+03  0.33618123135E+03  0.50081454410E+03  0.46999998093E+01 0. -1.
       -5    1    3    3    0  502  0.24593536976E+03 -0.27801275361E+03  0.70622304811E+03  0.79783982161E+03  0.46999998093E+01 0.  1.
</event>
<event>
 5   0  0.2063692E-02  0.8050134E+03  0.7818609E-02  0.9552789E-01
        1   -1    0    0  501    0  0.00000000000E+00  0.00000000000E+00  0.29638548124E+04  0.29638548124E+04  0.50400001928E-02 0. -1.
       -1   -1    0    0    0  501  0.00000000000E+00  0.00000000000E+00 -0.54662479510E+02  0.54662479742E+02  0.50400001928E-02 0.  1.
    10030    2    1    2    0    0  0.00000000000E+00  0.00000000000E+00  0.29091923329E+04  0.30185172922E+04  0.80501342426E+03 0.  0.
        2    1    3    3  502    0 -0.94844652249E+02 -0.24748487041E+03  0.25904821005E+04  0.26040049505E+04  0.25500000920E-02 0. -1.
       -2    1    3    3    0  502  0.94844652249E+02  0.24748487041E+03  0.31871023236E+03  0.41451234162E+03  0.25500000920E-02 0.  1.
</event>
<event>
 5   0  0.3404132E-02  0.8060589E+03  0.7818609E-02  0.9551288E-01
        2   -1    0    0  501    0  0.00000000000E+00  0.00000000000E+00  0.10675654725E+04  0.10675654725E+04  0.25500000920E-02 0.  1.
       -2   -1    0    0    0  501  0.00000000000E+00  0.00000000000E+00 -0.15215246590E+03  0.15215246592E+03  0.25500000920E-02 0. -1.
    10030    2    1    2    0    0  0.00000000000E+00  0.00000000000E+00  0.91541300658E+03  0.12197179384E+04  0.80605885434E+03 0.  0.
        5    1    3    3  502    0  0.39369256459E+03 -0.57218120818E+02  0.55510311673E+03  0.68295630091E+03  0.46999998093E+01 0.  1.
       -5    1    3    3    0  502 -0.39369256459E+03  0.57218120818E+02  0.36030988985E+03  0.53676163749E+03  0.46999998093E+01 0. -1.
</event>
<event>
 5   0  0.3416160E-02  0.7989483E+03  0.7818609E-02  0.9561541E-01
       -2   -1    0    0    0  501  0.00000000000E+00  0.00000000000E+00  0.27120956727E+03  0.27120956728E+03  0.25500000920E-02 0. -1.
        2   -1    0    0  501    0  0.00000000000E+00  0.00000000000E+00 -0.58839956209E+03  0.58839956209E+03  0.25500000920E-02 0.  1.
    10030    2    1    2    0    0  0.00000000000E+00  0.00000000000E+00 -0.31718999482E+03  0.85960912938E+03  0.79894828525E+03 0.  0.
        1    1    3    3  502    0 -0.19865940074E+03 -0.13631124448E+03  0.18424110843E+03  0.30330034444E+03  0.50400001928E-02 0. -1.
       -1    1    3    3    0  502  0.19865940074E+03  0.13631124448E+03 -0.50143110325E+03  0.55630878494E+03  0.50400001928E-02 0.  1.
</event>
<event>
 5   0  0.2063692E-02  0.7337436E+03  0.7818609E-02  0.9661205E-01
       -1   -1    0    0    0  501  0.00000000000E+00  0.00000000000E+00  0.18391884537E+03  0.18391884544E+03  0.50400001928E-02 0.  1.
        1   -1    0    0  501    0  0.00000000000E+00  0.00000000000E+00 -0.73181695520E+03  0.73181695522E+03  0.50400001928E-02 0. -1.
    10030    2    1    2    0    0  0.00000000000E+00  0.00000000000E+00 -0.54789810983E+03  0.91573580067E+03  0.73374363225E+03 0.  0.
        2    1    3    3  502    0  0.22914133984E+03 -0.89313130695E+02 -0.61370816651E+03  0.66115074120E+03  0.25500000920E-02 0. -1.
       -2    1    3    3    0  502 -0.22914133984E+03  0.89313130695E+02  0.65810056680E+02  0.25458505947E+03  0.25500000920E-02 0.  1.
</event>
<event>
 5   0  0.3416160E-02  0.7428682E+03  0.7818609E-02  0.9646606E-01
        2   -1    0    0  501    0  0.00000000000E+00  0.00000000000E+00  0.86530337071E+03  0.86530337071E+03  0.25500000920E-02 0. -1.
       -2   -1    0    0    0  501  0.00000000000E+00  0.00000000000E+00 -0.15943923602E+03  0.15943923604E+03  0.25500000920E-02 0.  1.
    10030    2    1    2    0    0  0.00000000000E+00  0.00000000000E+00  0.70586413469E+03  0.10247426067E+04  0.74286824771E+03 0.  0.
        1    1    3    3  502    0  0.13332344374E+03 -0.26741799473E+03  0.65727237448E+03  0.72200727062E+03  0.50400001928E-02 0. -1.
       -1    1    3    3    0  502 -0.13332344374E+03  0.26741799473E+03  0.48591760211E+02  0.30273533613E+03  0.50400001928E-02 0.  1.
</event>
<event>
 5   0  0.2132540E-02  0.7936442E+03  0.7818609E-02  0.9569263E-01
       -1   -1    0    0    0  501  0.00000000000E+00  0.00000000000E+00  0.36228899821E+03  0.36228899824E+03  0.50400001928E-02 0. -1.
        1   -1    0    0  501    0  0.00000000000E+00  0.00000000000E+00 -0.43464681546E+03  0.43464681549E+03  0.50400001928E-02 0.  1.
    10030    2    1    2    0    0  0.00000000000E+00  0.00000000000E+00 -0.72357817256E+02  0.79693581374E+03  0.79364415042E+03 0.  0.
        4    1    3    3  502    0 -0.35646949364E+03  0.31995163501E+02 -0.20827220749E+03  0.41409312443E+03  0.12699999809E+01 0.  1.
       -4    1    3    3    0  502  0.35646949364E+03 -0.31995163501E+02  0.13591439023E+03  0.38284268931E+03  0.12699999809E+01 0. -1.
</event>
<event>
 5   0  0.1358000E-02  0.7990719E+03  0.7818609E-02  0.9561361E-01
       -3   -1    0    0    0  501  0.00000000000E+00  0.00000000000E+00  0.15298728574E+04  0.15298728608E+04  0.10100000352E+00 0.  1.
        3   -1    0    0  501    0  0.00000000000E+00  0.00000000000E+00 -0.10434130255E+03  0.10434135143E+03  0.10100000352E+00 0. -1.
    10030    2    1    2    0    0  0.00000000000E+00  0.00000000000E+00  0.14255315549E+04  0.16342142122E+04  0.79907188498E+03 0.  0.
        3    1    3    3  502    0  0.30669670983E+03 -0.19971215257E+03  0.38502512730E+03  0.53121763389E+03  0.10100000352E+00 0. -1.
       -3    1    3    3    0  502 -0.30669670983E+03  0.19971215257E+03  0.10405064276E+04  0.11029965783E+04  0.10100000352E+00 0.  1.
</event>
<event>
 5   0  0.3550586E-02  0.8326423E+03  0.7818609E-02  0.9513935E-01
        2   -1    0    0  501    0  0.00000000000E+00  0.00000000000E+00  0.48875925128E+03  0.48875925128E+03  0.25500000920E-02 0.  1.
       -2   -1    0    0    0  501  0.00000000000E+00  0.00000000000E+00 -0.35461899280E+03  0.35461899280E+03  0.25500000920E-02 0. -1.
    10030    2    1    2    0    0  0.00000000000E+00  0.00000000000E+00  0.13414025848E+03  0.84337824409E+03  0.83264233237E+03 0.  0.
        3    1    3    3  502    0 -0.17781093542E+03 -0.16287973162E+03 -0.27668275392E+03  0.36701483927E+03  0.10100000352E+00 0. -1.
       -3    1    3    3    0  502  0.17781093542E+03  0.16287973162E+03  0.41082301240E+03  0.47636340482E+03  0.10100000352E+00 0.  1.
</event>
<event>
 5   0  0.2132540E-02  0.7807040E+03  0.7818609E-02  0.9588375E-01
       -1   -1    0    0    0  501  0.00000000000E+00  0.00000000000E+00  0.21585418140E+03  0.21585418145E+03  0.50400001928E-02 0. -1.
        1   -1    0    0  501    0  0.00000000000E+00  0.00000000000E+00 -0.70591484041E+03  0.70591484043E+03  0.50400001928E-02 0.  1.
    10030    2    1    2    0    0  0.00000000000E+00  0.00000000000E+00 -0.49006065902E+03  0.92176902188E+03  0.78070396450E+03 0.  0.
        4    1    3    3  502    0  0.18690130676E+03  0.33450321804E+03 -0.33297827587E+03  0.50764224258E+03  0.12699999809E+01 0. -1.
       -4    1    3    3    0  502 -0.18690130676E+03 -0.33450321804E+03 -0.15708238314E+03  0.41412677931E+03  0.12699999809E+01 0.  1.
</event>
<event>
 5   0  0.3550586E-02  0.7642920E+03  0.7818609E-02  0.9613191E-01
       -2   -1    0    0    0  501  0.00000000000E+00  0.00000000000E+00  0.15604018150E+03  0.15604018152E+03  0.25500000920E-02 0. -1.
        2   -1    0    0  501    0  0.00000000000E+00  0.00000000000E+00 -0.93588446832E+03  0.93588446833E+03  0.25500000920E-02 0.  1.
    10030    2    1    2    0    0  0.00000000000E+00  0.00000000000E+00 -0.77984428682E+03  0.10919246498E+04  0.76429204448E+03 0.  0.
        3    1    3    3  502    0 -0.89204152002E+02 -0.14932437844E+03  0.96206145111E+02  0.19877319560E+03  0.10100000352E+00 0. -1.
       -3    1    3    3    0  502  0.89204152002E+02  0.14932437844E+03 -0.87605043193E+03  0.89315145425E+03  0.10100000352E+00 0.  1.
</event>
<event>
 5   0  0.3343036E-02  0.7932319E+03  0.7818609E-02  0.9569866E-01
       -2   -1    0    0    0  501  0.00000000000E+00  0.00000000000E+00  0.24919452436E+03  0.24919452437E+03  0.25500000920E-02 0.  1.
        2   -1    0    0  501    0  0.00000000000E+00  0.00000000000E+00 -0.63125062372E+03  0.63125062372E+03  0.25500000920E-02 0. -1.
    10030    2    1    2    0    0  0.00000000000E+00  0.00000000000E+00 -0.38205609936E+03  0.88044514809E+03  0.79323186758E+03 0.  0.
        4    1    3    3  502    0 -0.11317933583E+02  0.31632455333E+03 -0.45628737110E+03  0.55532791807E+03  0.12699999809E+01 0. -1.
       -4    1    3    3    0  502  0.11317933583E+02 -0.31632455333E+03  0.74231271740E+02  0.32511723003E+03  0.12699999809E+01 0.  1.
</event>
<event>
 5   0  0.3467240E-02  0.8087795E+03  0.7818609E-02  0.9547395E-01
        2   -1    0    0  501    0  0.00000000000E+00  0.00000000000E+00  0.13192972015E+04  0.13192972015E+04  0.25500000920E-02 0. -1.
       -2   -1    0    0    0  501  0.00000000000E+00  0.00000000000E+00 -0.12395317609E+03  0.12395317612E+03  0.25500000920E-02 0.  1.
    10030    2    1    2    0    0  0.00000000000E+00  0.00000000000E+00  0.11953440254E+04  0.14432503776E+04  0.80877952090E+03 0.  0.
        2    1    3    3  502    0  0.98444174752E+02 -0.17211194992E+03 -0.31258370267E+02  0.20072584429E+03  0.25500000920E-02 0.  1.
       -2    1    3    3    0  502 -0.98444174752E+02  0.17211194992E+03  0.12266023957E+04  0.12425245334E+04  0.25500000920E-02 0. -1.
</event>
<event>
 5   0  0.3467240E-02  0.7902967E+03  0.7818609E-02  0.9574169E-01
       -2   -1    0    0    0  501  0.00000000000E+00  0.00000000000E+00  0.78843255961E+03  0.78843255962E+03  0.25500000920E-02 0.  1.
        2   -1    0    0  501    0  0.00000000000E+00  0.00000000000E+00 -0.19804133665E+03  0.19804133667E+03  0.25500000920E-02 0. -1.
    10030    2    1    2    0    0  0.00000000000E+00  0.00000000000E+00  0.59039122296E+03  0.98647389628E+03  0.79029674926E+03 0.  0.
        2    1    3    3  502    0  0.38401228129E+03 -0.50760283766E+01  0.17909632380E+03  0.42375310199E+03  0.25500000920E-02 0. -1.
       -2    1    3    3    0  502 -0.38401228129E+03  0.50760283766E+01  0.41129489916E+03  0.56272079429E+03  0.25500000920E-02 0.  1.
</event>
<event>
 5   0  0.2063692E-02  0.7956736E+03  0.7818609E-02  0.9566301E-01
       -1   -1    0    0    0  501  0.00000000000E+00  0.00000000000E+00  0.21037162801E+03  0.21037162807E+03  0.50400001928E-02 0.  1.
        1   -1    0    0  501    0  0.00000000000E+00  0.00000000000E+00 -0.75235487387E+03  0.75235487389E+03  0.50400001928E-02 0. -1.
    10030    2    1    2    0    0  0.00000000000E+00  0.00000000000E+00 -0.54198324586E+03  0.96272650195E+03  0.79567360065E+03 0.  0.
        2    1    3    3  502    0 -0.86579470013E+02 -0.72361895550E+02  0.19060429046E+03  0.22149998669E+03  0.25500000920E-02 0.  1.
       -2    1    3    3    0  502  0.86579470013E+02  0.72361895550E+02 -0.73258753632E+03  0.74122651527E+03  0.25500000920E-02 0. -1.
</event>
<event>
 5   0  0.3467240E-02  0.8142230E+03  0.7818609E-02  0.9539655E-01
        2   -1    0    0  501    0  0.00000000000E+00  0.00000000000E+00  0.17836328551E+04  0.17836328551E+04  0.25500000920E-02 0.  1.
       -2   -1    0    0    0  501  0.00000000000E+00  0.00000000000E+00 -0.92922581514E+02  0.92922581549E+02  0.25500000920E-02 0. -1.
    10030    2    1    2    0    0  0.00000000000E+00  0.00000000000E+00  0.16907102736E+04  0.18765554367E+04  0.81422299011E+03 0.  0.
        2    1    3    3  502    0 -0.25792433335E+03 -0.27388251256E+03  0.12039088514E+04  0.12613219712E+04  0.25500000920E-02 0.  1.
       -2    1    3    3    0  502  0.25792433335E+03  0.27388251256E+03  0.48680142218E+03  0.61523346550E+03  0.25500000920E-02 0. -1.
</event>
<event>
 5   0  0.3404132E-02  0.8058867E+03  0.7818609E-02  0.9551535E-01
       -2   -1    0    0    0  501  0.00000000000E+00  0.00000000000E+00  0.14541945949E+03  0.14541945952E+03  0.25500000920E-02 0.  1.
        2   -1    0    0  501    0  0.00000000000E+00  0.00000000000E+00 -0.11165173460E+04  0.11165173460E+04  0.25500000920E-02 0. -1.
    10030    2    1    2    0    0  0.00000000000E+00  0.00000000000E+00 -0.97109788652E+03  0.12619368055E+04  0.80588671409E+03 0.  0.
        5    1    3    3  502    0 -0.63390222977E+02  0.27187651949E+03 -0.30612717984E+02  0.28088145314E+03  0.46999998093E+01 0.  1.
       -5    1    3    3    0  502  0.63390222977E+02 -0.27187651949E+03 -0.94048516854E+03  0.98105535239E+03  0.46999998093E+01 0. -1.
</event>
<event>
 5   0  0.3404132E-02  0.7996513E+03  0.7818609E-02  0.9560522E-01
       -2   -1    0    0    0  501  0.00000000000E+00  0.00000000000E+00  0.20165088950E+03  0.20165088952E+03  0.25500000920E-02 0. -1.
        2   -1    0    0  501    0  0.00000000000E+00  0.00000000000E+00 -0.79275891297E+03  0.79275891298E+03  0.25500000920E-02 0.  1.
    10030    2    1    2    0    0  0.00000000000E+00  0.00000000000E+00 -0.59110802347E+03  0.99440980249E+03  0.79965127392E+03 0.  0.
        5    1    3    3  502    0  0.29741017209E+03 -0.20799155589E+03 -0.87003046670E+02  0.37323574040E+03  0.46999998093E+01 0. -1.
       -5    1    3    3    0  502 -0.29741017209E+03  0.20799155589E+03 -0.50410497680E+03  0.62117406209E+03  0.46999998093E+01 0.  1.
</event>
<event>
 5   0  0.3550586E-02  0.8006494E+03  0.7818609E-02  0.9559078E-01
        2   -1    0    0  501    0  0.00000000000E+00  0.00000000000E+00  0.13350828390E+04  0.13350828390E+04  0.25500000920E-02 0. -1.
       -2   -1    0    0    0  501  0.00000000000E+00  0.00000000000E+00 -0.12003739438E+03  0.12003739441E+03  0.25500000920E-02 0.  1.
    10030    2    1    2    0    0  0.00000000000E+00  0.00000000000E+00  0.12150454446E+04  0.14551202334E+04  0.80064939968E+03 0.  0.
        3    1    3    3  502    0 -0.14540043405E+03  0.75422270882E+02 -0.56347702676E+02  0.17321916454E+03  0.10100000352E+00 0.  1.
       -3    1    3    3    0  502  0.14540043405E+03 -0.75422270882E+02  0.12713931473E+04  0.12819010689E+04  0.10100000352E+00 0. -1.
</event>
<event>
 5   0  0.2077795E-02  0.8055474E+03  0.7818609E-02  0.9552022E-01
        1   -1    0    0  501    0  0.00000000000E+00  0.00000000000E+00  0.97562002360E+03  0.97562002361E+03  0.50400001928E-02 0.  1.
       -1   -1    0    0    0  501  0.00000000000E+00  0.00000000000E+00 -0.16628055788E+03  0.16628055796E+03  0.50400001928E-02 0. -1.
    10030    2    1    2    0    0  0.00000000000E+00  0.00000000000E+00  0.80933946572E+03  0.11419005816E+04  0.80554737130E+03 0.  0.
        5    1    3    3  502    0  0.19713451207E+03 -0.30804645748E+03  0.16557076362E+03  0.40148524703E+03  0.46999998093E+01 0. -1.
       -5    1    3    3    0  502 -0.19713451207E+03  0.30804645748E+03  0.64376870210E+03  0.74041533454E+03  0.46999998093E+01 0.  1.
</event>
<event>
 5   0  0.1989298E-02  0.8039324E+03  0.7818609E-02  0.9554343E-01
       -1   -1    0    0    0  501  0.00000000000E+00  0.00000000000E+00  0.38572127264E+03  0.38572127267E+03  0.50400001928E-02 0. -1.
        1   -1    0    0  501    0  0.00000000000E+00  0.00000000000E+00 -0.41889525441E+03  0.41889525444E+03  0.50400001928E-02 0.  1.
    10030    2    1    2    0    0  0.00000000000E+00  0.00000000000E+00 -0.33173981765E+02  0.80461652711E+03  0.80393236198E+03 0.  0.
        1    1    3    3  502    0 -0.81322674657E+01  0.24847488773E+03  0.29954714838E+03  0.38927419351E+03  0.50400001928E-02 0. -1.
       -1    1    3    3    0  502  0.81322674657E+01 -0.24847488773E+03 -0.33272113015E+03  0.41534233360E+03  0.50400001928E-02 0.  1.
</event>
<event>
 5   0  0.3550586E-02  0.8020287E+03  0.7818609E-02  0.9557085E-01
        2   -1    0    0  501    0  0.00000000000E+00  0.00000000000E+00  0.61465319638E+03  0.61465319638E+03  0.25500000920E-02 0.  1.
       -2   -1    0    0    0  501  0.00000000000E+00  0.00000000000E+00 -0.26163127603E+03  0.26163127604E+03  0.25500000920E-02 0. -1.
    10030    2    1    2    0    0  0.00000000000E+00  0.00000000000E+00  0.35302192035E+03  0.87628447243E+03  0.80202867802E+03 0.  0.
        3    1    3    3  502    0  0.11094102925E+03  0.35601854653E+03  0.33766399182E+03  0.50306470659E+03  0.10100000352E+00 0.  1.
       -3    1    3    3    0  502 -0.11094102925E+03 -0.35601854653E+03  0.15357928527E+02  0.37321976584E+03  0.10100000352E+00 0. -1.
</event>
<event>
 5   0  0.1358000E-02  0.8871369E+03  0.7818609E-02  0.9441805E-01
        4   -1    0    0  501    0  0.00000000000E+00  0.00000000000E+00  0.64297237173E+03  0.64297362598E+03  0.12699999809E+01 0.  1.
       -4   -1    0    0    0  501  0.00000000000E+00  0.00000000000E+00 -0.30600243350E+03  0.30600506892E+03  0.12699999809E+01 0. -1.
    10030    2    1    2    0    0  0.00000000000E+00  0.00000000000E+00  0.33696993823E+03  0.94897869490E+03  0.88713686887E+03 0.  0.
        1    1    3    3  502    0 -0.14359221230E+03  0.41966535637E+03  0.16431156249E+03  0.47300742528E+03  0.50400001928E-02 0. -1.
       -1    1    3    3    0  502  0.14359221230E+03 -0.41966535637E+03  0.17265837574E+03  0.47597126963E+03  0.50400001928E-02 0.  1.
</event>
<event>
 5   0  0.3343036E-02  0.8112722E+03  0.7818609E-02  0.9543843E-01
        2   -1    0    0  501    0  0.00000000000E+00  0.00000000000E+00  0.96058876576E+03  0.96058876576E+03  0.25500000920E-02 0.  1.
       -2   -1    0    0    0  501  0.00000000000E+00  0.00000000000E+00 -0.17129144896E+03  0.17129144898E+03  0.25500000920E-02 0. -1.
    10030    2    1    2    0    0  0.00000000000E+00  0.00000000000E+00  0.78929731679E+03  0.11318802147E+04  0.81127218997E+03 0.  0.
        4    1    3    3  502    0 -0.85070436395E+02  0.28802029124E+03  0.14228310179E+02  0.30066048132E+03  0.12699999809E+01 0. -1.
       -4    1    3    3    0  502  0.85070436395E+02 -0.28802029124E+03  0.77506900661E+03  0.83121973342E+03  0.12699999809E+01 0.  1.
</event>
<event>
 5   0  0.1358000E-02  0.7980163E+03  0.7818609E-02  0.9562893E-01
        3   -1    0    0  501    0  0.00000000000E+00  0.00000000000E+00  0.44116120927E+03  0.44116122083E+03  0.10100000352E+00 0.  1.
       -3   -1    0    0    0  501  0.00000000000E+00  0.00000000000E+00 -0.36088278557E+03  0.36088279970E+03  0.10100000352E+00 0. -1.
    10030    2    1    2    0    0  0.00000000000E+00  0.00000000000E+00  0.80278423703E+02  0.80204402054E+03  0.79801628152E+03 0.  0.
        1    1    3    3  502    0  0.36282152798E+03  0.11654678664E+03 -0.78715349107E+02  0.38912558494E+03  0.50400001928E-02 0. -1.
       -1    1    3    3    0  502 -0.36282152798E+03 -0.11654678664E+03  0.15899377281E+03  0.41291843560E+03  0.50400001928E-02 0.  1.
</event>
<event>
 5   0  0.2132540E-02  0.7741087E+03  0.7818609E-02  0.9598269E-01
        1   -1    0    0  501    0  0.00000000000E+00  0.00000000000E+00  0.68022637457E+03  0.68022637459E+03  0.50400001928E-02 0.  1.
       -1   -1    0    0    0  501  0.00000000000E+00  0.00000000000E+00 -0.22023709143E+03  0.22023709148E+03  0.50400001928E-02 0. -1.
    10030    2    1    2    0    0  0.00000000000E+00  0.00000000000E+00  0.45998928314E+03  0.90046346607E+03  0.77410872177E+03 0.  0.
        4    1    3    3  502    0 -0.10788822526E+03 -0.16236114936E+03  0.61895152047E+03  0.64892496451E+03  0.12699999809E+01 0.  1.
       -4    1    3    3    0  502  0.10788822526E+03  0.16236114936E+03 -0.15896223733E+03  0.25153850156E+03  0.12699999809E+01 0. -1.
</event>
<event>
 5   0  0.3343036E-02  0.8088294E+03  0.7818609E-02  0.9547324E-01
        2   -1    0    0  501    0  0.00000000000E+00  0.00000000000E+00  0.32660536372E+03  0.32660536373E+03  0.25500000920E-02 0.  1.
       -2   -1    0    0    0  501  0.00000000000E+00  0.00000000000E+00 -0.50076109184E+03  0.50076109185E+03  0.25500000920E-02 0. -1.
    10030    2    1    2    0    0  0.00000000000E+00  0.00000000000E+00 -0.17415572812E+03  0.82736645557E+03  0.80882942217E+03 0.  0.
        4    1    3    3  502    0  0.30160961806E+03  0.16323156482E+03 -0.30631850079E+03  0.45983208053E+03  0.12699999809E+01 0. -1.
       -4    1    3    3    0  502 -0.30160961806E+03 -0.16323156482E+03  0.13216277267E+03  0.36753437504E+03  0.12699999809E+01 0.  1.
</event>
<event>
 5   0  0.3416160E-02  0.8008593E+03  0.7818609E-02  0.9558774E-01
       -2   -1    0    0    0  501  0.00000000000E+00  0.00000000000E+00  0.14864042792E+03  0.14864042794E+03  0.25500000920E-02 0.  1.
        2   -1    0    0  501    0  0.00000000000E+00  0.00000000000E+00 -0.10787367906E+04  0.10787367906E+04  0.25500000920E-02 0. -1.
    10030    2    1    2    0    0  0.00000000000E+00  0.00000000000E+00 -0.93009636267E+03  0.12273772185E+04  0.80085928397E+03 0.  0.
        1    1    3    3  502    0 -0.27587564147E+03  0.29020758283E+03 -0.47119521618E+03  0.61834678172E+03  0.50400001928E-02 0.  1.
       -1    1    3    3    0  502  0.27587564147E+03 -0.29020758283E+03 -0.45890114649E+03  0.60903043681E+03  0.50400001928E-02 0. -1.
</event>
<event>
 5   0  0.3467240E-02  0.5777490E+03  0.7818609E-02  0.9952676E-01
       -2   -1    0    0    0  501  0.00000000000E+00  0.00000000000E+00  0.13055050862E+03  0.13055050865E+03  0.25500000920E-02 0. -1.
        2   -1    0    0  501    0  0.00000000000E+00  0.00000000000E+00 -0.63920446788E+03  0.63920446789E+03  0.25500000920E-02 0.  1.
    10030    2    1    2    0    0  0.00000000000E+00  0.00000000000E+00 -0.50865395926E+03  0.76975497654E+03  0.57774897112E+03 0.  0.
        2    1    3    3  502    0 -0.15843942672E+02  0.12514897921E+03 -0.60056784628E+03  0.61367339482E+03  0.25500000920E-02 0.  1.
       -2    1    3    3    0  502  0.15843942672E+02 -0.12514897921E+03  0.91913887023E+02  0.15608158172E+03  0.25500000920E-02 0. -1.
</event>
<event>
 5   0  0.2129257E-02  0.8161711E+03  0.7818609E-02  0.9536901E-01
        1   -1    0    0  501    0  0.00000000000E+00  0.00000000000E+00  0.63371807957E+03  0.63371807959E+03  0.50400001928E-02 0. -1.
       -1   -1    0    0    0  501  0.00000000000E+00  0.00000000000E+00 -0.26278850938E+03  0.26278850942E+03  0.50400001928E-02 0.  1.
    10030    2    1    2    0    0  0.00000000000E+00  0.00000000000E+00  0.37092957019E+03  0.89650658901E+03  0.81617113285E+03 0.  0.
        3    1    3    3  502    0  0.32450377567E+02 -0.40659199184E+03  0.19952058614E+03  0.45406888170E+03  0.10100000352E+00 0. -1.
       -3    1    3    3    0  502 -0.32450377567E+02  0.40659199184E+03  0.17140898405E+03  0.44243770731E+03  0.10100000352E+00 0.  1.
</event>
<event>
 5   0  0.1358000E-02  0.7335446E+03  0.7818609E-02  0.9661526E-01
       -3   -1    0    0    0  501  0.00000000000E+00  0.00000000000E+00  0.65334253684E+03  0.65334254465E+03  0.10100000352E+00 0. -1.
        3   -1    0    0  501    0  0.00000000000E+00  0.00000000000E+00 -0.20589799344E+03  0.20589801821E+03  0.10100000352E+00 0.  1.
    10030    2    1    2    0    0  0.00000000000E+00  0.00000000000E+00  0.44744454341E+03  0.85924056286E+03  0.73354463084E+03 0.  0.
        4    1    3    3  502    0 -0.10234655844E+03  0.32373039075E+03  0.38621630576E+03  0.51423810794E+03  0.12699999809E+01 0. -1.
       -4    1    3    3    0  502  0.10234655844E+03 -0.32373039075E+03  0.61228237642E+02  0.34500245492E+03  0.12699999809E+01 0.  1.
</event>
<event>
 5   0  0.1989298E-02  0.8759253E+03  0.7818609E-02  0.9456187E-01
        1   -1    0    0  501    0  0.00000000000E+00  0.00000000000E+00  0.63053389420E+03  0.63053389422E+03  0.50400001928E-02 0. -1.
       -1   -1    0    0    0  501  0.00000000000E+00  0.00000000000E+00 -0.30420452846E+03  0.30420452850E+03  0.50400001928E-02 0.  1.
    10030    2    1    2    0    0  0.00000000000E+00  0.00000000000E+00  0.32632936574E+03  0.93473842272E+03  0.87592526163E+03 0.  0.
        1    1    3    3  502    0 -0.17580951487E+03 -0.38459668235E+03  0.41549245636E+02  0.42491167722E+03  0.50400001928E-02 0. -1.
       -1    1    3    3    0  502  0.17580951487E+03  0.38459668235E+03  0.28478012010E+03  0.50982674550E+03  0.50400001928E-02 0.  1.
</event>
<event>
 5   0  0.2063692E-02  0.7907105E+03  0.7818609E-02  0.9573561E-01
        1   -1    0    0  501    0  0.00000000000E+00  0.00000000000E+00  0.13520432243E+04  0.13520432243E+04  0.50400001928E-02 0.  1.
       -1   -1    0    0    0  501  0.00000000000E+00  0.00000000000E+00 -0.11560709315E+03  0.11560709326E+03  0.50400001928E-02 0. -1.
    10030    2    1    2    0    0  0.00000000000E+00  0.00000000000E+00  0.12364361312E+04  0.14676503176E+04  0.79071053380E+03 0.  0.
        2    1    3    3  502    0  0.33517374381E+02  0.28885709146E+03  0.11153798300E+04  0.11526638707E+04  0.25500000920E-02 0.  1.
       -2    1    3    3    0  502 -0.33517374381E+02 -0.28885709146E+03  0.12105630122E+03  0.31498644692E+03  0.25500000920E-02 0. -1.
</event>
<event>
 5   0  0.3467240E-02  0.8038690E+03  0.7818609E-02  0.9554434E-01
       -2   -1    0    0    0  501  0.00000000000E+00  0.00000000000E+00  0.17051988425E+03  0.17051988427E+03  0.25500000920E-02 0.  1.
        2   -1    0    0  501    0  0.00000000000E+00  0.00000000000E+00 -0.94740473997E+03  0.94740473997E+03  0.25500000920E-02 0. -1.
    10030    2    1    2    0    0  0.00000000000E+00  0.00000000000E+00 -0.77688485572E+03  0.11179246242E+04  0.80386901074E+03 0.  0.
        2    1    3    3  502    0  0.25177091739E+03 -0.21623619399E+03 -0.73139152886E+02  0.33984705696E+03  0.25500000920E-02 0.  1.
       -2    1    3    3    0  502 -0.25177091739E+03  0.21623619399E+03 -0.70374570283E+03  0.77807756727E+03  0.25500000920E-02 0. -1.
</event>
<event>
 5   0  0.3404132E-02  0.6488457E+03  0.7818609E-02  0.9808948E-01
       -2   -1    0    0    0  501  0.00000000000E+00  0.00000000000E+00  0.18525705235E+03  0.18525705237E+03  0.25500000920E-02 0.  1.
        2   -1    0    0  501    0  0.00000000000E+00  0.00000000000E+00 -0.56813054381E+03  0.56813054381E+03  0.25500000920E-02 0. -1.
    10030    2    1    2    0    0  0.00000000000E+00  0.00000000000E+00 -0.38287349146E+03  0.75338759618E+03  0.64884571326E+03 0.  0.
        5    1    3    3  502    0 -0.21748305171E+03  0.23569614595E+03 -0.24804117350E+03  0.40546031217E+03  0.46999998093E+01 0. -1.
       -5    1    3    3    0  502  0.21748305171E+03 -0.23569614595E+03 -0.13483231796E+03  0.34792728401E+03  0.46999998093E+01 0.  1.
</event>
<event>
 5   0  0.1989298E-02  0.8062254E+03  0.7818609E-02  0.9551050E-01
        1   -1    0    0  501    0  0.00000000000E+00  0.00000000000E+00  0.56166631532E+03  0.56166631534E+03  0.50400001928E-02 0. -1.
       -1   -1    0    0    0  501  0.00000000000E+00  0.00000000000E+00 -0.28931740955E+03  0.28931740959E+03  0.50400001928E-02 0.  1.
    10030    2    1    2    0    0  0.00000000000E+00  0.00000000000E+00  0.27234890577E+03  0.85098372494E+03  0.80622538637E+03 0.  0.
        1    1    3    3  502    0 -0.63641129667E+02 -0.19092087912E+03  0.50484860112E+03  0.54348236912E+03  0.50400001928E-02 0. -1.
       -1    1    3    3    0  502  0.63641129667E+02  0.19092087912E+03 -0.23249969534E+03  0.30750135582E+03  0.50400001928E-02 0.  1.
</event>
<event>
 5   0  0.3416160E-02  0.7942256E+03  0.7818609E-02  0.9568413E-01
        2   -1    0    0  501    0  0.00000000000E+00  0.00000000000E+00  0.21271796274E+04  0.21271796274E+04  0.25500000920E-02 0.  1.
       -2   -1    0    0    0  501  0.00000000000E+00  0.00000000000E+00 -0.74135045017E+02  0.74135045061E+02  0.25500000920E-02 0. -1.
    10030    2    1    2    0    0  0.00000000000E+00  0.00000000000E+00  0.20530445823E+04  0.22013146724E+04  0.79422555356E+03 0.  0.
        1    1    3    3  502    0 -0.13045975910E+03  0.87240336179E+02  0.20375777464E+04  0.20436129031E+04  0.50400001928E-02 0.  1.
       -1    1    3    3    0  502  0.13045975910E+03 -0.87240336179E+02  0.15466835898E+02  0.15770176929E+03  0.50400001928E-02 0. -1.
</event>
<event>
 5   0  0.2132540E-02  0.8053585E+03  0.7818609E-02  0.9552293E-01
       -1   -1    0    0    0  501  0.00000000000E+00  0.00000000000E+00  0.25199414537E+03  0.25199414542E+03  0.50400001928E-02 0.  1.
        1   -1    0    0  501    0  0.00000000000E+00  0.00000000000E+00 -0.64346965307E+03  0.64346965309E+03  0.50400001928E-02 0. -1.
    10030    2    1    2    0    0  0.00000000000E+00  0.00000000000E+00 -0.39147550770E+03  0.89546379852E+03  0.80535851726E+03 0.  0.
        4    1    3    3  502    0  0.17202856949E+02  0.16757364815E+03  0.21093170716E+03  0.26994566828E+03  0.12699999809E+01 0.  1.
       -4    1    3    3    0  502 -0.17202856949E+02 -0.16757364815E+03 -0.60240721486E+03  0.62551813024E+03  0.12699999809E+01 0. -1.
</event>
<event>
 5   0  0.3404132E-02  0.7637437E+03  0.7818609E-02  0.9614032E-01
       -2   -1    0    0    0  501  0.00000000000E+00  0.00000000000E+00  0.28922271072E+03  0.28922271074E+03  0.25500000920E-02 0.  1.
        2   -1    0    0  501    0  0.00000000000E+00  0.00000000000E+00 -0.50420000770E+03  0.50420000771E+03  0.25500000920E-02 0. -1.
    10030    2    1    2    0    0  0.00000000000E+00  0.00000000000E+00 -0.21497729698E+03  0.79342271845E+03  0.76374365590E+03 0.  0.
        5    1    3    3  502    0 -0.21866346602E+03 -0.62219291272E+02 -0.42619871915E+03  0.48306561644E+03  0.46999998093E+01 0. -1.
       -5    1    3    3    0  502  0.21866346602E+03  0.62219291272E+02  0.21122142218E+03  0.31035710200E+03  0.46999998093E+01 0.  1.
</event>
<event>
 5   0  0.3343036E-02  0.8368781E+03  0.7818609E-02  0.9508120E-01
       -2   -1    0    0    0  501  0.00000000000E+00  0.00000000000E+00  0.22985183852E+03  0.22985183853E+03  0.25500000920E-02 0.  1.
        2   -1    0    0  501    0  0.00000000000E+00  0.00000000000E+00 -0.76175688810E+03  0.76175688811E+03  0.25500000920E-02 0. -1.
    10030    2    1    2    0    0  0.00000000000E+00  0.00000000000E+00 -0.53190504959E+03  0.99160872664E+03  0.83687805860E+03 0.  0.
        4    1    3    3  502    0 -0.67087844120E+00  0.95972640508E+02 -0.74853671625E+03  0.75466550622E+03  0.12699999809E+01 0. -1.
       -4    1    3    3    0  502  0.67087844120E+00 -0.95972640508E+02  0.21663166666E+03  0.23694322042E+03  0.12699999809E+01 0.  1.
</event>
<event>
 5   0  0.3404132E-02  0.7963006E+03  0.7818609E-02  0.9565387E-01
        2   -1    0    0  501    0  0.00000000000E+00  0.00000000000E+00  0.27208086716E+03  0.27208086718E+03  0.25500000920E-02 0.  1.
       -2   -1    0    0    0  501  0.00000000000E+00  0.00000000000E+00 -0.58263440997E+03  0.58263440998E+03  0.25500000920E-02 0. -1.
    10030    2    1    2    0    0  0.00000000000E+00  0.00000000000E+00 -0.31055354281E+03  0.85471527715E+03  0.79630063547E+03 0.  0.
        5    1    3    3  502    0 -0.38387341129E+03 -0.59805496677E+02 -0.24864093661E+03  0.46128071571E+03  0.46999998093E+01 0. -1.
       -5    1    3    3    0  502  0.38387341129E+03  0.59805496677E+02 -0.61912606196E+02  0.39343456144E+03  0.46999998093E+01 0.  1.
</event>
<event>
 5   0  0.3404132E-02  0.7917490E+03  0.7818609E-02  0.9572038E-01
       -2   -1    0    0    0  501  0.00000000000E+00  0.00000000000E+00  0.67114037331E+03  0.67114037332E+03  0.25500000920E-02 0.  1.
        2   -1    0    0  501    0  0.00000000000E+00  0.00000000000E+00 -0.23350793798E+03  0.23350793799E+03  0.25500000920E-02 0. -1.
    10030    2    1    2    0    0  0.00000000000E+00  0.00000000000E+00  0.43763243533E+03  0.90464831131E+03  0.79174896192E+03 0.  0.
        5    1    3    3  502    0 -0.12117215663E+03  0.37662452910E+03  0.20410435052E+03  0.44520714658E+03  0.46999998093E+01 0. -1.
       -5    1    3    3    0  502  0.12117215663E+03 -0.37662452910E+03  0.23352808481E+03  0.45944116474E+03  0.46999998093E+01 0.  1.
</event>
<event>
 5   0  0.1358000E-02  0.8038514E+03  0.7818609E-02  0.9554459E-01
       -4   -1    0    0    0  501  0.00000000000E+00  0.00000000000E+00  0.15790567619E+04  0.15790572726E+04  0.12699999809E+01 0.  1.
        4   -1    0    0  501    0  0.00000000000E+00  0.00000000000E+00 -0.10229981220E+03  0.10230769510E+03  0.12699999809E+01 0. -1.
    10030    2    1    2    0    0  0.00000000000E+00  0.00000000000E+00  0.14767569497E+04  0.16813649677E+04  0.80385139558E+03 0.  0.
        4    1    3    3  502    0  0.36809192799E+03 -0.92555365425E+02  0.46180360585E+03  0.59776445729E+03  0.12699999809E+01 0.  1.
       -4    1    3    3    0  502 -0.36809192799E+03  0.92555365425E+02  0.10149533438E+04  0.10836005104E+04  0.12699999809E+01 0. -1.
</event>
<event>
 5   0  0.3416160E-02  0.7976399E+03  0.7818609E-02  0.9563440E-01
       -2   -1    0    0    0  501  0.00000000000E+00  0.00000000000E+00  0.11527246256E+04  0.11527246256E+04  0.25500000920E-02 0. -1.
        2   -1    0    0  501    0  0.00000000000E+00  0.00000000000E+00 -0.13798382161E+03  0.13798382164E+03  0.25500000920E-02 0.  1.
    10030    2    1    2    0    0  0.00000000000E+00  0.00000000000E+00  0.10147408040E+04  0.12907084472E+04  0.79763989149E+03 0.  0.
        1    1    3    3  502    0  0.33768372335E+03 -0.10111016525E+03  0.20549026737E+03  0.40801937766E+03  0.50400001928E-02 0.  1.
       -1    1    3    3    0  502 -0.33768372335E+03  0.10111016525E+03  0.80925053660E+03  0.88268906957E+03  0.50400001928E-02 0. -1.
</event>
<event>
 5   0  0.2063692E-02  0.8291834E+03  0.7818609E-02  0.9518710E-01
        1   -1    0    0  501    0  0.00000000000E+00  0.00000000000E+00  0.10049863548E+04  0.10049863548E+04  0.50400001928E-02 0.  1.
       -1   -1    0    0    0  501  0.00000000000E+00  0.00000000000E+00 -0.17103346235E+03  0.17103346242E+03  0.50400001928E-02 0. -1.
    10030    2    1    2    0    0  0.00000000000E+00  0.00000000000E+00  0.83395289248E+03  0.11760198173E+04  0.82918344396E+03 0.  0.
        2    1    3    3  502    0  0.35472854549E+03 -0.76528689422E+02  0.70133253936E+03  0.78965581874E+03  0.25500000920E-02 0.  1.
       -2    1    3    3    0  502 -0.35472854549E+03  0.76528689422E+02  0.13262035311E+03  0.38636399853E+03  0.25500000920E-02 0. -1.
</event>
<event>
 5   0  0.3343036E-02  0.7771854E+03  0.7818609E-02  0.9593640E-01
       -2   -1    0    0    0  501  0.00000000000E+00  0.00000000000E+00  0.14946908362E+03  0.14946908364E+03  0.25500000920E-02 0.  1.
        2   -1    0    0  501    0  0.00000000000E+00  0.00000000000E+00 -0.10102709374E+04  0.10102709374E+04  0.25500000920E-02 0. -1.
    10030    2    1    2    0    0  0.00000000000E+00  0.00000000000E+00 -0.86080185379E+03  0.11597400211E+04  0.77718536074E+03 0.  0.
        4    1    3    3  502    0 -0.18303923442E+02  0.14288408107E+03 -0.96895317088E+03  0.97960336591E+03  0.12699999809E+01 0. -1.
       -4    1    3    3    0  502  0.18303923442E+02 -0.14288408107E+03  0.10815131709E+03  0.18013665514E+03  0.12699999809E+01 0.  1.
</event>
<event>
 5   0  0.2129257E-02  0.8266211E+03  0.7818609E-02  0.9522264E-01
        1   -1    0    0  501    0  0.00000000000E+00  0.00000000000E+00  0.73451377259E+03  0.73451377261E+03  0.50400001928E-02 0. -1.
       -1   -1    0    0    0  501  0.00000000000E+00  0.00000000000E+00 -0.23256962581E+03  0.23256962587E+03  0.50400001928E-02 0.  1.
    10030    2    1    2    0    0  0.00000000000E+00  0.00000000000E+00  0.50194414678E+03  0.96708339848E+03  0.82662105775E+03 0.  0.
        3    1    3    3  502    0 -0.10324966567E+03 -0.31402218337E+03 -0.39289595914E+02  0.33288753004E+03  0.10100000352E+00 0.  1.
       -3    1    3    3    0  502  0.10324966567E+03  0.31402218337E+03  0.54123374269E+03  0.63419586844E+03  0.10100000352E+00 0. -1.
</event>
<event>
 5   0  0.3550586E-02  0.8222510E+03  0.7818609E-02  0.9528357E-01
       -2   -1    0    0    0  501  0.00000000000E+00  0.00000000000E+00  0.70814401172E+03  0.70814401172E+03  0.25500000920E-02 0. -1.
        2   -1    0    0  501    0  0.00000000000E+00  0.00000000000E+00 -0.23868618132E+03  0.23868618134E+03  0.25500000920E-02 0.  1.
    10030    2    1    2    0    0  0.00000000000E+00  0.00000000000E+00  0.46945783040E+03  0.94683019306E+03  0.82225103221E+03 0.  0.
        3    1    3    3  502    0  0.16585708616E+03 -0.33145343217E+03  0.43960135601E+03  0.57499505488E+03  0.10100000352E+00 0. -1.
       -3    1    3    3    0  502 -0.16585708616E+03  0.33145343217E+03  0.29856474384E+02  0.37183513818E+03  0.10100000352E+00 0.  1.
</event>
<event>
 5   0  0.2132540E-02  0.8154011E+03  0.7818609E-02  0.9537988E-01
       -1   -1    0    0    0  501  0.00000000000E+00  0.00000000000E+00  0.11940031537E+03  0.11940031547E+03  0.50400001928E-02 0.  1.
        1   -1    0    0  501    0  0.00000000000E+00  0.00000000000E+00 -0.13921214821E+04  0.13921214821E+04  0.50400001928E-02 0. -1.
    10030    2    1    2    0    0  0.00000000000E+00  0.00000000000E+00 -0.12727211667E+04  0.15115217976E+04  0.81540111375E+03 0.  0.
        4    1    3    3  502    0 -0.28473324428E+03  0.12421159988E+03 -0.14690737450E+03  0.34363488113E+03  0.12699999809E+01 0.  1.
       -4    1    3    3    0  502  0.28473324428E+03 -0.12421159988E+03 -0.11258137922E+04  0.11678869165E+04  0.12699999809E+01 0. -1.
</event>
<event>
 5   0  0.3416160E-02  0.7694780E+03  0.7818609E-02  0.9605278E-01
        2   -1    0    0  501    0  0.00000000000E+00  0.00000000000E+00  0.94002148311E+03  0.94002148311E+03  0.25500000920E-02 0. -1.
       -2   -1    0    0    0  501  0.00000000000E+00  0.00000000000E+00 -0.15746885325E+03  0.15746885327E+03  0.25500000920E-02 0.  1.
    10030    2    1    2    0    0  0.00000000000E+00  0.00000000000E+00  0.78255262985E+03  0.10974903364E+04  0.76947801785E+03 0.  0.
        1    1    3    3  502    0 -0.10535918748E+03 -0.10178732692E+03  0.89868473897E+03  0.91054680186E+03  0.50400001928E-02 0. -1.
       -1    1    3    3    0  502  0.10535918748E+03  0.10178732692E+03 -0.11613210911E+03  0.18694353452E+03  0.50400001928E-02 0.  1.
</event>
<event>
 5   0  0.2077795E-02  0.7846164E+03  0.7818609E-02  0.9582555E-01
        1   -1    0    0  501    0  0.00000000000E+00  0.00000000000E+00  0.15308780429E+04  0.15308780429E+04  0.50400001928E-02 0. -1.
       -1   -1    0    0    0  501  0.00000000000E+00  0.00000000000E+00 -0.10053428754E+03  0.10053428767E+03  0.50400001928E-02 0.  1.
    10030    2    1    2    0    0  0.00000000000E+00  0.00000000000E+00  0.14303437554E+04  0.16314123306E+04  0.78461642469E+03 0.  0.
        5    1    3    3  502    0  0.31254519663E+02 -0.29185104845E+03  0.17404871220E+03  0.34127543670E+03  0.46999998093E+01 0.  1.
       -5    1    3    3    0  502 -0.31254519663E+02  0.29185104845E+03  0.12562950432E+04  0.12901368939E+04  0.46999998093E+01 0. -1.
</event>
<event>
 5   0  0.2132540E-02  0.8100667E+03  0.7818609E-02  0.9545559E-01
        1   -1    0    0  501    0  0.00000000000E+00  0.00000000000E+00  0.50899939729E+03  0.50899939732E+03  0.50400001928E-02 0. -1.
       -1   -1    0    0    0  501  0.00000000000E+00  0.00000000000E+00 -0.32230295055E+03  0.32230295059E+03  0.50400001928E-02 0.  1.
    10030    2    1    2    0    0  0.00000000000E+00  0.00000000000E+00  0.18669644674E+03  0.83130234791E+03  0.81006668269E+03 0.  0.
        4    1    3    3  502    0 -0.25346351129E+03  0.17400324294E+02 -0.23036335014E+03  0.34295102978E+03  0.12699999809E+01 0.  1.
       -4    1    3    3    0  502  0.25346351129E+03 -0.17400324294E+02  0.41705979688E+03  0.48835131812E+03  0.12699999809E+01 0. -1.
</event>
<event>
 5   0  0.3550586E-02  0.7938192E+03  0.7818609E-02  0.9569007E-01
        2   -1    0    0  501    0  0.00000000000E+00  0.00000000000E+00  0.67165856254E+03  0.67165856255E+03  0.25500000920E-02 0.  1.
       -2   -1    0    0    0  501  0.00000000000E+00  0.00000000000E+00 -0.23454958550E+03  0.23454958551E+03  0.25500000920E-02 0. -1.
    10030    2    1    2    0    0  0.00000000000E+00  0.00000000000E+00  0.43710897705E+03  0.90620814806E+03  0.79381921732E+03 0.  0.
        3    1    3    3  502    0  0.27195655906E+02  0.34015413416E+03  0.44996823911E+03  0.56472636302E+03  0.10100000352E+00 0.  1.
       -3    1    3    3    0  502 -0.27195655906E+02 -0.34015413416E+03 -0.12859262066E+02  0.34148178503E+03  0.10100000352E+00 0. -1.
</event>
<event>
 5   0  0.2077795E-02  0.8116444E+03  0.7818609E-02  0.9543314E-01
        1   -1    0    0  501    0  0.00000000000E+00  0.00000000000E+00  0.16506341356E+04  0.16506341356E+04  0.50400001928E-02 0.  1.
       -1   -1    0    0    0  501  0.00000000000E+00  0.00000000000E+00 -0.99774783622E+02  0.99774783749E+02  0.50400001928E-02 0. -1.
    10030    2    1    2    0    0  0.00000000000E+00  0.00000000000E+00  0.15508593519E+04  0.17504089193E+04  0.81164441434E+03 0.  0.
        5    1    3    3  502    0  0.84557931608E+02 -0.20562273190E+03  0.43325104374E+02  0.22656104330E+03  0.46999998093E+01 0. -1.
       -5    1    3    3    0  502 -0.84557931608E+02  0.20562273190E+03  0.15075342476E+04  0.15238478760E+04  0.46999998093E+01 0.  1.
</event>
<event>
 5   0  0.2129257E-02  0.7805644E+03  0.7818609E-02  0.9588583E-01
       -1   -1    0    0    0  501  0.00000000000E+00  0.00000000000E+00  0.44870049939E+03  0.44870049942E+03  0.50400001928E-02 0. -1.
        1   -1    0    0  501    0  0.00000000000E+00  0.00000000000E+00 -0.33946966064E+03  0.33946966068E+03  0.50400001928E-02 0.  1.
    10030    2    1    2    0    0  0.00000000000E+00  0.00000000000E+00  0.10923083875E+03  0.78817016010E+03  0.78056442728E+03 0.  0.
        3    1    3    3  502    0 -0.21071148843E+03  0.18281124342E+03  0.33022355530E+03  0.43228102983E+03  0.10100000352E+00 0. -1.
       -3    1    3    3    0  502  0.21071148843E+03 -0.18281124342E+03 -0.22099271654E+03  0.35588913027E+03  0.10100000352E+00 0.  1.
</event>
<event>
 5   0  0.2063692E-02  0.6477306E+03  0.7818609E-02  0.9811047E-01
       -1   -1    0    0    0  501  0.00000000000E+00  0.00000000000E+00  0.18143500274E+03  0.18143500281E+03  0.50400001928E-02 0.  1.
        1   -1    0    0  501    0  0.00000000000E+00  0.00000000000E+00 -0.57810635204E+03  0.57810635206E+03  0.50400001928E-02 0. -1.
    10030    2    1    2    0    0  0.00000000000E+00  0.00000000000E+00 -0.39667134930E+03  0.75954135487E+03  0.64773058473E+03 0.  0.
        2    1    3    3  502    0  0.63868297497E+02 -0.22342434710E+03  0.66196233607E+02  0.24161858300E+03  0.25500000920E-02 0.  1.
       -2    1    3    3    0  502 -0.63868297497E+02  0.22342434710E+03 -0.46286758291E+03  0.51792277186E+03  0.25500000920E-02 0. -1.
</event>
<event>
 5   0  0.3467240E-02  0.8119001E+03  0.7818609E-02  0.9542950E-01
       -2   -1    0    0    0  501  0.00000000000E+00  0.00000000000E+00  0.89117499886E+02  0.89117499923E+02  0.25500000920E-02 0. -1.
        2   -1    0    0  501    0  0.00000000000E+00  0.00000000000E+00 -0.18491930202E+04  0.18491930202E+04  0.25500000920E-02 0.  1.
    10030    2    1    2    0    0  0.00000000000E+00  0.00000000000E+00 -0.17600755203E+04  0.19383105201E+04  0.81190013870E+03 0.  0.
        2    1    3    3  502    0  0.19822285446E+03  0.28889905531E+03 -0.39053556273E+03  0.52466464523E+03  0.25500000920E-02 0.  1.
       -2    1    3    3    0  502 -0.19822285446E+03 -0.28889905531E+03 -0.13695399576E+04  0.14136458749E+04  0.25500000920E-02 0. -1.
</event>
<event>
 5   0  0.2063692E-02  0.8096844E+03  0.7818609E-02  0.9546104E-01
        1   -1    0    0  501    0  0.00000000000E+00  0.00000000000E+00  0.40997151635E+03  0.40997151638E+03  0.50400001928E-02 0.  1.
       -1   -1    0    0    0  501  0.00000000000E+00  0.00000000000E+00 -0.39977710415E+03  0.39977710418E+03  0.50400001928E-02 0. -1.
    10030    2    1    2    0    0  0.00000000000E+00  0.00000000000E+00  0.10194412198E+02  0.80974862056E+03  0.80968444623E+03 0.  0.
        2    1    3    3  502    0  0.30525234802E+03 -0.31816145305E+01  0.27102824197E+03  0.40822227597E+03  0.25500000920E-02 0.  1.
       -2    1    3    3    0  502 -0.30525234802E+03  0.31816145305E+01 -0.26083382977E+03  0.40152634459E+03  0.25500000920E-02 0. -1.
</event>
<event>
 5   0  0.2063692E-02  0.8129928E+03  0.7818609E-02  0.9541399E-01
        1   -1    0    0  501    0  0.00000000000E+00  0.00000000000E+00  0.25468410662E+03  0.25468410667E+03  0.50400001928E-02 0. -1.
       -1   -1    0    0    0  501  0.00000000000E+00  0.00000000000E+00 -0.64880103876E+03  0.64880103878E+03  0.50400001928E-02 0.  1.
    10030    2    1    2    0    0  0.00000000000E+00  0.00000000000E+00 -0.39411693214E+03  0.90348514545E+03  0.81299277478E+03 0.  0.
        2    1    3    3  502    0  0.27557971681E+03  0.23746974906E+03 -0.39864138769E+03  0.53967677180E+03  0.25500000920E-02 0.  1.
       -2    1    3    3    0  502 -0.27557971681E+03 -0.23746974906E+03  0.45244555451E+01  0.36380837365E+03  0.25500000920E-02 0. -1.
</event>
<event>
 5   0  0.2129257E-02  0.8001326E+03  0.7818609E-02  0.9559825E-01
       -1   -1    0    0    0  501  0.00000000000E+00  0.00000000000E+00  0.12848796147E+03  0.12848796157E+03  0.50400001928E-02 0. -1.
        1   -1    0    0  501    0  0.00000000000E+00  0.00000000000E+00 -0.12456657920E+04  0.12456657921E+04  0.50400001928E-02 0.  1.
    10030    2    1    2    0    0  0.00000000000E+00  0.00000000000E+00 -0.11171778306E+04  0.13741537536E+04  0.80013263492E+03 0.  0.
        3    1    3    3  502    0 -0.27544665830E+03  0.11446702795E+03 -0.10071544170E+03  0.31482879864E+03  0.10100000352E+00 0. -1.
       -3    1    3    3    0  502  0.27544665830E+03 -0.11446702795E+03 -0.10164623889E+04  0.10593249550E+04  0.10100000352E+00 0.  1.
</event>
<event>
 5   0  0.3416160E-02  0.8402708E+03  0.7818609E-02  0.9503489E-01
        2   -1    0    0  501    0  0.00000000000E+00  0.00000000000E+00  0.39104538108E+03  0.39104538109E+03  0.25500000920E-02 0.  1.
       -2   -1    0    0    0  501  0.00000000000E+00  0.00000000000E+00 -0.45138948640E+03  0.45138948641E+03  0.25500000920E-02 0. -1.
    10030    2    1    2    0    0  0.00000000000E+00  0.00000000000E+00 -0.60344105324E+02  0.84243486749E+03  0.84027084617E+03 0.  0.
        1    1    3    3  502    0  0.12122242792E+03 -0.40177922380E+03 -0.50030942799E+02  0.42263993773E+03  0.50400001928E-02 0.  1.
       -1    1    3    3    0  502 -0.12122242792E+03  0.40177922380E+03 -0.10313162526E+02  0.41979492976E+03  0.50400001928E-02 0. -1.
</event>
<event>
 5   0  0.1358000E-02  0.5733942E+03  0.7818609E-02  0.9962196E-01
        3   -1    0    0  501    0  0.00000000000E+00  0.00000000000E+00  0.36036713940E+03  0.36036715355E+03  0.10100000352E+00 0.  1.
       -3   -1    0    0    0  501  0.00000000000E+00  0.00000000000E+00 -0.22808744922E+03  0.22808747158E+03  0.10100000352E+00 0. -1.
    10030    2    1    2    0    0  0.00000000000E+00  0.00000000000E+00  0.13227969018E+03  0.58845462513E+03  0.57339421815E+03 0.  0.
        3    1    3    3  502    0  0.24214238822E+03 -0.14089516460E+03  0.36231944747E+01  0.28017409109E+03  0.10100000352E+00 0. -1.
       -3    1    3    3    0  502 -0.24214238822E+03  0.14089516460E+03  0.12865649571E+03  0.30828053404E+03  0.10100000352E+00 0.  1.
</event>
<event>
 5   0  0.3343036E-02  0.8152318E+03  0.7818609E-02  0.9538228E-01
        2   -1    0    0  501    0  0.00000000000E+00  0.00000000000E+00  0.15036241151E+04  0.15036241151E+04  0.25500000920E-02 0. -1.
       -2   -1    0    0    0  501  0.00000000000E+00  0.00000000000E+00 -0.11050015978E+03  0.11050015981E+03  0.25500000920E-02 0.  1.
    10030    2    1    2    0    0  0.00000000000E+00  0.00000000000E+00  0.13931239553E+04  0.16141242749E+04  0.81523175843E+03 0.  0.
        4    1    3    3  502    0 -0.35001157344E+02  0.40255560375E+03  0.59043557033E+03  0.71546619119E+03  0.12699999809E+01 0.  1.
       -4    1    3    3    0  502  0.35001157344E+02 -0.40255560375E+03  0.80268838502E+03  0.89865808374E+03  0.12699999809E+01 0. -1.
</event>
<event>
 5   0  0.1989298E-02  0.7976935E+03  0.7818609E-02  0.9563362E-01
       -1   -1    0    0    0  501  0.00000000000E+00  0.00000000000E+00  0.18579565419E+03  0.18579565426E+03  0.50400001928E-02 0. -1.
        1   -1    0    0  501    0  0.00000000000E+00  0.00000000000E+00 -0.85620261454E+03  0.85620261456E+03  0.50400001928E-02 0.  1.
    10030    2    1    2    0    0  0.00000000000E+00  0.00000000000E+00 -0.67040696035E+03  0.10419982688E+04  0.79769348733E+03 0.  0.
        1    1    3    3  502    0 -0.37261907505E+03 -0.13835012998E+03 -0.37838911560E+03  0.54878416193E+03  0.50400001928E-02 0. -1.
       -1    1    3    3    0  502  0.37261907505E+03  0.13835012998E+03 -0.29201784475E+03  0.49321410689E+03  0.50400001928E-02 0.  1.
</event>
<event>
 5   0  0.3416160E-02  0.8457149E+03  0.7818609E-02  0.9496106E-01
        2   -1    0    0  501    0  0.00000000000E+00  0.00000000000E+00  0.11683119065E+04  0.11683119065E+04  0.25500000920E-02 0.  1.
       -2   -1    0    0    0  501  0.00000000000E+00  0.00000000000E+00 -0.15304852571E+03  0.15304852573E+03  0.25500000920E-02 0. -1.
    10030    2    1    2    0    0  0.00000000000E+00  0.00000000000E+00  0.10152633807E+04  0.13213604322E+04  0.84571488071E+03 0.  0.
        1    1    3    3  502    0  0.18431224588E+03 -0.35427357855E+03  0.29041821394E+03  0.49378488379E+03  0.50400001928E-02 0.  1.
       -1    1    3    3    0  502 -0.18431224588E+03  0.35427357855E+03  0.72484516681E+03  0.82757554840E+03  0.50400001928E-02 0. -1.
</event>
<event>
 5   0  0.3343036E-02  0.7943094E+03  0.7818609E-02  0.9568291E-01
        2   -1    0    0  501    0  0.00000000000E+00  0.00000000000E+00  0.52319442222E+03  0.52319442223E+03  0.25500000920E-02 0.  1.
       -2   -1    0    0    0  501  0.00000000000E+00  0.00000000000E+00 -0.30147849165E+03  0.30147849166E+03  0.25500000920E-02 0. -1.
    10030    2    1    2    0    0  0.00000000000E+00  0.00000000000E+00  0.22171593057E+03  0.82467291389E+03  0.79430942399E+03 0.  0.
        4    1    3    3  502    0 -0.51413110726E+02  0.22022251662E+03 -0.22810182625E+03  0.32120604107E+03  0.12699999809E+01 0. -1.
       -4    1    3    3    0  502  0.51413110726E+02 -0.22022251662E+03  0.44981775682E+03  0.50346687282E+03  0.12699999809E+01 0.  1.
</event>
<event>
 5   0  0.3404132E-02  0.8034806E+03  0.7818609E-02  0.9554993E-01
        2   -1    0    0  501    0  0.00000000000E+00  0.00000000000E+00  0.86527419594E+03  0.86527419594E+03  0.25500000920E-02 0. -1.
       -2   -1    0    0    0  501  0.00000000000E+00  0.00000000000E+00 -0.18652498371E+03  0.18652498373E+03  0.25500000920E-02 0.  1.
    10030    2    1    2    0    0  0.00000000000E+00  0.00000000000E+00  0.67874921223E+03  0.10517991797E+04  0.80348056681E+03 0.  0.
        5    1    3    3  502    0  0.97437519398E+02  0.15646671768E+02  0.84912332459E+03  0.85485168239E+03  0.46999998093E+01 0. -1.
       -5    1    3    3    0  502 -0.97437519398E+02 -0.15646671768E+02 -0.17037411236E+03  0.19694749728E+03  0.46999998093E+01 0.  1.
</event>
<event>
 5   0  0.3416160E-02  0.8310949E+03  0.7818609E-02  0.9516068E-01
        2   -1    0    0  501    0  0.00000000000E+00  0.00000000000E+00  0.39744498265E+03  0.39744498266E+03  0.25500000920E-02 0.  1.
       -2   -1    0    0    0  501  0.00000000000E+00  0.00000000000E+00 -0.43447447641E+03  0.43447447642E+03  0.25500000920E-02 0. -1.
    10030    2    1    2    0    0  0.00000000000E+00  0.00000000000E+00 -0.37029493762E+02  0.83191945908E+03  0.83109494222E+03 0.  0.
        1    1    3    3  502    0 -0.49352264208E+02 -0.40219386364E+03 -0.11071557733E+03  0.42006367258E+03  0.50400001928E-02 0.  1.
       -1    1    3    3    0  502  0.49352264208E+02  0.40219386364E+03  0.73686083570E+02  0.41185578650E+03  0.50400001928E-02 0. -1.
</event>
<event>
 5   0  0.3404132E-02  0.7286234E+03  0.7818609E-02  0.9669497E-01
       -2   -1    0    0    0  501  0.00000000000E+00  0.00000000000E+00  0.25024392977E+03  0.25024392978E+03  0.25500000920E-02 0. -1.
        2   -1    0    0  501    0  0.00000000000E+00  0.00000000000E+00 -0.53037451779E+03  0.53037451779E+03  0.25500000920E-02 0.  1.
    10030    2    1    2    0    0  0.00000000000E+00  0.00000000000E+00 -0.28013058802E+03  0.78061844757E+03  0.72862336934E+03 0.  0.
        5    1    3    3  502    0  0.33785529774E+03 -0.13033712675E+03 -0.18247473595E+03  0.40552815942E+03  0.46999998093E+01 0. -1.
       -5    1    3    3    0  502 -0.33785529774E+03  0.13033712675E+03 -0.97655852070E+02  0.37509028815E+03  0.46999998093E+01 0.  1.
</event>
<event>
 5   0  0.3416160E-02  0.8047607E+03  0.7818609E-02  0.9553152E-01
        2   -1    0    0  501    0  0.00000000000E+00  0.00000000000E+00  0.10882334995E+03  0.10882334998E+03  0.25500000920E-02 0.  1.
       -2   -1    0    0    0  501  0.00000000000E+00  0.00000000000E+00 -0.14878235038E+04  0.14878235038E+04  0.25500000920E-02 0. -1.
    10030    2    1    2    0    0  0.00000000000E+00  0.00000000000E+00 -0.13790001539E+04  0.15966468538E+04  0.80476067957E+03 0.  0.
        1    1    3    3  502    0  0.96433653894E+02 -0.52057673078E+02 -0.14576458456E+04  0.14617595090E+04  0.50400001928E-02 0. -1.
       -1    1    3    3    0  502 -0.96433653894E+02  0.52057673078E+02  0.78645691739E+02  0.13488734479E+03  0.50400001928E-02 0.  1.
</event>
<event>
 5   0  0.2132540E-02  0.7900286E+03  0.7818609E-02  0.9574564E-01
        1   -1    0    0  501    0  0.00000000000E+00  0.00000000000E+00  0.49410856377E+03  0.49410856380E+03  0.50400001928E-02 0. -1.
       -1   -1    0    0    0  501  0.00000000000E+00  0.00000000000E+00 -0.31579353434E+03  0.31579353438E+03  0.50400001928E-02 0.  1.
    10030    2    1    2    0    0  0.00000000000E+00  0.00000000000E+00  0.17831502943E+03  0.80990209818E+03  0.79002858108E+03 0.  0.
        4    1    3    3  502    0 -0.35131766477E+03  0.74184313988E+02  0.25794201183E+03  0.44211209934E+03  0.12699999809E+01 0. -1.
       -4    1    3    3    0  502  0.35131766477E+03 -0.74184313988E+02 -0.79626982396E+02  0.36778999884E+03  0.12699999809E+01 0.  1.
</event>
<event>
 5   0  0.2129257E-02  0.8966630E+03  0.7818609E-02  0.9429762E-01
        1   -1    0    0  501    0  0.00000000000E+00  0.00000000000E+00  0.78755794297E+03  0.78755794298E+03  0.50400001928E-02 0. -1.
       -1   -1    0    0    0  501  0.00000000000E+00  0.00000000000E+00 -0.25522077843E+03  0.25522077848E+03  0.50400001928E-02 0.  1.
    10030    2    1    2    0    0  0.00000000000E+00  0.00000000000E+00  0.53233716454E+03  0.10427787215E+04  0.89666303882E+03 0.  0.
        3    1    3    3  502    0  0.15935284561E+03  0.75297064220E+02 -0.21324281342E+03  0.27665047435E+03  0.10100000352E+00 0.  1.
       -3    1    3    3    0  502 -0.15935284561E+03 -0.75297064220E+02  0.74557997796E+03  0.76612824711E+03  0.10100000352E+00 0. -1.
</event>
<event>
 5   0  0.3416160E-02  0.8069139E+03  0.7818609E-02  0.9550063E-01
        2   -1    0    0  501    0  0.00000000000E+00  0.00000000000E+00  0.15442060370E+04  0.15442060370E+04  0.25500000920E-02 0. -1.
       -2   -1    0    0    0  501  0.00000000000E+00  0.00000000000E+00 -0.10541177433E+03  0.10541177436E+03  0.25500000920E-02 0.  1.
    10030    2    1    2    0    0  0.00000000000E+00  0.00000000000E+00  0.14387942627E+04  0.16496178114E+04  0.80691386982E+03 0.  0.
        1    1    3    3  502    0 -0.51569882644E+02  0.28462143476E+03  0.12943976517E+04  0.13263235256E+04  0.50400001928E-02 0. -1.
       -1    1    3    3    0  502  0.51569882644E+02 -0.28462143476E+03  0.14439661103E+03  0.32329428579E+03  0.50400001928E-02 0.  1.
</event>
<event>
 5   0  0.2063692E-02  0.7728272E+03  0.7818609E-02  0.9600203E-01
        1   -1    0    0  501    0  0.00000000000E+00  0.00000000000E+00  0.45306507692E+03  0.45306507695E+03  0.50400001928E-02 0. -1.
       -1   -1    0    0    0  501  0.00000000000E+00  0.00000000000E+00 -0.32956741366E+03  0.32956741370E+03  0.50400001928E-02 0.  1.
    10030    2    1    2    0    0  0.00000000000E+00  0.00000000000E+00  0.12349766326E+03  0.78263249065E+03  0.77282723981E+03 0.  0.
        2    1    3    3  502    0  0.95934393737E+02 -0.22565921790E+03  0.36418485729E+03  0.43903997632E+03  0.25500000920E-02 0. -1.
       -2    1    3    3    0  502 -0.95934393737E+02  0.22565921790E+03 -0.24068719403E+03  0.34359251433E+03  0.25500000920E-02 0.  1.
</event>
<event>
 5   0  0.3467240E-02  0.5251162E+03  0.7818609E-02  0.1007423E+00
       -2   -1    0    0    0  501  0.00000000000E+00  0.00000000000E+00  0.65993601380E+03  0.65993601381E+03  0.25500000920E-02 0.  1.
        2   -1    0    0  501    0  0.00000000000E+00  0.00000000000E+00 -0.10445977302E+03  0.10445977305E+03  0.25500000920E-02 0. -1.
    10030    2    1    2    0    0  0.00000000000E+00  0.00000000000E+00  0.55547624078E+03  0.76439578686E+03  0.52511623942E+03 0.  0.
        2    1    3    3  502    0  0.22950688994E+02  0.24616577257E+03  0.14907433981E+03  0.28869963718E+03  0.25500000920E-02 0. -1.
       -2    1    3    3    0  502 -0.22950688994E+02 -0.24616577257E+03  0.40640190097E+03  0.47569614969E+03  0.25500000920E-02 0.  1.
</event>
<event>
 5   0  0.2132540E-02  0.7712480E+03  0.7818609E-02  0.9602593E-01
       -1   -1    0    0    0  501  0.00000000000E+00  0.00000000000E+00  0.10698635542E+03  0.10698635554E+03  0.50400001928E-02 0.  1.
        1   -1    0    0  501    0  0.00000000000E+00  0.00000000000E+00 -0.13899516344E+04  0.13899516344E+04  0.50400001928E-02 0. -1.
    10030    2    1    2    0    0  0.00000000000E+00  0.00000000000E+00 -0.12829652790E+04  0.14969379900E+04  0.77124797484E+03 0.  0.
        4    1    3    3  502    0 -0.21755257438E+03  0.45431487954E+02 -0.12531406652E+04  0.12726964612E+04  0.12699999809E+01 0. -1.
       -4    1    3    3    0  502  0.21755257438E+03 -0.45431487954E+02 -0.29824613776E+02  0.22424152873E+03  0.12699999809E+01 0.  1.
</event>
<event>
 5   0  0.3404132E-02  0.8110563E+03  0.7818609E-02  0.9544150E-01
       -2   -1    0    0    0  501  0.00000000000E+00  0.00000000000E+00  0.15296299579E+03  0.15296299581E+03  0.25500000920E-02 0. -1.
        2   -1    0    0  501    0  0.00000000000E+00  0.00000000000E+00 -0.10751167858E+04  0.10751167858E+04  0.25500000920E-02 0.  1.
    10030    2    1    2    0    0  0.00000000000E+00  0.00000000000E+00 -0.92215378996E+03  0.12280797816E+04  0.81105630973E+03 0.  0.
        5    1    3    3  502    0  0.64544922757E+02 -0.52785835958E+02  0.13980117039E+03  0.16284608921E+03  0.46999998093E+01 0. -1.
       -5    1    3    3    0  502 -0.64544922757E+02  0.52785835958E+02 -0.10619549603E+04  0.10652336924E+04  0.46999998093E+01 0.  1.
</event>
<event>
 5   0  0.2132540E-02  0.7962005E+03  0.7818609E-02  0.9565533E-01
        1   -1    0    0  501    0  0.00000000000E+00  0.00000000000E+00  0.48429003999E+03  0.48429004002E+03  0.50400001928E-02 0.  1.
       -1   -1    0    0    0  501  0.00000000000E+00  0.00000000000E+00 -0.32724980885E+03  0.32724980889E+03  0.50400001928E-02 0. -1.
    10030    2    1    2    0    0  0.00000000000E+00  0.00000000000E+00  0.15704023114E+03  0.81153984891E+03  0.79620053515E+03 0.  0.
        4    1    3    3  502    0  0.28354706511E+02  0.23177792778E+03 -0.25011555343E+03  0.34217597834E+03  0.12699999809E+01 0. -1.
       -4    1    3    3    0  502 -0.28354706511E+02 -0.23177792778E+03  0.40715578457E+03  0.46936387057E+03  0.12699999809E+01 0.  1.
</event>
<event>
 5   0  0.3416160E-02  0.7394339E+03  0.7818609E-02  0.9652074E-01
        2   -1    0    0  501    0  0.00000000000E+00  0.00000000000E+00  0.73878983293E+03  0.73878983294E+03  0.25500000920E-02 0. -1.
       -2   -1    0    0    0  501  0.00000000000E+00  0.00000000000E+00 -0.18501961961E+03  0.18501961963E+03  0.25500000920E-02 0.  1.
    10030    2    1    2    0    0  0.00000000000E+00  0.00000000000E+00  0.55377021332E+03  0.92380945256E+03  0.73943387499E+03 0.  0.
        1    1    3    3  502    0 -0.35820705272E+03  0.89613116615E+02  0.30018502708E+03  0.47587167787E+03  0.50400001928E-02 0. -1.
       -1    1    3    3    0  502  0.35820705272E+03 -0.89613116615E+02  0.25358518624E+03  0.44793777469E+03  0.50400001928E-02 0.  1.
</event>
<event>
 5   0  0.2063692E-02  0.8100327E+03  0.7818609E-02  0.9545608E-01
        1   -1    0    0  501    0  0.00000000000E+00  0.00000000000E+00  0.50656923160E+03  0.50656923163E+03  0.50400001928E-02 0. -1.
       -1   -1    0    0    0  501  0.00000000000E+00  0.00000000000E+00 -0.32382192463E+03  0.32382192467E+03  0.50400001928E-02 0.  1.
    10030    2    1    2    0    0  0.00000000000E+00  0.00000000000E+00  0.18274730697E+03  0.83039115630E+03  0.81003265012E+03 0.  0.
        2    1    3    3  502    0 -0.70767864416E+02  0.12817500866E+03 -0.29574307004E+03  0.33000134388E+03  0.25500000920E-02 0.  1.
       -2    1    3    3    0  502  0.70767864416E+02 -0.12817500866E+03  0.47849037701E+03  0.50038981242E+03  0.25500000920E-02 0. -1.
</event>
<event>
 5   0  0.2063692E-02  0.8253779E+03  0.7818609E-02  0.9523993E-01
       -1   -1    0    0    0  501  0.00000000000E+00  0.00000000000E+00  0.82771628525E+03  0.82771628527E+03  0.50400001928E-02 0.  1.
        1   -1    0    0  501    0  0.00000000000E+00  0.00000000000E+00 -0.20576152501E+03  0.20576152508E+03  0.50400001928E-02 0. -1.
    10030    2    1    2    0    0  0.00000000000E+00  0.00000000000E+00  0.62195476024E+03  0.10334778103E+04  0.82537788963E+03 0.  0.
        2    1    3    3  502    0 -0.87625965322E+02  0.22137262107E+03  0.73305375260E+03  0.77074765739E+03  0.25500000920E-02 0.  1.
       -2    1    3    3    0  502  0.87625965322E+02 -0.22137262107E+03 -0.11109899237E+03  0.26273015295E+03  0.25500000920E-02 0. -1.
</event>
<event>
 5   0  0.2129257E-02  0.7302529E+03  0.7818609E-02  0.9666850E-01
       -1   -1    0    0    0  501  0.00000000000E+00  0.00000000000E+00  0.18062849480E+03  0.18062849487E+03  0.50400001928E-02 0. -1.
        1   -1    0    0  501    0  0.00000000000E+00  0.00000000000E+00 -0.73807479498E+03  0.73807479500E+03  0.50400001928E-02 0.  1.
    10030    2    1    2    0    0  0.00000000000E+00  0.00000000000E+00 -0.55744630019E+03  0.91870328986E+03  0.73025294057E+03 0.  0.
        3    1    3    3  502    0  0.24774882461E+03  0.22799094517E+03 -0.10099336075E+03  0.35150963044E+03  0.10100000352E+00 0. -1.
       -3    1    3    3    0  502 -0.24774882461E+03 -0.22799094517E+03 -0.45645293944E+03  0.56719365943E+03  0.10100000352E+00 0.  1.
</event>
<event>
 5   0  0.2077795E-02  0.7972370E+03  0.7818609E-02  0.9564025E-01
        1   -1    0    0  501    0  0.00000000000E+00  0.00000000000E+00  0.77208472420E+03  0.77208472422E+03  0.50400001928E-02 0.  1.
       -1   -1    0    0    0  501  0.00000000000E+00  0.00000000000E+00 -0.20580215137E+03  0.20580215143E+03  0.50400001928E-02 0. -1.
    10030    2    1    2    0    0  0.00000000000E+00  0.00000000000E+00  0.56628257284E+03  0.97788687565E+03  0.79723697184E+03 0.  0.
        5    1    3    3  502    0  0.18537539977E+02 -0.24445175251E+03 -0.10235764949E+03  0.26570562302E+03  0.46999998093E+01 0. -1.
       -5    1    3    3    0  502 -0.18537539977E+02  0.24445175251E+03  0.66864022232E+03  0.71218125263E+03  0.46999998093E+01 0.  1.
</event>
<event>
 5   0  0.2132540E-02  0.6956097E+03  0.7818609E-02  0.9724770E-01
       -1   -1    0    0    0  501  0.00000000000E+00  0.00000000000E+00  0.17394293743E+03  0.17394293751E+03  0.50400001928E-02 0.  1.
        1   -1    0    0  501    0  0.00000000000E+00  0.00000000000E+00 -0.69544774963E+03  0.69544774964E+03  0.50400001928E-02 0. -1.
    10030    2    1    2    0    0  0.00000000000E+00  0.00000000000E+00 -0.52150481219E+03  0.86939068715E+03  0.69560973093E+03 0.  0.
        4    1    3    3  502    0  0.60674315390E+02  0.30092860679E+03 -0.56425212919E+02  0.31212948673E+03  0.12699999809E+01 0.  1.
       -4    1    3    3    0  502 -0.60674315390E+02 -0.30092860679E+03 -0.46507959928E+03  0.55726120042E+03  0.12699999809E+01 0. -1.
</event>
<event>
 5   0  0.3343036E-02  0.7915504E+03  0.7818609E-02  0.9572329E-01
        2   -1    0    0  501    0  0.00000000000E+00  0.00000000000E+00  0.88607164542E+03  0.88607164542E+03  0.25500000920E-02 0.  1.
       -2   -1    0    0    0  501  0.00000000000E+00  0.00000000000E+00 -0.17677804049E+03  0.17677804051E+03  0.25500000920E-02 0. -1.
    10030    2    1    2    0    0  0.00000000000E+00  0.00000000000E+00  0.70929360492E+03  0.10628496859E+04  0.79155040074E+03 0.  0.
        4    1    3    3  502    0 -0.29014384598E+03 -0.59893481495E+02  0.22801435411E+01  0.29627266570E+03  0.12699999809E+01 0. -1.
       -4    1    3    3    0  502  0.29014384598E+03  0.59893481495E+02  0.70701346138E+03  0.76657702024E+03  0.12699999809E+01 0.  1.
</event>
<event>
 5   0  0.3416160E-02  0.7971261E+03  0.7818609E-02  0.9564186E-01
        2   -1    0    0  501    0  0.00000000000E+00  0.00000000000E+00  0.14686159876E+04  0.14686159876E+04  0.25500000920E-02 0. -1.
       -2   -1    0    0    0  501  0.00000000000E+00  0.00000000000E+00 -0.10816475991E+03  0.10816475994E+03  0.25500000920E-02 0.  1.
    10030    2    1    2    0    0  0.00000000000E+00  0.00000000000E+00  0.13604512277E+04  0.15767807476E+04  0.79712607717E+03 0.  0.
        1    1    3    3  502    0  0.34866442698E+03 -0.18530153503E+03  0.57280730679E+03  0.69570953153E+03  0.50400001928E-02 0. -1.
       -1    1    3    3    0  502 -0.34866442698E+03  0.18530153503E+03  0.78764392092E+03  0.88107121603E+03  0.50400001928E-02 0.  1.
</event>
<event>
 5   0  0.3404132E-02  0.7951055E+03  0.7818609E-02  0.9567129E-01
        2   -1    0    0  501    0  0.00000000000E+00  0.00000000000E+00  0.16388552335E+03  0.16388552337E+03  0.25500000920E-02 0.  1.
       -2   -1    0    0    0  501  0.00000000000E+00  0.00000000000E+00 -0.96438169579E+03  0.96438169580E+03  0.25500000920E-02 0. -1.
    10030    2    1    2    0    0  0.00000000000E+00  0.00000000000E+00 -0.80049617244E+03  0.11282672192E+04  0.79510552492E+03 0.  0.
        5    1    3    3  502    0  0.21335197333E+03  0.33254220726E+02  0.73374206627E+02  0.22810254693E+03  0.46999998093E+01 0.  1.
       -5    1    3    3    0  502 -0.21335197333E+03 -0.33254220726E+02 -0.87387037907E+03  0.90016467223E+03  0.46999998093E+01 0. -1.
</event>
<event>
 5   0  0.3467240E-02  0.7921894E+03  0.7818609E-02  0.9571392E-01
       -2   -1    0    0    0  501  0.00000000000E+00  0.00000000000E+00  0.98188704079E+02  0.98188704112E+02  0.25500000920E-02 0. -1.
        2   -1    0    0  501    0  0.00000000000E+00  0.00000000000E+00 -0.15978518968E+04  0.15978518968E+04  0.25500000920E-02 0.  1.
    10030    2    1    2    0    0  0.00000000000E+00  0.00000000000E+00 -0.14996631927E+04  0.16960406009E+04  0.79218938919E+03 0.  0.
        2    1    3    3  502    0 -0.12673506151E+03  0.93423822936E+02  0.28313596047E+02  0.15997326726E+03  0.25500000920E-02 0. -1.
       -2    1    3    3    0  502  0.12673506151E+03 -0.93423822936E+02 -0.15279767888E+04  0.15360673337E+04  0.25500000920E-02 0.  1.
</event>
<event>
 5   0  0.2063692E-02  0.8094757E+03  0.7818609E-02  0.9546402E-01
        1   -1    0    0  501    0  0.00000000000E+00  0.00000000000E+00  0.37378174524E+03  0.37378174528E+03  0.50400001928E-02 0. -1.
       -1   -1    0    0    0  501  0.00000000000E+00  0.00000000000E+00 -0.43825774508E+03  0.43825774511E+03  0.50400001928E-02 0.  1.
    10030    2    1    2    0    0  0.00000000000E+00  0.00000000000E+00 -0.64475999837E+02  0.81203949039E+03  0.80947574355E+03 0.  0.
        2    1    3    3  502    0 -0.35233854614E+03 -0.42974253651E+02  0.16286062536E+03  0.39052889890E+03  0.25500000920E-02 0. -1.
       -2    1    3    3    0  502  0.35233854614E+03  0.42974253651E+02 -0.22733662520E+03  0.42151059149E+03  0.25500000920E-02 0.  1.
</event>
<event>
 5   0  0.1989298E-02  0.8065021E+03  0.7818609E-02  0.9550653E-01
       -1   -1    0    0    0  501  0.00000000000E+00  0.00000000000E+00  0.38163521921E+03  0.38163521925E+03  0.50400001928E-02 0.  1.
        1   -1    0    0  501    0  0.00000000000E+00  0.00000000000E+00 -0.42609122668E+03  0.42609122671E+03  0.50400001928E-02 0. -1.
    10030    2    1    2    0    0  0.00000000000E+00  0.00000000000E+00 -0.44456007471E+02  0.80772644596E+03  0.80650212331E+03 0.  0.
        1    1    3    3  502    0 -0.27367666453E+03 -0.22820952480E+03  0.16682538306E+03  0.39345801857E+03  0.50400001928E-02 0. -1.
       -1    1    3    3    0  502  0.27367666453E+03  0.22820952480E+03 -0.21128139053E+03  0.41426842739E+03  0.50400001928E-02 0.  1.
</event>
<event>
 5   0  0.3404132E-02  0.7986063E+03  0.7818609E-02  0.9562037E-01
        2   -1    0    0  501    0  0.00000000000E+00  0.00000000000E+00  0.54706170175E+03  0.54706170175E+03  0.25500000920E-02 0. -1.
       -2   -1    0    0    0  501  0.00000000000E+00  0.00000000000E+00 -0.29145344129E+03  0.29145344130E+03  0.25500000920E-02 0.  1.
    10030    2    1    2    0    0  0.00000000000E+00  0.00000000000E+00  0.25560826046E+03  0.83851514305E+03  0.79860632499E+03 0.  0.
        5    1    3    3  502    0 -0.22772522423E+03 -0.38141004322E+02 -0.21421549348E+03  0.31499822477E+03  0.46999998093E+01 0.  1.
       -5    1    3    3    0  502  0.22772522423E+03  0.38141004322E+02  0.46982375394E+03  0.52351691828E+03  0.46999998093E+01 0. -1.
</event>
<event>
 5   0  0.3416160E-02  0.7632773E+03  0.7818609E-02  0.9614748E-01
        2   -1    0    0  501    0  0.00000000000E+00  0.00000000000E+00  0.64678247049E+03  0.64678247050E+03  0.25500000920E-02 0.  1.
       -2   -1    0    0    0  501  0.00000000000E+00  0.00000000000E+00 -0.22518864539E+03  0.22518864540E+03  0.25500000920E-02 0. -1.
    10030    2    1    2    0    0  0.00000000000E+00  0.00000000000E+00  0.42159382511E+03  0.87197111590E+03  0.76327732417E+03 0.  0.
        1    1    3    3  502    0 -0.29327735561E+03 -0.13722052673E+03 -0.19977157458E+02  0.32440740916E+03  0.50400001928E-02 0. -1.
       -1    1    3    3    0  502  0.29327735561E+03  0.13722052673E+03  0.44157098256E+03  0.54756370674E+03  0.50400001928E-02 0.  1.
</event>
<event>
 5   0  0.2077795E-02  0.8015684E+03  0.7818609E-02  0.9557750E-01
       -1   -1    0    0    0  501  0.00000000000E+00  0.00000000000E+00  0.49877970916E+03  0.49877970919E+03  0.50400001928E-02 0.  1.
        1   -1    0    0  501    0  0.00000000000E+00  0.00000000000E+00 -0.32204189762E+03  0.32204189766E+03  0.50400001928E-02 0. -1.
    10030    2    1    2    0    0  0.00000000000E+00  0.00000000000E+00  0.17673781155E+03  0.82082160684E+03  0.80156837277E+03 0.  0.
        5    1    3    3  502    0  0.15749146817E+03 -0.34615047598E+03  0.21782602458E+03  0.43828527417E+03  0.46999998093E+01 0.  1.
       -5    1    3    3    0  502 -0.15749146817E+03  0.34615047598E+03 -0.41088213035E+02  0.38253633268E+03  0.46999998093E+01 0. -1.
</event>
<event>
 5   0  0.2129257E-02  0.8086041E+03  0.7818609E-02  0.9547646E-01
       -1   -1    0    0    0  501  0.00000000000E+00  0.00000000000E+00  0.21034061004E+03  0.21034061010E+03  0.50400001928E-02 0. -1.
        1   -1    0    0  501    0  0.00000000000E+00  0.00000000000E+00 -0.77712123745E+03  0.77712123747E+03  0.50400001928E-02 0.  1.
    10030    2    1    2    0    0  0.00000000000E+00  0.00000000000E+00 -0.56678062741E+03  0.98746184757E+03  0.80860411871E+03 0.  0.
        3    1    3    3  502    0 -0.22343355712E+03  0.11917164035E+03 -0.66828071225E+03  0.71464925304E+03  0.10100000352E+00 0.  1.
       -3    1    3    3    0  502  0.22343355712E+03 -0.11917164035E+03  0.10150008483E+03  0.27281259453E+03  0.10100000352E+00 0. -1.
</event>
<event>
 5   0  0.3404132E-02  0.8393312E+03  0.7818609E-02  0.9504769E-01
        2   -1    0    0  501    0  0.00000000000E+00  0.00000000000E+00  0.30059785574E+03  0.30059785575E+03  0.25500000920E-02 0.  1.
       -2   -1    0    0    0  501  0.00000000000E+00  0.00000000000E+00 -0.58589649937E+03  0.58589649938E+03  0.25500000920E-02 0. -1.
    10030    2    1    2    0    0  0.00000000000E+00  0.00000000000E+00 -0.28529864363E+03  0.88649435513E+03  0.83933123713E+03 0.  0.
        5    1    3    3  502    0  0.37733241040E+03  0.59601829647E+02 -0.32608945777E+03  0.50228333687E+03  0.46999998093E+01 0. -1.
       -5    1    3    3    0  502 -0.37733241040E+03 -0.59601829647E+02  0.40790814138E+02  0.38421101826E+03  0.46999998093E+01 0.  1.
</event>
<event>
 5   0  0.2129257E-02  0.7911533E+03  0.7818609E-02  0.9572911E-01
       -1   -1    0    0    0  501  0.00000000000E+00  0.00000000000E+00  0.35136436316E+03  0.35136436320E+03  0.50400001928E-02 0. -1.
        1   -1    0    0  501    0  0.00000000000E+00  0.00000000000E+00 -0.44535214693E+03  0.44535214696E+03  0.50400001928E-02 0.  1.
    10030    2    1    2    0    0  0.00000000000E+00  0.00000000000E+00 -0.93987783768E+02  0.79671651015E+03  0.79115326837E+03 0.  0.
        3    1    3    3  502    0 -0.24957660310E+03 -0.24622134901E+02  0.26107577690E+03  0.36201560992E+03  0.10100000352E+00 0. -1.
       -3    1    3    3    0  502  0.24957660310E+03  0.24622134901E+02 -0.35506356067E+03  0.43470090023E+03  0.10100000352E+00 0.  1.
</event>
<event>
 5   0  0.3404132E-02  0.8072536E+03  0.7818609E-02  0.9549577E-01
        2   -1    0    0  501    0  0.00000000000E+00  0.00000000000E+00  0.28430922137E+04  0.28430922137E+04  0.25500000920E-02 0.  1.
       -2   -1    0    0    0  501  0.00000000000E+00  0.00000000000E+00 -0.57301899828E+02  0.57301899885E+02  0.25500000920E-02 0. -1.
    10030    2    1    2    0    0  0.00000000000E+00  0.00000000000E+00  0.27857903139E+04  0.29003941136E+04  0.80725357929E+03 0.  0.
        5    1    3    3  502    0  0.59918471292E+01 -0.35571830592E+03  0.20776362821E+04  0.21078818814E+04  0.46999998093E+01 0.  1.
       -5    1    3    3    0  502 -0.59918471292E+01  0.35571830592E+03  0.70815403184E+03  0.79251223222E+03  0.46999998093E+01 0. -1.
</event>
<event>
 5   0  0.2063692E-02  0.8088191E+03  0.7818609E-02  0.9547339E-01
        1   -1    0    0  501    0  0.00000000000E+00  0.00000000000E+00  0.27437706223E+04  0.27437706223E+04  0.50400001928E-02 0. -1.
       -1   -1    0    0    0  501  0.00000000000E+00  0.00000000000E+00 -0.59606686709E+02  0.59606686922E+02  0.50400001928E-02 0.  1.
    10030    2    1    2    0    0  0.00000000000E+00  0.00000000000E+00  0.26841639356E+04  0.28033773092E+04  0.80881908035E+03 0.  0.
        2    1    3    3  502    0  0.29731644731E+03  0.21119311583E+03  0.73629793922E+03  0.82166553860E+03  0.25500000920E-02 0.  1.
       -2    1    3    3    0  502 -0.29731644731E+03 -0.21119311583E+03  0.19478659963E+04  0.19817117706E+04  0.25500000920E-02 0. -1.
</event>
<event>
 5   0  0.3416160E-02  0.8006619E+03  0.7818609E-02  0.9559060E-01
        2   -1    0    0  501    0  0.00000000000E+00  0.00000000000E+00  0.91493741201E+03  0.91493741202E+03  0.25500000920E-02 0.  1.
       -2   -1    0    0    0  501  0.00000000000E+00  0.00000000000E+00 -0.17516483490E+03  0.17516483492E+03  0.25500000920E-02 0. -1.
    10030    2    1    2    0    0  0.00000000000E+00  0.00000000000E+00  0.73977257711E+03  0.10901022469E+04  0.80066187803E+03 0.  0.
        1    1    3    3  502    0 -0.35254245925E+03 -0.18424053536E+03  0.30848121410E+03  0.50337999555E+03  0.50400001928E-02 0.  1.
       -1    1    3    3    0  502  0.35254245925E+03  0.18424053536E+03  0.43129136301E+03  0.58672225139E+03  0.50400001928E-02 0. -1.
</event>
<event>
 5   0  0.2063692E-02  0.8198269E+03  0.7818609E-02  0.9531754E-01
       -1   -1    0    0    0  501  0.00000000000E+00  0.00000000000E+00  0.52059040273E+03  0.52059040276E+03  0.50400001928E-02 0. -1.
        1   -1    0    0  501    0  0.00000000000E+00  0.00000000000E+00 -0.32276625987E+03  0.32276625991E+03  0.50400001928E-02 0.  1.
    10030    2    1    2    0    0  0.00000000000E+00  0.00000000000E+00  0.19782414287E+03  0.84335666267E+03  0.81982685304E+03 0.  0.
        2    1    3    3  502    0 -0.24322258364E+03 -0.13250139655E+03  0.40976904292E+03  0.49459530307E+03  0.25500000920E-02 0. -1.
       -2    1    3    3    0  502  0.24322258364E+03  0.13250139655E+03 -0.21194490006E+03  0.34876135959E+03  0.25500000920E-02 0.  1.
</event>
<event>
 5   0  0.3343036E-02  0.7978966E+03  0.7818609E-02  0.9563067E-01
        2   -1    0    0  501    0  0.00000000000E+00  0.00000000000E+00  0.64157849876E+03  0.64157849876E+03  0.25500000920E-02 0. -1.
       -2   -1    0    0    0  501  0.00000000000E+00  0.00000000000E+00 -0.24807524499E+03  0.24807524500E+03  0.25500000920E-02 0.  1.
    10030    2    1    2    0    0  0.00000000000E+00  0.00000000000E+00  0.39350325377E+03  0.88965374376E+03  0.79789659296E+03 0.  0.
        4    1    3    3  502    0  0.17428231215E+03 -0.35848015270E+03  0.21526820073E+03  0.45301694820E+03  0.12699999809E+01 0. -1.
       -4    1    3    3    0  502 -0.17428231215E+03  0.35848015270E+03  0.17823505304E+03  0.43663679556E+03  0.12699999809E+01 0.  1.
</event>
<event>
 5   0  0.2132540E-02  0.8011931E+03  0.7818609E-02  0.9558292E-01
       -1   -1    0    0    0  501  0.00000000000E+00  0.00000000000E+00  0.72329768887E+03  0.72329768889E+03  0.50400001928E-02 0.  1.
        1   -1    0    0  501    0  0.00000000000E+00  0.00000000000E+00 -0.22186933522E+03  0.22186933527E+03  0.50400001928E-02 0. -1.
    10030    2    1    2    0    0  0.00000000000E+00  0.00000000000E+00  0.50142835366E+03  0.94516702416E+03  0.80119305396E+03 0.  0.
        4    1    3    3  502    0  0.45007674169E+02  0.23628519336E+03  0.62862254141E+03  0.67307079553E+03  0.12699999809E+01 0.  1.
       -4    1    3    3    0  502 -0.45007674169E+02 -0.23628519336E+03 -0.12719418775E+03  0.27209622863E+03  0.12699999809E+01 0. -1.
</event>
<event>
 5   0  0.1358000E-02  0.8050785E+03  0.7818609E-02  0.9552695E-01
        4   -1    0    0  501    0  0.00000000000E+00  0.00000000000E+00  0.47290443489E+03  0.47290614020E+03  0.12699999809E+01 0.  1.
       -4   -1    0    0    0  501  0.00000000000E+00  0.00000000000E+00 -0.34264042774E+03  0.34264278136E+03  0.12699999809E+01 0. -1.
    10030    2    1    2    0    0  0.00000000000E+00  0.00000000000E+00  0.13026400715E+03  0.81554892157E+03  0.80507846320E+03 0.  0.
        4    1    3    3  502    0  0.24334578812E+02 -0.56296995368E+02  0.46814361012E+03  0.47214571481E+03  0.12699999809E+01 0.  1.
       -4    1    3    3    0  502 -0.24334578812E+02  0.56296995368E+02 -0.33787960297E+03  0.34340320676E+03  0.12699999809E+01 0. -1.
</event>
<event>
 5   0  0.2129257E-02  0.7751016E+03  0.7818609E-02  0.9596773E-01
       -1   -1    0    0    0  501  0.00000000000E+00  0.00000000000E+00  0.31050010431E+03  0.31050010435E+03  0.50400001928E-02 0. -1.
        1   -1    0    0  501    0  0.00000000000E+00  0.00000000000E+00 -0.48372168465E+03  0.48372168467E+03  0.50400001928E-02 0.  1.
    10030    2    1    2    0    0  0.00000000000E+00  0.00000000000E+00 -0.17322158034E+03  0.79422178902E+03  0.77510162835E+03 0.  0.
        3    1    3    3  502    0  0.25873956842E+03  0.90490504806E+02 -0.36734162161E+03  0.45833892797E+03  0.10100000352E+00 0.  1.
       -3    1    3    3    0  502 -0.25873956842E+03 -0.90490504806E+02  0.19412004127E+03  0.33588286105E+03  0.10100000352E+00 0. -1.
</event>
<event>
 5   0  0.2063692E-02  0.7880172E+03  0.7818609E-02  0.9577526E-01
        1   -1    0    0  501    0  0.00000000000E+00  0.00000000000E+00  0.71390684593E+03  0.71390684595E+03  0.50400001928E-02 0.  1.
       -1   -1    0    0    0  501  0.00000000000E+00  0.00000000000E+00 -0.21745522255E+03  0.21745522261E+03  0.50400001928E-02 0. -1.
    10030    2    1    2    0    0  0.00000000000E+00  0.00000000000E+00  0.49645162338E+03  0.93136206856E+03  0.78801718788E+03 0.  0.
        2    1    3    3  502    0  0.19232543498E+03 -0.58355834374E+02 -0.15231348766E+03  0.25217826011E+03  0.25500000920E-02 0. -1.
       -2    1    3    3    0  502 -0.19232543498E+03  0.58355834374E+02  0.64876511104E+03  0.67918380844E+03  0.25500000920E-02 0.  1.
</event>
<event>
 5   0  0.2129257E-02  0.8074533E+03  0.7818609E-02  0.9549291E-01
        1   -1    0    0  501    0  0.00000000000E+00  0.00000000000E+00  0.14636085640E+04  0.14636085640E+04  0.50400001928E-02 0.  1.
       -1   -1    0    0    0  501  0.00000000000E+00  0.00000000000E+00 -0.11136530484E+03  0.11136530495E+03  0.50400001928E-02 0. -1.
    10030    2    1    2    0    0  0.00000000000E+00  0.00000000000E+00  0.13522432591E+04  0.15749738689E+04  0.80745331501E+03 0.  0.
        3    1    3    3  502    0  0.26610154566E+03 -0.28497811594E+03  0.88044196236E+03  0.96291257052E+03  0.10100000352E+00 0.  1.
       -3    1    3    3    0  502 -0.26610154566E+03  0.28497811594E+03  0.47180129676E+03  0.61206129840E+03  0.10100000352E+00 0. -1.
</event>
<event>
 5   0  0.2077795E-02  0.7847323E+03  0.7818609E-02  0.9582383E-01
       -1   -1    0    0    0  501  0.00000000000E+00  0.00000000000E+00  0.38441674604E+03  0.38441674607E+03  0.50400001928E-02 0.  1.
        1   -1    0    0  501    0  0.00000000000E+00  0.00000000000E+00 -0.40047994726E+03  0.40047994729E+03  0.50400001928E-02 0. -1.
    10030    2    1    2    0    0  0.00000000000E+00  0.00000000000E+00 -0.16063201223E+02  0.78489669336E+03  0.78473230647E+03 0.  0.
        5    1    3    3  502    0  0.36130543735E+02 -0.36219321640E+03  0.13842231508E+03  0.38945111311E+03  0.46999998093E+01 0. -1.
       -5    1    3    3    0  502 -0.36130543735E+02  0.36219321640E+03 -0.15448551630E+03  0.39544558025E+03  0.46999998093E+01 0.  1.
</event>
<event>
 5   0  0.2077795E-02  0.7924997E+03  0.7818609E-02  0.9570937E-01
       -1   -1    0    0    0  501  0.00000000000E+00  0.00000000000E+00  0.27992694652E+03  0.27992694656E+03  0.50400001928E-02 0. -1.
        1   -1    0    0  501    0  0.00000000000E+00  0.00000000000E+00 -0.56091046926E+03  0.56091046928E+03  0.50400001928E-02 0.  1.
    10030    2    1    2    0    0  0.00000000000E+00  0.00000000000E+00 -0.28098352274E+03  0.84083741584E+03  0.79249972860E+03 0.  0.
        5    1    3    3  502    0 -0.29611963035E+02 -0.38978614187E+03 -0.71880963504E+02  0.39749096551E+03  0.46999998093E+01 0. -1.
       -5    1    3    3    0  502  0.29611963035E+02  0.38978614187E+03 -0.20910255924E+03  0.44334645033E+03  0.46999998093E+01 0.  1.
</event>
<event>
 5   0  0.2077795E-02  0.7976271E+03  0.7818609E-02  0.9563458E-01
        1   -1    0    0  501    0  0.00000000000E+00  0.00000000000E+00  0.16899535181E+03  0.16899535188E+03  0.50400001928E-02 0. -1.
       -1   -1    0    0    0  501  0.00000000000E+00  0.00000000000E+00 -0.94116341370E+03  0.94116341371E+03  0.50400001928E-02 0.  1.
    10030    2    1    2    0    0  0.00000000000E+00  0.00000000000E+00 -0.77216806189E+03  0.11101587656E+04  0.79762708644E+03 0.  0.
        5    1    3    3  502    0  0.15871112286E+02  0.28017664142E+03  0.82706618919E+01  0.28078699480E+03  0.46999998093E+01 0. -1.
       -5    1    3    3    0  502 -0.15871112286E+02 -0.28017664142E+03 -0.78043872378E+03  0.82937177079E+03  0.46999998093E+01 0.  1.
</event>
<event>
 5   0  0.3343036E-02  0.8204771E+03  0.7818609E-02  0.9530841E-01
        2   -1    0    0  501    0  0.00000000000E+00  0.00000000000E+00  0.44931482663E+03  0.44931482664E+03  0.25500000920E-02 0.  1.
       -2   -1    0    0    0  501  0.00000000000E+00  0.00000000000E+00 -0.37456071435E+03  0.37456071436E+03  0.25500000920E-02 0. -1.
    10030    2    1    2    0    0  0.00000000000E+00  0.00000000000E+00  0.74754112276E+02  0.82387554100E+03  0.82047713543E+03 0.  0.
        4    1    3    3  502    0  0.30031490139E+03  0.11782147542E+03 -0.21709544535E+03  0.38884828064E+03  0.12699999809E+01 0. -1.
       -4    1    3    3    0  502 -0.30031490139E+03 -0.11782147542E+03  0.29184955762E+03  0.43502726036E+03  0.12699999809E+01 0.  1.
</event>
<event>
 5   0  0.2132540E-02  0.7959721E+03  0.7818609E-02  0.9565866E-01
        1   -1    0    0  501    0  0.00000000000E+00  0.00000000000E+00  0.47214980474E+03  0.47214980477E+03  0.50400001928E-02 0.  1.
       -1   -1    0    0    0  501  0.00000000000E+00  0.00000000000E+00 -0.33547168997E+03  0.33547169001E+03  0.50400001928E-02 0. -1.
    10030    2    1    2    0    0  0.00000000000E+00  0.00000000000E+00  0.13667811477E+03  0.80762149478E+03  0.79597209233E+03 0.  0.
        4    1    3    3  502    0 -0.20989144826E+03  0.33426603286E+03  0.12010614403E+03  0.41257156896E+03  0.12699999809E+01 0. -1.
       -4    1    3    3    0  502  0.20989144826E+03 -0.33426603286E+03  0.16571970736E+02  0.39504992582E+03  0.12699999809E+01 0.  1.
</event>
<event>
 5   0  0.3550586E-02  0.8010003E+03  0.7818609E-02  0.9558570E-01
        2   -1    0    0  501    0  0.00000000000E+00  0.00000000000E+00  0.42216866233E+03  0.42216866234E+03  0.25500000920E-02 0. -1.
       -2   -1    0    0    0  501  0.00000000000E+00  0.00000000000E+00 -0.37994378223E+03  0.37994378223E+03  0.25500000920E-02 0.  1.
    10030    2    1    2    0    0  0.00000000000E+00  0.00000000000E+00  0.42224880103E+02  0.80211244457E+03  0.80100027043E+03 0.  0.
        3    1    3    3  502    0  0.11280302630E+03 -0.25466993509E+03  0.30929501177E+03  0.41622675682E+03  0.10100000352E+00 0. -1.
       -3    1    3    3    0  502 -0.11280302630E+03  0.25466993509E+03 -0.26707013167E+03  0.38588568775E+03  0.10100000352E+00 0.  1.
</event>
<event>
 5   0  0.3416160E-02  0.8107327E+03  0.7818609E-02  0.9544611E-01
       -2   -1    0    0    0  501  0.00000000000E+00  0.00000000000E+00  0.12220387313E+03  0.12220387315E+03  0.25500000920E-02 0. -1.
        2   -1    0    0  501    0  0.00000000000E+00  0.00000000000E+00 -0.13446534380E+04  0.13446534380E+04  0.25500000920E-02 0.  1.
    10030    2    1    2    0    0  0.00000000000E+00  0.00000000000E+00 -0.12224495649E+04  0.14668573111E+04  0.81073265175E+03 0.  0.
        1    1    3    3  502    0  0.32320409661E+03 -0.12429292832E+03 -0.22992940965E+03  0.41566471289E+03  0.50400001928E-02 0. -1.
       -1    1    3    3    0  502 -0.32320409661E+03  0.12429292832E+03 -0.99252015521E+03  0.10511925982E+04  0.50400001928E-02 0.  1.
</event>
<event>
 5   0  0.2132540E-02  0.8057459E+03  0.7818609E-02  0.9551737E-01
       -1   -1    0    0    0  501  0.00000000000E+00  0.00000000000E+00  0.87047382292E+02  0.87047382438E+02  0.50400001928E-02 0. -1.
        1   -1    0    0  501    0  0.00000000000E+00  0.00000000000E+00 -0.18645777945E+04  0.18645777945E+04  0.50400001928E-02 0.  1.
    10030    2    1    2    0    0  0.00000000000E+00  0.00000000000E+00 -0.17775304122E+04  0.19516251769E+04  0.80574590595E+03 0.  0.
        4    1    3    3  502    0  0.35284723893E+03 -0.14770392709E+03 -0.11950228542E+04  0.12547505167E+04  0.12699999809E+01 0.  1.
       -4    1    3    3    0  502 -0.35284723893E+03  0.14770392709E+03 -0.58250755793E+03  0.69687466021E+03  0.12699999809E+01 0. -1.
</event>
<event>
 5   0  0.3416160E-02  0.7924461E+03  0.7818609E-02  0.9571016E-01
       -2   -1    0    0    0  501  0.00000000000E+00  0.00000000000E+00  0.86240425452E+02  0.86240425490E+02  0.25500000920E-02 0.  1.
        2   -1    0    0  501    0  0.00000000000E+00  0.00000000000E+00 -0.18204075199E+04  0.18204075199E+04  0.25500000920E-02 0. -1.
    10030    2    1    2    0    0  0.00000000000E+00  0.00000000000E+00 -0.17341670945E+04  0.19066479454E+04  0.79244613458E+03 0.  0.
        1    1    3    3  502    0 -0.77773100698E+02  0.20985436919E+03 -0.80399779731E+02  0.23780587895E+03  0.50400001928E-02 0.  1.
       -1    1    3    3    0  502  0.77773100698E+02 -0.20985436919E+03 -0.16537673147E+04  0.16688420665E+04  0.50400001928E-02 0. -1.
</event>
<event>
 5   0  0.3550586E-02  0.7990154E+03  0.7818609E-02  0.9561443E-01
       -2   -1    0    0    0  501  0.00000000000E+00  0.00000000000E+00  0.27897306977E+03  0.27897306978E+03  0.25500000920E-02 0.  1.
        2   -1    0    0  501    0  0.00000000000E+00  0.00000000000E+00 -0.57212118852E+03  0.57212118853E+03  0.25500000920E-02 0. -1.
    10030    2    1    2    0    0  0.00000000000E+00  0.00000000000E+00 -0.29314811875E+03  0.85109425831E+03  0.79901540473E+03 0.  0.
        3    1    3    3  502    0 -0.37999563063E+03  0.29471113452E+02 -0.19013982214E+02  0.38161075397E+03  0.10100000352E+00 0. -1.
       -3    1    3    3    0  502  0.37999563063E+03 -0.29471113452E+02 -0.27413413653E+03  0.46948350433E+03  0.10100000352E+00 0.  1.
</event>
<event>
 5   0  0.2063692E-02  0.7971556E+03  0.7818609E-02  0.9564143E-01
       -1   -1    0    0    0  501  0.00000000000E+00  0.00000000000E+00  0.10294501115E+04  0.10294501116E+04  0.50400001928E-02 0. -1.
        1   -1    0    0  501    0  0.00000000000E+00  0.00000000000E+00 -0.15431954795E+03  0.15431954803E+03  0.50400001928E-02 0.  1.
    10030    2    1    2    0    0  0.00000000000E+00  0.00000000000E+00  0.87513056360E+03  0.11837696596E+04  0.79715563326E+03 0.  0.
        2    1    3    3  502    0 -0.77584045172E+02 -0.25430268521E+03 -0.33926455951E+01  0.26589593796E+03  0.25500000920E-02 0.  1.
       -2    1    3    3    0  502  0.77584045172E+02  0.25430268521E+03  0.87852320919E+03  0.91787372164E+03  0.25500000920E-02 0. -1.
</event>
<event>
 5   0  0.3550586E-02  0.7997266E+03  0.7818609E-02  0.9560413E-01
        2   -1    0    0  501    0  0.00000000000E+00  0.00000000000E+00  0.13931388183E+04  0.13931388183E+04  0.25500000920E-02 0. -1.
       -2   -1    0    0    0  501  0.00000000000E+00  0.00000000000E+00 -0.11477008257E+03  0.11477008260E+03  0.25500000920E-02 0.  1.
    10030    2    1    2    0    0  0.00000000000E+00  0.00000000000E+00  0.12783687357E+04  0.15079089009E+04  0.79972659636E+03 0.  0.
        3    1    3    3  502    0 -0.15875933957E+03  0.24243358856E+03  0.11586884859E+04  0.11943774907E+04  0.10100000352E+00 0. -1.
       -3    1    3    3    0  502  0.15875933957E+03 -0.24243358856E+03  0.11968024980E+03  0.31353141016E+03  0.10100000352E+00 0.  1.
</event>
<event>
 5   0  0.2132540E-02  0.7785742E+03  0.7818609E-02  0.9591559E-01
       -1   -1    0    0    0  501  0.00000000000E+00  0.00000000000E+00  0.29465591128E+03  0.29465591132E+03  0.50400001928E-02 0.  1.
        1   -1    0    0  501    0  0.00000000000E+00  0.00000000000E+00 -0.51430990180E+03  0.51430990183E+03  0.50400001928E-02 0. -1.
    10030    2    1    2    0    0  0.00000000000E+00  0.00000000000E+00 -0.21965399052E+03  0.80896581315E+03  0.77857421694E+03 0.  0.
        4    1    3    3  502    0 -0.20969344145E+03 -0.27076244187E+03 -0.30214447702E+03  0.45670180338E+03  0.12699999809E+01 0. -1.
       -4    1    3    3    0  502  0.20969344145E+03  0.27076244187E+03  0.82490486497E+02  0.35226400977E+03  0.12699999809E+01 0.  1.
</event>
<event>
 5   0  0.1358000E-02  0.6747573E+03  0.7818609E-02  0.9761402E-01
        4   -1    0    0  501    0  0.00000000000E+00  0.00000000000E+00  0.18007671905E+03  0.18008119736E+03  0.12699999809E+01 0. -1.
       -4   -1    0    0    0  501  0.00000000000E+00  0.00000000000E+00 -0.63207510010E+03  0.63207637598E+03  0.12699999809E+01 0.  1.
    10030    2    1    2    0    0  0.00000000000E+00  0.00000000000E+00 -0.45199838106E+03  0.81215757334E+03  0.67475728040E+03 0.  0.
        3    1    3    3  502    0  0.31718142292E+03 -0.90095594215E+01 -0.36396633783E+03  0.48286305769E+03  0.10100000352E+00 0.  1.
       -3    1    3    3    0  502 -0.31718142292E+03  0.90095594215E+01 -0.88032043225E+02  0.32929451565E+03  0.10100000352E+00 0. -1.
</event>
<event>
 5   0  0.2132540E-02  0.8121169E+03  0.7818609E-02  0.9542642E-01
       -1   -1    0    0    0  501  0.00000000000E+00  0.00000000000E+00  0.49839955689E+03  0.49839955692E+03  0.50400001928E-02 0. -1.
        1   -1    0    0  501    0  0.00000000000E+00  0.00000000000E+00 -0.33082587637E+03  0.33082587640E+03  0.50400001928E-02 0.  1.
    10030    2    1    2    0    0  0.00000000000E+00  0.00000000000E+00  0.16757368052E+03  0.82922543332E+03  0.81211691329E+03 0.  0.
        4    1    3    3  502    0  0.78026123459E+02 -0.17768708327E+03 -0.28040784248E+03  0.34101458404E+03  0.12699999809E+01 0.  1.
       -4    1    3    3    0  502 -0.78026123459E+02  0.17768708327E+03  0.44798152300E+03  0.48821084928E+03  0.12699999809E+01 0. -1.
</event>
<event>
 5   0  0.3416160E-02  0.8093029E+03  0.7818609E-02  0.9546648E-01
        2   -1    0    0  501    0  0.00000000000E+00  0.00000000000E+00  0.10225973999E+04  0.10225973999E+04  0.25500000920E-02 0.  1.
       -2   -1    0    0    0  501  0.00000000000E+00  0.00000000000E+00 -0.16012438965E+03  0.16012438968E+03  0.25500000920E-02 0. -1.
    10030    2    1    2    0    0  0.00000000000E+00  0.00000000000E+00  0.86247301029E+03  0.11827217896E+04  0.80930287172E+03 0.  0.
        1    1    3    3  502    0  0.20315059908E+03 -0.34892038041E+03  0.47064542146E+03  0.62009895222E+03  0.50400001928E-02 0. -1.
       -1    1    3    3    0  502 -0.20315059908E+03  0.34892038041E+03  0.39182758883E+03  0.56262283740E+03  0.50400001928E-02 0.  1.
</event>
<event>
 5   0  0.1989298E-02  0.7807742E+03  0.7818609E-02  0.9588270E-01
        1   -1    0    0  501    0  0.00000000000E+00  0.00000000000E+00  0.10881842000E+04  0.10881842000E+04  0.50400001928E-02 0.  1.
       -1   -1    0    0    0  501  0.00000000000E+00  0.00000000000E+00 -0.14005173063E+03  0.14005173072E+03  0.50400001928E-02 0. -1.
    10030    2    1    2    0    0  0.00000000000E+00  0.00000000000E+00  0.94813246939E+03  0.12282359308E+04  0.78077418124E+03 0.  0.
        1    1    3    3  502    0 -0.12075073515E+03  0.12299918022E+03  0.10250837917E+04  0.10394740585E+04  0.50400001928E-02 0.  1.
       -1    1    3    3    0  502  0.12075073515E+03 -0.12299918022E+03 -0.76951322297E+02  0.18876187222E+03  0.50400001928E-02 0. -1.
</event>
<event>
 5   0  0.2063692E-02  0.7989738E+03  0.7818609E-02  0.9561504E-01
       -1   -1    0    0    0  501  0.00000000000E+00  0.00000000000E+00  0.14344265222E+03  0.14344265231E+03  0.50400001928E-02 0.  1.
        1   -1    0    0  501    0  0.00000000000E+00  0.00000000000E+00 -0.11125684507E+04  0.11125684507E+04  0.50400001928E-02 0. -1.
    10030    2    1    2    0    0  0.00000000000E+00  0.00000000000E+00 -0.96912579844E+03  0.12560111030E+04  0.79897376527E+03 0.  0.
        2    1    3    3  502    0 -0.18643873831E+03 -0.24447117884E+03 -0.83574289615E+02  0.31860668907E+03  0.25500000920E-02 0. -1.
       -2    1    3    3    0  502  0.18643873831E+03  0.24447117884E+03 -0.88555150883E+03  0.93740441391E+03  0.25500000920E-02 0.  1.
</event>
<event>
 5   0  0.3467240E-02  0.8062531E+03  0.7818609E-02  0.9551010E-01
       -2   -1    0    0    0  501  0.00000000000E+00  0.00000000000E+00  0.77186588159E+03  0.77186588159E+03  0.25500000920E-02 0.  1.
        2   -1    0    0  501    0  0.00000000000E+00  0.00000000000E+00 -0.21054305855E+03  0.21054305856E+03  0.25500000920E-02 0. -1.
    10030    2    1    2    0    0  0.00000000000E+00  0.00000000000E+00  0.56132282304E+03  0.98240894016E+03  0.80625307071E+03 0.  0.
        2    1    3    3  502    0  0.93629757662E+02 -0.35156875649E+03  0.69107767336E+02  0.37032824031E+03  0.25500000920E-02 0. -1.
       -2    1    3    3    0  502 -0.93629757662E+02  0.35156875649E+03  0.49221505570E+03  0.61208069985E+03  0.25500000920E-02 0.  1.
</event>
<event>
 5   0  0.3467240E-02  0.7828115E+03  0.7818609E-02  0.9585236E-01
       -2   -1    0    0    0  501  0.00000000000E+00  0.00000000000E+00  0.18515445920E+03  0.18515445922E+03  0.25500000920E-02 0. -1.
        2   -1    0    0  501    0  0.00000000000E+00  0.00000000000E+00 -0.82740892377E+03  0.82740892377E+03  0.25500000920E-02 0.  1.
    10030    2    1    2    0    0  0.00000000000E+00  0.00000000000E+00 -0.64225446457E+03  0.10125633830E+04  0.78281147623E+03 0.  0.
        2    1    3    3  502    0  0.26214707315E+03  0.27372215351E+03 -0.19469804507E+03  0.42608946718E+03  0.25500000920E-02 0.  1.
       -2    1    3    3    0  502 -0.26214707315E+03 -0.27372215351E+03 -0.44755641950E+03  0.58647391581E+03  0.25500000920E-02 0. -1.
</event>
<event>
 5   0  0.3404132E-02  0.5386465E+03  0.7818609E-02  0.1004157E+00
       -2   -1    0    0    0  501  0.00000000000E+00  0.00000000000E+00  0.45886026872E+03  0.45886026873E+03  0.25500000920E-02 0.  1.
        2   -1    0    0  501    0  0.00000000000E+00  0.00000000000E+00 -0.15807646832E+03  0.15807646834E+03  0.25500000920E-02 0. -1.
    10030    2    1    2    0    0  0.00000000000E+00  0.00000000000E+00  0.30078380040E+03  0.61693673706E+03  0.53864649164E+03 0.  0.
        5    1    3    3  502    0  0.14808917859E+03  0.16511732843E+03 -0.24508073582E+02  0.22319693688E+03  0.46999998093E+01 0. -1.
       -5    1    3    3    0  502 -0.14808917859E+03 -0.16511732843E+03  0.32529187398E+03  0.39373980018E+03  0.46999998093E+01 0.  1.
</event>
<event>
 5   0  0.3416160E-02  0.1017990E+04  0.7818609E-02  0.9289031E-01
        2   -1    0    0  501    0  0.00000000000E+00  0.00000000000E+00  0.13275146293E+04  0.13275146293E+04  0.25500000920E-02 0.  1.
       -2   -1    0    0    0  501  0.00000000000E+00  0.00000000000E+00 -0.19515859101E+03  0.19515859103E+03  0.25500000920E-02 0. -1.
    10030    2    1    2    0    0  0.00000000000E+00  0.00000000000E+00  0.11323560383E+04  0.15226732203E+04  0.10179899501E+04 0.  0.
        1    1    3    3  502    0  0.18733574327E+03 -0.35781501939E+03  0.10295020641E+04  0.11058936517E+04  0.50400001928E-02 0.  1.
       -1    1    3    3    0  502 -0.18733574327E+03  0.35781501939E+03  0.10285397418E+03  0.41677956865E+03  0.50400001928E-02 0. -1.
</event>
<event>
 5   0  0.2129257E-02  0.7705941E+03  0.7818609E-02  0.9603584E-01
       -1   -1    0    0    0  501  0.00000000000E+00  0.00000000000E+00  0.28104091323E+03  0.28104091328E+03  0.50400001928E-02 0.  1.
        1   -1    0    0  501    0  0.00000000000E+00  0.00000000000E+00 -0.52822851432E+03  0.52822851434E+03  0.50400001928E-02 0. -1.
    10030    2    1    2    0    0  0.00000000000E+00  0.00000000000E+00 -0.24718760109E+03  0.80926942762E+03  0.77059411907E+03 0.  0.
        3    1    3    3  502    0 -0.75007824933E+02  0.89033326826E+02 -0.50931593053E+03  0.52245175316E+03  0.10100000352E+00 0. -1.
       -3    1    3    3    0  502  0.75007824933E+02 -0.89033326826E+02  0.26212832944E+03  0.28681767446E+03  0.10100000352E+00 0.  1.
</event>
<event>
 5   0  0.3343036E-02  0.8342978E+03  0.7818609E-02  0.9511658E-01
        2   -1    0    0  501    0  0.00000000000E+00  0.00000000000E+00  0.73533837421E+03  0.73533837422E+03  0.25500000920E-02 0. -1.
       -2   -1    0    0    0  501  0.00000000000E+00  0.00000000000E+00 -0.23664369376E+03  0.23664369378E+03  0.25500000920E-02 0.  1.
    10030    2    1    2    0    0  0.00000000000E+00  0.00000000000E+00  0.49869468045E+03  0.97198206800E+03  0.83429776231E+03 0.  0.
        4    1    3    3  502    0 -0.25591850815E+03  0.25480571966E+03  0.61060622186E+01  0.36119127133E+03  0.12699999809E+01 0.  1.
       -4    1    3    3    0  502  0.25591850815E+03 -0.25480571966E+03  0.49258861823E+03  0.61079079667E+03  0.12699999809E+01 0. -1.
</event>
<event>
 5   0  0.3404132E-02  0.9120133E+03  0.7818609E-02  0.9410688E-01
        2   -1    0    0  501    0  0.00000000000E+00  0.00000000000E+00  0.55049091177E+03  0.55049091177E+03  0.25500000920E-02 0.  1.
       -2   -1    0    0    0  501  0.00000000000E+00  0.00000000000E+00 -0.37773929771E+03  0.37773929772E+03  0.25500000920E-02 0. -1.
    10030    2    1    2    0    0  0.00000000000E+00  0.00000000000E+00  0.17275161406E+03  0.92823020949E+03  0.91201326835E+03 0.  0.
        5    1    3    3  502    0  0.21430574311E+03 -0.31504269753E+03 -0.16855987902E+03  0.41666938406E+03  0.46999998093E+01 0. -1.
       -5    1    3    3    0  502 -0.21430574311E+03  0.31504269753E+03  0.34131149308E+03  0.51156082543E+03  0.46999998093E+01 0.  1.
</event>
<event>
 5   0  0.3416160E-02  0.8020545E+03  0.7818609E-02  0.9557048E-01
       -2   -1    0    0    0  501  0.00000000000E+00  0.00000000000E+00  0.50638106455E+03  0.50638106456E+03  0.25500000920E-02 0. -1.
        2   -1    0    0  501    0  0.00000000000E+00  0.00000000000E+00 -0.31759255564E+03  0.31759255565E+03  0.25500000920E-02 0.  1.
    10030    2    1    2    0    0  0.00000000000E+00  0.00000000000E+00  0.18878850891E+03  0.82397362020E+03  0.80205450294E+03 0.  0.
        1    1    3    3  502    0  0.46376558575E+02 -0.17334955878E+03  0.46283449608E+03  0.49640369207E+03  0.50400001928E-02 0. -1.
       -1    1    3    3    0  502 -0.46376558575E+02  0.17334955878E+03 -0.27404598716E+03  0.32756992814E+03  0.50400001928E-02 0.  1.
</event>
<event>
 5   0  0.1989298E-02  0.8215142E+03  0.7818609E-02  0.9529388E-01
       -1   -1    0    0    0  501  0.00000000000E+00  0.00000000000E+00  0.13064238223E+04  0.13064238223E+04  0.50400001928E-02 0. -1.
        1   -1    0    0  501    0  0.00000000000E+00  0.00000000000E+00 -0.12914752033E+03  0.12914752043E+03  0.50400001928E-02 0.  1.
    10030    2    1    2    0    0  0.00000000000E+00  0.00000000000E+00  0.11772763020E+04  0.14355713427E+04  0.82151420494E+03 0.  0.
        1    1    3    3  502    0  0.44890890557E+00 -0.32096889146E+03  0.10365503984E+04  0.10851073492E+04  0.50400001928E-02 0. -1.
       -1    1    3    3    0  502 -0.44890890557E+00  0.32096889146E+03  0.14072590354E+03  0.35046399353E+03  0.50400001928E-02 0.  1.
</event>
<event>
 5   0  0.1358000E-02  0.7979963E+03  0.7818609E-02  0.9562922E-01
        4   -1    0    0  501    0  0.00000000000E+00  0.00000000000E+00  0.21210330477E+03  0.21210710689E+03  0.12699999809E+01 0. -1.
       -4   -1    0    0    0  501  0.00000000000E+00  0.00000000000E+00 -0.75056436773E+03  0.75056544218E+03  0.12699999809E+01 0.  1.
    10030    2    1    2    0    0  0.00000000000E+00  0.00000000000E+00 -0.53846106296E+03  0.96267254907E+03  0.79799631604E+03 0.  0.
        4    1    3    3  502    0  0.17007748385E+03 -0.19972119038E+03 -0.63190844490E+03  0.68419646304E+03  0.12699999809E+01 0.  1.
       -4    1    3    3    0  502 -0.17007748385E+03  0.19972119038E+03  0.93447381935E+02  0.27847608603E+03  0.12699999809E+01 0. -1.
</event>
<event>
 5   0  0.2063692E-02  0.8128551E+03  0.7818609E-02  0.9541594E-01
        1   -1    0    0  501    0  0.00000000000E+00  0.00000000000E+00  0.69739201001E+03  0.69739201003E+03  0.50400001928E-02 0. -1.
       -1   -1    0    0    0  501  0.00000000000E+00  0.00000000000E+00 -0.23685870307E+03  0.23685870313E+03  0.50400001928E-02 0.  1.
    10030    2    1    2    0    0  0.00000000000E+00  0.00000000000E+00  0.46053330693E+03  0.93425071316E+03  0.81285513361E+03 0.  0.
        2    1    3    3  502    0  0.32637039386E+03  0.21209197862E+03  0.95824148738E+02  0.40085272716E+03  0.25500000920E-02 0.  1.
       -2    1    3    3    0  502 -0.32637039386E+03 -0.21209197862E+03  0.36470915820E+03  0.53339798599E+03  0.25500000920E-02 0. -1.
</event>
<event>
 5   0  0.3467240E-02  0.7951838E+03  0.7818609E-02  0.9567015E-01
        2   -1    0    0  501    0  0.00000000000E+00  0.00000000000E+00  0.42431645148E+03  0.42431645149E+03  0.25500000920E-02 0.  1.
       -2   -1    0    0    0  501  0.00000000000E+00  0.00000000000E+00 -0.37255052361E+03  0.37255052362E+03  0.25500000920E-02 0. -1.
    10030    2    1    2    0    0  0.00000000000E+00  0.00000000000E+00  0.51765927865E+02  0.79686697511E+03  0.79518379305E+03 0.  0.
        2    1    3    3  502    0 -0.19010237588E+02 -0.24250740662E+03  0.34104522299E+03  0.41890700105E+03  0.25500000920E-02 0.  1.
       -2    1    3    3    0  502  0.19010237588E+02  0.24250740662E+03 -0.28927929512E+03  0.37795997406E+03  0.25500000920E-02 0. -1.
</event>
<event>
 5   0  0.3343036E-02  0.7916097E+03  0.7818609E-02  0.9572242E-01
       -2   -1    0    0    0  501  0.00000000000E+00  0.00000000000E+00  0.12293935098E+03  0.12293935101E+03  0.25500000920E-02 0. -1.
        2   -1    0    0  501    0  0.00000000000E+00  0.00000000000E+00 -0.12742989138E+04  0.12742989138E+04  0.25500000920E-02 0.  1.
    10030    2    1    2    0    0  0.00000000000E+00  0.00000000000E+00 -0.11513595628E+04  0.13972382648E+04  0.79160970545E+03 0.  0.
        4    1    3    3  502    0 -0.59658781976E+02 -0.56928967278E+02 -0.12589648364E+04  0.12616632473E+04  0.12699999809E+01 0.  1.
       -4    1    3    3    0  502  0.59658781976E+02  0.56928967278E+02  0.10760527351E+03  0.13557501750E+03  0.12699999809E+01 0. -1.
</event>
<event>
 5   0  0.3404132E-02  0.8012718E+03  0.7818609E-02  0.9558178E-01
        2   -1    0    0  501    0  0.00000000000E+00  0.00000000000E+00  0.99613063037E+03  0.99613063037E+03  0.25500000920E-02 0.  1.
       -2   -1    0    0    0  501  0.00000000000E+00  0.00000000000E+00 -0.16113259911E+03  0.16113259913E+03  0.25500000920E-02 0. -1.
    10030    2    1    2    0    0  0.00000000000E+00  0.00000000000E+00  0.83499803126E+03  0.11572632295E+04  0.80127178295E+03 0.  0.
        5    1    3    3  502    0  0.18252388046E+02 -0.28271428951E+03  0.82658184463E+03  0.87379640365E+03  0.46999998093E+01 0.  1.
       -5    1    3    3    0  502 -0.18252388046E+02  0.28271428951E+03  0.84161866286E+01  0.28346682585E+03  0.46999998093E+01 0. -1.
</event>
<event>
 5   0  0.2132540E-02  0.7992064E+03  0.7818609E-02  0.9561167E-01
        1   -1    0    0  501    0  0.00000000000E+00  0.00000000000E+00  0.93341031139E+03  0.93341031140E+03  0.50400001928E-02 0.  1.
       -1   -1    0    0    0  501  0.00000000000E+00  0.00000000000E+00 -0.17107449929E+03  0.17107449936E+03  0.50400001928E-02 0. -1.
    10030    2    1    2    0    0  0.00000000000E+00  0.00000000000E+00  0.76233581210E+03  0.11044848108E+04  0.79920636058E+03 0.  0.
        4    1    3    3  502    0 -0.63964796091E+02  0.34331790171E+03  0.64957905015E+03  0.73750473359E+03  0.12699999809E+01 0.  1.
       -4    1    3    3    0  502  0.63964796091E+02 -0.34331790171E+03  0.11275676195E+03  0.36698007717E+03  0.12699999809E+01 0. -1.
</event>
<event>
 5   0  0.2132540E-02  0.8036379E+03  0.7818609E-02  0.9554766E-01
       -1   -1    0    0    0  501  0.00000000000E+00  0.00000000000E+00  0.33970108747E+03  0.33970108750E+03  0.50400001928E-02 0.  1.
        1   -1    0    0  501    0  0.00000000000E+00  0.00000000000E+00 -0.47529565737E+03  0.47529565740E+03  0.50400001928E-02 0. -1.
    10030    2    1    2    0    0  0.00000000000E+00  0.00000000000E+00 -0.13559456991E+03  0.81499674490E+03  0.80363785800E+03 0.  0.
        4    1    3    3  502    0  0.24059325933E+03 -0.62696453974E+02 -0.38791835322E+03  0.46075831348E+03  0.12699999809E+01 0. -1.
       -4    1    3    3    0  502 -0.24059325933E+03  0.62696453974E+02  0.25232378331E+03  0.35423843143E+03  0.12699999809E+01 0.  1.
</event>
<event>
 5   0  0.3467240E-02  0.8077953E+03  0.7818609E-02  0.9548802E-01
       -2   -1    0    0    0  501  0.00000000000E+00  0.00000000000E+00  0.57708364828E+03  0.57708364828E+03  0.25500000920E-02 0.  1.
        2   -1    0    0  501    0  0.00000000000E+00  0.00000000000E+00 -0.28268572398E+03  0.28268572399E+03  0.25500000920E-02 0. -1.
    10030    2    1    2    0    0  0.00000000000E+00  0.00000000000E+00  0.29439792430E+03  0.85976937228E+03  0.80779529317E+03 0.  0.
        2    1    3    3  502    0 -0.48453906673E+02  0.38966344190E+03  0.24787866798E+03  0.46435892699E+03  0.25500000920E-02 0.  1.
       -2    1    3    3    0  502  0.48453906673E+02 -0.38966344190E+03  0.46519256318E+02  0.39541044529E+03  0.25500000920E-02 0. -1.
</event>
<event>
 5   0  0.3416160E-02  0.9685419E+03  0.7818609E-02  0.9343737E-01
        2   -1    0    0  501    0  0.00000000000E+00  0.00000000000E+00  0.81705248696E+03  0.81705248696E+03  0.25500000920E-02 0.  1.
       -2   -1    0    0    0  501  0.00000000000E+00  0.00000000000E+00 -0.28702972733E+03  0.28702972734E+03  0.25500000920E-02 0. -1.
    10030    2    1    2    0    0  0.00000000000E+00  0.00000000000E+00  0.53002275963E+03  0.11040822143E+04  0.96854189905E+03 0.  0.
        1    1    3    3  502    0 -0.88775073355E+02  0.47571641792E+03  0.24426478061E+03  0.54208155014E+03  0.50400001928E-02 0. -1.
       -1    1    3    3    0  502  0.88775073355E+02 -0.47571641792E+03  0.28575797902E+03  0.56200066417E+03  0.50400001928E-02 0.  1.
</event>
<event>
 5   0  0.3416160E-02  0.7998025E+03  0.7818609E-02  0.9560303E-01
        2   -1    0    0  501    0  0.00000000000E+00  0.00000000000E+00  0.67289866813E+03  0.67289866813E+03  0.25500000920E-02 0. -1.
       -2   -1    0    0    0  501  0.00000000000E+00  0.00000000000E+00 -0.23765989083E+03  0.23765989085E+03  0.25500000920E-02 0.  1.
    10030    2    1    2    0    0  0.00000000000E+00  0.00000000000E+00  0.43523877730E+03  0.91055855898E+03  0.79980253567E+03 0.  0.
        1    1    3    3  502    0 -0.38742146601E+03 -0.16365037097E+01  0.33045499029E+03  0.50921367922E+03  0.50400001928E-02 0.  1.
       -1    1    3    3    0  502  0.38742146601E+03  0.16365037097E+01  0.10478378700E+03  0.40134487976E+03  0.50400001928E-02 0. -1.
</event>
<event>
 5   0  0.2063692E-02  0.7974843E+03  0.7818609E-02  0.9563666E-01
        1   -1    0    0  501    0  0.00000000000E+00  0.00000000000E+00  0.13837801544E+04  0.13837801544E+04  0.50400001928E-02 0.  1.
       -1   -1    0    0    0  501  0.00000000000E+00  0.00000000000E+00 -0.11489924631E+03  0.11489924642E+03  0.50400001928E-02 0. -1.
    10030    2    1    2    0    0  0.00000000000E+00  0.00000000000E+00  0.12688809080E+04  0.14986794008E+04  0.79748428669E+03 0.  0.
        2    1    3    3  502    0 -0.11773660950E+03  0.15570375438E+03  0.12878437254E+04  0.13025540409E+04  0.25500000920E-02 0.  1.
       -2    1    3    3    0  502  0.11773660950E+03 -0.15570375438E+03 -0.18962817359E+02  0.19612535990E+03  0.25500000920E-02 0. -1.
</event>
<event>
 5   0  0.3404132E-02  0.8011971E+03  0.7818609E-02  0.9558286E-01
        2   -1    0    0  501    0  0.00000000000E+00  0.00000000000E+00  0.56752429730E+03  0.56752429730E+03  0.25500000920E-02 0.  1.
       -2   -1    0    0    0  501  0.00000000000E+00  0.00000000000E+00 -0.28277063502E+03  0.28277063504E+03  0.25500000920E-02 0. -1.
    10030    2    1    2    0    0  0.00000000000E+00  0.00000000000E+00  0.28475366227E+03  0.85029493234E+03  0.80119711918E+03 0.  0.
        5    1    3    3  502    0 -0.38136855083E+02  0.17060463193E+03  0.52487500316E+03  0.55324155582E+03  0.46999998093E+01 0.  1.
       -5    1    3    3    0  502  0.38136855083E+02 -0.17060463193E+03 -0.24012134088E+03  0.29705337652E+03  0.46999998093E+01 0. -1.
</event>
<event>
 5   0  0.2132540E-02  0.7943149E+03  0.7818609E-02  0.9568283E-01
       -1   -1    0    0    0  501  0.00000000000E+00  0.00000000000E+00  0.24690486015E+03  0.24690486020E+03  0.50400001928E-02 0. -1.
        1   -1    0    0  501    0  0.00000000000E+00  0.00000000000E+00 -0.63884536378E+03  0.63884536380E+03  0.50400001928E-02 0.  1.
    10030    2    1    2    0    0  0.00000000000E+00  0.00000000000E+00 -0.39194050363E+03  0.88575022401E+03  0.79431486260E+03 0.  0.
        4    1    3    3  502    0  0.41778587384E+02  0.11262436561E+03  0.22615933258E+03  0.25608466316E+03  0.12699999809E+01 0. -1.
       -4    1    3    3    0  502 -0.41778587384E+02 -0.11262436561E+03 -0.61809983621E+03  0.62966556085E+03  0.12699999809E+01 0.  1.
</event>
<event>
 5   0  0.1989298E-02  0.7911785E+03  0.7818609E-02  0.9572874E-01
       -1   -1    0    0    0  501  0.00000000000E+00  0.00000000000E+00  0.21274667528E+03  0.21274667534E+03  0.50400001928E-02 0. -1.
        1   -1    0    0  501    0  0.00000000000E+00  0.00000000000E+00 -0.73557377127E+03  0.73557377128E+03  0.50400001928E-02 0.  1.
    10030    2    1    2    0    0  0.00000000000E+00  0.00000000000E+00 -0.52282709598E+03  0.94832044663E+03  0.79117854950E+03 0.  0.
        1    1    3    3  502    0  0.20947235740E+03  0.33469139261E+03 -0.29062337843E+03  0.49026415830E+03  0.50400001928E-02 0.  1.
       -1    1    3    3    0  502 -0.20947235740E+03 -0.33469139261E+03 -0.23220371755E+03  0.45805628832E+03  0.50400001928E-02 0. -1.
</event>
<event>
 5   0  0.1989298E-02  0.7765900E+03  0.7818609E-02  0.9594534E-01
       -1   -1    0    0    0  501  0.00000000000E+00  0.00000000000E+00  0.65940657612E+03  0.65940657614E+03  0.50400001928E-02 0. -1.
        1   -1    0    0  501    0  0.00000000000E+00  0.00000000000E+00 -0.22864951751E+03  0.22864951757E+03  0.50400001928E-02 0.  1.
    10030    2    1    2    0    0  0.00000000000E+00  0.00000000000E+00  0.43075705861E+03  0.88805609371E+03  0.77658997034E+03 0.  0.
        1    1    3    3  502    0 -0.36124299949E+03  0.98210480369E+02  0.33328553468E+03  0.50121956345E+03  0.50400001928E-02 0.  1.
       -1    1    3    3    0  502  0.36124299949E+03 -0.98210480369E+02  0.97471523926E+02  0.38683653025E+03  0.50400001928E-02 0. -1.
</event>
<event>
 5   0  0.1358000E-02  0.7905997E+03  0.7818609E-02  0.9573724E-01
        4   -1    0    0  501    0  0.00000000000E+00  0.00000000000E+00  0.13651798041E+03  0.13652388757E+03  0.12699999809E+01 0. -1.
       -4   -1    0    0    0  501  0.00000000000E+00  0.00000000000E+00 -0.11445944983E+04  0.11445952029E+04  0.12699999809E+01 0.  1.
    10030    2    1    2    0    0  0.00000000000E+00  0.00000000000E+00 -0.10080765179E+04  0.12811190905E+04  0.79059968251E+03 0.  0.
        5    1    3    3  502    0 -0.30547092421E+03  0.57549607708E+02 -0.10838730835E+03  0.32923295931E+03  0.46999998093E+01 0. -1.
       -5    1    3    3    0  502  0.30547092421E+03 -0.57549607708E+02 -0.89968920956E+03  0.95188613116E+03  0.46999998093E+01 0.  1.
</event>
<event>
 5   0  0.1358000E-02  0.8167085E+03  0.7818609E-02  0.9536142E-01
        3   -1    0    0  501    0  0.00000000000E+00  0.00000000000E+00  0.45820886499E+03  0.45820887612E+03  0.10100000352E+00 0. -1.
       -3   -1    0    0    0  501  0.00000000000E+00  0.00000000000E+00 -0.36392395573E+03  0.36392396975E+03  0.10100000352E+00 0.  1.
    10030    2    1    2    0    0  0.00000000000E+00  0.00000000000E+00  0.94284909260E+02  0.82213284587E+03  0.81670849888E+03 0.  0.
        3    1    3    3  502    0 -0.19045351972E+03  0.31640072962E+03 -0.12828842006E+03  0.39094743099E+03  0.10100000352E+00 0.  1.
       -3    1    3    3    0  502  0.19045351972E+03 -0.31640072962E+03  0.22257332932E+03  0.43118541488E+03  0.10100000352E+00 0. -1.
</event>
<event>
 5   0  0.1989298E-02  0.8390254E+03  0.7818609E-02  0.9505186E-01
       -1   -1    0    0    0  501  0.00000000000E+00  0.00000000000E+00  0.14438110442E+03  0.14438110450E+03  0.50400001928E-02 0. -1.
        1   -1    0    0  501    0  0.00000000000E+00  0.00000000000E+00 -0.12189330185E+04  0.12189330185E+04  0.50400001928E-02 0.  1.
    10030    2    1    2    0    0  0.00000000000E+00  0.00000000000E+00 -0.10745519141E+04  0.13633141230E+04  0.83902537622E+03 0.  0.
        1    1    3    3  502    0  0.11488839976E+03  0.13682348016E+03 -0.11540256636E+04  0.11677736259E+04  0.50400001928E-02 0.  1.
       -1    1    3    3    0  502 -0.11488839976E+03 -0.13682348016E+03  0.79473749504E+02  0.19554049711E+03  0.50400001928E-02 0. -1.
</event>
<event>
 5   0  0.3550586E-02  0.7862132E+03  0.7818609E-02  0.9580190E-01
        2   -1    0    0  501    0  0.00000000000E+00  0.00000000000E+00  0.40894478715E+03  0.40894478716E+03  0.25500000920E-02 0. -1.
       -2   -1    0    0    0  501  0.00000000000E+00  0.00000000000E+00 -0.37788183143E+03  0.37788183144E+03  0.25500000920E-02 0.  1.
    10030    2    1    2    0    0  0.00000000000E+00  0.00000000000E+00  0.31062955715E+02  0.78682661860E+03  0.78621321568E+03 0.  0.
        3    1    3    3  502    0 -0.20314657787E+03  0.33295327482E+03  0.64624613689E+02  0.39535144645E+03  0.10100000352E+00 0.  1.
       -3    1    3    3    0  502  0.20314657787E+03 -0.33295327482E+03 -0.33561657974E+02  0.39147517214E+03  0.10100000352E+00 0. -1.
</event>
<event>
 5   0  0.1989298E-02  0.7799393E+03  0.7818609E-02  0.9589517E-01
       -1   -1    0    0    0  501  0.00000000000E+00  0.00000000000E+00  0.39582351559E+03  0.39582351562E+03  0.50400001928E-02 0.  1.
        1   -1    0    0  501    0  0.00000000000E+00  0.00000000000E+00 -0.38420235462E+03  0.38420235465E+03  0.50400001928E-02 0. -1.
    10030    2    1    2    0    0  0.00000000000E+00  0.00000000000E+00  0.11621160972E+02  0.78002587027E+03  0.77993929694E+03 0.  0.
        1    1    3    3  502    0  0.11780727665E+03 -0.37108364557E+03 -0.16433746751E+02  0.38968152958E+03  0.50400001928E-02 0. -1.
       -1    1    3    3    0  502 -0.11780727665E+03  0.37108364557E+03  0.28054907722E+02  0.39034434069E+03  0.50400001928E-02 0.  1.
</event>
<event>
 5   0  0.3343036E-02  0.8074739E+03  0.7818609E-02  0.9549261E-01
        2   -1    0    0  501    0  0.00000000000E+00  0.00000000000E+00  0.13799726277E+04  0.13799726277E+04  0.25500000920E-02 0.  1.
       -2   -1    0    0    0  501  0.00000000000E+00  0.00000000000E+00 -0.11812084675E+03  0.11812084678E+03  0.25500000920E-02 0. -1.
    10030    2    1    2    0    0  0.00000000000E+00  0.00000000000E+00  0.12618517810E+04  0.14980934745E+04  0.80747392603E+03 0.  0.
        4    1    3    3  502    0 -0.75976885942E+01  0.39913538488E+03  0.74278493337E+03  0.84326618009E+03  0.12699999809E+01 0.  1.
       -4    1    3    3    0  502  0.75976885942E+01 -0.39913538488E+03  0.51906684762E+03  0.65482729444E+03  0.12699999809E+01 0. -1.
</event>
<event>
 5   0  0.3550586E-02  0.7925899E+03  0.7818609E-02  0.9570805E-01
        2   -1    0    0  501    0  0.00000000000E+00  0.00000000000E+00  0.72375368029E+03  0.72375368030E+03  0.25500000920E-02 0. -1.
       -2   -1    0    0    0  501  0.00000000000E+00  0.00000000000E+00 -0.21699330984E+03  0.21699330986E+03  0.25500000920E-02 0.  1.
    10030    2    1    2    0    0  0.00000000000E+00  0.00000000000E+00  0.50676037045E+03  0.94074699015E+03  0.79258994848E+03 0.  0.
        3    1    3    3  502    0  0.20071769745E+03 -0.23516278238E+03  0.54763431200E+03  0.62888192705E+03  0.10100000352E+00 0. -1.
       -3    1    3    3    0  502 -0.20071769745E+03  0.23516278238E+03 -0.40873941556E+02  0.31186506310E+03  0.10100000352E+00 0.  1.
</event>
<event>
 5   0  0.3467240E-02  0.8093129E+03  0.7818609E-02  0.9546634E-01
        2   -1    0    0  501    0  0.00000000000E+00  0.00000000000E+00  0.17107840452E+03  0.17107840454E+03  0.25500000920E-02 0.  1.
       -2   -1    0    0    0  501  0.00000000000E+00  0.00000000000E+00 -0.95714496108E+03  0.95714496109E+03  0.25500000920E-02 0. -1.
    10030    2    1    2    0    0  0.00000000000E+00  0.00000000000E+00 -0.78606655657E+03  0.11282233656E+04  0.80931287608E+03 0.  0.
        2    1    3    3  502    0 -0.19522813596E+03 -0.22460932097E+03 -0.77527650275E+03  0.83043183215E+03  0.25500000920E-02 0. -1.
       -2    1    3    3    0  502  0.19522813596E+03  0.22460932097E+03 -0.10790053821E+02  0.29779153347E+03  0.25500000920E-02 0.  1.
</event>
<event>
 5   0  0.2077795E-02  0.8060165E+03  0.7818609E-02  0.9551349E-01
        1   -1    0    0  501    0  0.00000000000E+00  0.00000000000E+00  0.91578876933E+03  0.91578876935E+03  0.50400001928E-02 0. -1.
       -1   -1    0    0    0  501  0.00000000000E+00  0.00000000000E+00 -0.17735054236E+03  0.17735054243E+03  0.50400001928E-02 0.  1.
    10030    2    1    2    0    0  0.00000000000E+00  0.00000000000E+00  0.73843822697E+03  0.10931393118E+04  0.80601646379E+03 0.  0.
        5    1    3    3  502    0 -0.51047931252E+02  0.34567519931E+03  0.64146682693E+03  0.73047862033E+03  0.46999998093E+01 0. -1.
       -5    1    3    3    0  502  0.51047931252E+02 -0.34567519931E+03  0.96971400041E+02  0.36266069145E+03  0.46999998093E+01 0.  1.
</event>
<event>
 5   0  0.1989298E-02  0.8754119E+03  0.7818609E-02  0.9456851E-01
       -1   -1    0    0    0  501  0.00000000000E+00  0.00000000000E+00  0.89493897306E+03  0.89493897307E+03  0.50400001928E-02 0.  1.
        1   -1    0    0  501    0  0.00000000000E+00  0.00000000000E+00 -0.21407773367E+03  0.21407773373E+03  0.50400001928E-02 0. -1.
    10030    2    1    2    0    0  0.00000000000E+00  0.00000000000E+00  0.68086123939E+03  0.11090167068E+04  0.87541191942E+03 0.  0.
        1    1    3    3  502    0  0.20150798391E+03 -0.78401162023E+02 -0.14169625594E+03  0.25851506486E+03  0.50400001928E-02 0. -1.
       -1    1    3    3    0  502 -0.20150798391E+03  0.78401162023E+02  0.82255749533E+03  0.85050164194E+03  0.50400001928E-02 0.  1.
</event>
<event>
 5   0  0.3343036E-02  0.7998239E+03  0.7818609E-02  0.9560272E-01
       -2   -1    0    0    0  501  0.00000000000E+00  0.00000000000E+00  0.19008582542E+03  0.19008582544E+03  0.25500000920E-02 0. -1.
        2   -1    0    0  501    0  0.00000000000E+00  0.00000000000E+00 -0.84135459206E+03  0.84135459207E+03  0.25500000920E-02 0.  1.
    10030    2    1    2    0    0  0.00000000000E+00  0.00000000000E+00 -0.65126876664E+03  0.10314404175E+04  0.79982393591E+03 0.  0.
        4    1    3    3  502    0  0.31484756154E+03 -0.24561258479E+03 -0.29757472319E+03  0.49800286906E+03  0.12699999809E+01 0.  1.
       -4    1    3    3    0  502 -0.31484756154E+03  0.24561258479E+03 -0.35369404346E+03  0.53343754844E+03  0.12699999809E+01 0. -1.
</event>
<event>
 5   0  0.3343036E-02  0.8422092E+03  0.7818609E-02  0.9500854E-01
       -2   -1    0    0    0  501  0.00000000000E+00  0.00000000000E+00  0.41091938263E+03  0.41091938264E+03  0.25500000920E-02 0.  1.
        2   -1    0    0  501    0  0.00000000000E+00  0.00000000000E+00 -0.43154222262E+03  0.43154222263E+03  0.25500000920E-02 0. -1.
    10030    2    1    2    0    0  0.00000000000E+00  0.00000000000E+00 -0.20622839985E+02  0.84246160527E+03  0.84220915147E+03 0.  0.
        4    1    3    3  502    0 -0.30800590226E+03  0.28715781841E+03 -0.10761340488E+02  0.42124181636E+03  0.12699999809E+01 0.  1.
       -4    1    3    3    0  502  0.30800590226E+03 -0.28715781841E+03 -0.98614994965E+01  0.42121978891E+03  0.12699999809E+01 0. -1.
</event>
<event>
 5   0  0.3404132E-02  0.7773974E+03  0.7818609E-02  0.9593322E-01
        2   -1    0    0  501    0  0.00000000000E+00  0.00000000000E+00  0.22134839070E+04  0.22134839070E+04  0.25500000920E-02 0. -1.
       -2   -1    0    0    0  501  0.00000000000E+00  0.00000000000E+00 -0.68257414609E+02  0.68257414657E+02  0.25500000920E-02 0.  1.
    10030    2    1    2    0    0  0.00000000000E+00  0.00000000000E+00  0.21452264924E+04  0.22817413217E+04  0.77739742430E+03 0.  0.
        5    1    3    3  502    0 -0.10805419812E+03 -0.15640953988E+02  0.21674665712E+04  0.21702197530E+04  0.46999998093E+01 0. -1.
       -5    1    3    3    0  502  0.10805419812E+03  0.15640953988E+02 -0.22240078785E+02  0.11152156865E+03  0.46999998093E+01 0.  1.
</event>
<event>
 5   0  0.3550586E-02  0.7946299E+03  0.7818609E-02  0.9567823E-01
       -2   -1    0    0    0  501  0.00000000000E+00  0.00000000000E+00  0.18973034909E+03  0.18973034910E+03  0.25500000920E-02 0.  1.
        2   -1    0    0  501    0  0.00000000000E+00  0.00000000000E+00 -0.83201860922E+03  0.83201860923E+03  0.25500000920E-02 0. -1.
    10030    2    1    2    0    0  0.00000000000E+00  0.00000000000E+00 -0.64228826014E+03  0.10217489583E+04  0.79462992943E+03 0.  0.
        3    1    3    3  502    0 -0.21554392049E+01  0.10362959739E+03  0.17203921302E+03  0.20085128924E+03  0.10100000352E+00 0.  1.
       -3    1    3    3    0  502  0.21554392049E+01 -0.10362959739E+03 -0.81432747316E+03  0.82089766909E+03  0.10100000352E+00 0. -1.
</event>
<event>
 5   0  0.3343036E-02  0.8057544E+03  0.7818609E-02  0.9551725E-01
        2   -1    0    0  501    0  0.00000000000E+00  0.00000000000E+00  0.71330433877E+03  0.71330433877E+03  0.25500000920E-02 0. -1.
       -2   -1    0    0    0  501  0.00000000000E+00  0.00000000000E+00 -0.22754669935E+03  0.22754669936E+03  0.25500000920E-02 0.  1.
    10030    2    1    2    0    0  0.00000000000E+00  0.00000000000E+00  0.48575763942E+03  0.94085103813E+03  0.80575442394E+03 0.  0.
        4    1    3    3  502    0  0.40514976567E+02 -0.12334502032E+03 -0.20244864270E+03  0.24050472593E+03  0.12699999809E+01 0.  1.
       -4    1    3    3    0  502 -0.40514976567E+02  0.12334502032E+03  0.68820628212E+03  0.70034631220E+03  0.12699999809E+01 0. -1.
</event>
<event>
 5   0  0.1358000E-02  0.6489895E+03  0.7818609E-02  0.9808677E-01
        3   -1    0    0  501    0  0.00000000000E+00  0.00000000000E+00  0.67245108162E+02  0.67245184011E+02  0.10100000352E+00 0. -1.
       -3   -1    0    0    0  501  0.00000000000E+00  0.00000000000E+00 -0.15658652206E+04  0.15658652239E+04  0.10100000352E+00 0.  1.
    10030    2    1    2    0    0  0.00000000000E+00  0.00000000000E+00 -0.14986201125E+04  0.16331104079E+04  0.64898949367E+03 0.  0.
        5    1    3    3  502    0 -0.11573731636E+03  0.30237795682E+03 -0.80252414404E+03  0.86538699258E+03  0.46999998093E+01 0. -1.
       -5    1    3    3    0  502  0.11573731636E+03 -0.30237795682E+03 -0.69609596845E+03  0.76772341534E+03  0.46999998093E+01 0.  1.
</event>
<event>
 5   0  0.2077795E-02  0.8298257E+03  0.7818609E-02  0.9517821E-01
       -1   -1    0    0    0  501  0.00000000000E+00  0.00000000000E+00  0.10663608352E+03  0.10663608364E+03  0.50400001928E-02 0.  1.
        1   -1    0    0  501    0  0.00000000000E+00  0.00000000000E+00 -0.16143943738E+04  0.16143943739E+04  0.50400001928E-02 0. -1.
    10030    2    1    2    0    0  0.00000000000E+00  0.00000000000E+00 -0.15077582903E+04  0.17210304575E+04  0.82982574893E+03 0.  0.
        5    1    3    3  502    0 -0.59374588345E+02  0.38827590831E+03 -0.47681186389E+03  0.61778245869E+03  0.46999998093E+01 0.  1.
       -5    1    3    3    0  502  0.59374588345E+02 -0.38827590831E+03 -0.10309464264E+04  0.11032479988E+04  0.46999998093E+01 0. -1.
</event>
<event>
 5   0  0.2063692E-02  0.8440407E+03  0.7818609E-02  0.9498370E-01
       -1   -1    0    0    0  501  0.00000000000E+00  0.00000000000E+00  0.36808233185E+03  0.36808233189E+03  0.50400001928E-02 0. -1.
        1   -1    0    0  501    0  0.00000000000E+00  0.00000000000E+00 -0.48386232133E+03  0.48386232136E+03  0.50400001928E-02 0.  1.
    10030    2    1    2    0    0  0.00000000000E+00  0.00000000000E+00 -0.11577998948E+03  0.85194465324E+03  0.84404068991E+03 0.  0.
        2    1    3    3  502    0  0.23696464305E+03  0.18849294675E+03 -0.35461453575E+03  0.46629743942E+03  0.25500000920E-02 0.  1.
       -2    1    3    3    0  502 -0.23696464305E+03 -0.18849294675E+03  0.23883454627E+03  0.38564721383E+03  0.25500000920E-02 0. -1.
</event>
<event>
 5   0  0.1358000E-02  0.7785248E+03  0.7818609E-02  0.9591632E-01
       -3   -1    0    0    0  501  0.00000000000E+00  0.00000000000E+00  0.30636806950E+03  0.30636808615E+03  0.10100000352E+00 0. -1.
        3   -1    0    0  501    0  0.00000000000E+00  0.00000000000E+00 -0.49458552993E+03  0.49458554025E+03  0.10100000352E+00 0.  1.
    10030    2    1    2    0    0  0.00000000000E+00  0.00000000000E+00 -0.18821746044E+03  0.80095362640E+03  0.77852482248E+03 0.  0.
        3    1    3    3  502    0 -0.25208998183E+03  0.99844454927E+02 -0.38145233134E+03  0.46800017671E+03  0.10100000352E+00 0.  1.
       -3    1    3    3    0  502  0.25208998183E+03 -0.99844454927E+02  0.19323487090E+03  0.33295344968E+03  0.10100000352E+00 0. -1.
</event>
<event>
 5   0  0.3343036E-02  0.7537572E+03  0.7818609E-02  0.9629474E-01
       -2   -1    0    0    0  501  0.00000000000E+00  0.00000000000E+00  0.44787072513E+03  0.44787072514E+03  0.25500000920E-02 0.  1.
        2   -1    0    0  501    0  0.00000000000E+00  0.00000000000E+00 -0.31713949778E+03  0.31713949779E+03  0.25500000920E-02 0. -1.
    10030    2    1    2    0    0  0.00000000000E+00  0.00000000000E+00  0.13073122735E+03  0.76501022293E+03  0.75375724698E+03 0.  0.
        4    1    3    3  502    0  0.10969472075E+03 -0.19501957980E+03 -0.24242798022E+03  0.32990681526E+03  0.12699999809E+01 0. -1.
       -4    1    3    3    0  502 -0.10969472075E+03  0.19501957980E+03  0.37315920757E+03  0.43510340766E+03  0.12699999809E+01 0.  1.
</event>
<event>
 5   0  0.3550586E-02  0.8056713E+03  0.7818609E-02  0.9551844E-01
        2   -1    0    0  501    0  0.00000000000E+00  0.00000000000E+00  0.12511448987E+04  0.12511448987E+04  0.25500000920E-02 0. -1.
       -2   -1    0    0    0  501  0.00000000000E+00  0.00000000000E+00 -0.12970246056E+03  0.12970246058E+03  0.25500000920E-02 0.  1.
    10030    2    1    2    0    0  0.00000000000E+00  0.00000000000E+00  0.11214424381E+04  0.13808473593E+04  0.80567132726E+03 0.  0.
        3    1    3    3  502    0  0.19200264490E+03  0.80247440413E+02 -0.30445469457E+02  0.21031310980E+03  0.10100000352E+00 0.  1.
       -3    1    3    3    0  502 -0.19200264490E+03 -0.80247440413E+02  0.11518879076E+04  0.11705342495E+04  0.10100000352E+00 0. -1.
</event>
<event>
 5   0  0.2077795E-02  0.8050756E+03  0.7818609E-02  0.9552699E-01
        1   -1    0    0  501    0  0.00000000000E+00  0.00000000000E+00  0.54603471586E+03  0.54603471588E+03  0.50400001928E-02 0. -1.
       -1   -1    0    0    0  501  0.00000000000E+00  0.00000000000E+00 -0.29675159222E+03  0.29675159226E+03  0.50400001928E-02 0.  1.
    10030    2    1    2    0    0  0.00000000000E+00  0.00000000000E+00  0.24928312364E+03  0.84278630815E+03  0.80507557749E+03 0.  0.
        5    1    3    3  502    0  0.26995855997E+03 -0.22505854512E+03  0.33000824938E+03  0.48213743631E+03  0.46999998093E+01 0. -1.
       -5    1    3    3    0  502 -0.26995855997E+03  0.22505854512E+03 -0.80725125735E+02  0.36064887184E+03  0.46999998093E+01 0.  1.
</event>
<event>
 5   0  0.3467240E-02  0.7913200E+03  0.7818609E-02  0.9572667E-01
        2   -1    0    0  501    0  0.00000000000E+00  0.00000000000E+00  0.15637054650E+04  0.15637054650E+04  0.25500000920E-02 0.  1.
       -2   -1    0    0    0  501  0.00000000000E+00  0.00000000000E+00 -0.10011272902E+03  0.10011272906E+03  0.25500000920E-02 0. -1.
    10030    2    1    2    0    0  0.00000000000E+00  0.00000000000E+00  0.14635927360E+04  0.16638181941E+04  0.79131996442E+03 0.  0.
        2    1    3    3  502    0  0.91013245338E+02 -0.34629861743E+03  0.10857601821E+04  0.11432765703E+04  0.25500000920E-02 0. -1.
       -2    1    3    3    0  502 -0.91013245338E+02  0.34629861743E+03  0.37783255394E+03  0.52054162378E+03  0.25500000920E-02 0.  1.
</event>
<event>
 5   0  0.3343036E-02  0.8288644E+03  0.7818609E-02  0.9519152E-01
       -2   -1    0    0    0  501  0.00000000000E+00  0.00000000000E+00  0.35496951366E+03  0.35496951366E+03  0.25500000920E-02 0.  1.
        2   -1    0    0  501    0  0.00000000000E+00  0.00000000000E+00 -0.48385575980E+03  0.48385575980E+03  0.25500000920E-02 0. -1.
    10030    2    1    2    0    0  0.00000000000E+00  0.00000000000E+00 -0.12888624614E+03  0.83882527347E+03  0.82886438877E+03 0.  0.
        4    1    3    3  502    0 -0.28214339965E+01  0.25097587201E+03  0.26930113648E+03  0.36813253569E+03  0.12699999809E+01 0.  1.
       -4    1    3    3    0  502  0.28214339965E+01 -0.25097587201E+03 -0.39818738263E+03  0.47069273778E+03  0.12699999809E+01 0. -1.
</event>
<event>
 5   0  0.1989298E-02  0.8055326E+03  0.7818609E-02  0.9552043E-01
        1   -1    0    0  501    0  0.00000000000E+00  0.00000000000E+00  0.13230990390E+04  0.13230990391E+04  0.50400001928E-02 0. -1.
       -1   -1    0    0    0  501  0.00000000000E+00  0.00000000000E+00 -0.12260661442E+03  0.12260661452E+03  0.50400001928E-02 0.  1.
    10030    2    1    2    0    0  0.00000000000E+00  0.00000000000E+00  0.12004924246E+04  0.14457056536E+04  0.80553260344E+03 0.  0.
        1    1    3    3  502    0  0.32998116230E+03  0.17532827018E+03  0.87001077547E+03  0.94686129885E+03  0.50400001928E-02 0.  1.
       -1    1    3    3    0  502 -0.32998116230E+03 -0.17532827018E+03  0.33048164915E+03  0.49884435473E+03  0.50400001928E-02 0. -1.
</event>
<event>
 5   0  0.3467240E-02  0.8305477E+03  0.7818609E-02  0.9516824E-01
       -2   -1    0    0    0  501  0.00000000000E+00  0.00000000000E+00  0.10865018711E+03  0.10865018714E+03  0.25500000920E-02 0.  1.
        2   -1    0    0  501    0  0.00000000000E+00  0.00000000000E+00 -0.15872256479E+04  0.15872256479E+04  0.25500000920E-02 0. -1.
    10030    2    1    2    0    0  0.00000000000E+00  0.00000000000E+00 -0.14785754608E+04  0.16958758351E+04  0.83054768353E+03 0.  0.
        2    1    3    3  502    0  0.95303236230E+02  0.76201645229E+01  0.85871921536E+02  0.12850976873E+03  0.25500000920E-02 0.  1.
       -2    1    3    3    0  502 -0.95303236230E+02 -0.76201645229E+01 -0.15644473824E+04  0.15673660663E+04  0.25500000920E-02 0. -1.
</event>
<event>
 5   0  0.2077795E-02  0.7614335E+03  0.7818609E-02  0.9617582E-01
       -1   -1    0    0    0  501  0.00000000000E+00  0.00000000000E+00  0.74126089701E+03  0.74126089702E+03  0.50400001928E-02 0.  1.
        1   -1    0    0  501    0  0.00000000000E+00  0.00000000000E+00 -0.19553875921E+03  0.19553875928E+03  0.50400001928E-02 0. -1.
    10030    2    1    2    0    0  0.00000000000E+00  0.00000000000E+00  0.54572213779E+03  0.93679965630E+03  0.76143347994E+03 0.  0.
        5    1    3    3  502    0 -0.31945711631E+03 -0.78305921019E+02  0.50867819597E+03  0.60577245190E+03  0.46999998093E+01 0.  1.
       -5    1    3    3    0  502  0.31945711631E+03  0.78305921019E+02  0.37043941824E+02  0.33102720440E+03  0.46999998093E+01 0. -1.
</event>
<event>
 5   0  0.1358000E-02  0.7679641E+03  0.7818609E-02  0.9607582E-01
        3   -1    0    0  501    0  0.00000000000E+00  0.00000000000E+00  0.31916266880E+03  0.31916268478E+03  0.10100000352E+00 0. -1.
       -3   -1    0    0    0  501  0.00000000000E+00  0.00000000000E+00 -0.46196568126E+03  0.46196569230E+03  0.10100000352E+00 0.  1.
    10030    2    1    2    0    0  0.00000000000E+00  0.00000000000E+00 -0.14280301246E+03  0.78112837708E+03  0.76796408843E+03 0.  0.
        1    1    3    3  502    0 -0.10316159515E+03 -0.15678567876E+02  0.30446518468E+03  0.32184962469E+03  0.50400001928E-02 0. -1.
       -1    1    3    3    0  502  0.10316159515E+03  0.15678567876E+02 -0.44726819714E+03  0.45927875239E+03  0.50400001928E-02 0.  1.
</event>
<event>
 5   0  0.1989298E-02  0.8092271E+03  0.7818609E-02  0.9546756E-01
        1   -1    0    0  501    0  0.00000000000E+00  0.00000000000E+00  0.25317933525E+03  0.25317933530E+03  0.50400001928E-02 0. -1.
       -1   -1    0    0    0  501  0.00000000000E+00  0.00000000000E+00 -0.64662518641E+03  0.64662518643E+03  0.50400001928E-02 0.  1.
    10030    2    1    2    0    0  0.00000000000E+00  0.00000000000E+00 -0.39344585116E+03  0.89980452173E+03  0.80922712481E+03 0.  0.
        1    1    3    3  502    0  0.18441843805E+03 -0.68791889753E+02  0.19635623251E+03  0.27802563633E+03  0.50400001928E-02 0. -1.
       -1    1    3    3    0  502 -0.18441843805E+03  0.68791889753E+02 -0.58980208368E+03  0.62177888539E+03  0.50400001928E-02 0.  1.
</event>
<event>
 5   0  0.3404132E-02  0.5771648E+03  0.7818609E-02  0.9953948E-01
       -2   -1    0    0    0  501  0.00000000000E+00  0.00000000000E+00  0.94055591169E+02  0.94055591204E+02  0.25500000920E-02 0. -1.
        2   -1    0    0  501    0  0.00000000000E+00  0.00000000000E+00 -0.88543158295E+03  0.88543158296E+03  0.25500000920E-02 0.  1.
    10030    2    1    2    0    0  0.00000000000E+00  0.00000000000E+00 -0.79137599178E+03  0.97948717416E+03  0.57716476328E+03 0.  0.
        5    1    3    3  502    0  0.18497089291E+03 -0.20696849331E+03 -0.52939610516E+03  0.59777296242E+03  0.46999998093E+01 0.  1.
       -5    1    3    3    0  502 -0.18497089291E+03  0.20696849331E+03 -0.26197988663E+03  0.38171421174E+03  0.46999998093E+01 0. -1.
</event>
<event>
 5   0  0.2077795E-02  0.8044332E+03  0.7818609E-02  0.9553622E-01
        1   -1    0    0  501    0  0.00000000000E+00  0.00000000000E+00  0.21158642017E+04  0.21158642017E+04  0.50400001928E-02 0.  1.
       -1   -1    0    0    0  501  0.00000000000E+00  0.00000000000E+00 -0.76459634001E+02  0.76459634167E+02  0.50400001928E-02 0. -1.
    10030    2    1    2    0    0  0.00000000000E+00  0.00000000000E+00  0.20394045677E+04  0.21923238359E+04  0.80443322320E+03 0.  0.
        5    1    3    3  502    0  0.67786940938E+02  0.39623600948E+03  0.98543838406E+03  0.10642879983E+04  0.46999998093E+01 0.  1.
       -5    1    3    3    0  502 -0.67786940938E+02 -0.39623600948E+03  0.10539661836E+04  0.11280358376E+04  0.46999998093E+01 0. -1.
</event>
<event>
 5   0  0.3550586E-02  0.8007533E+03  0.7818609E-02  0.9558927E-01
       -2   -1    0    0    0  501  0.00000000000E+00  0.00000000000E+00  0.19099870773E+03  0.19099870774E+03  0.25500000920E-02 0. -1.
        2   -1    0    0  501    0  0.00000000000E+00  0.00000000000E+00 -0.83928028943E+03  0.83928028944E+03  0.25500000920E-02 0.  1.
    10030    2    1    2    0    0  0.00000000000E+00  0.00000000000E+00 -0.64828158171E+03  0.10302789972E+04  0.80075327215E+03 0.  0.
        3    1    3    3  502    0 -0.37046949519E+03  0.15182964385E+03 -0.32574413456E+03  0.51614836920E+03  0.10100000352E+00 0.  1.
       -3    1    3    3    0  502  0.37046949519E+03 -0.15182964385E+03 -0.32253744715E+03  0.51413062799E+03  0.10100000352E+00 0. -1.
</event>
<event>
 5   0  0.1989298E-02  0.8020364E+03  0.7818609E-02  0.9557074E-01
        1   -1    0    0  501    0  0.00000000000E+00  0.00000000000E+00  0.92740064902E+03  0.92740064904E+03  0.50400001928E-02 0. -1.
       -1   -1    0    0    0  501  0.00000000000E+00  0.00000000000E+00 -0.17340466619E+03  0.17340466626E+03  0.50400001928E-02 0.  1.
    10030    2    1    2    0    0  0.00000000000E+00  0.00000000000E+00  0.75399598284E+03  0.11008053153E+04  0.80203640818E+03 0.  0.
        1    1    3    3  502    0  0.62510656247E+02  0.39341437252E+03  0.44038891288E+03  0.59382223372E+03  0.50400001928E-02 0.  1.
       -1    1    3    3    0  502 -0.62510656247E+02 -0.39341437252E+03  0.31360706995E+03  0.50698308157E+03  0.50400001928E-02 0. -1.
</event>
<event>
 5   0  0.2129257E-02  0.7958239E+03  0.7818609E-02  0.9566082E-01
        1   -1    0    0  501    0  0.00000000000E+00  0.00000000000E+00  0.18400826794E+04  0.18400826794E+04  0.50400001928E-02 0.  1.
       -1   -1    0    0    0  501  0.00000000000E+00  0.00000000000E+00 -0.86047175413E+02  0.86047175561E+02  0.50400001928E-02 0. -1.
    10030    2    1    2    0    0  0.00000000000E+00  0.00000000000E+00  0.17540355039E+04  0.19261298549E+04  0.79582389317E+03 0.  0.
        3    1    3    3  502    0 -0.35835650905E+03 -0.38240924016E+02  0.46876779956E+03  0.59129097401E+03  0.10100000352E+00 0. -1.
       -3    1    3    3    0  502  0.35835650905E+03  0.38240924016E+02  0.12852677044E+04  0.13348388809E+04  0.10100000352E+00 0.  1.
</event>
<event>
 5   0  0.3550586E-02  0.7965643E+03  0.7818609E-02  0.9565004E-01
        2   -1    0    0  501    0  0.00000000000E+00  0.00000000000E+00  0.22296259625E+03  0.22296259626E+03  0.25500000920E-02 0. -1.
       -2   -1    0    0    0  501  0.00000000000E+00  0.00000000000E+00 -0.71145861182E+03  0.71145861182E+03  0.25500000920E-02 0.  1.
    10030    2    1    2    0    0  0.00000000000E+00  0.00000000000E+00 -0.48849601557E+03  0.93442120809E+03  0.79656427041E+03 0.  0.
        3    1    3    3  502    0  0.24376125622E+03 -0.18608258884E+03 -0.54235959079E+03  0.62305715294E+03  0.10100000352E+00 0.  1.
       -3    1    3    3    0  502 -0.24376125622E+03  0.18608258884E+03  0.53863575220E+02  0.31136405515E+03  0.10100000352E+00 0. -1.
</event>
<event>
 5   0  0.3404132E-02  0.6193641E+03  0.7818609E-02  0.9866027E-01
        2   -1    0    0  501    0  0.00000000000E+00  0.00000000000E+00  0.44528379631E+03  0.44528379631E+03  0.25500000920E-02 0.  1.
       -2   -1    0    0    0  501  0.00000000000E+00  0.00000000000E+00 -0.21537493063E+03  0.21537493065E+03  0.25500000920E-02 0. -1.
    10030    2    1    2    0    0  0.00000000000E+00  0.00000000000E+00  0.22990886567E+03  0.66065872696E+03  0.61936408275E+03 0.  0.
        5    1    3    3  502    0 -0.20032060776E+03  0.97773018005E+02  0.34420957850E+03  0.41011002532E+03  0.46999998093E+01 0. -1.
       -5    1    3    3    0  502  0.20032060776E+03 -0.97773018005E+02 -0.11430071282E+03  0.25054870164E+03  0.46999998093E+01 0.  1.
</event>
<event>
 5   0  0.3404132E-02  0.7983594E+03  0.7818609E-02  0.9562395E-01
        2   -1    0    0  501    0  0.00000000000E+00  0.00000000000E+00  0.59255167357E+03  0.59255167358E+03  0.25500000920E-02 0. -1.
       -2   -1    0    0    0  501  0.00000000000E+00  0.00000000000E+00 -0.26891230693E+03  0.26891230694E+03  0.25500000920E-02 0.  1.
    10030    2    1    2    0    0  0.00000000000E+00  0.00000000000E+00  0.32363936664E+03  0.86146398052E+03  0.79835941160E+03 0.  0.
        5    1    3    3  502    0 -0.32426362824E+03 -0.14845285311E+03  0.35525807551E+03  0.50340395351E+03  0.46999998093E+01 0. -1.
       -5    1    3    3    0  502  0.32426362824E+03  0.14845285311E+03 -0.31618708868E+02  0.35806002701E+03  0.46999998093E+01 0.  1.
</event>
<event>
 5   0  0.2132540E-02  0.7925375E+03  0.7818609E-02  0.9570882E-01
       -1   -1    0    0    0  501  0.00000000000E+00  0.00000000000E+00  0.86636290745E+02  0.86636290892E+02  0.50400001928E-02 0. -1.
        1   -1    0    0  501    0  0.00000000000E+00  0.00000000000E+00 -0.18125074568E+04  0.18125074568E+04  0.50400001928E-02 0.  1.
    10030    2    1    2    0    0  0.00000000000E+00  0.00000000000E+00 -0.17258711660E+04  0.18991437477E+04  0.79253750233E+03 0.  0.
        4    1    3    3  502    0  0.24206199964E+03 -0.25700638286E+03 -0.43173110379E+03  0.55770928931E+03  0.12699999809E+01 0. -1.
       -4    1    3    3    0  502 -0.24206199964E+03  0.25700638286E+03 -0.12941400622E+04  0.13414344584E+04  0.12699999809E+01 0.  1.
</event>
<event>
 5   0  0.2077795E-02  0.5847308E+03  0.7818609E-02  0.9937601E-01
       -1   -1    0    0    0  501  0.00000000000E+00  0.00000000000E+00  0.48247361849E+02  0.48247362112E+02  0.50400001928E-02 0.  1.
        1   -1    0    0  501    0  0.00000000000E+00  0.00000000000E+00 -0.17716516794E+04  0.17716516794E+04  0.50400001928E-02 0. -1.
    10030    2    1    2    0    0  0.00000000000E+00  0.00000000000E+00 -0.17234043176E+04  0.18198990416E+04  0.58473077529E+03 0.  0.
        5    1    3    3  502    0 -0.24107726063E+03 -0.23593574729E+02 -0.13710340948E+04  0.13922756486E+04  0.46999998093E+01 0. -1.
       -5    1    3    3    0  502  0.24107726063E+03  0.23593574729E+02 -0.35237022275E+03  0.42762339300E+03  0.46999998093E+01 0.  1.
</event>
<event>
 5   0  0.2063692E-02  0.8342298E+03  0.7818609E-02  0.9511751E-01
        1   -1    0    0  501    0  0.00000000000E+00  0.00000000000E+00  0.45775062010E+03  0.45775062013E+03  0.50400001928E-02 0.  1.
       -1   -1    0    0    0  501  0.00000000000E+00  0.00000000000E+00 -0.38008647467E+03  0.38008647470E+03  0.50400001928E-02 0. -1.
    10030    2    1    2    0    0  0.00000000000E+00  0.00000000000E+00  0.77664145436E+02  0.83783709483E+03  0.83422975132E+03 0.  0.
        2    1    3    3  502    0  0.29287539932E+01  0.22339495014E+03 -0.31492810511E+03  0.38612639478E+03  0.25500000920E-02 0. -1.
       -2    1    3    3    0  502 -0.29287539932E+01 -0.22339495014E+03  0.39259225054E+03  0.45171070005E+03  0.25500000920E-02 0.  1.
</event>
<event>
 5   0  0.1989298E-02  0.8148971E+03  0.7818609E-02  0.9538701E-01
       -1   -1    0    0    0  501  0.00000000000E+00  0.00000000000E+00  0.61338724932E+03  0.61338724934E+03  0.50400001928E-02 0.  1.
        1   -1    0    0  501    0  0.00000000000E+00  0.00000000000E+00 -0.27065171164E+03  0.27065171169E+03  0.50400001928E-02 0. -1.
    10030    2    1    2    0    0  0.00000000000E+00  0.00000000000E+00  0.34273553768E+03  0.88403896103E+03  0.81489707070E+03 0.  0.
        1    1    3    3  502    0 -0.15008422614E+03 -0.10737130778E+03 -0.22271778965E+03  0.28923534798E+03  0.50400001928E-02 0. -1.
       -1    1    3    3    0  502  0.15008422614E+03  0.10737130778E+03  0.56545332734E+03  0.59480361305E+03  0.50400001928E-02 0.  1.
</event>
<event>
 5   0  0.1358000E-02  0.7877174E+03  0.7818609E-02  0.9577968E-01
        3   -1    0    0  501    0  0.00000000000E+00  0.00000000000E+00  0.14254340826E+03  0.14254344404E+03  0.10100000352E+00 0.  1.
       -3   -1    0    0    0  501  0.00000000000E+00  0.00000000000E+00 -0.10882625394E+04  0.10882625441E+04  0.10100000352E+00 0. -1.
    10030    2    1    2    0    0  0.00000000000E+00  0.00000000000E+00 -0.94571913118E+03  0.12308059882E+04  0.78771740202E+03 0.  0.
        3    1    3    3  502    0  0.17595024147E+03 -0.24180692928E+03 -0.87334549428E+03  0.92312590750E+03  0.10100000352E+00 0. -1.
       -3    1    3    3    0  502 -0.17595024147E+03  0.24180692928E+03 -0.72373636903E+02  0.30768008067E+03  0.10100000352E+00 0.  1.
</event>
<event>
 5   0  0.2132540E-02  0.7998288E+03  0.7818609E-02  0.9560265E-01
       -1   -1    0    0    0  501  0.00000000000E+00  0.00000000000E+00  0.69911045966E+03  0.69911045968E+03  0.50400001928E-02 0. -1.
        1   -1    0    0  501    0  0.00000000000E+00  0.00000000000E+00 -0.22876432292E+03  0.22876432298E+03  0.50400001928E-02 0.  1.
    10030    2    1    2    0    0  0.00000000000E+00  0.00000000000E+00  0.47034613673E+03  0.92787478266E+03  0.79982880915E+03 0.  0.
        4    1    3    3  502    0 -0.22518485638E+03  0.43576350761E+02 -0.14487482240E+03  0.27128849027E+03  0.12699999809E+01 0.  1.
       -4    1    3    3    0  502  0.22518485638E+03 -0.43576350761E+02  0.61522095914E+03  0.65658629239E+03  0.12699999809E+01 0. -1.
</event>
<event>
 5   0  0.3550586E-02  0.7922888E+03  0.7818609E-02  0.9571246E-01
       -2   -1    0    0    0  501  0.00000000000E+00  0.00000000000E+00  0.15206929879E+03  0.15206929881E+03  0.25500000920E-02 0. -1.
        2   -1    0    0  501    0  0.00000000000E+00  0.00000000000E+00 -0.10319661799E+04  0.10319661799E+04  0.25500000920E-02 0.  1.
    10030    2    1    2    0    0  0.00000000000E+00  0.00000000000E+00 -0.87989688111E+03  0.11840354787E+04  0.79228876898E+03 0.  0.
        3    1    3    3  502    0  0.36131371802E+03  0.16006370392E+03 -0.39868509795E+03  0.56135355140E+03  0.10100000352E+00 0. -1.
       -3    1    3    3    0  502 -0.36131371802E+03 -0.16006370392E+03 -0.48121178316E+03  0.62268192731E+03  0.10100000352E+00 0.  1.
</event>
<event>
 5   0  0.3404132E-02  0.8080019E+03  0.7818609E-02  0.9548506E-01
       -2   -1    0    0    0  501  0.00000000000E+00  0.00000000000E+00  0.89289407241E+02  0.89289407277E+02  0.25500000920E-02 0.  1.
        2   -1    0    0  501    0  0.00000000000E+00  0.00000000000E+00 -0.18279521757E+04  0.18279521757E+04  0.25500000920E-02 0. -1.
    10030    2    1    2    0    0  0.00000000000E+00  0.00000000000E+00 -0.17386627685E+04  0.19172415830E+04  0.80800189671E+03 0.  0.
        5    1    3    3  502    0 -0.16803823259E+03  0.34212943440E+03 -0.55182314238E+03  0.67068641552E+03  0.46999998093E+01 0.  1.
       -5    1    3    3    0  502  0.16803823259E+03 -0.34212943440E+03 -0.11868396261E+04  0.12465551675E+04  0.46999998093E+01 0. -1.
</event>
<event>
 5   0  0.3404132E-02  0.7655822E+03  0.7818609E-02  0.9611217E-01
       -2   -1    0    0    0  501  0.00000000000E+00  0.00000000000E+00  0.19260659550E+03  0.19260659552E+03  0.25500000920E-02 0.  1.
        2   -1    0    0  501    0  0.00000000000E+00  0.00000000000E+00 -0.76076851705E+03  0.76076851706E+03  0.25500000920E-02 0. -1.
    10030    2    1    2    0    0  0.00000000000E+00  0.00000000000E+00 -0.56816192155E+03  0.95337511258E+03  0.76558222039E+03 0.  0.
        5    1    3    3  502    0  0.10899507426E+03  0.21013874564E+01  0.17282935348E+03  0.20439280189E+03  0.46999998093E+01 0.  1.
       -5    1    3    3    0  502 -0.10899507426E+03 -0.21013874564E+01 -0.74099127503E+03  0.74898231068E+03  0.46999998093E+01 0. -1.
</event>
<event>
 5   0  0.1989298E-02  0.8107506E+03  0.7818609E-02  0.9544585E-01
        1   -1    0    0  501    0  0.00000000000E+00  0.00000000000E+00  0.10156177112E+04  0.10156177112E+04  0.50400001928E-02 0.  1.
       -1   -1    0    0    0  501  0.00000000000E+00  0.00000000000E+00 -0.16180214933E+03  0.16180214941E+03  0.50400001928E-02 0. -1.
    10030    2    1    2    0    0  0.00000000000E+00  0.00000000000E+00  0.85381556187E+03  0.11774198606E+04  0.81075058712E+03 0.  0.
        1    1    3    3  502    0  0.24463632626E+03  0.97338930528E+02 -0.20725779934E+02  0.26410482294E+03  0.50400001928E-02 0. -1.
       -1    1    3    3    0  502 -0.24463632626E+03 -0.97338930528E+02  0.87454134180E+03  0.91331503769E+03  0.50400001928E-02 0.  1.
</event>
<event>
 5   0  0.3416160E-02  0.7801648E+03  0.7818609E-02  0.9589180E-01
       -2   -1    0    0    0  501  0.00000000000E+00  0.00000000000E+00  0.91965326847E+03  0.91965326847E+03  0.25500000920E-02 0. -1.
        2   -1    0    0  501    0  0.00000000000E+00  0.00000000000E+00 -0.16545833021E+03  0.16545833023E+03  0.25500000920E-02 0.  1.
    10030    2    1    2    0    0  0.00000000000E+00  0.00000000000E+00  0.75419493826E+03  0.10851115987E+04  0.78016483947E+03 0.  0.
        1    1    3    3  502    0 -0.16482635666E+03 -0.32868811887E+03  0.55823554478E+03  0.66845383596E+03  0.50400001928E-02 0. -1.
       -1    1    3    3    0  502  0.16482635666E+03  0.32868811887E+03  0.19595939348E+03  0.41665776274E+03  0.50400001928E-02 0.  1.
</event>
<event>
 5   0  0.3416160E-02  0.8060993E+03  0.7818609E-02  0.9551230E-01
        2   -1    0    0  501    0  0.00000000000E+00  0.00000000000E+00  0.10486060925E+04  0.10486060925E+04  0.25500000920E-02 0. -1.
       -2   -1    0    0    0  501  0.00000000000E+00  0.00000000000E+00 -0.15491903002E+03  0.15491903005E+03  0.25500000920E-02 0.  1.
    10030    2    1    2    0    0  0.00000000000E+00  0.00000000000E+00  0.89368706250E+03  0.12035251226E+04  0.80609934561E+03 0.  0.
        1    1    3    3  502    0  0.47187286026E+02  0.11193934041E+03  0.10206230636E+04  0.10278270739E+04  0.50400001928E-02 0. -1.
       -1    1    3    3    0  502 -0.47187286026E+02 -0.11193934041E+03 -0.12693600111E+03  0.17569804865E+03  0.50400001928E-02 0.  1.
</event>
<event>
 5   0  0.1989298E-02  0.7905370E+03  0.7818609E-02  0.9573816E-01
       -1   -1    0    0    0  501  0.00000000000E+00  0.00000000000E+00  0.75394652779E+03  0.75394652780E+03  0.50400001928E-02 0.  1.
        1   -1    0    0  501    0  0.00000000000E+00  0.00000000000E+00 -0.20722583030E+03  0.20722583036E+03  0.50400001928E-02 0. -1.
    10030    2    1    2    0    0  0.00000000000E+00  0.00000000000E+00  0.54672069749E+03  0.96117235816E+03  0.79053702066E+03 0.  0.
        1    1    3    3  502    0  0.33959283215E+03  0.16595768443E+03  0.13276322339E+03  0.40061367697E+03  0.50400001928E-02 0.  1.
       -1    1    3    3    0  502 -0.33959283215E+03 -0.16595768443E+03  0.41395747410E+03  0.56055868119E+03  0.50400001928E-02 0. -1.
</event>
<event>
 5   0  0.3343036E-02  0.7978351E+03  0.7818609E-02  0.9563156E-01
       -2   -1    0    0    0  501  0.00000000000E+00  0.00000000000E+00  0.60026174972E+02  0.60026175026E+02  0.25500000920E-02 0.  1.
        2   -1    0    0  501    0  0.00000000000E+00  0.00000000000E+00 -0.26510970807E+04  0.26510970807E+04  0.25500000920E-02 0. -1.
    10030    2    1    2    0    0  0.00000000000E+00  0.00000000000E+00 -0.25910709057E+04  0.27111232557E+04  0.79783511406E+03 0.  0.
        4    1    3    3  502    0 -0.34820024851E+03  0.85967447830E+02 -0.70208490488E+03  0.78838990462E+03  0.12699999809E+01 0.  1.
       -4    1    3    3    0  502  0.34820024851E+03 -0.85967447830E+02 -0.18889860008E+04  0.19227333511E+04  0.12699999809E+01 0. -1.
</event>
<event>
 5   0  0.2063692E-02  0.8094634E+03  0.7818609E-02  0.9546419E-01
       -1   -1    0    0    0  501  0.00000000000E+00  0.00000000000E+00  0.33635544939E+03  0.33635544943E+03  0.50400001928E-02 0.  1.
        1   -1    0    0  501    0  0.00000000000E+00  0.00000000000E+00 -0.48700785931E+03  0.48700785934E+03  0.50400001928E-02 0. -1.
    10030    2    1    2    0    0  0.00000000000E+00  0.00000000000E+00 -0.15065240992E+03  0.82336330876E+03  0.80946339609E+03 0.  0.
        2    1    3    3  502    0 -0.10393836366E+03  0.33435487300E+02  0.32109243867E+03  0.33914815263E+03  0.25500000920E-02 0.  1.
       -2    1    3    3    0  502  0.10393836366E+03 -0.33435487300E+02 -0.47174484859E+03  0.48421515614E+03  0.25500000920E-02 0. -1.
</event>
<event>
 5   0  0.3467240E-02  0.8017204E+03  0.7818609E-02  0.9557530E-01
       -2   -1    0    0    0  501  0.00000000000E+00  0.00000000000E+00  0.13415873495E+03  0.13415873497E+03  0.25500000920E-02 0. -1.
        2   -1    0    0  501    0  0.00000000000E+00  0.00000000000E+00 -0.11977520467E+04  0.11977520467E+04  0.25500000920E-02 0.  1.
    10030    2    1    2    0    0  0.00000000000E+00  0.00000000000E+00 -0.10635933117E+04  0.13319107816E+04  0.80172039859E+03 0.  0.
        2    1    3    3  502    0 -0.75921216893E+02 -0.15127438713E+03 -0.11354762345E+04  0.11480218859E+04  0.25500000920E-02 0.  1.
       -2    1    3    3    0  502  0.75921216893E+02  0.15127438713E+03  0.71882922793E+02  0.18388889573E+03  0.25500000920E-02 0. -1.
</event>
<event>
 5   0  0.1989298E-02  0.7915804E+03  0.7818609E-02  0.9572285E-01
        1   -1    0    0  501    0  0.00000000000E+00  0.00000000000E+00  0.26605311779E+03  0.26605311784E+03  0.50400001928E-02 0.  1.
       -1   -1    0    0    0  501  0.00000000000E+00  0.00000000000E+00 -0.58879182439E+03  0.58879182442E+03  0.50400001928E-02 0. -1.
    10030    2    1    2    0    0  0.00000000000E+00  0.00000000000E+00 -0.32273870661E+03  0.85484494225E+03  0.79158044604E+03 0.  0.
        1    1    3    3  502    0 -0.35486411383E+03 -0.11809289639E+03 -0.21497893162E+02  0.37461531055E+03  0.50400001928E-02 0.  1.
       -1    1    3    3    0  502  0.35486411383E+03  0.11809289639E+03 -0.30124081344E+03  0.48022963171E+03  0.50400001928E-02 0. -1.
</event>
<event>
 5   0  0.3467240E-02  0.7854120E+03  0.7818609E-02  0.9581376E-01
       -2   -1    0    0    0  501  0.00000000000E+00  0.00000000000E+00  0.22650900362E+03  0.22650900364E+03  0.25500000920E-02 0.  1.
        2   -1    0    0  501    0  0.00000000000E+00  0.00000000000E+00 -0.68084713943E+03  0.68084713943E+03  0.25500000920E-02 0. -1.
    10030    2    1    2    0    0  0.00000000000E+00  0.00000000000E+00 -0.45433813580E+03  0.90735614307E+03  0.78541201208E+03 0.  0.
        2    1    3    3  502    0 -0.19605538040E+03  0.10442530313E+03  0.14695666425E+03  0.26634304438E+03  0.25500000920E-02 0.  1.
       -2    1    3    3    0  502  0.19605538040E+03 -0.10442530313E+03 -0.60129480005E+03  0.64101309869E+03  0.25500000920E-02 0. -1.
</event>
<event>
 5   0  0.3404132E-02  0.7999150E+03  0.7818609E-02  0.9560140E-01
       -2   -1    0    0    0  501  0.00000000000E+00  0.00000000000E+00  0.32343305545E+03  0.32343305546E+03  0.25500000920E-02 0. -1.
        2   -1    0    0  501    0  0.00000000000E+00  0.00000000000E+00 -0.49458765828E+03  0.49458765829E+03  0.25500000920E-02 0.  1.
    10030    2    1    2    0    0  0.00000000000E+00  0.00000000000E+00 -0.17115460283E+03  0.81802071375E+03  0.79991498927E+03 0.  0.
        5    1    3    3  502    0  0.12276559451E+03  0.27705780858E+03  0.18131168173E+03  0.35316913288E+03  0.46999998093E+01 0. -1.
       -5    1    3    3    0  502 -0.12276559451E+03 -0.27705780858E+03 -0.35246628456E+03  0.46485158087E+03  0.46999998093E+01 0.  1.
</event>
<event>
 5   0  0.3404132E-02  0.7208597E+03  0.7818609E-02  0.9682210E-01
        2   -1    0    0  501    0  0.00000000000E+00  0.00000000000E+00  0.36728612738E+03  0.36728612738E+03  0.25500000920E-02 0.  1.
       -2   -1    0    0    0  501  0.00000000000E+00  0.00000000000E+00 -0.35370158945E+03  0.35370158946E+03  0.25500000920E-02 0. -1.
    10030    2    1    2    0    0  0.00000000000E+00  0.00000000000E+00  0.13584537929E+02  0.72098771684E+03  0.72085972849E+03 0.  0.
        5    1    3    3  502    0  0.11081326031E+03  0.19402030870E+03  0.28962178637E+03  0.36582280955E+03  0.46999998093E+01 0.  1.
       -5    1    3    3    0  502 -0.11081326031E+03 -0.19402030870E+03 -0.27603724844E+03  0.35516490729E+03  0.46999998093E+01 0. -1.
</event>
<event>
 5   0  0.3404132E-02  0.8270691E+03  0.7818609E-02  0.9521641E-01
        2   -1    0    0  501    0  0.00000000000E+00  0.00000000000E+00  0.10356974783E+04  0.10356974783E+04  0.25500000920E-02 0. -1.
       -2   -1    0    0    0  501  0.00000000000E+00  0.00000000000E+00 -0.16511659782E+03  0.16511659784E+03  0.25500000920E-02 0.  1.
    10030    2    1    2    0    0  0.00000000000E+00  0.00000000000E+00  0.87058088045E+03  0.12008140761E+04  0.82706914826E+03 0.  0.
        5    1    3    3  502    0  0.10409865111E+03 -0.16775495291E+02 -0.14523136043E+03  0.17953324054E+03  0.46999998093E+01 0.  1.
       -5    1    3    3    0  502 -0.10409865111E+03  0.16775495291E+02  0.10158122409E+04  0.10212808356E+04  0.46999998093E+01 0. -1.
</event>
<event>
 5   0  0.1989298E-02  0.7812828E+03  0.7818609E-02  0.9587512E-01
       -1   -1    0    0    0  501  0.00000000000E+00  0.00000000000E+00  0.14814778492E+03  0.14814778500E+03  0.50400001928E-02 0.  1.
        1   -1    0    0  501    0  0.00000000000E+00  0.00000000000E+00 -0.10300572570E+04  0.10300572570E+04  0.50400001928E-02 0. -1.
    10030    2    1    2    0    0  0.00000000000E+00  0.00000000000E+00 -0.88190947207E+03  0.11782050420E+04  0.78128279392E+03 0.  0.
        1    1    3    3  502    0  0.12717063793E+03 -0.14472372627E+03 -0.95342933798E+03  0.97269976387E+03  0.50400001928E-02 0. -1.
       -1    1    3    3    0  502 -0.12717063793E+03  0.14472372627E+03  0.71519865904E+02  0.20550527813E+03  0.50400001928E-02 0.  1.
</event>
<event>
 5   0  0.1989298E-02  0.7799676E+03  0.7818609E-02  0.9589474E-01
       -1   -1    0    0    0  501  0.00000000000E+00  0.00000000000E+00  0.37763622533E+03  0.37763622536E+03  0.50400001928E-02 0. -1.
        1   -1    0    0  501    0  0.00000000000E+00  0.00000000000E+00 -0.40273514578E+03  0.40273514581E+03  0.50400001928E-02 0.  1.
    10030    2    1    2    0    0  0.00000000000E+00  0.00000000000E+00 -0.25098920448E+02  0.78037137117E+03  0.77996764109E+03 0.  0.
        1    1    3    3  502    0  0.22247802562E+03 -0.28876322693E+03  0.12611054125E+03  0.38572599309E+03  0.50400001928E-02 0. -1.
       -1    1    3    3    0  502 -0.22247802562E+03  0.28876322693E+03 -0.15120946169E+03  0.39464537808E+03  0.50400001928E-02 0.  1.
</event>
<event>
 5   0  0.2129257E-02  0.8061141E+03  0.7818609E-02  0.9551209E-01
        1   -1    0    0  501    0  0.00000000000E+00  0.00000000000E+00  0.15851751075E+03  0.15851751083E+03  0.50400001928E-02 0. -1.
       -1   -1    0    0    0  501  0.00000000000E+00  0.00000000000E+00 -0.10248393081E+04  0.10248393082E+04  0.50400001928E-02 0.  1.
    10030    2    1    2    0    0  0.00000000000E+00  0.00000000000E+00 -0.86632179738E+03  0.11833568190E+04  0.80611407655E+03 0.  0.
        3    1    3    3  502    0  0.27233134836E+03 -0.25335725229E+03 -0.66105552723E+03  0.75851742292E+03  0.10100000352E+00 0. -1.
       -3    1    3    3    0  502 -0.27233134836E+03  0.25335725229E+03 -0.20526627016E+03  0.42483939607E+03  0.10100000352E+00 0.  1.
</event>
<event>
 5   0  0.3416160E-02  0.8087553E+03  0.7818609E-02  0.9547430E-01
        2   -1    0    0  501    0  0.00000000000E+00  0.00000000000E+00  0.54946152800E+03  0.54946152800E+03  0.25500000920E-02 0.  1.
       -2   -1    0    0    0  501  0.00000000000E+00  0.00000000000E+00 -0.29760279614E+03  0.29760279615E+03  0.25500000920E-02 0. -1.
    10030    2    1    2    0    0  0.00000000000E+00  0.00000000000E+00  0.25185873186E+03  0.84706432415E+03  0.80875530814E+03 0.  0.
        1    1    3    3  502    0 -0.14312252290E+03  0.20840114430E+03  0.45648336739E+03  0.52181621117E+03  0.50400001928E-02 0.  1.
       -1    1    3    3    0  502  0.14312252290E+03 -0.20840114430E+03 -0.20462463553E+03  0.32524811298E+03  0.50400001928E-02 0. -1.
</event>
<event>
 5   0  0.2077795E-02  0.7538114E+03  0.7818609E-02  0.9629390E-01
        1   -1    0    0  501    0  0.00000000000E+00  0.00000000000E+00  0.30293635330E+03  0.30293635334E+03  0.50400001928E-02 0. -1.
       -1   -1    0    0    0  501  0.00000000000E+00  0.00000000000E+00 -0.46893647306E+03  0.46893647309E+03  0.50400001928E-02 0.  1.
    10030    2    1    2    0    0  0.00000000000E+00  0.00000000000E+00 -0.16600011976E+03  0.77187282642E+03  0.75381139578E+03 0.  0.
        5    1    3    3  502    0 -0.15193508192E+03 -0.32557106954E+03 -0.19954734875E+03  0.41100124675E+03  0.46999998093E+01 0.  1.
       -5    1    3    3    0  502  0.15193508192E+03  0.32557106954E+03  0.33547228983E+02  0.36087157967E+03  0.46999998093E+01 0. -1.
</event>
<event>
 5   0  0.3416160E-02  0.8151694E+03  0.7818609E-02  0.9538316E-01
       -2   -1    0    0    0  501  0.00000000000E+00  0.00000000000E+00  0.23927174700E+03  0.23927174701E+03  0.25500000920E-02 0. -1.
        2   -1    0    0  501    0  0.00000000000E+00  0.00000000000E+00 -0.69429548796E+03  0.69429548796E+03  0.25500000920E-02 0.  1.
    10030    2    1    2    0    0  0.00000000000E+00  0.00000000000E+00 -0.45502374096E+03  0.93356723497E+03  0.81516941637E+03 0.  0.
        1    1    3    3  502    0 -0.26906085251E+03 -0.15367498957E+03  0.75740982101E+02  0.31897717970E+03  0.50400001928E-02 0. -1.
       -1    1    3    3    0  502  0.26906085251E+03  0.15367498957E+03 -0.53076472306E+03  0.61459005528E+03  0.50400001928E-02 0.  1.
</event>
<event>
 5   0  0.3550586E-02  0.8421241E+03  0.7818609E-02  0.9500969E-01
       -2   -1    0    0    0  501  0.00000000000E+00  0.00000000000E+00  0.79160653556E+03  0.79160653556E+03  0.25500000920E-02 0. -1.
        2   -1    0    0  501    0  0.00000000000E+00  0.00000000000E+00 -0.22396637036E+03  0.22396637037E+03  0.25500000920E-02 0.  1.
    10030    2    1    2    0    0  0.00000000000E+00  0.00000000000E+00  0.56764016520E+03  0.10155729059E+04  0.84212408238E+03 0.  0.
        3    1    3    3  502    0  0.11867208481E+02 -0.33852038738E+03 -0.17807265547E+02  0.33919609699E+03  0.10100000352E+00 0.  1.
       -3    1    3    3    0  502 -0.11867208481E+02  0.33852038738E+03  0.58544743074E+03  0.67637680894E+03  0.10100000352E+00 0. -1.
</event>
<event>
 5   0  0.3467240E-02  0.8782823E+03  0.7818609E-02  0.9453144E-01
        2   -1    0    0  501    0  0.00000000000E+00  0.00000000000E+00  0.66607363015E+03  0.66607363015E+03  0.25500000920E-02 0. -1.
       -2   -1    0    0    0  501  0.00000000000E+00  0.00000000000E+00 -0.28952495055E+03  0.28952495057E+03  0.25500000920E-02 0.  1.
    10030    2    1    2    0    0  0.00000000000E+00  0.00000000000E+00  0.37654867959E+03  0.95559858072E+03  0.87828226634E+03 0.  0.
        2    1    3    3  502    0 -0.18054227101E+03  0.39186976745E+03  0.99298200438E+02  0.44273870272E+03  0.25500000920E-02 0.  1.
       -2    1    3    3    0  502  0.18054227101E+03 -0.39186976745E+03  0.27725047915E+03  0.51285987800E+03  0.25500000920E-02 0. -1.
</event>
<event>
 5   0  0.2063692E-02  0.8396122E+03  0.7818609E-02  0.9504386E-01
        1   -1    0    0  501    0  0.00000000000E+00  0.00000000000E+00  0.95549424928E+03  0.95549424930E+03  0.50400001928E-02 0. -1.
       -1   -1    0    0    0  501  0.00000000000E+00  0.00000000000E+00 -0.18444606502E+03  0.18444606509E+03  0.50400001928E-02 0.  1.
    10030    2    1    2    0    0  0.00000000000E+00  0.00000000000E+00  0.77104818427E+03  0.11399403144E+04  0.83961218303E+03 0.  0.
        2    1    3    3  502    0 -0.38143805296E+02  0.19843819147E+03  0.88512119593E+03  0.90789437558E+03  0.25500000920E-02 0. -1.
       -2    1    3    3    0  502  0.38143805296E+02 -0.19843819147E+03 -0.11407301166E+03  0.23204593880E+03  0.25500000920E-02 0.  1.
</event>
<event>
 5   0  0.3404132E-02  0.8025596E+03  0.7818609E-02  0.9556320E-01
       -2   -1    0    0    0  501  0.00000000000E+00  0.00000000000E+00  0.22290839639E+03  0.22290839641E+03  0.25500000920E-02 0.  1.
        2   -1    0    0  501    0  0.00000000000E+00  0.00000000000E+00 -0.72238409957E+03  0.72238409958E+03  0.25500000920E-02 0. -1.
    10030    2    1    2    0    0  0.00000000000E+00  0.00000000000E+00 -0.49947570318E+03  0.94529249598E+03  0.80255960831E+03 0.  0.
        5    1    3    3  502    0  0.20485574067E+03 -0.17382943977E+03 -0.60076956690E+03  0.65812514853E+03  0.46999998093E+01 0. -1.
       -5    1    3    3    0  502 -0.20485574067E+03  0.17382943977E+03  0.10129386372E+03  0.28716734745E+03  0.46999998093E+01 0.  1.
</event>
<event>
 5   0  0.1358000E-02  0.8082661E+03  0.7818609E-02  0.9548129E-01
        3   -1    0    0  501    0  0.00000000000E+00  0.00000000000E+00  0.63362461365E+03  0.63362462170E+03  0.10100000352E+00 0. -1.
       -3   -1    0    0    0  501  0.00000000000E+00  0.00000000000E+00 -0.25776070759E+03  0.25776072738E+03  0.10100000352E+00 0.  1.
    10030    2    1    2    0    0  0.00000000000E+00  0.00000000000E+00  0.37586390606E+03  0.89138534908E+03  0.80826614718E+03 0.  0.
        2    1    3    3  502    0  0.92519603775E+02  0.95982372423E+02 -0.23281286030E+03  0.26828030272E+03  0.25500000920E-02 0.  1.
       -2    1    3    3    0  502 -0.92519603775E+02 -0.95982372423E+02  0.60867676636E+03  0.62310504637E+03  0.25500000920E-02 0. -1.
</event>
<event>
 5   0  0.3404132E-02  0.7953618E+03  0.7818609E-02  0.9566755E-01
       -2   -1    0    0    0  501  0.00000000000E+00  0.00000000000E+00  0.10687562734E+03  0.10687562737E+03  0.25500000920E-02 0.  1.
        2   -1    0    0  501    0  0.00000000000E+00  0.00000000000E+00 -0.14797583185E+04  0.14797583185E+04  0.25500000920E-02 0. -1.
    10030    2    1    2    0    0  0.00000000000E+00  0.00000000000E+00 -0.13728826912E+04  0.15866339459E+04  0.79536180102E+03 0.  0.
        5    1    3    3  502    0 -0.26668334125E+03  0.15444278418E+03 -0.11877640371E+04  0.12271014937E+04  0.46999998093E+01 0. -1.
       -5    1    3    3    0  502  0.26668334125E+03 -0.15444278418E+03 -0.18511865412E+03  0.35953245220E+03  0.46999998093E+01 0.  1.
</event>
<event>
 5   0  0.3416160E-02  0.8002574E+03  0.7818609E-02  0.9559645E-01
       -2   -1    0    0    0  501  0.00000000000E+00  0.00000000000E+00  0.17663459368E+03  0.17663459370E+03  0.25500000920E-02 0.  1.
        2   -1    0    0  501    0  0.00000000000E+00  0.00000000000E+00 -0.90640771388E+03  0.90640771388E+03  0.25500000920E-02 0. -1.
    10030    2    1    2    0    0  0.00000000000E+00  0.00000000000E+00 -0.72977312020E+03  0.10830423076E+04  0.80025735426E+03 0.  0.
        1    1    3    3  502    0 -0.33399676311E+02  0.25872057471E+03 -0.77549720294E+03  0.81819788924E+03  0.50400001928E-02 0. -1.
       -1    1    3    3    0  502  0.33399676311E+02 -0.25872057471E+03  0.45724082744E+02  0.26484441834E+03  0.50400001928E-02 0.  1.
</event>
<event>
 5   0  0.3343036E-02  0.7508380E+03  0.7818609E-02  0.9634037E-01
        2   -1    0    0  501    0  0.00000000000E+00  0.00000000000E+00  0.20943518673E+03  0.20943518674E+03  0.25500000920E-02 0. -1.
       -2   -1    0    0    0  501  0.00000000000E+00  0.00000000000E+00 -0.67295013259E+03  0.67295013260E+03  0.25500000920E-02 0.  1.
    10030    2    1    2    0    0  0.00000000000E+00  0.00000000000E+00 -0.46351494587E+03  0.88238531934E+03  0.75083802963E+03 0.  0.
        4    1    3    3  502    0  0.28912777804E+03 -0.17584518287E+03 -0.42278243320E+03  0.54153762482E+03  0.12699999809E+01 0.  1.
       -4    1    3    3    0  502 -0.28912777804E+03  0.17584518287E+03 -0.40732512668E+02  0.34084769452E+03  0.12699999809E+01 0. -1.
</event>
<event>
 5   0  0.2063692E-02  0.8115211E+03  0.7818609E-02  0.9543489E-01
        1   -1    0    0  501    0  0.00000000000E+00  0.00000000000E+00  0.98712257165E+03  0.98712257166E+03  0.50400001928E-02 0.  1.
       -1   -1    0    0    0  501  0.00000000000E+00  0.00000000000E+00 -0.16678943844E+03  0.16678943852E+03  0.50400001928E-02 0. -1.
    10030    2    1    2    0    0  0.00000000000E+00  0.00000000000E+00  0.82033313321E+03  0.11539120102E+04  0.81152108895E+03 0.  0.
        2    1    3    3  502    0 -0.21404211945E+02  0.40024480340E+03  0.49995644798E+03  0.64078896122E+03  0.25500000920E-02 0.  1.
       -2    1    3    3    0  502  0.21404211945E+02 -0.40024480340E+03  0.32037668523E+03  0.51312304897E+03  0.25500000920E-02 0. -1.
</event>
<event>
 5   0  0.2063692E-02  0.8169367E+03  0.7818609E-02  0.9535820E-01
       -1   -1    0    0    0  501  0.00000000000E+00  0.00000000000E+00  0.18418674644E+03  0.18418674651E+03  0.50400001928E-02 0.  1.
        1   -1    0    0  501    0  0.00000000000E+00  0.00000000000E+00 -0.90585446638E+03  0.90585446639E+03  0.50400001928E-02 0. -1.
    10030    2    1    2    0    0  0.00000000000E+00  0.00000000000E+00 -0.72166771994E+03  0.10900412129E+04  0.81693668533E+03 0.  0.
        2    1    3    3  502    0  0.21540163778E+03  0.30924207194E+03 -0.15063192719E+03  0.40585527237E+03  0.25500000920E-02 0.  1.
       -2    1    3    3    0  502 -0.21540163778E+03 -0.30924207194E+03 -0.57103579275E+03  0.68418594054E+03  0.25500000920E-02 0. -1.
</event>
<event>
 5   0  0.3404132E-02  0.7959034E+03  0.7818609E-02  0.9565966E-01
        2   -1    0    0  501    0  0.00000000000E+00  0.00000000000E+00  0.21196511079E+03  0.21196511081E+03  0.25500000920E-02 0.  1.
       -2   -1    0    0    0  501  0.00000000000E+00  0.00000000000E+00 -0.74713038220E+03  0.74713038221E+03  0.25500000920E-02 0. -1.
    10030    2    1    2    0    0  0.00000000000E+00  0.00000000000E+00 -0.53516527141E+03  0.95909549301E+03  0.79590344703E+03 0.  0.
        5    1    3    3  502    0 -0.53057123785E+02 -0.34587941002E+03 -0.49589195722E+03  0.60694196419E+03  0.46999998093E+01 0. -1.
       -5    1    3    3    0  502  0.53057123785E+02  0.34587941002E+03 -0.39273314194E+02  0.35215352883E+03  0.46999998093E+01 0.  1.
</event>
<event>
 5   0  0.3550586E-02  0.7924840E+03  0.7818609E-02  0.9570960E-01
        2   -1    0    0  501    0  0.00000000000E+00  0.00000000000E+00  0.77744379983E+03  0.77744379983E+03  0.25500000920E-02 0. -1.
       -2   -1    0    0    0  501  0.00000000000E+00  0.00000000000E+00 -0.20195378958E+03  0.20195378960E+03  0.25500000920E-02 0.  1.
    10030    2    1    2    0    0  0.00000000000E+00  0.00000000000E+00  0.57549001025E+03  0.97939758943E+03  0.79248399749E+03 0.  0.
        3    1    3    3  502    0 -0.57119533895E+02  0.11467201104E+03  0.75114293081E+03  0.76198951697E+03  0.10100000352E+00 0. -1.
       -3    1    3    3    0  502  0.57119533895E+02 -0.11467201104E+03 -0.17565292056E+03  0.21740807246E+03  0.10100000352E+00 0.  1.
</event>
<event>
 5   0  0.2063692E-02  0.7453627E+03  0.7818609E-02  0.9642654E-01
       -1   -1    0    0    0  501  0.00000000000E+00  0.00000000000E+00  0.38581941420E+03  0.38581941423E+03  0.50400001928E-02 0.  1.
        1   -1    0    0  501    0  0.00000000000E+00  0.00000000000E+00 -0.35999068616E+03  0.35999068619E+03  0.50400001928E-02 0. -1.
    10030    2    1    2    0    0  0.00000000000E+00  0.00000000000E+00  0.25828728040E+02  0.74581010042E+03  0.74536271888E+03 0.  0.
        2    1    3    3  502    0  0.25766729042E+03 -0.15941365057E+03 -0.20420954600E+03  0.36538566368E+03  0.25500000920E-02 0. -1.
       -2    1    3    3    0  502 -0.25766729042E+03  0.15941365057E+03  0.23003827404E+03  0.38042443674E+03  0.25500000920E-02 0.  1.
</event>
<event>
 5   0  0.3343036E-02  0.8094486E+03  0.7818609E-02  0.9546441E-01
        2   -1    0    0  501    0  0.00000000000E+00  0.00000000000E+00  0.57638317793E+03  0.57638317793E+03  0.25500000920E-02 0. -1.
       -2   -1    0    0    0  501  0.00000000000E+00  0.00000000000E+00 -0.28418896797E+03  0.28418896798E+03  0.25500000920E-02 0.  1.
    10030    2    1    2    0    0  0.00000000000E+00  0.00000000000E+00  0.29219420996E+03  0.86057214591E+03  0.80944855426E+03 0.  0.
        4    1    3    3  502    0 -0.36970415877E+03 -0.78647215809E+02  0.29991956986E+03  0.48251415611E+03  0.12699999809E+01 0. -1.
       -4    1    3    3    0  502  0.36970415877E+03  0.78647215809E+02 -0.77253598996E+01  0.37805798980E+03  0.12699999809E+01 0.  1.
</event>
<event>
 5   0  0.2063692E-02  0.8008904E+03  0.7818609E-02  0.9558729E-01
        1   -1    0    0  501    0  0.00000000000E+00  0.00000000000E+00  0.32512959161E+03  0.32512959165E+03  0.50400001928E-02 0.  1.
       -1   -1    0    0    0  501  0.00000000000E+00  0.00000000000E+00 -0.49320753247E+03  0.49320753250E+03  0.50400001928E-02 0. -1.
    10030    2    1    2    0    0  0.00000000000E+00  0.00000000000E+00 -0.16807794086E+03  0.81833712414E+03  0.80089041357E+03 0.  0.
        2    1    3    3  502    0 -0.34072289017E+03  0.99178208108E+02  0.10555075404E+03  0.37022880295E+03  0.25500000920E-02 0.  1.
       -2    1    3    3    0  502  0.34072289017E+03 -0.99178208108E+02 -0.27362869490E+03  0.44810832120E+03  0.25500000920E-02 0. -1.
</event>
<event>
 5   0  0.2129257E-02  0.7950746E+03  0.7818609E-02  0.9567174E-01
        1   -1    0    0  501    0  0.00000000000E+00  0.00000000000E+00  0.33130432009E+03  0.33130432013E+03  0.50400001928E-02 0.  1.
       -1   -1    0    0    0  501  0.00000000000E+00  0.00000000000E+00 -0.47701134853E+03  0.47701134856E+03  0.50400001928E-02 0. -1.
    10030    2    1    2    0    0  0.00000000000E+00  0.00000000000E+00 -0.14570702844E+03  0.80831566869E+03  0.79507463933E+03 0.  0.
        3    1    3    3  502    0 -0.30498941531E+03 -0.17345207784E+03  0.11715944788E+03  0.36990608698E+03  0.10100000352E+00 0.  1.
       -3    1    3    3    0  502  0.30498941531E+03  0.17345207784E+03 -0.26286647632E+03  0.43840958171E+03  0.10100000352E+00 0. -1.
</event>
<event>
 5   0  0.3416160E-02  0.8469525E+03  0.7818609E-02  0.9494436E-01
       -2   -1    0    0    0  501  0.00000000000E+00  0.00000000000E+00  0.18734591295E+03  0.18734591297E+03  0.25500000920E-02 0.  1.
        2   -1    0    0  501    0  0.00000000000E+00  0.00000000000E+00 -0.95722470010E+03  0.95722470011E+03  0.25500000920E-02 0. -1.
    10030    2    1    2    0    0  0.00000000000E+00  0.00000000000E+00 -0.76987878715E+03  0.11445706131E+04  0.84695250245E+03 0.  0.
        1    1    3    3  502    0 -0.30352757974E+02  0.31239723409E+03 -0.76912383316E+03  0.83070138590E+03  0.50400001928E-02 0. -1.
       -1    1    3    3    0  502  0.30352757974E+02 -0.31239723409E+03 -0.75495399365E+00  0.31386922717E+03  0.50400001928E-02 0.  1.
</event>
<event>
 5   0  0.2063692E-02  0.8339451E+03  0.7818609E-02  0.9512142E-01
        1   -1    0    0  501    0  0.00000000000E+00  0.00000000000E+00  0.66676550568E+03  0.66676550570E+03  0.50400001928E-02 0. -1.
       -1   -1    0    0    0  501  0.00000000000E+00  0.00000000000E+00 -0.26076052348E+03  0.26076052353E+03  0.50400001928E-02 0.  1.
    10030    2    1    2    0    0  0.00000000000E+00  0.00000000000E+00  0.40600498220E+03  0.92752602924E+03  0.83394513569E+03 0.  0.
        2    1    3    3  502    0 -0.30688201547E+02 -0.37427345238E+03  0.40456739945E+03  0.55199380755E+03  0.25500000920E-02 0. -1.
       -2    1    3    3    0  502  0.30688201547E+02  0.37427345238E+03  0.14375827475E+01  0.37553222168E+03  0.25500000920E-02 0.  1.
</event>
<event>
 5   0  0.3416160E-02  0.7873782E+03  0.7818609E-02  0.9578468E-01
        2   -1    0    0  501    0  0.00000000000E+00  0.00000000000E+00  0.98875275687E+03  0.98875275688E+03  0.25500000920E-02 0. -1.
       -2   -1    0    0    0  501  0.00000000000E+00  0.00000000000E+00 -0.15675417079E+03  0.15675417081E+03  0.25500000920E-02 0.  1.
    10030    2    1    2    0    0  0.00000000000E+00  0.00000000000E+00  0.83199858608E+03  0.11455069277E+04  0.78737822814E+03 0.  0.
        1    1    3    3  502    0 -0.21040302664E+03  0.27918284041E+03  0.67939560762E+03  0.76406209412E+03  0.50400001928E-02 0. -1.
       -1    1    3    3    0  502  0.21040302664E+03 -0.27918284041E+03  0.15260297847E+03  0.38144483357E+03  0.50400001928E-02 0.  1.
</event>
<event>
 5   0  0.3550586E-02  0.8007469E+03  0.7818609E-02  0.9558937E-01
       -2   -1    0    0    0  501  0.00000000000E+00  0.00000000000E+00  0.38687153421E+03  0.38687153422E+03  0.25500000920E-02 0.  1.
        2   -1    0    0  501    0  0.00000000000E+00  0.00000000000E+00 -0.41434654015E+03  0.41434654016E+03  0.25500000920E-02 0. -1.
    10030    2    1    2    0    0  0.00000000000E+00  0.00000000000E+00 -0.27475005936E+02  0.80121807438E+03  0.80074685560E+03 0.  0.
        3    1    3    3  502    0  0.17805639118E+03  0.18202524504E+03 -0.32288793502E+03  0.41121028325E+03  0.10100000352E+00 0. -1.
       -3    1    3    3    0  502 -0.17805639118E+03 -0.18202524504E+03  0.29541292908E+03  0.39000779113E+03  0.10100000352E+00 0.  1.
</event>
<event>
 5   0  0.1989298E-02  0.8090447E+03  0.7818609E-02  0.9547017E-01
        1   -1    0    0  501    0  0.00000000000E+00  0.00000000000E+00  0.97242105681E+03  0.97242105682E+03  0.50400001928E-02 0.  1.
       -1   -1    0    0    0  501  0.00000000000E+00  0.00000000000E+00 -0.16827930280E+03  0.16827930288E+03  0.50400001928E-02 0. -1.
    10030    2    1    2    0    0  0.00000000000E+00  0.00000000000E+00  0.80414175401E+03  0.11407003597E+04  0.80904471451E+03 0.  0.
        1    1    3    3  502    0  0.33659425067E+03  0.22415481166E+03  0.41597631781E+03  0.58015288173E+03  0.50400001928E-02 0. -1.
       -1    1    3    3    0  502 -0.33659425067E+03 -0.22415481166E+03  0.38816543620E+03  0.56054747797E+03  0.50400001928E-02 0.  1.
</event>
<event>
 5   0  0.1989298E-02  0.8038016E+03  0.7818609E-02  0.9554531E-01
        1   -1    0    0  501    0  0.00000000000E+00  0.00000000000E+00  0.93903135427E+03  0.93903135429E+03  0.50400001928E-02 0.  1.
       -1   -1    0    0    0  501  0.00000000000E+00  0.00000000000E+00 -0.17201156768E+03  0.17201156775E+03  0.50400001928E-02 0. -1.
    10030    2    1    2    0    0  0.00000000000E+00  0.00000000000E+00  0.76701978660E+03  0.11110429220E+04  0.80380160586E+03 0.  0.
        1    1    3    3  502    0  0.21596270818E+03 -0.33462652239E+03  0.45806677865E+03  0.60699256547E+03  0.50400001928E-02 0.  1.
       -1    1    3    3    0  502 -0.21596270818E+03  0.33462652239E+03  0.30895300794E+03  0.50405035656E+03  0.50400001928E-02 0. -1.
</event>
<event>
 5   0  0.3416160E-02  0.7557863E+03  0.7818609E-02  0.9626316E-01
       -2   -1    0    0    0  501  0.00000000000E+00  0.00000000000E+00  0.12859312723E+03  0.12859312725E+03  0.25500000920E-02 0.  1.
        2   -1    0    0  501    0  0.00000000000E+00  0.00000000000E+00 -0.11105043908E+04  0.11105043908E+04  0.25500000920E-02 0. -1.
    10030    2    1    2    0    0  0.00000000000E+00  0.00000000000E+00 -0.98191126360E+03  0.12390975181E+04  0.75578629898E+03 0.  0.
        1    1    3    3  502    0 -0.30098536550E+03 -0.18392047819E+03 -0.26866046517E+03  0.44339302894E+03  0.50400001928E-02 0.  1.
       -1    1    3    3    0  502  0.30098536550E+03  0.18392047819E+03 -0.71325079843E+03  0.79570448914E+03  0.50400001928E-02 0. -1.
</event>
<event>
 5   0  0.2063692E-02  0.6566167E+03  0.7818609E-02  0.9794442E-01
       -1   -1    0    0    0  501  0.00000000000E+00  0.00000000000E+00  0.24198861686E+03  0.24198861691E+03  0.50400001928E-02 0.  1.
        1   -1    0    0  501    0  0.00000000000E+00  0.00000000000E+00 -0.44541918088E+03  0.44541918091E+03  0.50400001928E-02 0. -1.
    10030    2    1    2    0    0  0.00000000000E+00  0.00000000000E+00 -0.20343056402E+03  0.68740779782E+03  0.65661669650E+03 0.  0.
        2    1    3    3  502    0  0.95710214987E+02 -0.12433143953E+02  0.22680142702E+03  0.24648309399E+03  0.25500000920E-02 0.  1.
       -2    1    3    3    0  502 -0.95710214987E+02  0.12433143953E+02 -0.43023199104E+03  0.44092470382E+03  0.25500000920E-02 0. -1.
</event>
<event>
 5   0  0.1989298E-02  0.8151988E+03  0.7818609E-02  0.9538274E-01
       -1   -1    0    0    0  501  0.00000000000E+00  0.00000000000E+00  0.42783678496E+03  0.42783678499E+03  0.50400001928E-02 0. -1.
        1   -1    0    0  501    0  0.00000000000E+00  0.00000000000E+00 -0.38831931384E+03  0.38831931388E+03  0.50400001928E-02 0.  1.
    10030    2    1    2    0    0  0.00000000000E+00  0.00000000000E+00  0.39517471118E+02  0.81615609887E+03  0.81519883906E+03 0.  0.
        1    1    3    3  502    0  0.29255745560E+03 -0.22705870723E+03  0.19022836175E+03  0.41633202014E+03  0.50400001928E-02 0. -1.
       -1    1    3    3    0  502 -0.29255745560E+03  0.22705870723E+03 -0.15071089063E+03  0.39982407873E+03  0.50400001928E-02 0.  1.
</event>
<event>
 5   0  0.3550586E-02  0.7863191E+03  0.7818609E-02  0.9580033E-01
        2   -1    0    0  501    0  0.00000000000E+00  0.00000000000E+00  0.51737226582E+03  0.51737226583E+03  0.25500000920E-02 0. -1.
       -2   -1    0    0    0  501  0.00000000000E+00  0.00000000000E+00 -0.29876830236E+03  0.29876830237E+03  0.25500000920E-02 0.  1.
    10030    2    1    2    0    0  0.00000000000E+00  0.00000000000E+00  0.21860396346E+03  0.81614056820E+03  0.78631910458E+03 0.  0.
        3    1    3    3  502    0 -0.30526570483E+03  0.20670383192E+03  0.25108729670E+03  0.44604760445E+03  0.10100000352E+00 0.  1.
       -3    1    3    3    0  502  0.30526570483E+03 -0.20670383192E+03 -0.32483333241E+02  0.37009296375E+03  0.10100000352E+00 0. -1.
</event>
<event>
 5   0  0.2132540E-02  0.7947116E+03  0.7818609E-02  0.9567704E-01
        1   -1    0    0  501    0  0.00000000000E+00  0.00000000000E+00  0.83669564579E+03  0.83669564580E+03  0.50400001928E-02 0.  1.
       -1   -1    0    0    0  501  0.00000000000E+00  0.00000000000E+00 -0.18870855783E+03  0.18870855789E+03  0.50400001928E-02 0. -1.
    10030    2    1    2    0    0  0.00000000000E+00  0.00000000000E+00  0.64798708796E+03  0.10254042037E+04  0.79471159221E+03 0.  0.
        4    1    3    3  502    0  0.35018260568E+02 -0.17731585877E+03 -0.13259739788E+03  0.22416706977E+03  0.12699999809E+01 0. -1.
       -4    1    3    3    0  502 -0.35018260568E+02  0.17731585877E+03  0.78058448584E+03  0.80123713393E+03  0.12699999809E+01 0.  1.
</event>
<event>
 5   0  0.2132540E-02  0.8075307E+03  0.7818609E-02  0.9549180E-01
       -1   -1    0    0    0  501  0.00000000000E+00  0.00000000000E+00  0.64443374768E+03  0.64443374770E+03  0.50400001928E-02 0. -1.
        1   -1    0    0  501    0  0.00000000000E+00  0.00000000000E+00 -0.25297628129E+03  0.25297628134E+03  0.50400001928E-02 0.  1.
    10030    2    1    2    0    0  0.00000000000E+00  0.00000000000E+00  0.39145746638E+03  0.89741002904E+03  0.80753068811E+03 0.  0.
        4    1    3    3  502    0  0.27808867308E+02 -0.36934923110E+03  0.17114367987E+02  0.37079199305E+03  0.12699999809E+01 0.  1.
       -4    1    3    3    0  502 -0.27808867308E+02  0.36934923110E+03  0.37434309840E+03  0.52661803599E+03  0.12699999809E+01 0. -1.
</event>
<event>
 5   0  0.2132540E-02  0.7992733E+03  0.7818609E-02  0.9561070E-01
       -1   -1    0    0    0  501  0.00000000000E+00  0.00000000000E+00  0.12900840770E+03  0.12900840780E+03  0.50400001928E-02 0.  1.
        1   -1    0    0  501    0  0.00000000000E+00  0.00000000000E+00 -0.12379771482E+04  0.12379771482E+04  0.50400001928E-02 0. -1.
    10030    2    1    2    0    0  0.00000000000E+00  0.00000000000E+00 -0.11089687405E+04  0.13669855560E+04  0.79927332177E+03 0.  0.
        4    1    3    3  502    0  0.31400574334E+03  0.26473948907E+02 -0.97483681342E+03  0.10245042228E+04  0.12699999809E+01 0. -1.
       -4    1    3    3    0  502 -0.31400574334E+03 -0.26473948907E+02 -0.13413192704E+03  0.34248133317E+03  0.12699999809E+01 0.  1.
</event>
<event>
 5   0  0.3467240E-02  0.7912550E+03  0.7818609E-02  0.9572762E-01
        2   -1    0    0  501    0  0.00000000000E+00  0.00000000000E+00  0.82190453496E+03  0.82190453497E+03  0.25500000920E-02 0. -1.
       -2   -1    0    0    0  501  0.00000000000E+00  0.00000000000E+00 -0.19043711384E+03  0.19043711386E+03  0.25500000920E-02 0.  1.
    10030    2    1    2    0    0  0.00000000000E+00  0.00000000000E+00  0.63146742112E+03  0.10123416488E+04  0.79125502211E+03 0.  0.
        2    1    3    3  502    0 -0.30736636134E+03  0.24860136227E+03  0.33573556160E+03  0.51864736068E+03  0.25500000920E-02 0. -1.
       -2    1    3    3    0  502  0.30736636134E+03 -0.24860136227E+03  0.29573185951E+03  0.49369428815E+03  0.25500000920E-02 0.  1.
</event>
<event>
 5   0  0.3343036E-02  0.7839037E+03  0.7818609E-02  0.9583613E-01
        2   -1    0    0  501    0  0.00000000000E+00  0.00000000000E+00  0.86586299004E+03  0.86586299005E+03  0.25500000920E-02 0. -1.
       -2   -1    0    0    0  501  0.00000000000E+00  0.00000000000E+00 -0.17742560863E+03  0.17742560865E+03  0.25500000920E-02 0.  1.
    10030    2    1    2    0    0  0.00000000000E+00  0.00000000000E+00  0.68843738141E+03  0.10432885987E+04  0.78390373901E+03 0.  0.
        4    1    3    3  502    0 -0.22860871900E+01  0.37572504236E+03  0.19571798431E+03  0.42365277756E+03  0.12699999809E+01 0.  1.
       -4    1    3    3    0  502  0.22860871900E+01 -0.37572504236E+03  0.49271939711E+03  0.61963582114E+03  0.12699999809E+01 0. -1.
</event>
<event>
 5   0  0.3550586E-02  0.7926977E+03  0.7818609E-02  0.9570647E-01
       -2   -1    0    0    0  501  0.00000000000E+00  0.00000000000E+00  0.48406942145E+03  0.48406942146E+03  0.25500000920E-02 0.  1.
        2   -1    0    0  501    0  0.00000000000E+00  0.00000000000E+00 -0.32452452208E+03  0.32452452209E+03  0.25500000920E-02 0. -1.
    10030    2    1    2    0    0  0.00000000000E+00  0.00000000000E+00  0.15954489938E+03  0.80859394355E+03  0.79269766659E+03 0.  0.
        3    1    3    3  502    0  0.20829071395E+03 -0.28509868870E+03  0.26345600951E+03  0.44053985401E+03  0.10100000352E+00 0.  1.
       -3    1    3    3    0  502 -0.20829071395E+03  0.28509868870E+03 -0.10391111013E+03  0.36805408954E+03  0.10100000352E+00 0. -1.
</event>
<event>
 5   0  0.2129257E-02  0.7978169E+03  0.7818609E-02  0.9563182E-01
        1   -1    0    0  501    0  0.00000000000E+00  0.00000000000E+00  0.12013494220E+03  0.12013494230E+03  0.50400001928E-02 0.  1.
       -1   -1    0    0    0  501  0.00000000000E+00  0.00000000000E+00 -0.13245766616E+04  0.13245766616E+04  0.50400001928E-02 0. -1.
    10030    2    1    2    0    0  0.00000000000E+00  0.00000000000E+00 -0.12044417194E+04  0.14447116039E+04  0.79781687313E+03 0.  0.
        3    1    3    3  502    0 -0.11512773051E+03  0.15023352393E+03  0.33645007863E+02  0.19224074178E+03  0.10100000352E+00 0.  1.
       -3    1    3    3    0  502  0.11512773051E+03 -0.15023352393E+03 -0.12380867273E+04  0.12524708622E+04  0.10100000352E+00 0. -1.
</event>
<event>
 5   0  0.3404132E-02  0.8030252E+03  0.7818609E-02  0.9555649E-01
        2   -1    0    0  501    0  0.00000000000E+00  0.00000000000E+00  0.44763176622E+03  0.44763176623E+03  0.25500000920E-02 0. -1.
       -2   -1    0    0    0  501  0.00000000000E+00  0.00000000000E+00 -0.36014502849E+03  0.36014502850E+03  0.25500000920E-02 0.  1.
    10030    2    1    2    0    0  0.00000000000E+00  0.00000000000E+00  0.87486737737E+02  0.80777679472E+03  0.80302516823E+03 0.  0.
        5    1    3    3  502    0  0.11203655384E+03 -0.22217466508E+03 -0.27320274528E+03  0.36956136328E+03  0.46999998093E+01 0.  1.
       -5    1    3    3    0  502 -0.11203655384E+03  0.22217466508E+03  0.36068948302E+03  0.43821543145E+03  0.46999998093E+01 0. -1.
</event>
<event>
 5   0  0.1358000E-02  0.8204349E+03  0.7818609E-02  0.9530900E-01
       -3   -1    0    0    0  501  0.00000000000E+00  0.00000000000E+00  0.20815419937E+03  0.20815422387E+03  0.10100000352E+00 0.  1.
        3   -1    0    0  501    0  0.00000000000E+00  0.00000000000E+00 -0.80843123027E+03  0.80843123658E+03  0.10100000352E+00 0. -1.
    10030    2    1    2    0    0  0.00000000000E+00  0.00000000000E+00 -0.60027703090E+03  0.10165854604E+04  0.82043493622E+03 0.  0.
        3    1    3    3  502    0  0.72764588845E+02  0.12385898063E+03 -0.77624668397E+03  0.78942679018E+03  0.10100000352E+00 0. -1.
       -3    1    3    3    0  502 -0.72764588845E+02 -0.12385898063E+03  0.17596965307E+03  0.22715867027E+03  0.10100000352E+00 0.  1.
</event>
<event>
 5   0  0.3467240E-02  0.7893721E+03  0.7818609E-02  0.9575529E-01
       -2   -1    0    0    0  501  0.00000000000E+00  0.00000000000E+00  0.16098576202E+03  0.16098576204E+03  0.25500000920E-02 0. -1.
        2   -1    0    0  501    0  0.00000000000E+00  0.00000000000E+00 -0.96764508918E+03  0.96764508918E+03  0.25500000920E-02 0.  1.
    10030    2    1    2    0    0  0.00000000000E+00  0.00000000000E+00 -0.80665932716E+03  0.11286308512E+04  0.78937211012E+03 0.  0.
        2    1    3    3  502    0  0.15965507745E+03 -0.25213118927E+03 -0.34021378402E+02  0.30036200584E+03  0.25500000920E-02 0. -1.
       -2    1    3    3    0  502 -0.15965507745E+03  0.25213118927E+03 -0.77263794876E+03  0.82826884538E+03  0.25500000920E-02 0.  1.
</event>
<event>
 5   0  0.2129257E-02  0.7497756E+03  0.7818609E-02  0.9635703E-01
       -1   -1    0    0    0  501  0.00000000000E+00  0.00000000000E+00  0.44133352878E+03  0.44133352881E+03  0.50400001928E-02 0. -1.
        1   -1    0    0  501    0  0.00000000000E+00  0.00000000000E+00 -0.31844588043E+03  0.31844588047E+03  0.50400001928E-02 0.  1.
    10030    2    1    2    0    0  0.00000000000E+00  0.00000000000E+00  0.12288764836E+03  0.75977940928E+03  0.74977555084E+03 0.  0.
        3    1    3    3  502    0 -0.18229781703E+03 -0.16603969712E+03 -0.22470506877E+03  0.33360763368E+03  0.10100000352E+00 0.  1.
       -3    1    3    3    0  502  0.18229781703E+03  0.16603969712E+03  0.34759271713E+03  0.42617177560E+03  0.10100000352E+00 0. -1.
</event>
<event>
 5   0  0.3404132E-02  0.8124037E+03  0.7818609E-02  0.9542235E-01
       -2   -1    0    0    0  501  0.00000000000E+00  0.00000000000E+00  0.12574722422E+03  0.12574722425E+03  0.25500000920E-02 0. -1.
        2   -1    0    0  501    0  0.00000000000E+00  0.00000000000E+00 -0.13121556127E+04  0.13121556127E+04  0.25500000920E-02 0.  1.
    10030    2    1    2    0    0  0.00000000000E+00  0.00000000000E+00 -0.11864083885E+04  0.14379028369E+04  0.81240365845E+03 0.  0.
        5    1    3    3  502    0  0.10433130328E+03  0.36915317858E+03 -0.82946747933E+03  0.91389139364E+03  0.46999998093E+01 0.  1.
       -5    1    3    3    0  502 -0.10433130328E+03 -0.36915317858E+03 -0.35694090914E+03  0.52401144331E+03  0.46999998093E+01 0. -1.
</event>
<event>
 5   0  0.2077795E-02  0.7895654E+03  0.7818609E-02  0.9575245E-01
        1   -1    0    0  501    0  0.00000000000E+00  0.00000000000E+00  0.38102601762E+03  0.38102601765E+03  0.50400001928E-02 0.  1.
       -1   -1    0    0    0  501  0.00000000000E+00  0.00000000000E+00 -0.40903609194E+03  0.40903609198E+03  0.50400001928E-02 0. -1.
    10030    2    1    2    0    0  0.00000000000E+00  0.00000000000E+00 -0.28010074326E+02  0.79006210963E+03  0.78956543288E+03 0.  0.
        5    1    3    3  502    0 -0.81924702602E+02  0.12182785797E+03 -0.38067465322E+03  0.40803059380E+03  0.46999998093E+01 0. -1.
       -5    1    3    3    0  502  0.81924702602E+02 -0.12182785797E+03  0.35266457890E+03  0.38203151582E+03  0.46999998093E+01 0.  1.
</event>
<event>
 5   0  0.3404132E-02  0.8002663E+03  0.7818609E-02  0.9559632E-01
        2   -1    0    0  501    0  0.00000000000E+00  0.00000000000E+00  0.15962202581E+04  0.15962202581E+04  0.25500000920E-02 0. -1.
       -2   -1    0    0    0  501  0.00000000000E+00  0.00000000000E+00 -0.10030352701E+03  0.10030352704E+03  0.25500000920E-02 0.  1.
    10030    2    1    2    0    0  0.00000000000E+00  0.00000000000E+00  0.14959167311E+04  0.16965237851E+04  0.80026626020E+03 0.  0.
        5    1    3    3  502    0  0.16438010137E+03  0.19454906864E+03  0.14021070552E+04  0.14250601538E+04  0.46999998093E+01 0. -1.
       -5    1    3    3    0  502 -0.16438010137E+03 -0.19454906864E+03  0.93809675900E+02  0.27146363131E+03  0.46999998093E+01 0.  1.
</event>
<event>
 5   0  0.3416160E-02  0.7937311E+03  0.7818609E-02  0.9569136E-01
        2   -1    0    0  501    0  0.00000000000E+00  0.00000000000E+00  0.87694900809E+03  0.87694900810E+03  0.25500000920E-02 0. -1.
       -2   -1    0    0    0  501  0.00000000000E+00  0.00000000000E+00 -0.17960252414E+03  0.17960252416E+03  0.25500000920E-02 0.  1.
    10030    2    1    2    0    0  0.00000000000E+00  0.00000000000E+00  0.69734648395E+03  0.10565515323E+04  0.79373107640E+03 0.  0.
        1    1    3    3  502    0  0.12336924556E+03  0.37704524028E+03  0.36320450432E+03  0.53786670835E+03  0.50400001928E-02 0. -1.
       -1    1    3    3    0  502 -0.12336924556E+03 -0.37704524028E+03  0.33414197963E+03  0.51868482391E+03  0.50400001928E-02 0.  1.
</event>
<event>
 5   0  0.3343036E-02  0.7945258E+03  0.7818609E-02  0.9567975E-01
        2   -1    0    0  501    0  0.00000000000E+00  0.00000000000E+00  0.16621523420E+04  0.16621523420E+04  0.25500000920E-02 0.  1.
       -2   -1    0    0    0  501  0.00000000000E+00  0.00000000000E+00 -0.94947857243E+02  0.94947857277E+02  0.25500000920E-02 0. -1.
    10030    2    1    2    0    0  0.00000000000E+00  0.00000000000E+00  0.15672044847E+04  0.17571001993E+04  0.79452577885E+03 0.  0.
        4    1    3    3  502    0  0.17009262129E+03  0.35873272120E+03  0.81452584304E+03  0.90613168301E+03  0.12699999809E+01 0.  1.
       -4    1    3    3    0  502 -0.17009262129E+03 -0.35873272120E+03  0.75267864170E+03  0.85096851625E+03  0.12699999809E+01 0. -1.
</event>
<event>
 5   0  0.2129257E-02  0.7851469E+03  0.7818609E-02  0.9581769E-01
        1   -1    0    0  501    0  0.00000000000E+00  0.00000000000E+00  0.80544743357E+03  0.80544743359E+03  0.50400001928E-02 0.  1.
       -1   -1    0    0    0  501  0.00000000000E+00  0.00000000000E+00 -0.19133952692E+03  0.19133952699E+03  0.50400001928E-02 0. -1.
    10030    2    1    2    0    0  0.00000000000E+00  0.00000000000E+00  0.61410790665E+03  0.99678696058E+03  0.78514694406E+03 0.  0.
        3    1    3    3  502    0  0.96960114646E+02  0.37820624487E+03  0.35897692684E+03  0.53038257107E+03  0.10100000352E+00 0.  1.
       -3    1    3    3    0  502 -0.96960114646E+02 -0.37820624487E+03  0.25513097981E+03  0.46640438951E+03  0.10100000352E+00 0. -1.
</event>
<event>
 5   0  0.2132540E-02  0.7991478E+03  0.7818609E-02  0.9561251E-01
       -1   -1    0    0    0  501  0.00000000000E+00  0.00000000000E+00  0.69228144919E+02  0.69228145103E+02  0.50400001928E-02 0.  1.
        1   -1    0    0  501    0  0.00000000000E+00  0.00000000000E+00 -0.23062774089E+04  0.23062774089E+04  0.50400001928E-02 0. -1.
    10030    2    1    2    0    0  0.00000000000E+00  0.00000000000E+00 -0.22370492639E+04  0.23755055540E+04  0.79914781338E+03 0.  0.
        4    1    3    3  502    0 -0.11296309187E+03 -0.24908611062E+03 -0.19844149874E+04  0.20031747317E+04  0.12699999809E+01 0. -1.
       -4    1    3    3    0  502  0.11296309187E+03  0.24908611062E+03 -0.25263427657E+03  0.37233082229E+03  0.12699999809E+01 0.  1.
</event>
<event>
 5   0  0.3416160E-02  0.7855419E+03  0.7818609E-02  0.9581184E-01
       -2   -1    0    0    0  501  0.00000000000E+00  0.00000000000E+00  0.29785100124E+03  0.29785100125E+03  0.25500000920E-02 0. -1.
        2   -1    0    0  501    0  0.00000000000E+00  0.00000000000E+00 -0.51794025749E+03  0.51794025750E+03  0.25500000920E-02 0.  1.
    10030    2    1    2    0    0  0.00000000000E+00  0.00000000000E+00 -0.22008925625E+03  0.81579125875E+03  0.78554191303E+03 0.  0.
        1    1    3    3  502    0 -0.27362437900E+03 -0.23675509867E+02  0.18154899236E+03  0.32922768292E+03  0.50400001928E-02 0. -1.
       -1    1    3    3    0  502  0.27362437900E+03  0.23675509867E+02 -0.40163824861E+03  0.48656357583E+03  0.50400001928E-02 0.  1.
</event>
<event>
 5   0  0.2132540E-02  0.7963045E+03  0.7818609E-02  0.9565382E-01
       -1   -1    0    0    0  501  0.00000000000E+00  0.00000000000E+00  0.42387377006E+03  0.42387377009E+03  0.50400001928E-02 0. -1.
        1   -1    0    0  501    0  0.00000000000E+00  0.00000000000E+00 -0.37399155125E+03  0.37399155129E+03  0.50400001928E-02 0.  1.
    10030    2    1    2    0    0  0.00000000000E+00  0.00000000000E+00  0.49882218802E+02  0.79786532138E+03  0.79630448655E+03 0.  0.
        4    1    3    3  502    0 -0.21010405905E+03 -0.29279594610E+03  0.19453721655E+03  0.40953574105E+03  0.12699999809E+01 0. -1.
       -4    1    3    3    0  502  0.21010405905E+03  0.29279594610E+03 -0.14465499774E+03  0.38832958032E+03  0.12699999809E+01 0.  1.
</event>
<event>
 5   0  0.3343036E-02  0.8003247E+03  0.7818609E-02  0.9559547E-01
       -2   -1    0    0    0  501  0.00000000000E+00  0.00000000000E+00  0.73260511688E+03  0.73260511689E+03  0.25500000920E-02 0.  1.
        2   -1    0    0  501    0  0.00000000000E+00  0.00000000000E+00 -0.21857601633E+03  0.21857601635E+03  0.25500000920E-02 0. -1.
    10030    2    1    2    0    0  0.00000000000E+00  0.00000000000E+00  0.51402910055E+03  0.95118113323E+03  0.80032470411E+03 0.  0.
        4    1    3    3  502    0  0.28197992168E+03  0.28284940834E+03  0.22761688977E+03  0.45970373659E+03  0.12699999809E+01 0.  1.
       -4    1    3    3    0  502 -0.28197992168E+03 -0.28284940834E+03  0.28641221078E+03  0.49147739664E+03  0.12699999809E+01 0. -1.
</event>
<event>
 5   0  0.3404132E-02  0.7948456E+03  0.7818609E-02  0.9567508E-01
        2   -1    0    0  501    0  0.00000000000E+00  0.00000000000E+00  0.11379694953E+04  0.11379694953E+04  0.25500000920E-02 0. -1.
       -2   -1    0    0    0  501  0.00000000000E+00  0.00000000000E+00 -0.13879534366E+03  0.13879534368E+03  0.25500000920E-02 0.  1.
    10030    2    1    2    0    0  0.00000000000E+00  0.00000000000E+00  0.99917415160E+03  0.12767648389E+04  0.79484556283E+03 0.  0.
        5    1    3    3  502    0  0.16198047610E+03 -0.24876592972E+03  0.92396988543E+03  0.97049708995E+03  0.46999998093E+01 0. -1.
       -5    1    3    3    0  502 -0.16198047610E+03  0.24876592972E+03  0.75204266173E+02  0.30626774900E+03  0.46999998093E+01 0.  1.
</event>
<event>
 5   0  0.3404132E-02  0.8233553E+03  0.7818609E-02  0.9526813E-01
        2   -1    0    0  501    0  0.00000000000E+00  0.00000000000E+00  0.10326369243E+04  0.10326369243E+04  0.25500000920E-02 0.  1.
       -2   -1    0    0    0  501  0.00000000000E+00  0.00000000000E+00 -0.16412203391E+03  0.16412203393E+03  0.25500000920E-02 0. -1.
    10030    2    1    2    0    0  0.00000000000E+00  0.00000000000E+00  0.86851489042E+03  0.11967589583E+04  0.82335526312E+03 0.  0.
        5    1    3    3  502    0 -0.54758787525E+02  0.37241978349E+03  0.19207658989E+03  0.42262338592E+03  0.46999998093E+01 0. -1.
       -5    1    3    3    0  502  0.54758787525E+02 -0.37241978349E+03  0.67643830053E+03  0.77413557234E+03  0.46999998093E+01 0.  1.
</event>
<event>
 5   0  0.2063692E-02  0.8815353E+03  0.7818609E-02  0.9448962E-01
       -1   -1    0    0    0  501  0.00000000000E+00  0.00000000000E+00  0.12070757550E+04  0.12070757550E+04  0.50400001928E-02 0. -1.
        1   -1    0    0  501    0  0.00000000000E+00  0.00000000000E+00 -0.16094773546E+03  0.16094773554E+03  0.50400001928E-02 0.  1.
    10030    2    1    2    0    0  0.00000000000E+00  0.00000000000E+00  0.10461280195E+04  0.13680234905E+04  0.88153527293E+03 0.  0.
        2    1    3    3  502    0 -0.30530866881E+03  0.22216205530E+03  0.87594435494E+03  0.95385946293E+03  0.25500000920E-02 0. -1.
       -2    1    3    3    0  502  0.30530866881E+03 -0.22216205530E+03  0.17018366458E+03  0.41416402760E+03  0.25500000920E-02 0.  1.
</event>
<event>
 5   0  0.2132540E-02  0.8143225E+03  0.7818609E-02  0.9539514E-01
       -1   -1    0    0    0  501  0.00000000000E+00  0.00000000000E+00  0.11136482993E+03  0.11136483005E+03  0.50400001928E-02 0. -1.
        1   -1    0    0  501    0  0.00000000000E+00  0.00000000000E+00 -0.14886233825E+04  0.14886233825E+04  0.50400001928E-02 0.  1.
    10030    2    1    2    0    0  0.00000000000E+00  0.00000000000E+00 -0.13772585525E+04  0.15999882125E+04  0.81432251577E+03 0.  0.
        4    1    3    3  502    0  0.14622964353E+03  0.37552907839E+03 -0.80274865218E+03  0.89822725902E+03  0.12699999809E+01 0.  1.
       -4    1    3    3    0  502 -0.14622964353E+03 -0.37552907839E+03 -0.57450990035E+03  0.70176095351E+03  0.12699999809E+01 0. -1.
</event>
<event>
 5   0  0.1358000E-02  0.8055303E+03  0.7818609E-02  0.9552047E-01
        3   -1    0    0  501    0  0.00000000000E+00  0.00000000000E+00  0.91774416514E+03  0.91774417070E+03  0.10100000352E+00 0. -1.
       -3   -1    0    0    0  501  0.00000000000E+00  0.00000000000E+00 -0.17675923605E+03  0.17675926491E+03  0.10100000352E+00 0.  1.
    10030    2    1    2    0    0  0.00000000000E+00  0.00000000000E+00  0.74098492909E+03  0.10945034356E+04  0.80553032557E+03 0.  0.
        1    1    3    3  502    0  0.98321601532E+02  0.38030102994E+03  0.24954380905E+03  0.46536880360E+03  0.50400001928E-02 0.  1.
       -1    1    3    3    0  502 -0.98321601532E+02 -0.38030102994E+03  0.49144112004E+03  0.62913463201E+03  0.50400001928E-02 0. -1.
</event>
<event>
 5   0  0.1989298E-02  0.8061010E+03  0.7818609E-02  0.9551228E-01
        1   -1    0    0  501    0  0.00000000000E+00  0.00000000000E+00  0.40147146938E+03  0.40147146941E+03  0.50400001928E-02 0.  1.
       -1   -1    0    0    0  501  0.00000000000E+00  0.00000000000E+00 -0.40463577508E+03  0.40463577511E+03  0.50400001928E-02 0. -1.
    10030    2    1    2    0    0  0.00000000000E+00  0.00000000000E+00 -0.31643057003E+01  0.80610724452E+03  0.80610103389E+03 0.  0.
        1    1    3    3  502    0 -0.88577668973E+02  0.30337421815E+03  0.24855533658E+03  0.40207172874E+03  0.50400001928E-02 0.  1.
       -1    1    3    3    0  502  0.88577668973E+02 -0.30337421815E+03 -0.25171964228E+03  0.40403551579E+03  0.50400001928E-02 0. -1.
</event>
<event>
 5   0  0.3404132E-02  0.7893952E+03  0.7818609E-02  0.9575495E-01
       -2   -1    0    0    0  501  0.00000000000E+00  0.00000000000E+00  0.10678455830E+03  0.10678455833E+03  0.25500000920E-02 0.  1.
        2   -1    0    0  501    0  0.00000000000E+00  0.00000000000E+00 -0.14588831820E+04  0.14588831820E+04  0.25500000920E-02 0. -1.
    10030    2    1    2    0    0  0.00000000000E+00  0.00000000000E+00 -0.13520986237E+04  0.15656677403E+04  0.78939520199E+03 0.  0.
        5    1    3    3  502    0 -0.24614976831E+03  0.69465411899E+02 -0.79884022797E+02  0.26799010986E+03  0.46999998093E+01 0.  1.
       -5    1    3    3    0  502  0.24614976831E+03 -0.69465411899E+02 -0.12722146009E+04  0.12976776305E+04  0.46999998093E+01 0. -1.
</event>
<event>
 5   0  0.3343036E-02  0.7858217E+03  0.7818609E-02  0.9580769E-01
       -2   -1    0    0    0  501  0.00000000000E+00  0.00000000000E+00  0.32763860098E+03  0.32763860099E+03  0.25500000920E-02 0. -1.
        2   -1    0    0  501    0  0.00000000000E+00  0.00000000000E+00 -0.47118661556E+03  0.47118661556E+03  0.25500000920E-02 0.  1.
    10030    2    1    2    0    0  0.00000000000E+00  0.00000000000E+00 -0.14354801458E+03  0.79882521655E+03  0.78582166813E+03 0.  0.
        4    1    3    3  502    0  0.10926275202E+03  0.20349341007E+03  0.25133691530E+03  0.34134993015E+03  0.12699999809E+01 0. -1.
       -4    1    3    3    0  502 -0.10926275202E+03 -0.20349341007E+03 -0.39488492988E+03  0.45747528640E+03  0.12699999809E+01 0.  1.
</event>
<event>
 5   0  0.3416160E-02  0.7808023E+03  0.7818609E-02  0.9588228E-01
        2   -1    0    0  501    0  0.00000000000E+00  0.00000000000E+00  0.24416469555E+04  0.24416469555E+04  0.25500000920E-02 0.  1.
       -2   -1    0    0    0  501  0.00000000000E+00  0.00000000000E+00 -0.62422236536E+02  0.62422236588E+02  0.25500000920E-02 0. -1.
    10030    2    1    2    0    0  0.00000000000E+00  0.00000000000E+00  0.23792247189E+04  0.25040691921E+04  0.78080231521E+03 0.  0.
        1    1    3    3  502    0  0.21681877120E+03  0.26993389175E+03  0.61111259673E+03  0.70237688698E+03  0.50400001928E-02 0.  1.
       -1    1    3    3    0  502 -0.21681877120E+03 -0.26993389175E+03  0.17681121222E+04  0.18016923051E+04  0.50400001928E-02 0. -1.
</event>
<event>
 5   0  0.3416160E-02  0.7872960E+03  0.7818609E-02  0.9578590E-01
        2   -1    0    0  501    0  0.00000000000E+00  0.00000000000E+00  0.96812006340E+03  0.96812006340E+03  0.25500000920E-02 0.  1.
       -2   -1    0    0    0  501  0.00000000000E+00  0.00000000000E+00 -0.16006149818E+03  0.16006149820E+03  0.25500000920E-02 0. -1.
    10030    2    1    2    0    0  0.00000000000E+00  0.00000000000E+00  0.80805856522E+03  0.11281815616E+04  0.78729599969E+03 0.  0.
        1    1    3    3  502    0  0.81389097673E+02  0.20941660291E+03 -0.59157303621E+02  0.23233399534E+03  0.50400001928E-02 0. -1.
       -1    1    3    3    0  502 -0.81389097673E+02 -0.20941660291E+03  0.86721586884E+03  0.89584756627E+03  0.50400001928E-02 0.  1.
</event>
<event>
 5   0  0.2063692E-02  0.8029128E+03  0.7818609E-02  0.9555811E-01
       -1   -1    0    0    0  501  0.00000000000E+00  0.00000000000E+00  0.15190608272E+03  0.15190608280E+03  0.50400001928E-02 0. -1.
        1   -1    0    0  501    0  0.00000000000E+00  0.00000000000E+00 -0.10609662535E+04  0.10609662535E+04  0.50400001928E-02 0.  1.
    10030    2    1    2    0    0  0.00000000000E+00  0.00000000000E+00 -0.90906017076E+03  0.12128723363E+04  0.80291276617E+03 0.  0.
        2    1    3    3  502    0  0.50952899905E+02  0.23739287690E+03 -0.93748370790E+03  0.96841482775E+03  0.25500000920E-02 0.  1.
       -2    1    3    3    0  502 -0.50952899905E+02 -0.23739287690E+03  0.28423537143E+02  0.24445750854E+03  0.25500000920E-02 0. -1.
</event>
<event>
 5   0  0.2077795E-02  0.8768497E+03  0.7818609E-02  0.9454992E-01
       -1   -1    0    0    0  501  0.00000000000E+00  0.00000000000E+00  0.37261349855E+03  0.37261349858E+03  0.50400001928E-02 0.  1.
        1   -1    0    0  501    0  0.00000000000E+00  0.00000000000E+00 -0.51585989408E+03  0.51585989411E+03  0.50400001928E-02 0. -1.
    10030    2    1    2    0    0  0.00000000000E+00  0.00000000000E+00 -0.14324639553E+03  0.88847339269E+03  0.87684972468E+03 0.  0.
        5    1    3    3  502    0 -0.19098732361E+03  0.11507380362E+03  0.31084058346E+03  0.38257299484E+03  0.46999998093E+01 0.  1.
       -5    1    3    3    0  502  0.19098732361E+03 -0.11507380362E+03 -0.45408697899E+03  0.50590039785E+03  0.46999998093E+01 0. -1.
</event>
<event>
 5   0  0.3404132E-02  0.8002371E+03  0.7818609E-02  0.9559674E-01
        2   -1    0    0  501    0  0.00000000000E+00  0.00000000000E+00  0.78324743265E+03  0.78324743265E+03  0.25500000920E-02 0.  1.
       -2   -1    0    0    0  501  0.00000000000E+00  0.00000000000E+00 -0.20439881000E+03  0.20439881002E+03  0.25500000920E-02 0. -1.
    10030    2    1    2    0    0  0.00000000000E+00  0.00000000000E+00  0.57884862264E+03  0.98764624267E+03  0.80023707283E+03 0.  0.
        5    1    3    3  502    0  0.19365183790E+03  0.15561288578E+03 -0.97640728898E+02  0.26696854960E+03  0.46999998093E+01 0. -1.
       -5    1    3    3    0  502 -0.19365183790E+03 -0.15561288578E+03  0.67648935154E+03  0.72067769307E+03  0.46999998093E+01 0.  1.
</event>
<event>
 5   0  0.2132540E-02  0.8044752E+03  0.7818609E-02  0.9553562E-01
        1   -1    0    0  501    0  0.00000000000E+00  0.00000000000E+00  0.96065480617E+03  0.96065480619E+03  0.50400001928E-02 0.  1.
       -1   -1    0    0    0  501  0.00000000000E+00  0.00000000000E+00 -0.16842168211E+03  0.16842168219E+03  0.50400001928E-02 0. -1.
    10030    2    1    2    0    0  0.00000000000E+00  0.00000000000E+00  0.79223312406E+03  0.11290764884E+04  0.80447522879E+03 0.  0.
        4    1    3    3  502    0  0.17601852534E+03  0.26822820247E+03  0.55600368055E+02  0.32561004851E+03  0.12699999809E+01 0. -1.
       -4    1    3    3    0  502 -0.17601852534E+03 -0.26822820247E+03  0.73663275601E+03  0.80346643986E+03  0.12699999809E+01 0.  1.
</event>
<event>
 5   0  0.3467240E-02  0.7952125E+03  0.7818609E-02  0.9566973E-01
       -2   -1    0    0    0  501  0.00000000000E+00  0.00000000000E+00  0.22094511789E+03  0.22094511791E+03  0.25500000920E-02 0. -1.
        2   -1    0    0  501    0  0.00000000000E+00  0.00000000000E+00 -0.71552041887E+03  0.71552041887E+03  0.25500000920E-02 0.  1.
    10030    2    1    2    0    0  0.00000000000E+00  0.00000000000E+00 -0.49457530098E+03  0.93646553678E+03  0.79521253338E+03 0.  0.
        2    1    3    3  502    0 -0.74584074430E+02  0.16770842486E+03 -0.66264508742E+03  0.68759538379E+03  0.25500000920E-02 0.  1.
       -2    1    3    3    0  502  0.74584074430E+02 -0.16770842486E+03  0.16806978644E+03  0.24887015299E+03  0.25500000920E-02 0. -1.
</event>
<event>
 5   0  0.1989298E-02  0.7867683E+03  0.7818609E-02  0.9579369E-01
        1   -1    0    0  501    0  0.00000000000E+00  0.00000000000E+00  0.10273382029E+04  0.10273382029E+04  0.50400001928E-02 0.  1.
       -1   -1    0    0    0  501  0.00000000000E+00  0.00000000000E+00 -0.15063305296E+03  0.15063305305E+03  0.50400001928E-02 0. -1.
    10030    2    1    2    0    0  0.00000000000E+00  0.00000000000E+00  0.87670514991E+03  0.11779712559E+04  0.78676830129E+03 0.  0.
        1    1    3    3  502    0 -0.11159620444E+03  0.23101006397E+03 -0.81420174372E+01  0.25668201140E+03  0.50400001928E-02 0. -1.
       -1    1    3    3    0  502  0.11159620444E+03 -0.23101006397E+03  0.88484716735E+03  0.92128924453E+03  0.50400001928E-02 0.  1.
</event>
<event>
 5   0  0.3550586E-02  0.8424282E+03  0.7818609E-02  0.9500556E-01
       -2   -1    0    0    0  501  0.00000000000E+00  0.00000000000E+00  0.14717777516E+03  0.14717777518E+03  0.25500000920E-02 0. -1.
        2   -1    0    0  501    0  0.00000000000E+00  0.00000000000E+00 -0.12054899507E+04  0.12054899507E+04  0.25500000920E-02 0.  1.
    10030    2    1    2    0    0  0.00000000000E+00  0.00000000000E+00 -0.10583121755E+04  0.13526677258E+04  0.84242822585E+03 0.  0.
        3    1    3    3  502    0  0.42056593574E+03 -0.21526843278E+01 -0.56650243836E+03  0.70555323202E+03  0.10100000352E+00 0.  1.
       -3    1    3    3    0  502 -0.42056593574E+03  0.21526843278E+01 -0.49180973715E+03  0.64711449382E+03  0.10100000352E+00 0. -1.
</event>
<event>
 5   0  0.3404132E-02  0.7933778E+03  0.7818609E-02  0.9569652E-01
        2   -1    0    0  501    0  0.00000000000E+00  0.00000000000E+00  0.21402612726E+04  0.21402612726E+04  0.25500000920E-02 0. -1.
       -2   -1    0    0    0  501  0.00000000000E+00  0.00000000000E+00 -0.73524705147E+02  0.73524705191E+02  0.25500000920E-02 0.  1.
    10030    2    1    2    0    0  0.00000000000E+00  0.00000000000E+00  0.20667365675E+04  0.22137859778E+04  0.79337778909E+03 0.  0.
        5    1    3    3  502    0  0.63654029642E+02 -0.28174585706E+03  0.27479135213E+03  0.39870407656E+03  0.46999998093E+01 0.  1.
       -5    1    3    3    0  502 -0.63654029642E+02  0.28174585706E+03  0.17919452153E+04  0.18150819012E+04  0.46999998093E+01 0. -1.
</event>
<event>
 5   0  0.1989298E-02  0.8041120E+03  0.7818609E-02  0.9554084E-01
       -1   -1    0    0    0  501  0.00000000000E+00  0.00000000000E+00  0.11371018700E+03  0.11371018711E+03  0.50400001928E-02 0.  1.
        1   -1    0    0  501    0  0.00000000000E+00  0.00000000000E+00 -0.14215879886E+04  0.14215879886E+04  0.50400001928E-02 0. -1.
    10030    2    1    2    0    0  0.00000000000E+00  0.00000000000E+00 -0.13078778016E+04  0.15352981757E+04  0.80411202232E+03 0.  0.
        1    1    3    3  502    0  0.25268705651E+03  0.18166341701E+02 -0.12500233760E+04  0.12754368683E+04  0.50400001928E-02 0. -1.
       -1    1    3    3    0  502 -0.25268705651E+03 -0.18166341701E+02 -0.57854425607E+02  0.25986130741E+03  0.50400001928E-02 0.  1.
</event>
<event>
 5   0  0.2132540E-02  0.8140249E+03  0.7818609E-02  0.9539936E-01
        1   -1    0    0  501    0  0.00000000000E+00  0.00000000000E+00  0.23967978108E+03  0.23967978113E+03  0.50400001928E-02 0.  1.
       -1   -1    0    0    0  501  0.00000000000E+00  0.00000000000E+00 -0.69116865354E+03  0.69116865356E+03  0.50400001928E-02 0. -1.
    10030    2    1    2    0    0  0.00000000000E+00  0.00000000000E+00 -0.45148887246E+03  0.93084843469E+03  0.81402494213E+03 0.  0.
        4    1    3    3  502    0  0.15386313498E+02  0.37845084764E+03 -0.55381062673E+02  0.38279296980E+03  0.12699999809E+01 0. -1.
       -4    1    3    3    0  502 -0.15386313498E+02 -0.37845084764E+03 -0.39610780979E+03  0.54805546489E+03  0.12699999809E+01 0.  1.
</event>
<event>
 5   0  0.2077795E-02  0.7986606E+03  0.7818609E-02  0.9561958E-01
       -1   -1    0    0    0  501  0.00000000000E+00  0.00000000000E+00  0.14455392624E+03  0.14455392633E+03  0.50400001928E-02 0.  1.
        1   -1    0    0  501    0  0.00000000000E+00  0.00000000000E+00 -0.11031502093E+04  0.11031502093E+04  0.50400001928E-02 0. -1.
    10030    2    1    2    0    0  0.00000000000E+00  0.00000000000E+00 -0.95859628301E+03  0.12477041356E+04  0.79866061389E+03 0.  0.
        5    1    3    3  502    0 -0.20253683462E+03 -0.91074338371E+02 -0.99773521834E+03  0.10221611225E+04  0.46999998093E+01 0. -1.
       -5    1    3    3    0  502  0.20253683462E+03  0.91074338371E+02  0.39138935326E+02  0.22554301307E+03  0.46999998093E+01 0.  1.
</event>
<event>
 5   0  0.2077795E-02  0.8023160E+03  0.7818609E-02  0.9556671E-01
       -1   -1    0    0    0  501  0.00000000000E+00  0.00000000000E+00  0.18400116640E+03  0.18400116647E+03  0.50400001928E-02 0.  1.
        1   -1    0    0  501    0  0.00000000000E+00  0.00000000000E+00 -0.87460176219E+03  0.87460176221E+03  0.50400001928E-02 0. -1.
    10030    2    1    2    0    0  0.00000000000E+00  0.00000000000E+00 -0.69060059579E+03  0.10586029287E+04  0.80231600863E+03 0.  0.
        5    1    3    3  502    0  0.32941406558E+03  0.73032141824E+02 -0.63152420627E+03  0.71602530224E+03  0.46999998093E+01 0. -1.
       -5    1    3    3    0  502 -0.32941406558E+03 -0.73032141824E+02 -0.59076389520E+02  0.34257762644E+03  0.46999998093E+01 0.  1.
</event>
<event>
 5   0  0.3404132E-02  0.7957530E+03  0.7818609E-02  0.9566185E-01
       -2   -1    0    0    0  501  0.00000000000E+00  0.00000000000E+00  0.11816866092E+03  0.11816866095E+03  0.25500000920E-02 0.  1.
        2   -1    0    0  501    0  0.00000000000E+00  0.00000000000E+00 -0.13396589760E+04  0.13396589760E+04  0.25500000920E-02 0. -1.
    10030    2    1    2    0    0  0.00000000000E+00  0.00000000000E+00 -0.12214903151E+04  0.14578276370E+04  0.79575299512E+03 0.  0.
        5    1    3    3  502    0 -0.21888987045E+03  0.32629592866E+03 -0.72518068955E+03  0.82479750906E+03  0.46999998093E+01 0. -1.
       -5    1    3    3    0  502  0.21888987045E+03 -0.32629592866E+03 -0.49630962553E+03  0.63303012790E+03  0.46999998093E+01 0.  1.
</event>
<event>
 5   0  0.3404132E-02  0.8046494E+03  0.7818609E-02  0.9553312E-01
        2   -1    0    0  501    0  0.00000000000E+00  0.00000000000E+00  0.23685903491E+03  0.23685903492E+03  0.25500000920E-02 0. -1.
       -2   -1    0    0    0  501  0.00000000000E+00  0.00000000000E+00 -0.68338189560E+03  0.68338189561E+03  0.25500000920E-02 0.  1.
    10030    2    1    2    0    0  0.00000000000E+00  0.00000000000E+00 -0.44652286069E+03  0.92024093053E+03  0.80464942994E+03 0.  0.
        5    1    3    3  502    0  0.30280000115E+02  0.92126516008E+02 -0.66978332569E+03  0.67678354496E+03  0.46999998093E+01 0.  1.
       -5    1    3    3    0  502 -0.30280000115E+02 -0.92126516008E+02  0.22326046500E+03  0.24345738557E+03  0.46999998093E+01 0. -1.
</event>
<event>
 5   0  0.3550586E-02  0.7994843E+03  0.7818609E-02  0.9560764E-01
        2   -1    0    0  501    0  0.00000000000E+00  0.00000000000E+00  0.41609662344E+03  0.41609662344E+03  0.25500000920E-02 0.  1.
       -2   -1    0    0    0  501  0.00000000000E+00  0.00000000000E+00 -0.38403044261E+03  0.38403044262E+03  0.25500000920E-02 0. -1.
    10030    2    1    2    0    0  0.00000000000E+00  0.00000000000E+00  0.32066180822E+02  0.80012706607E+03  0.79948425994E+03 0.  0.
        3    1    3    3  502    0  0.36405161618E+03  0.15945685425E+03 -0.26822977106E+02  0.39834601782E+03  0.10100000352E+00 0. -1.
       -3    1    3    3    0  502 -0.36405161618E+03 -0.15945685425E+03  0.58889157928E+02  0.40178104825E+03  0.10100000352E+00 0.  1.
</event>
<event>
 5   0  0.3404132E-02  0.7949380E+03  0.7818609E-02  0.9567373E-01
       -2   -1    0    0    0  501  0.00000000000E+00  0.00000000000E+00  0.14409955237E+03  0.14409955240E+03  0.25500000920E-02 0.  1.
        2   -1    0    0  501    0  0.00000000000E+00  0.00000000000E+00 -0.10963365229E+04  0.10963365229E+04  0.25500000920E-02 0. -1.
    10030    2    1    2    0    0  0.00000000000E+00  0.00000000000E+00 -0.95223697057E+03  0.12404360753E+04  0.79493799060E+03 0.  0.
        5    1    3    3  502    0 -0.81484610573E+02 -0.18253173383E+03  0.59907326227E+02  0.20873081552E+03  0.46999998093E+01 0.  1.
       -5    1    3    3    0  502  0.81484610573E+02  0.18253173383E+03 -0.10121442968E+04  0.10317052598E+04  0.46999998093E+01 0. -1.
</event>
<event>
 5   0  0.2063692E-02  0.7953060E+03  0.7818609E-02  0.9566836E-01
       -1   -1    0    0    0  501  0.00000000000E+00  0.00000000000E+00  0.18331961966E+03  0.18331961973E+03  0.50400001928E-02 0. -1.
        1   -1    0    0  501    0  0.00000000000E+00  0.00000000000E+00 -0.86258042168E+03  0.86258042170E+03  0.50400001928E-02 0.  1.
    10030    2    1    2    0    0  0.00000000000E+00  0.00000000000E+00 -0.67926080203E+03  0.10459000414E+04  0.79530601625E+03 0.  0.
        2    1    3    3  502    0  0.28330191242E+03  0.19146944512E+03 -0.72672068150E+02  0.34957367105E+03  0.25500000920E-02 0. -1.
       -2    1    3    3    0  502 -0.28330191242E+03 -0.19146944512E+03 -0.60658873388E+03  0.69632637037E+03  0.25500000920E-02 0.  1.
</event>
<event>
 5   0  0.3550586E-02  0.6570102E+03  0.7818609E-02  0.9793713E-01
        2   -1    0    0  501    0  0.00000000000E+00  0.00000000000E+00  0.25550722691E+03  0.25550722693E+03  0.25500000920E-02 0.  1.
       -2   -1    0    0    0  501  0.00000000000E+00  0.00000000000E+00 -0.42235835215E+03  0.42235835215E+03  0.25500000920E-02 0. -1.
    10030    2    1    2    0    0  0.00000000000E+00  0.00000000000E+00 -0.16685112523E+03  0.67786557908E+03  0.65701023227E+03 0.  0.
        3    1    3    3  502    0 -0.10941413773E+03 -0.15541886851E+03 -0.35986549115E+03  0.40697624028E+03  0.10100000352E+00 0. -1.
       -3    1    3    3    0  502  0.10941413773E+03  0.15541886851E+03  0.19301436592E+03  0.27088933880E+03  0.10100000352E+00 0.  1.
</event>
<event>
 5   0  0.3343036E-02  0.8410267E+03  0.7818609E-02  0.9502460E-01
       -2   -1    0    0    0  501  0.00000000000E+00  0.00000000000E+00  0.54728787015E+03  0.54728787016E+03  0.25500000920E-02 0. -1.
        2   -1    0    0  501    0  0.00000000000E+00  0.00000000000E+00 -0.32310504865E+03  0.32310504866E+03  0.25500000920E-02 0.  1.
    10030    2    1    2    0    0  0.00000000000E+00  0.00000000000E+00  0.22418282151E+03  0.87039291882E+03  0.84102669141E+03 0.  0.
        4    1    3    3  502    0  0.91433066988E+02  0.14477495242E+03  0.50957243684E+03  0.53757369157E+03  0.12699999809E+01 0. -1.
       -4    1    3    3    0  502 -0.91433066988E+02 -0.14477495242E+03 -0.28538961533E+03  0.33281922725E+03  0.12699999809E+01 0.  1.
</event>
<event>
 5   0  0.3550586E-02  0.8042455E+03  0.7818609E-02  0.9553892E-01
        2   -1    0    0  501    0  0.00000000000E+00  0.00000000000E+00  0.75798176034E+03  0.75798176034E+03  0.25500000920E-02 0.  1.
       -2   -1    0    0    0  501  0.00000000000E+00  0.00000000000E+00 -0.21333323678E+03  0.21333323679E+03  0.25500000920E-02 0. -1.
    10030    2    1    2    0    0  0.00000000000E+00  0.00000000000E+00  0.54464852356E+03  0.97131499714E+03  0.80424549078E+03 0.  0.
        3    1    3    3  502    0 -0.10786670303E+02  0.19800570536E+03 -0.15017584891E+03  0.24874767820E+03  0.10100000352E+00 0. -1.
       -3    1    3    3    0  502  0.10786670303E+02 -0.19800570536E+03  0.69482437247E+03  0.72256731894E+03  0.10100000352E+00 0.  1.
</event>
<event>
 5   0  0.1358000E-02  0.7725642E+03  0.7818609E-02  0.9600601E-01
       -4   -1    0    0    0  501  0.00000000000E+00  0.00000000000E+00  0.12772477117E+03  0.12773108498E+03  0.12699999809E+01 0. -1.
        4   -1    0    0  501    0  0.00000000000E+00  0.00000000000E+00 -0.11682098538E+04  0.11682105441E+04  0.12699999809E+01 0.  1.
    10030    2    1    2    0    0  0.00000000000E+00  0.00000000000E+00 -0.10404850826E+04  0.12959416291E+04  0.77256423609E+03 0.  0.
        5    1    3    3  502    0  0.11802745357E+03 -0.31008650345E+03 -0.18851480439E+03  0.38163338545E+03  0.46999998093E+01 0. -1.
       -5    1    3    3    0  502 -0.11802745357E+03  0.31008650345E+03 -0.85197027822E+03  0.91430824364E+03  0.46999998093E+01 0.  1.
</event>
<event>
 5   0  0.3467240E-02  0.8042205E+03  0.7818609E-02  0.9553928E-01
        2   -1    0    0  501    0  0.00000000000E+00  0.00000000000E+00  0.88592085901E+03  0.88592085901E+03  0.25500000920E-02 0.  1.
       -2   -1    0    0    0  501  0.00000000000E+00  0.00000000000E+00 -0.18251366635E+03  0.18251366637E+03  0.25500000920E-02 0. -1.
    10030    2    1    2    0    0  0.00000000000E+00  0.00000000000E+00  0.70340719266E+03  0.10684345254E+04  0.80422052718E+03 0.  0.
        2    1    3    3  502    0  0.26077566556E+02 -0.28698725886E+03  0.72428803496E+03  0.77950938661E+03  0.25500000920E-02 0.  1.
       -2    1    3    3    0  502 -0.26077566556E+02  0.28698725886E+03 -0.20880842303E+02  0.28892513876E+03  0.25500000920E-02 0. -1.
</event>
<event>
 5   0  0.2132540E-02  0.8005941E+03  0.7818609E-02  0.9559158E-01
       -1   -1    0    0    0  501  0.00000000000E+00  0.00000000000E+00  0.70781480195E+03  0.70781480197E+03  0.50400001928E-02 0.  1.
        1   -1    0    0  501    0  0.00000000000E+00  0.00000000000E+00 -0.22638368227E+03  0.22638368233E+03  0.50400001928E-02 0. -1.
    10030    2    1    2    0    0  0.00000000000E+00  0.00000000000E+00  0.48143111968E+03  0.93419848430E+03  0.80059408259E+03 0.  0.
        4    1    3    3  502    0  0.29046998915E+03 -0.16610478786E+03  0.49709113498E+03  0.59922018034E+03  0.12699999809E+01 0.  1.
       -4    1    3    3    0  502 -0.29046998915E+03  0.16610478786E+03 -0.15660015303E+02  0.33497830396E+03  0.12699999809E+01 0. -1.
</event>
<event>
 5   0  0.2063692E-02  0.7956701E+03  0.7818609E-02  0.9566306E-01
        1   -1    0    0  501    0  0.00000000000E+00  0.00000000000E+00  0.16206689821E+03  0.16206689828E+03  0.50400001928E-02 0. -1.
       -1   -1    0    0    0  501  0.00000000000E+00  0.00000000000E+00 -0.97658874755E+03  0.97658874756E+03  0.50400001928E-02 0.  1.
    10030    2    1    2    0    0  0.00000000000E+00  0.00000000000E+00 -0.81452184934E+03  0.11386556458E+04  0.79567005521E+03 0.  0.
        2    1    3    3  502    0 -0.32475991281E+03 -0.13848382792E+03 -0.14484112990E+03  0.38160938731E+03  0.25500000920E-02 0. -1.
       -2    1    3    3    0  502  0.32475991281E+03  0.13848382792E+03 -0.66968071945E+03  0.75704625854E+03  0.25500000920E-02 0.  1.
</event>
<event>
 5   0  0.3343036E-02  0.8111660E+03  0.7818609E-02  0.9543994E-01
        2   -1    0    0  501    0  0.00000000000E+00  0.00000000000E+00  0.22222824430E+04  0.22222824430E+04  0.25500000920E-02 0. -1.
       -2   -1    0    0    0  501  0.00000000000E+00  0.00000000000E+00 -0.74021905209E+02  0.74021905253E+02  0.25500000920E-02 0.  1.
    10030    2    1    2    0    0  0.00000000000E+00  0.00000000000E+00  0.21482605378E+04  0.22963043482E+04  0.81116602590E+03 0.  0.
        4    1    3    3  502    0 -0.32661054903E+03 -0.21202208965E+03  0.75300257757E+03  0.84772773457E+03  0.12699999809E+01 0. -1.
       -4    1    3    3    0  502  0.32661054903E+03  0.21202208965E+03  0.13952579602E+04  0.14485766136E+04  0.12699999809E+01 0.  1.
</event>
<event>
 5   0  0.2129257E-02  0.8102791E+03  0.7818609E-02  0.9545257E-01
        1   -1    0    0  501    0  0.00000000000E+00  0.00000000000E+00  0.22457777980E+04  0.22457777980E+04  0.50400001928E-02 0. -1.
       -1   -1    0    0    0  501  0.00000000000E+00  0.00000000000E+00 -0.73087388778E+02  0.73087388952E+02  0.50400001928E-02 0.  1.
    10030    2    1    2    0    0  0.00000000000E+00  0.00000000000E+00  0.21726904092E+04  0.23188651869E+04  0.81027905128E+03 0.  0.
        3    1    3    3  502    0  0.18224745486E+03 -0.95306843842E+02  0.87411381267E+02  0.22346876529E+03  0.10100000352E+00 0.  1.
       -3    1    3    3    0  502 -0.18224745486E+03  0.95306843842E+02  0.20852790279E+04  0.20953964216E+04  0.10100000352E+00 0. -1.
</event>
<event>
 5   0  0.1358000E-02  0.8084717E+03  0.7818609E-02  0.9547835E-01
       -4   -1    0    0    0  501  0.00000000000E+00  0.00000000000E+00  0.10218795959E+03  0.10219585111E+03  0.12699999809E+01 0.  1.
        4   -1    0    0  501    0  0.00000000000E+00  0.00000000000E+00 -0.15990091515E+04  0.15990096559E+04  0.12699999809E+01 0. -1.
    10030    2    1    2    0    0  0.00000000000E+00  0.00000000000E+00 -0.14968211920E+04  0.17012055070E+04  0.80847170412E+03 0.  0.
        1    1    3    3  502    0  0.20420495155E+03  0.32637841577E+03 -0.48912024107E+03  0.62246376823E+03  0.50400001928E-02 0.  1.
       -1    1    3    3    0  502 -0.20420495155E+03 -0.32637841577E+03 -0.10077009509E+04  0.10787417388E+04  0.50400001928E-02 0. -1.
</event>
<event>
 5   0  0.3416160E-02  0.8088335E+03  0.7818609E-02  0.9547318E-01
        2   -1    0    0  501    0  0.00000000000E+00  0.00000000000E+00  0.55599072732E+03  0.55599072733E+03  0.25500000920E-02 0. -1.
       -2   -1    0    0    0  501  0.00000000000E+00  0.00000000000E+00 -0.29416482638E+03  0.29416482639E+03  0.25500000920E-02 0.  1.
    10030    2    1    2    0    0  0.00000000000E+00  0.00000000000E+00  0.26182590095E+03  0.85015555371E+03  0.80883352002E+03 0.  0.
        1    1    3    3  502    0 -0.15652059323E+03  0.75420089887E+02  0.51476323447E+03  0.54329372686E+03  0.50400001928E-02 0. -1.
       -1    1    3    3    0  502  0.15652059323E+03 -0.75420089887E+02 -0.25293733352E+03  0.30686182685E+03  0.50400001928E-02 0.  1.
</event>
<event>
 5   0  0.3550586E-02  0.7786301E+03  0.7818609E-02  0.9591475E-01
        2   -1    0    0  501    0  0.00000000000E+00  0.00000000000E+00  0.47850199341E+03  0.47850199341E+03  0.25500000920E-02 0. -1.
       -2   -1    0    0    0  501  0.00000000000E+00  0.00000000000E+00 -0.31675145337E+03  0.31675145338E+03  0.25500000920E-02 0.  1.
    10030    2    1    2    0    0  0.00000000000E+00  0.00000000000E+00  0.16175054003E+03  0.79525344679E+03  0.77863008382E+03 0.  0.
        3    1    3    3  502    0  0.68680467217E+02 -0.25758314624E+03  0.37065807489E+03  0.45656708432E+03  0.10100000352E+00 0. -1.
       -3    1    3    3    0  502 -0.68680467217E+02  0.25758314624E+03 -0.20890753486E+03  0.33868636247E+03  0.10100000352E+00 0.  1.
</event>
<event>
 5   0  0.3343036E-02  0.7959803E+03  0.7818609E-02  0.9565854E-01
       -2   -1    0    0    0  501  0.00000000000E+00  0.00000000000E+00  0.14791400234E+03  0.14791400236E+03  0.25500000920E-02 0. -1.
        2   -1    0    0  501    0  0.00000000000E+00  0.00000000000E+00 -0.10708665264E+04  0.10708665264E+04  0.25500000920E-02 0.  1.
    10030    2    1    2    0    0  0.00000000000E+00  0.00000000000E+00 -0.92295252407E+03  0.12187805288E+04  0.79598028595E+03 0.  0.
        4    1    3    3  502    0  0.38195438948E+03  0.10880986688E+03 -0.50098512348E+03  0.63930935362E+03  0.12699999809E+01 0.  1.
       -4    1    3    3    0  502 -0.38195438948E+03 -0.10880986688E+03 -0.42196740058E+03  0.57947117515E+03  0.12699999809E+01 0. -1.
</event>
<event>
 5   0  0.1989298E-02  0.7919486E+03  0.7818609E-02  0.9571745E-01
        1   -1    0    0  501    0  0.00000000000E+00  0.00000000000E+00  0.98706747472E+03  0.98706747473E+03  0.50400001928E-02 0.  1.
       -1   -1    0    0    0  501  0.00000000000E+00  0.00000000000E+00 -0.15884997209E+03  0.15884997217E+03  0.50400001928E-02 0. -1.
    10030    2    1    2    0    0  0.00000000000E+00  0.00000000000E+00  0.82821750263E+03  0.11459174469E+04  0.79194858638E+03 0.  0.
        1    1    3    3  502    0  0.31770915753E+03 -0.75447815983E+02  0.90028093128E+02  0.33872782480E+03  0.50400001928E-02 0. -1.
       -1    1    3    3    0  502 -0.31770915753E+03  0.75447815983E+02  0.73818940950E+03  0.80718962211E+03  0.50400001928E-02 0.  1.
</event>
<event>
 5   0  0.3343036E-02  0.7950323E+03  0.7818609E-02  0.9567236E-01
       -2   -1    0    0    0  501  0.00000000000E+00  0.00000000000E+00  0.14999811283E+03  0.14999811285E+03  0.25500000920E-02 0.  1.
        2   -1    0    0  501    0  0.00000000000E+00  0.00000000000E+00 -0.10534738081E+04  0.10534738081E+04  0.25500000920E-02 0. -1.
    10030    2    1    2    0    0  0.00000000000E+00  0.00000000000E+00 -0.90347569530E+03  0.12034719210E+04  0.79503228401E+03 0.  0.
        4    1    3    3  502    0  0.26865066869E+03  0.16662928276E+03 -0.81654273880E+03  0.87560388124E+03  0.12699999809E+01 0. -1.
       -4    1    3    3    0  502 -0.26865066869E+03 -0.16662928276E+03 -0.86932956500E+02  0.32786803975E+03  0.12699999809E+01 0.  1.
</event>
<event>
 5   0  0.2129257E-02  0.7895814E+03  0.7818609E-02  0.9575221E-01
       -1   -1    0    0    0  501  0.00000000000E+00  0.00000000000E+00  0.18290231528E+03  0.18290231535E+03  0.50400001928E-02 0. -1.
        1   -1    0    0  501    0  0.00000000000E+00  0.00000000000E+00 -0.85214728878E+03  0.85214728880E+03  0.50400001928E-02 0.  1.
    10030    2    1    2    0    0  0.00000000000E+00  0.00000000000E+00 -0.66924497350E+03  0.10350496041E+04  0.78958143880E+03 0.  0.
        3    1    3    3  502    0  0.48750292210E+02 -0.38042544593E+03 -0.45731163399E+03  0.59685345914E+03  0.10100000352E+00 0.  1.
       -3    1    3    3    0  502 -0.48750292210E+02  0.38042544593E+03 -0.21193333951E+03  0.43819614501E+03  0.10100000352E+00 0. -1.
</event>
<event>
 5   0  0.3550586E-02  0.8166586E+03  0.7818609E-02  0.9536213E-01
       -2   -1    0    0    0  501  0.00000000000E+00  0.00000000000E+00  0.40381638495E+03  0.40381638495E+03  0.25500000920E-02 0. -1.
        2   -1    0    0  501    0  0.00000000000E+00  0.00000000000E+00 -0.41289262055E+03  0.41289262056E+03  0.25500000920E-02 0.  1.
    10030    2    1    2    0    0  0.00000000000E+00  0.00000000000E+00 -0.90762356063E+01  0.81670900552E+03  0.81665857103E+03 0.  0.
        3    1    3    3  502    0  0.16956453563E+03  0.20120440161E+03  0.30772698581E+03  0.40488424391E+03  0.10100000352E+00 0. -1.
       -3    1    3    3    0  502 -0.16956453563E+03 -0.20120440161E+03 -0.31680322141E+03  0.41182476161E+03  0.10100000352E+00 0.  1.
</event>
<event>
 5   0  0.3550586E-02  0.7881705E+03  0.7818609E-02  0.9577299E-01
       -2   -1    0    0    0  501  0.00000000000E+00  0.00000000000E+00  0.53569197603E+03  0.53569197604E+03  0.25500000920E-02 0.  1.
        2   -1    0    0  501    0  0.00000000000E+00  0.00000000000E+00 -0.28991132474E+03  0.28991132475E+03  0.25500000920E-02 0. -1.
    10030    2    1    2    0    0  0.00000000000E+00  0.00000000000E+00  0.24578065129E+03  0.82560330079E+03  0.78817046489E+03 0.  0.
        3    1    3    3  502    0  0.79087741004E+02  0.34733833654E+03 -0.53649966231E+02  0.36024591585E+03  0.10100000352E+00 0. -1.
       -3    1    3    3    0  502 -0.79087741004E+02 -0.34733833654E+03  0.29943061752E+03  0.46535738494E+03  0.10100000352E+00 0.  1.
</event>
<event>
 5   0  0.2132540E-02  0.8023689E+03  0.7818609E-02  0.9556595E-01
       -1   -1    0    0    0  501  0.00000000000E+00  0.00000000000E+00  0.32787141595E+03  0.32787141599E+03  0.50400001928E-02 0. -1.
        1   -1    0    0  501    0  0.00000000000E+00  0.00000000000E+00 -0.49089043776E+03  0.49089043779E+03  0.50400001928E-02 0.  1.
    10030    2    1    2    0    0  0.00000000000E+00  0.00000000000E+00 -0.16301902181E+03  0.81876185378E+03  0.80236885018E+03 0.  0.
        4    1    3    3  502    0 -0.12668589916E+03 -0.29812109458E+03  0.16001553347E+03  0.36129224726E+03  0.12699999809E+01 0. -1.
       -4    1    3    3    0  502  0.12668589916E+03  0.29812109458E+03 -0.32303455528E+03  0.45746960652E+03  0.12699999809E+01 0.  1.
</event>
<event>
 5   0  0.1989298E-02  0.7957663E+03  0.7818609E-02  0.9566165E-01
       -1   -1    0    0    0  501  0.00000000000E+00  0.00000000000E+00  0.38059644134E+03  0.38059644137E+03  0.50400001928E-02 0.  1.
        1   -1    0    0  501    0  0.00000000000E+00  0.00000000000E+00 -0.41595506387E+03  0.41595506390E+03  0.50400001928E-02 0. -1.
    10030    2    1    2    0    0  0.00000000000E+00  0.00000000000E+00 -0.35358622536E+02  0.79655150527E+03  0.79576634031E+03 0.  0.
        1    1    3    3  502    0 -0.15722523635E+03  0.14528846842E+03  0.31803571750E+03  0.38337348843E+03  0.50400001928E-02 0.  1.
       -1    1    3    3    0  502  0.15722523635E+03 -0.14528846842E+03 -0.35339434004E+03  0.41317801684E+03  0.50400001928E-02 0. -1.
</event>
<event>
 5   0  0.3416160E-02  0.8629881E+03  0.7818609E-02  0.9473069E-01
        2   -1    0    0  501    0  0.00000000000E+00  0.00000000000E+00  0.16881492236E+03  0.16881492238E+03  0.25500000920E-02 0.  1.
       -2   -1    0    0    0  501  0.00000000000E+00  0.00000000000E+00 -0.11029066161E+04  0.11029066161E+04  0.25500000920E-02 0. -1.
    10030    2    1    2    0    0  0.00000000000E+00  0.00000000000E+00 -0.93409169373E+03  0.12717215385E+04  0.86298805271E+03 0.  0.
        1    1    3    3  502    0  0.31845545171E+01  0.42978754496E+03 -0.41074601711E+03  0.59450800313E+03  0.50400001928E-02 0.  1.
       -1    1    3    3    0  502 -0.31845545171E+01 -0.42978754496E+03 -0.52334567662E+03  0.67721353534E+03  0.50400001928E-02 0. -1.
</event>
<event>
 5   0  0.2063692E-02  0.8076987E+03  0.7818609E-02  0.9548940E-01
        1   -1    0    0  501    0  0.00000000000E+00  0.00000000000E+00  0.12112789637E+04  0.12112789637E+04  0.50400001928E-02 0.  1.
       -1   -1    0    0    0  501  0.00000000000E+00  0.00000000000E+00 -0.13464635601E+03  0.13464635611E+03  0.50400001928E-02 0. -1.
    10030    2    1    2    0    0  0.00000000000E+00  0.00000000000E+00  0.10766326077E+04  0.13459253198E+04  0.80769870285E+03 0.  0.
        2    1    3    3  502    0  0.38295031410E+02 -0.25834761014E+03  0.25019263249E+02  0.26236608134E+03  0.25500000920E-02 0. -1.
       -2    1    3    3    0  502 -0.38295031410E+02  0.25834761014E+03  0.10516133444E+04  0.10835592385E+04  0.25500000920E-02 0.  1.
</event>
<event>
 5   0  0.3404132E-02  0.7756321E+03  0.7818609E-02  0.9595974E-01
       -2   -1    0    0    0  501  0.00000000000E+00  0.00000000000E+00  0.71934847106E+03  0.71934847107E+03  0.25500000920E-02 0. -1.
        2   -1    0    0  501    0  0.00000000000E+00  0.00000000000E+00 -0.20907989329E+03  0.20907989330E+03  0.25500000920E-02 0.  1.
    10030    2    1    2    0    0  0.00000000000E+00  0.00000000000E+00  0.51026857777E+03  0.92842836437E+03  0.77563213336E+03 0.  0.
        5    1    3    3  502    0 -0.10001735295E+03 -0.29417532894E+03 -0.22601269627E+02  0.31156941833E+03  0.46999998093E+01 0.  1.
       -5    1    3    3    0  502  0.10001735295E+03  0.29417532894E+03  0.53286984740E+03  0.61685894604E+03  0.46999998093E+01 0. -1.
</event>
<event>
 5   0  0.2063692E-02  0.8734089E+03  0.7818609E-02  0.9459446E-01
        1   -1    0    0  501    0  0.00000000000E+00  0.00000000000E+00  0.16704220772E+04  0.16704220772E+04  0.50400001928E-02 0.  1.
       -1   -1    0    0    0  501  0.00000000000E+00  0.00000000000E+00 -0.11416921826E+03  0.11416921837E+03  0.50400001928E-02 0. -1.
    10030    2    1    2    0    0  0.00000000000E+00  0.00000000000E+00  0.15562528589E+04  0.17845912955E+04  0.87340891413E+03 0.  0.
        2    1    3    3  502    0 -0.28454941032E+03  0.32412211280E+03  0.91801467499E+03  0.10142851938E+04  0.25500000920E-02 0. -1.
       -2    1    3    3    0  502  0.28454941032E+03 -0.32412211280E+03  0.63823818392E+03  0.77030610172E+03  0.25500000920E-02 0.  1.
</event>
<event>
 5   0  0.2077795E-02  0.7993027E+03  0.7818609E-02  0.9561027E-01
        1   -1    0    0  501    0  0.00000000000E+00  0.00000000000E+00  0.16811343482E+03  0.16811343490E+03  0.50400001928E-02 0.  1.
       -1   -1    0    0    0  501  0.00000000000E+00  0.00000000000E+00 -0.95007999905E+03  0.95007999907E+03  0.50400001928E-02 0. -1.
    10030    2    1    2    0    0  0.00000000000E+00  0.00000000000E+00 -0.78196656423E+03  0.11181934340E+04  0.79930272625E+03 0.  0.
        5    1    3    3  502    0  0.23488233778E+03 -0.30189291916E+03 -0.22910180995E+03  0.44589099179E+03  0.46999998093E+01 0.  1.
       -5    1    3    3    0  502 -0.23488233778E+03  0.30189291916E+03 -0.55286475428E+03  0.67230244218E+03  0.46999998093E+01 0. -1.
</event>
<event>
 5   0  0.1989298E-02  0.8025053E+03  0.7818609E-02  0.9556398E-01
        1   -1    0    0  501    0  0.00000000000E+00  0.00000000000E+00  0.73513314241E+03  0.73513314243E+03  0.50400001928E-02 0.  1.
       -1   -1    0    0    0  501  0.00000000000E+00  0.00000000000E+00 -0.21901297473E+03  0.21901297478E+03  0.50400001928E-02 0. -1.
    10030    2    1    2    0    0  0.00000000000E+00  0.00000000000E+00  0.51612016769E+03  0.95414611721E+03  0.80250531805E+03 0.  0.
        1    1    3    3  502    0 -0.15203408655E+03 -0.24941418029E+03  0.58514685541E+03  0.65400201775E+03  0.50400001928E-02 0.  1.
       -1    1    3    3    0  502  0.15203408655E+03  0.24941418029E+03 -0.69026687724E+02  0.30014409946E+03  0.50400001928E-02 0. -1.
</event>
<event>
 5   0  0.3404132E-02  0.7788765E+03  0.7818609E-02  0.9591106E-01
        2   -1    0    0  501    0  0.00000000000E+00  0.00000000000E+00  0.14896029246E+04  0.14896029246E+04  0.25500000920E-02 0.  1.
       -2   -1    0    0    0  501  0.00000000000E+00  0.00000000000E+00 -0.10181381549E+03  0.10181381552E+03  0.25500000920E-02 0. -1.
    10030    2    1    2    0    0  0.00000000000E+00  0.00000000000E+00  0.13877891092E+04  0.15914167402E+04  0.77887651744E+03 0.  0.
        5    1    3    3  502    0 -0.79977095546E+02  0.38081389058E+03  0.72450963216E+03  0.82240613578E+03  0.46999998093E+01 0. -1.
       -5    1    3    3    0  502  0.79977095546E+02 -0.38081389058E+03  0.66327947699E+03  0.76901060439E+03  0.46999998093E+01 0.  1.
</event>
<event>
 5   0  0.2063692E-02  0.7725966E+03  0.7818609E-02  0.9600552E-01
        1   -1    0    0  501    0  0.00000000000E+00  0.00000000000E+00  0.10405219033E+04  0.10405219033E+04  0.50400001928E-02 0. -1.
       -1   -1    0    0    0  501  0.00000000000E+00  0.00000000000E+00 -0.14341492806E+03  0.14341492815E+03  0.50400001928E-02 0.  1.
    10030    2    1    2    0    0  0.00000000000E+00  0.00000000000E+00  0.89710697524E+03  0.11839368315E+04  0.77259659322E+03 0.  0.
        2    1    3    3  502    0 -0.10767331938E+03  0.28563786138E+03  0.85776530150E+02  0.31708065960E+03  0.25500000920E-02 0.  1.
       -2    1    3    3    0  502  0.10767331938E+03 -0.28563786138E+03  0.81133044509E+03  0.86685617187E+03  0.25500000920E-02 0. -1.
</event>
<event>
 5   0  0.2129257E-02  0.7633131E+03  0.7818609E-02  0.9614693E-01
       -1   -1    0    0    0  501  0.00000000000E+00  0.00000000000E+00  0.15086448712E+03  0.15086448721E+03  0.50400001928E-02 0.  1.
        1   -1    0    0  501    0  0.00000000000E+00  0.00000000000E+00 -0.96551376607E+03  0.96551376608E+03  0.50400001928E-02 0. -1.
    10030    2    1    2    0    0  0.00000000000E+00  0.00000000000E+00 -0.81464927894E+03  0.11163782533E+04  0.76331314461E+03 0.  0.
        3    1    3    3  502    0  0.37944905348E+02  0.44811783421E+02 -0.95886782558E+03  0.96066405622E+03  0.10100000352E+00 0. -1.
       -3    1    3    3    0  502 -0.37944905348E+02 -0.44811783421E+02  0.14421854664E+03  0.15571419707E+03  0.10100000352E+00 0.  1.
</event>
<event>
 5   0  0.3550586E-02  0.7941825E+03  0.7818609E-02  0.9568476E-01
        2   -1    0    0  501    0  0.00000000000E+00  0.00000000000E+00  0.92440417499E+03  0.92440417499E+03  0.25500000920E-02 0.  1.
       -2   -1    0    0    0  501  0.00000000000E+00  0.00000000000E+00 -0.17057633439E+03  0.17057633441E+03  0.25500000920E-02 0. -1.
    10030    2    1    2    0    0  0.00000000000E+00  0.00000000000E+00  0.75382784060E+03  0.10949805094E+04  0.79418253739E+03 0.  0.
        3    1    3    3  502    0  0.23638744411E+03  0.31056134308E+02 -0.60908580346E+02  0.24607594878E+03  0.10100000352E+00 0. -1.
       -3    1    3    3    0  502 -0.23638744411E+03 -0.31056134308E+02  0.81473642095E+03  0.84890456062E+03  0.10100000352E+00 0.  1.
</event>
<event>
 5   0  0.3404132E-02  0.7699678E+03  0.7818609E-02  0.9604535E-01
       -2   -1    0    0    0  501  0.00000000000E+00  0.00000000000E+00  0.67879995580E+02  0.67879995628E+02  0.25500000920E-02 0.  1.
        2   -1    0    0  501    0  0.00000000000E+00  0.00000000000E+00 -0.21834503794E+04  0.21834503794E+04  0.25500000920E-02 0. -1.
    10030    2    1    2    0    0  0.00000000000E+00  0.00000000000E+00 -0.21155703838E+04  0.22513303750E+04  0.76996779713E+03 0.  0.
        5    1    3    3  502    0 -0.32857720128E+03 -0.14441317439E+03 -0.14647511163E+04  0.15080902045E+04  0.46999998093E+01 0. -1.
       -5    1    3    3    0  502  0.32857720128E+03  0.14441317439E+03 -0.65081926743E+03  0.74324017046E+03  0.46999998093E+01 0.  1.
</event>
<event>
 5   0  0.3416160E-02  0.8630281E+03  0.7818609E-02  0.9473016E-01
        2   -1    0    0  501    0  0.00000000000E+00  0.00000000000E+00  0.15372099863E+04  0.15372099863E+04  0.25500000920E-02 0.  1.
       -2   -1    0    0    0  501  0.00000000000E+00  0.00000000000E+00 -0.12113139092E+03  0.12113139094E+03  0.25500000920E-02 0. -1.
    10030    2    1    2    0    0  0.00000000000E+00  0.00000000000E+00  0.14160785953E+04  0.16583413772E+04  0.86302811957E+03 0.  0.
        1    1    3    3  502    0 -0.15972921099E+03  0.17159955573E+03  0.11910438365E+02  0.23473748516E+03  0.50400001928E-02 0. -1.
       -1    1    3    3    0  502  0.15972921099E+03 -0.17159955573E+03  0.14041681570E+04  0.14236038921E+04  0.50400001928E-02 0.  1.
</event>
<event>
 5   0  0.2132540E-02  0.7997318E+03  0.7818609E-02  0.9560405E-01
       -1   -1    0    0    0  501  0.00000000000E+00  0.00000000000E+00  0.31809853665E+03  0.31809853669E+03  0.50400001928E-02 0.  1.
        1   -1    0    0  501    0  0.00000000000E+00  0.00000000000E+00 -0.50265154470E+03  0.50265154473E+03  0.50400001928E-02 0. -1.
    10030    2    1    2    0    0  0.00000000000E+00  0.00000000000E+00 -0.18455300805E+03  0.82075008142E+03  0.79973175713E+03 0.  0.
        4    1    3    3  502    0  0.80424195271E+02  0.36520712280E+03  0.53031412312E+02  0.37770125406E+03  0.12699999809E+01 0. -1.
       -4    1    3    3    0  502 -0.80424195271E+02 -0.36520712280E+03 -0.23758442036E+03  0.44304882736E+03  0.12699999809E+01 0.  1.
</event>
<event>
 5   0  0.2129257E-02  0.7911663E+03  0.7818609E-02  0.9572892E-01
       -1   -1    0    0    0  501  0.00000000000E+00  0.00000000000E+00  0.28789110359E+03  0.28789110364E+03  0.50400001928E-02 0.  1.
        1   -1    0    0  501    0  0.00000000000E+00  0.00000000000E+00 -0.54355982183E+03  0.54355982185E+03  0.50400001928E-02 0. -1.
    10030    2    1    2    0    0  0.00000000000E+00  0.00000000000E+00 -0.25566871823E+03  0.83145092549E+03  0.79116632133E+03 0.  0.
        3    1    3    3  502    0  0.26162875641E+03 -0.21475169326E+03 -0.34299844553E+03  0.48188778754E+03  0.10100000352E+00 0. -1.
       -3    1    3    3    0  502 -0.26162875641E+03  0.21475169326E+03  0.87329727299E+02  0.34956313795E+03  0.10100000352E+00 0.  1.
</event>
<event>
 5   0  0.1989298E-02  0.6273579E+03  0.7818609E-02  0.9850218E-01
        1   -1    0    0  501    0  0.00000000000E+00  0.00000000000E+00  0.49351263961E+03  0.49351263964E+03  0.50400001928E-02 0.  1.
       -1   -1    0    0    0  501  0.00000000000E+00  0.00000000000E+00 -0.19937580307E+03  0.19937580313E+03  0.50400001928E-02 0. -1.
    10030    2    1    2    0    0  0.00000000000E+00  0.00000000000E+00  0.29413683654E+03  0.69288844277E+03  0.62735788471E+03 0.  0.
        1    1    3    3  502    0 -0.10000780342E+03 -0.11869087953E+03  0.44813193147E+03  0.47424815619E+03  0.50400001928E-02 0.  1.
       -1    1    3    3    0  502  0.10000780342E+03  0.11869087953E+03 -0.15399509492E+03  0.21864028658E+03  0.50400001928E-02 0. -1.
</event>
<event>
 5   0  0.3467240E-02  0.7731280E+03  0.7818609E-02  0.9599749E-01
       -2   -1    0    0    0  501  0.00000000000E+00  0.00000000000E+00  0.63841999671E+02  0.63841999722E+02  0.25500000920E-02 0.  1.
        2   -1    0    0  501    0  0.00000000000E+00  0.00000000000E+00 -0.23406490381E+04  0.23406490381E+04  0.25500000920E-02 0. -1.
    10030    2    1    2    0    0  0.00000000000E+00  0.00000000000E+00 -0.22768070384E+04  0.24044910378E+04  0.77312797177E+03 0.  0.
        2    1    3    3  502    0  0.14265443994E+03  0.22733408109E+03 -0.27314864101E+03  0.38293766301E+03  0.25500000920E-02 0. -1.
       -2    1    3    3    0  502 -0.14265443994E+03 -0.22733408109E+03 -0.20036583974E+04  0.20215533748E+04  0.25500000920E-02 0.  1.
</event>
<event>
 5   0  0.1989298E-02  0.7799596E+03  0.7818609E-02  0.9589487E-01
       -1   -1    0    0    0  501  0.00000000000E+00  0.00000000000E+00  0.12216944399E+03  0.12216944409E+03  0.50400001928E-02 0.  1.
        1   -1    0    0  501    0  0.00000000000E+00  0.00000000000E+00 -0.12448631138E+04  0.12448631138E+04  0.50400001928E-02 0. -1.
    10030    2    1    2    0    0  0.00000000000E+00  0.00000000000E+00 -0.11226936698E+04  0.13670325579E+04  0.77995957468E+03 0.  0.
        1    1    3    3  502    0  0.12755563708E+03 -0.48846751554E+02  0.78874155243E+02  0.15772627580E+03  0.50400001928E-02 0.  1.
       -1    1    3    3    0  502 -0.12755563708E+03  0.48846751554E+02 -0.12015678251E+04  0.12093062821E+04  0.50400001928E-02 0. -1.
</event>
<event>
 5   0  0.1358000E-02  0.8999909E+03  0.7818609E-02  0.9425593E-01
       -4   -1    0    0    0  501  0.00000000000E+00  0.00000000000E+00  0.23673640124E+03  0.23673980774E+03  0.12699999809E+01 0. -1.
        4   -1    0    0  501    0  0.00000000000E+00  0.00000000000E+00 -0.85535439866E+03  0.85535534149E+03  0.12699999809E+01 0.  1.
    10030    2    1    2    0    0  0.00000000000E+00  0.00000000000E+00 -0.61861799742E+03  0.10920951492E+04  0.89999088231E+03 0.  0.
        4    1    3    3  502    0  0.30960560108E+02 -0.24150621426E+03  0.14989933715E+03  0.28592871837E+03  0.12699999809E+01 0. -1.
       -4    1    3    3    0  502 -0.30960560108E+02  0.24150621426E+03 -0.76851733458E+03  0.80616643087E+03  0.12699999809E+01 0.  1.
</event>
<event>
 5   0  0.2132540E-02  0.7931957E+03  0.7818609E-02  0.9569919E-01
        1   -1    0    0  501    0  0.00000000000E+00  0.00000000000E+00  0.90402259426E+03  0.90402259427E+03  0.50400001928E-02 0.  1.
       -1   -1    0    0    0  501  0.00000000000E+00  0.00000000000E+00 -0.17398886145E+03  0.17398886152E+03  0.50400001928E-02 0. -1.
    10030    2    1    2    0    0  0.00000000000E+00  0.00000000000E+00  0.73003373281E+03  0.10780114558E+04  0.79319571846E+03 0.  0.
        4    1    3    3  502    0  0.73525936339E+02  0.82249045393E+02  0.88274597103E+03  0.88961397868E+03  0.12699999809E+01 0.  1.
       -4    1    3    3    0  502 -0.73525936339E+02 -0.82249045393E+02 -0.15271223822E+03  0.18839747712E+03  0.12699999809E+01 0. -1.
</event>
<event>
 5   0  0.3416160E-02  0.7169468E+03  0.7818609E-02  0.9688682E-01
       -2   -1    0    0    0  501  0.00000000000E+00  0.00000000000E+00  0.30167792278E+03  0.30167792279E+03  0.25500000920E-02 0. -1.
        2   -1    0    0  501    0  0.00000000000E+00  0.00000000000E+00 -0.42596143626E+03  0.42596143627E+03  0.25500000920E-02 0.  1.
    10030    2    1    2    0    0  0.00000000000E+00  0.00000000000E+00 -0.12428351348E+03  0.72763935906E+03  0.71694675195E+03 0.  0.
        1    1    3    3  502    0 -0.31249182885E+03 -0.16827858083E+03 -0.11323476771E+03  0.37254655616E+03  0.50400001928E-02 0. -1.
       -1    1    3    3    0  502  0.31249182885E+03  0.16827858083E+03 -0.11048745768E+02  0.35509280290E+03  0.50400001928E-02 0.  1.
</event>
<event>
 5   0  0.3550586E-02  0.8078983E+03  0.7818609E-02  0.9548654E-01
       -2   -1    0    0    0  501  0.00000000000E+00  0.00000000000E+00  0.66358812510E+03  0.66358812511E+03  0.25500000920E-02 0. -1.
        2   -1    0    0  501    0  0.00000000000E+00  0.00000000000E+00 -0.24589788394E+03  0.24589788396E+03  0.25500000920E-02 0.  1.
    10030    2    1    2    0    0  0.00000000000E+00  0.00000000000E+00  0.41769024116E+03  0.90948600906E+03  0.80789829999E+03 0.  0.
        3    1    3    3  502    0  0.15162115494E+02  0.85018680014E+02 -0.23538409674E+03  0.25072644236E+03  0.10100000352E+00 0.  1.
       -3    1    3    3    0  502 -0.15162115494E+02 -0.85018680014E+02  0.65307433790E+03  0.65875956670E+03  0.10100000352E+00 0. -1.
</event>
<event>
 5   0  0.2063692E-02  0.8229142E+03  0.7818609E-02  0.9527429E-01
        1   -1    0    0  501    0  0.00000000000E+00  0.00000000000E+00  0.77912214288E+03  0.77912214290E+03  0.50400001928E-02 0.  1.
       -1   -1    0    0    0  501  0.00000000000E+00  0.00000000000E+00 -0.21729193764E+03  0.21729193769E+03  0.50400001928E-02 0. -1.
    10030    2    1    2    0    0  0.00000000000E+00  0.00000000000E+00  0.56183020525E+03  0.99641408059E+03  0.82291423641E+03 0.  0.
        2    1    3    3  502    0  0.13357583417E+03  0.24497916035E+03  0.64705967425E+03  0.70465843820E+03  0.25500000920E-02 0.  1.
       -2    1    3    3    0  502 -0.13357583417E+03 -0.24497916035E+03 -0.85229469003E+02  0.29175564240E+03  0.25500000920E-02 0. -1.
</event>
<event>
 5   0  0.1358000E-02  0.8543388E+03  0.7818609E-02  0.9484532E-01
        3   -1    0    0  501    0  0.00000000000E+00  0.00000000000E+00  0.70464198273E+03  0.70464198996E+03  0.10100000352E+00 0. -1.
       -3   -1    0    0    0  501  0.00000000000E+00  0.00000000000E+00 -0.25895940520E+03  0.25895942490E+03  0.10100000352E+00 0.  1.
    10030    2    1    2    0    0  0.00000000000E+00  0.00000000000E+00  0.44568257753E+03  0.96360141486E+03  0.85433876583E+03 0.  0.
        4    1    3    3  502    0 -0.17517499475E+03  0.74597530947E+02 -0.20845149171E+03  0.28232022192E+03  0.12699999809E+01 0.  1.
       -4    1    3    3    0  502  0.17517499475E+03 -0.74597530947E+02  0.65413406924E+03  0.68128119294E+03  0.12699999809E+01 0. -1.
</event>
<event>
 5   0  0.2077795E-02  0.7991257E+03  0.7818609E-02  0.9561283E-01
       -1   -1    0    0    0  501  0.00000000000E+00  0.00000000000E+00  0.23302594852E+03  0.23302594858E+03  0.50400001928E-02 0.  1.
        1   -1    0    0  501    0  0.00000000000E+00  0.00000000000E+00 -0.68511892662E+03  0.68511892664E+03  0.50400001928E-02 0. -1.
    10030    2    1    2    0    0  0.00000000000E+00  0.00000000000E+00 -0.45209297810E+03  0.91814487522E+03  0.79912574170E+03 0.  0.
        5    1    3    3  502    0  0.12714534363E+03  0.21205533612E+03 -0.58662776608E+03  0.63662204637E+03  0.46999998093E+01 0. -1.
       -5    1    3    3    0  502 -0.12714534363E+03 -0.21205533612E+03  0.13453478798E+03  0.28152282885E+03  0.46999998093E+01 0.  1.
</event>
<event>
 5   0  0.3404132E-02  0.7868325E+03  0.7818609E-02  0.9579274E-01
       -2   -1    0    0    0  501  0.00000000000E+00  0.00000000000E+00  0.17363638433E+03  0.17363638435E+03  0.25500000920E-02 0. -1.
        2   -1    0    0  501    0  0.00000000000E+00  0.00000000000E+00 -0.89138205870E+03  0.89138205870E+03  0.25500000920E-02 0.  1.
    10030    2    1    2    0    0  0.00000000000E+00  0.00000000000E+00 -0.71774567437E+03  0.10650184431E+04  0.78683253044E+03 0.  0.
        5    1    3    3  502    0  0.26140638344E+03 -0.29033253197E+03 -0.29643328962E+03  0.49042946650E+03  0.46999998093E+01 0. -1.
       -5    1    3    3    0  502 -0.26140638344E+03  0.29033253197E+03 -0.42131238475E+03  0.57458897655E+03  0.46999998093E+01 0.  1.
</event>
<event>
 5   0  0.3416160E-02  0.8043920E+03  0.7818609E-02  0.9553682E-01
       -2   -1    0    0    0  501  0.00000000000E+00  0.00000000000E+00  0.18391619255E+03  0.18391619257E+03  0.25500000920E-02 0. -1.
        2   -1    0    0  501    0  0.00000000000E+00  0.00000000000E+00 -0.87953980714E+03  0.87953980714E+03  0.25500000920E-02 0.  1.
    10030    2    1    2    0    0  0.00000000000E+00  0.00000000000E+00 -0.69562361458E+03  0.10634559997E+04  0.80439197544E+03 0.  0.
        1    1    3    3  502    0 -0.34838626688E+03 -0.51753741157E+02 -0.60454442677E+03  0.69966092119E+03  0.50400001928E-02 0.  1.
       -1    1    3    3    0  502  0.34838626688E+03  0.51753741157E+02 -0.91079187812E+02  0.36379507852E+03  0.50400001928E-02 0. -1.
</event>
<event>
 5   0  0.2077795E-02  0.7861551E+03  0.7818609E-02  0.9580276E-01
       -1   -1    0    0    0  501  0.00000000000E+00  0.00000000000E+00  0.18072672755E+03  0.18072672762E+03  0.50400001928E-02 0. -1.
        1   -1    0    0  501    0  0.00000000000E+00  0.00000000000E+00 -0.85493704523E+03  0.85493704525E+03  0.50400001928E-02 0.  1.
    10030    2    1    2    0    0  0.00000000000E+00  0.00000000000E+00 -0.67421031769E+03  0.10356637729E+04  0.78615513606E+03 0.  0.
        5    1    3    3  502    0 -0.19385671860E+03  0.22124741716E+03 -0.68052687027E+03  0.74139716623E+03  0.46999998093E+01 0. -1.
       -5    1    3    3    0  502  0.19385671860E+03 -0.22124741716E+03  0.63165525809E+01  0.29426660663E+03  0.46999998093E+01 0.  1.
</event>
<event>
 5   0  0.2063692E-02  0.8696566E+03  0.7818609E-02  0.9464328E-01
       -1   -1    0    0    0  501  0.00000000000E+00  0.00000000000E+00  0.19939080610E+03  0.19939080617E+03  0.50400001928E-02 0. -1.
        1   -1    0    0  501    0  0.00000000000E+00  0.00000000000E+00 -0.94826662450E+03  0.94826662451E+03  0.50400001928E-02 0.  1.
    10030    2    1    2    0    0  0.00000000000E+00  0.00000000000E+00 -0.74887581840E+03  0.11476574307E+04  0.86965659132E+03 0.  0.
        2    1    3    3  502    0 -0.35337843376E+03 -0.59168554252E+02 -0.49310829962E+02  0.36167498285E+03  0.25500000920E-02 0. -1.
       -2    1    3    3    0  502  0.35337843376E+03  0.59168554252E+02 -0.69956498843E+03  0.78598244784E+03  0.25500000920E-02 0.  1.
</event>
<event>
 5   0  0.3343036E-02  0.8033056E+03  0.7818609E-02  0.9555245E-01
        2   -1    0    0  501    0  0.00000000000E+00  0.00000000000E+00  0.13424036340E+04  0.13424036340E+04  0.25500000920E-02 0.  1.
       -2   -1    0    0    0  501  0.00000000000E+00  0.00000000000E+00 -0.12017620776E+03  0.12017620779E+03  0.25500000920E-02 0. -1.
    10030    2    1    2    0    0  0.00000000000E+00  0.00000000000E+00  0.12222274262E+04  0.14625798418E+04  0.80330561565E+03 0.  0.
        4    1    3    3  502    0  0.12648056746E+03  0.37249025404E+03  0.46345669883E+03  0.60789805715E+03  0.12699999809E+01 0.  1.
       -4    1    3    3    0  502 -0.12648056746E+03 -0.37249025404E+03  0.75877072738E+03  0.85468178460E+03  0.12699999809E+01 0. -1.
</event>
<event>
 5   0  0.3416160E-02  0.7934292E+03  0.7818609E-02  0.9569577E-01
       -2   -1    0    0    0  501  0.00000000000E+00  0.00000000000E+00  0.11383357617E+03  0.11383357620E+03  0.25500000920E-02 0.  1.
        2   -1    0    0  501    0  0.00000000000E+00  0.00000000000E+00 -0.13825665128E+04  0.13825665128E+04  0.25500000920E-02 0. -1.
    10030    2    1    2    0    0  0.00000000000E+00  0.00000000000E+00 -0.12687329366E+04  0.14964000890E+04  0.79342924189E+03 0.  0.
        1    1    3    3  502    0  0.19516464361E+03  0.29841632405E+03 -0.30639411422E+03  0.47012646578E+03  0.50400001928E-02 0. -1.
       -1    1    3    3    0  502 -0.19516464361E+03 -0.29841632405E+03 -0.96233882238E+03  0.10262736232E+04  0.50400001928E-02 0.  1.
</event>
<event>
 5   0  0.3404132E-02  0.8008055E+03  0.7818609E-02  0.9558852E-01
       -2   -1    0    0    0  501  0.00000000000E+00  0.00000000000E+00  0.12114949587E+03  0.12114949590E+03  0.25500000920E-02 0.  1.
        2   -1    0    0  501    0  0.00000000000E+00  0.00000000000E+00 -0.13233431368E+04  0.13233431368E+04  0.25500000920E-02 0. -1.
    10030    2    1    2    0    0  0.00000000000E+00  0.00000000000E+00 -0.12021936409E+04  0.14444926327E+04  0.80080547927E+03 0.  0.
        5    1    3    3  502    0 -0.20238653467E+02  0.39771456082E+03 -0.67577039848E+03  0.78439415885E+03  0.46999998093E+01 0.  1.
       -5    1    3    3    0  502  0.20238653467E+02 -0.39771456082E+03 -0.52642324242E+03  0.66009847382E+03  0.46999998093E+01 0. -1.
</event>
<event>
 5   0  0.3404132E-02  0.8039085E+03  0.7818609E-02  0.9554377E-01
       -2   -1    0    0    0  501  0.00000000000E+00  0.00000000000E+00  0.31899082661E+03  0.31899082662E+03  0.25500000920E-02 0. -1.
        2   -1    0    0  501    0  0.00000000000E+00  0.00000000000E+00 -0.50649491175E+03  0.50649491176E+03  0.25500000920E-02 0.  1.
    10030    2    1    2    0    0  0.00000000000E+00  0.00000000000E+00 -0.18750408514E+03  0.82548573838E+03  0.80390852858E+03 0.  0.
        5    1    3    3  502    0  0.27679201276E+03  0.21835496237E+03 -0.29194136716E+03  0.45776037375E+03  0.46999998093E+01 0.  1.
       -5    1    3    3    0  502 -0.27679201276E+03 -0.21835496237E+03  0.10443728202E+03  0.36772536463E+03  0.46999998093E+01 0. -1.
</event>
<event>
 5   0  0.3404132E-02  0.8018595E+03  0.7818609E-02  0.9557329E-01
        2   -1    0    0  501    0  0.00000000000E+00  0.00000000000E+00  0.10492368917E+04  0.10492368917E+04  0.25500000920E-02 0.  1.
       -2   -1    0    0    0  501  0.00000000000E+00  0.00000000000E+00 -0.15320151410E+03  0.15320151412E+03  0.25500000920E-02 0. -1.
    10030    2    1    2    0    0  0.00000000000E+00  0.00000000000E+00  0.89603537758E+03  0.12024384058E+04  0.80185954000E+03 0.  0.
        5    1    3    3  502    0  0.13762511370E+03  0.34841695471E+03  0.66213264117E+03  0.76077379737E+03  0.46999998093E+01 0.  1.
       -5    1    3    3    0  502 -0.13762511370E+03 -0.34841695471E+03  0.23390273641E+03  0.44166460844E+03  0.46999998093E+01 0. -1.
</event>
<event>
 5   0  0.2077795E-02  0.7921217E+03  0.7818609E-02  0.9571491E-01
       -1   -1    0    0    0  501  0.00000000000E+00  0.00000000000E+00  0.77943382625E+02  0.77943382788E+02  0.50400001928E-02 0. -1.
        1   -1    0    0  501    0  0.00000000000E+00  0.00000000000E+00 -0.20125401800E+04  0.20125401800E+04  0.50400001928E-02 0.  1.
    10030    2    1    2    0    0  0.00000000000E+00  0.00000000000E+00 -0.19345967973E+04  0.20904835628E+04  0.79212168124E+03 0.  0.
        5    1    3    3  502    0 -0.12825107588E+03 -0.24545954424E+03 -0.17144154791E+04  0.17366465533E+04  0.46999998093E+01 0.  1.
       -5    1    3    3    0  502  0.12825107588E+03  0.24545954424E+03 -0.22018131825E+03  0.35383700941E+03  0.46999998093E+01 0. -1.
</event>
<event>
 5   0  0.3416160E-02  0.8332687E+03  0.7818609E-02  0.9513072E-01
       -2   -1    0    0    0  501  0.00000000000E+00  0.00000000000E+00  0.32725510143E+03  0.32725510144E+03  0.25500000920E-02 0.  1.
        2   -1    0    0  501    0  0.00000000000E+00  0.00000000000E+00 -0.53042470241E+03  0.53042470242E+03  0.25500000920E-02 0. -1.
    10030    2    1    2    0    0  0.00000000000E+00  0.00000000000E+00 -0.20316960098E+03  0.85767980386E+03  0.83326871968E+03 0.  0.
        1    1    3    3  502    0  0.21650493284E+03  0.33363120362E+03 -0.22931712059E+03  0.45909749269E+03  0.50400001928E-02 0. -1.
       -1    1    3    3    0  502 -0.21650493284E+03 -0.33363120362E+03  0.26147519616E+02  0.39858231117E+03  0.50400001928E-02 0.  1.
</event>
<event>
 5   0  0.2063692E-02  0.7910651E+03  0.7818609E-02  0.9573041E-01
       -1   -1    0    0    0  501  0.00000000000E+00  0.00000000000E+00  0.13383018787E+03  0.13383018796E+03  0.50400001928E-02 0.  1.
        1   -1    0    0  501    0  0.00000000000E+00  0.00000000000E+00 -0.11689888625E+04  0.11689888625E+04  0.50400001928E-02 0. -1.
    10030    2    1    2    0    0  0.00000000000E+00  0.00000000000E+00 -0.10351586747E+04  0.13028190505E+04  0.79106510265E+03 0.  0.
        2    1    3    3  502    0  0.23725004794E+03 -0.17757214944E+03 -0.86141784798E+02  0.30860956013E+03  0.25500000920E-02 0.  1.
       -2    1    3    3    0  502 -0.23725004794E+03  0.17757214944E+03 -0.94901688987E+03  0.99420949038E+03  0.25500000920E-02 0. -1.
</event>
<event>
 5   0  0.2063692E-02  0.7968984E+03  0.7818609E-02  0.9564517E-01
       -1   -1    0    0    0  501  0.00000000000E+00  0.00000000000E+00  0.16062399955E+03  0.16062399963E+03  0.50400001928E-02 0. -1.
        1   -1    0    0  501    0  0.00000000000E+00  0.00000000000E+00 -0.98840619968E+03  0.98840619970E+03  0.50400001928E-02 0.  1.
    10030    2    1    2    0    0  0.00000000000E+00  0.00000000000E+00 -0.82778220013E+03  0.11490301993E+04  0.79689838004E+03 0.  0.
        2    1    3    3  502    0  0.32376579868E+03  0.21555955023E+03 -0.53852428846E+03  0.66430310955E+03  0.25500000920E-02 0. -1.
       -2    1    3    3    0  502 -0.32376579868E+03 -0.21555955023E+03 -0.28925791167E+03  0.48472708977E+03  0.25500000920E-02 0.  1.
</event>
<event>
 5   0  0.2129257E-02  0.7423962E+03  0.7818609E-02  0.9647356E-01
        1   -1    0    0  501    0  0.00000000000E+00  0.00000000000E+00  0.31730124696E+03  0.31730124700E+03  0.50400001928E-02 0. -1.
       -1   -1    0    0    0  501  0.00000000000E+00  0.00000000000E+00 -0.43424991883E+03  0.43424991886E+03  0.50400001928E-02 0.  1.
    10030    2    1    2    0    0  0.00000000000E+00  0.00000000000E+00 -0.11694867188E+03  0.75155116586E+03  0.74239623049E+03 0.  0.
        3    1    3    3  502    0 -0.20310509059E+03  0.20805229577E+03 -0.29208089205E+03  0.41212703539E+03  0.10100000352E+00 0.  1.
       -3    1    3    3    0  502  0.20310509059E+03 -0.20805229577E+03  0.17513222018E+03  0.33942413047E+03  0.10100000352E+00 0. -1.
</event>
<event>
 5   0  0.3416160E-02  0.8360800E+03  0.7818609E-02  0.9509213E-01
       -2   -1    0    0    0  501  0.00000000000E+00  0.00000000000E+00  0.16412183135E+03  0.16412183137E+03  0.25500000920E-02 0.  1.
        2   -1    0    0  501    0  0.00000000000E+00  0.00000000000E+00 -0.10648032560E+04  0.10648032560E+04  0.25500000920E-02 0. -1.
    10030    2    1    2    0    0  0.00000000000E+00  0.00000000000E+00 -0.90068142467E+03  0.12289250874E+04  0.83608004503E+03 0.  0.
        1    1    3    3  502    0  0.13333669716E+03 -0.14679698415E+03 -0.99126200707E+03  0.10109047413E+04  0.50400001928E-02 0. -1.
       -1    1    3    3    0  502 -0.13333669716E+03  0.14679698415E+03  0.90580582404E+02  0.21802034607E+03  0.50400001928E-02 0.  1.
</event>
<event>
 5   0  0.2132540E-02  0.7991280E+03  0.7818609E-02  0.9561280E-01
        1   -1    0    0  501    0  0.00000000000E+00  0.00000000000E+00  0.13077122714E+03  0.13077122723E+03  0.50400001928E-02 0.  1.
       -1   -1    0    0    0  501  0.00000000000E+00  0.00000000000E+00 -0.12208448338E+04  0.12208448338E+04  0.50400001928E-02 0. -1.
    10030    2    1    2    0    0  0.00000000000E+00  0.00000000000E+00 -0.10900736067E+04  0.13516160610E+04  0.79912796755E+03 0.  0.
        4    1    3    3  502    0 -0.13695794128E+03  0.15838019738E+03 -0.11206175969E+04  0.11400119192E+04  0.12699999809E+01 0. -1.
       -4    1    3    3    0  502  0.13695794128E+03 -0.15838019738E+03  0.30543990221E+02  0.21160414183E+03  0.12699999809E+01 0.  1.
</event>
<event>
 5   0  0.2132540E-02  0.8621940E+03  0.7818609E-02  0.9474115E-01
        1   -1    0    0  501    0  0.00000000000E+00  0.00000000000E+00  0.10937835504E+04  0.10937835504E+04  0.50400001928E-02 0.  1.
       -1   -1    0    0    0  501  0.00000000000E+00  0.00000000000E+00 -0.16990989157E+03  0.16990989164E+03  0.50400001928E-02 0. -1.
    10030    2    1    2    0    0  0.00000000000E+00  0.00000000000E+00  0.92387365886E+03  0.12636934421E+04  0.86219404893E+03 0.  0.
        4    1    3    3  502    0  0.41786392463E+03 -0.78012671848E+02  0.35678782834E+03  0.55497333614E+03  0.12699999809E+01 0. -1.
       -4    1    3    3    0  502 -0.41786392463E+03  0.78012671848E+02  0.56708583052E+03  0.70872010593E+03  0.12699999809E+01 0.  1.
</event>
<event>
 5   0  0.2077795E-02  0.8024081E+03  0.7818609E-02  0.9556538E-01
       -1   -1    0    0    0  501  0.00000000000E+00  0.00000000000E+00  0.87874922246E+02  0.87874922391E+02  0.50400001928E-02 0.  1.
        1   -1    0    0  501    0  0.00000000000E+00  0.00000000000E+00 -0.18317476762E+04  0.18317476762E+04  0.50400001928E-02 0. -1.
    10030    2    1    2    0    0  0.00000000000E+00  0.00000000000E+00 -0.17438727540E+04  0.19196225986E+04  0.80240808761E+03 0.  0.
        5    1    3    3  502    0 -0.36668034070E+03  0.35483540224E+02 -0.12519252914E+04  0.13050105666E+04  0.46999998093E+01 0. -1.
       -5    1    3    3    0  502  0.36668034070E+03 -0.35483540224E+02 -0.49194746260E+03  0.61461203197E+03  0.46999998093E+01 0.  1.
</event>
<event>
 5   0  0.3467240E-02  0.8035011E+03  0.7818609E-02  0.9554963E-01
       -2   -1    0    0    0  501  0.00000000000E+00  0.00000000000E+00  0.37329589781E+03  0.37329589782E+03  0.25500000920E-02 0.  1.
        2   -1    0    0  501    0  0.00000000000E+00  0.00000000000E+00 -0.43237411858E+03  0.43237411859E+03  0.25500000920E-02 0. -1.
    10030    2    1    2    0    0  0.00000000000E+00  0.00000000000E+00 -0.59078220773E+02  0.80567001641E+03  0.80350105113E+03 0.  0.
        2    1    3    3  502    0 -0.13497529678E+03 -0.58500519418E+02  0.34531874457E+03  0.37534740824E+03  0.25500000920E-02 0.  1.
       -2    1    3    3    0  502  0.13497529678E+03  0.58500519418E+02 -0.40439696535E+03  0.43032260817E+03  0.25500000920E-02 0. -1.
</event>
<event>
 5   0  0.3343036E-02  0.9517512E+03  0.7818609E-02  0.9363106E-01
       -2   -1    0    0    0  501  0.00000000000E+00  0.00000000000E+00  0.12254115574E+03  0.12254115576E+03  0.25500000920E-02 0.  1.
        2   -1    0    0  501    0  0.00000000000E+00  0.00000000000E+00 -0.18480125939E+04  0.18480125939E+04  0.25500000920E-02 0. -1.
    10030    2    1    2    0    0  0.00000000000E+00  0.00000000000E+00 -0.17254714382E+04  0.19705537497E+04  0.95175122612E+03 0.  0.
        4    1    3    3  502    0  0.15121970932E+03 -0.43611165118E+03 -0.62310656257E+03  0.77545094881E+03  0.12699999809E+01 0. -1.
       -4    1    3    3    0  502 -0.15121970932E+03  0.43611165118E+03 -0.11023648756E+04  0.11951028009E+04  0.12699999809E+01 0.  1.
</event>
<event>
 5   0  0.3404132E-02  0.7972315E+03  0.7818609E-02  0.9564033E-01
       -2   -1    0    0    0  501  0.00000000000E+00  0.00000000000E+00  0.54715166015E+03  0.54715166016E+03  0.25500000920E-02 0.  1.
        2   -1    0    0  501    0  0.00000000000E+00  0.00000000000E+00 -0.29040308777E+03  0.29040308778E+03  0.25500000920E-02 0. -1.
    10030    2    1    2    0    0  0.00000000000E+00  0.00000000000E+00  0.25674857238E+03  0.83755474793E+03  0.79723153874E+03 0.  0.
        5    1    3    3  502    0 -0.25492924980E+03 -0.18909777575E+03 -0.12491234798E+03  0.34113351619E+03  0.46999998093E+01 0. -1.
       -5    1    3    3    0  502  0.25492924980E+03  0.18909777575E+03  0.38166092036E+03  0.49642123174E+03  0.46999998093E+01 0.  1.
</event>
<event>
 5   0  0.3550586E-02  0.8261624E+03  0.7818609E-02  0.9522902E-01
       -2   -1    0    0    0  501  0.00000000000E+00  0.00000000000E+00  0.30332743907E+03  0.30332743908E+03  0.25500000920E-02 0.  1.
        2   -1    0    0  501    0  0.00000000000E+00  0.00000000000E+00 -0.56254745626E+03  0.56254745626E+03  0.25500000920E-02 0. -1.
    10030    2    1    2    0    0  0.00000000000E+00  0.00000000000E+00 -0.25922001718E+03  0.86587489534E+03  0.82616240357E+03 0.  0.
        3    1    3    3  502    0 -0.32233602779E+02 -0.79364368522E+02  0.29391653449E+03  0.30614481473E+03  0.10100000352E+00 0.  1.
       -3    1    3    3    0  502  0.32233602779E+02  0.79364368522E+02 -0.55313655168E+03  0.55973008061E+03  0.10100000352E+00 0. -1.
</event>
<event>
 5   0  0.3404132E-02  0.7937784E+03  0.7818609E-02  0.9569067E-01
        2   -1    0    0  501    0  0.00000000000E+00  0.00000000000E+00  0.10522741014E+04  0.10522741014E+04  0.25500000920E-02 0. -1.
       -2   -1    0    0    0  501  0.00000000000E+00  0.00000000000E+00 -0.14969580519E+03  0.14969580521E+03  0.25500000920E-02 0.  1.
    10030    2    1    2    0    0  0.00000000000E+00  0.00000000000E+00  0.90257829624E+03  0.12019699066E+04  0.79377835423E+03 0.  0.
        5    1    3    3  502    0  0.25904599064E+03  0.12414575217E+03  0.36647743491E+02  0.28962413599E+03  0.46999998093E+01 0.  1.
       -5    1    3    3    0  502 -0.25904599064E+03 -0.12414575217E+03  0.86593055275E+03  0.91234577065E+03  0.46999998093E+01 0. -1.
</event>
<event>
 5   0  0.3467240E-02  0.7676864E+03  0.7818609E-02  0.9608005E-01
        2   -1    0    0  501    0  0.00000000000E+00  0.00000000000E+00  0.80591259626E+03  0.80591259626E+03  0.25500000920E-02 0.  1.
       -2   -1    0    0    0  501  0.00000000000E+00  0.00000000000E+00 -0.18281834456E+03  0.18281834457E+03  0.25500000920E-02 0. -1.
    10030    2    1    2    0    0  0.00000000000E+00  0.00000000000E+00  0.62309425170E+03  0.98873094083E+03  0.76768641180E+03 0.  0.
        2    1    3    3  502    0  0.21213002072E+03 -0.65288644956E+02 -0.91792500934E+02  0.24018246415E+03  0.25500000920E-02 0. -1.
       -2    1    3    3    0  502 -0.21213002072E+03  0.65288644956E+02  0.71488675263E+03  0.74854847668E+03  0.25500000920E-02 0.  1.
</event>
<event>
 5   0  0.1989298E-02  0.8159118E+03  0.7818609E-02  0.9537267E-01
        1   -1    0    0  501    0  0.00000000000E+00  0.00000000000E+00  0.73738139815E+03  0.73738139817E+03  0.50400001928E-02 0. -1.
       -1   -1    0    0    0  501  0.00000000000E+00  0.00000000000E+00 -0.22570139065E+03  0.22570139070E+03  0.50400001928E-02 0.  1.
    10030    2    1    2    0    0  0.00000000000E+00  0.00000000000E+00  0.51168000751E+03  0.96308278887E+03  0.81591177718E+03 0.  0.
        1    1    3    3  502    0 -0.15659090898E+03  0.49222875980E+02  0.69668228725E+03  0.71575820896E+03  0.50400001928E-02 0. -1.
       -1    1    3    3    0  502  0.15659090898E+03 -0.49222875980E+02 -0.18500227974E+03  0.24732457991E+03  0.50400001928E-02 0.  1.
</event>
<event>
 5   0  0.2132540E-02  0.7847283E+03  0.7818609E-02  0.9582389E-01
        1   -1    0    0  501    0  0.00000000000E+00  0.00000000000E+00  0.94576219258E+03  0.94576219259E+03  0.50400001928E-02 0.  1.
       -1   -1    0    0    0  501  0.00000000000E+00  0.00000000000E+00 -0.16277835390E+03  0.16277835398E+03  0.50400001928E-02 0. -1.
    10030    2    1    2    0    0  0.00000000000E+00  0.00000000000E+00  0.78298383867E+03  0.11085405466E+04  0.78472826620E+03 0.  0.
        4    1    3    3  502    0  0.29137944983E+03 -0.24867367373E+03  0.27156347246E+03  0.46956246896E+03  0.12699999809E+01 0. -1.
       -4    1    3    3    0  502 -0.29137944983E+03  0.24867367373E+03  0.51142036621E+03  0.63897807761E+03  0.12699999809E+01 0.  1.
</event>
<event>
 5   0  0.3343036E-02  0.8153378E+03  0.7818609E-02  0.9538078E-01
        2   -1    0    0  501    0  0.00000000000E+00  0.00000000000E+00  0.13865778644E+04  0.13865778644E+04  0.25500000920E-02 0.  1.
       -2   -1    0    0    0  501  0.00000000000E+00  0.00000000000E+00 -0.11985906064E+03  0.11985906067E+03  0.25500000920E-02 0. -1.
    10030    2    1    2    0    0  0.00000000000E+00  0.00000000000E+00  0.12667188038E+04  0.15064369251E+04  0.81533777137E+03 0.  0.
        4    1    3    3  502    0 -0.18018611571E+03 -0.12767530395E+03  0.23018097569E+00  0.22083859585E+03  0.12699999809E+01 0. -1.
       -4    1    3    3    0  502  0.18018611571E+03  0.12767530395E+03  0.12664886228E+04  0.12855983292E+04  0.12699999809E+01 0.  1.
</event>
<event>
 5   0  0.3343036E-02  0.8837167E+03  0.7818609E-02  0.9446168E-01
       -2   -1    0    0    0  501  0.00000000000E+00  0.00000000000E+00  0.54122818681E+03  0.54122818681E+03  0.25500000920E-02 0. -1.
        2   -1    0    0  501    0  0.00000000000E+00  0.00000000000E+00 -0.36073287981E+03  0.36073287982E+03  0.25500000920E-02 0.  1.
    10030    2    1    2    0    0  0.00000000000E+00  0.00000000000E+00  0.18049530700E+03  0.90196106663E+03  0.88371670227E+03 0.  0.
        4    1    3    3  502    0  0.25701744607E+03 -0.59544618408E+02 -0.27151833565E+03  0.37858598582E+03  0.12699999809E+01 0.  1.
       -4    1    3    3    0  502 -0.25701744607E+03  0.59544618408E+02  0.45201364265E+03  0.52337508081E+03  0.12699999809E+01 0. -1.
</event>
<event>
 5   0  0.2063692E-02  0.8291666E+03  0.7818609E-02  0.9518733E-01
        1   -1    0    0  501    0  0.00000000000E+00  0.00000000000E+00  0.21104546107E+03  0.21104546113E+03  0.50400001928E-02 0.  1.
       -1   -1    0    0    0  501  0.00000000000E+00  0.00000000000E+00 -0.81441837063E+03  0.81441837065E+03  0.50400001928E-02 0. -1.
    10030    2    1    2    0    0  0.00000000000E+00  0.00000000000E+00 -0.60337290956E+03  0.10254638318E+04  0.82916657090E+03 0.  0.
        2    1    3    3  502    0  0.91522228350E+02 -0.28771949935E+03  0.49688181556E+02  0.30598650947E+03  0.25500000920E-02 0.  1.
       -2    1    3    3    0  502 -0.91522228350E+02  0.28771949935E+03 -0.65306109111E+03  0.71947732231E+03  0.25500000920E-02 0. -1.
</event>
<event>
 5   0  0.1358000E-02  0.9003080E+03  0.7818609E-02  0.9425197E-01
        4   -1    0    0  501    0  0.00000000000E+00  0.00000000000E+00  0.44438460882E+03  0.44438642358E+03  0.12699999809E+01 0.  1.
       -4   -1    0    0    0  501  0.00000000000E+00  0.00000000000E+00 -0.45599464316E+03  0.45599641171E+03  0.12699999809E+01 0. -1.
    10030    2    1    2    0    0  0.00000000000E+00  0.00000000000E+00 -0.11610034339E+02  0.90038283528E+03  0.90030797907E+03 0.  0.
        3    1    3    3  502    0 -0.35826437737E+02 -0.21040827888E+02  0.44246472882E+03  0.44441117957E+03  0.10100000352E+00 0.  1.
       -3    1    3    3    0  502  0.35826437737E+02  0.21040827888E+02 -0.45407476316E+03  0.45597165571E+03  0.10100000352E+00 0. -1.
</event>
<event>
 5   0  0.3467240E-02  0.8112416E+03  0.7818609E-02  0.9543886E-01
       -2   -1    0    0    0  501  0.00000000000E+00  0.00000000000E+00  0.14521233882E+03  0.14521233884E+03  0.25500000920E-02 0. -1.
        2   -1    0    0  501    0  0.00000000000E+00  0.00000000000E+00 -0.11330182531E+04  0.11330182531E+04  0.25500000920E-02 0.  1.
    10030    2    1    2    0    0  0.00000000000E+00  0.00000000000E+00 -0.98780591427E+03  0.12782305919E+04  0.81124159281E+03 0.  0.
        2    1    3    3  502    0 -0.24447209523E+03  0.21477863139E+03 -0.11237577861E+03  0.34427428232E+03  0.25500000920E-02 0. -1.
       -2    1    3    3    0  502  0.24447209523E+03 -0.21477863139E+03 -0.87543013566E+03  0.93395630962E+03  0.25500000920E-02 0.  1.
</event>
<event>
 5   0  0.3550586E-02  0.8037461E+03  0.7818609E-02  0.9554611E-01
       -2   -1    0    0    0  501  0.00000000000E+00  0.00000000000E+00  0.16054331977E+03  0.16054331979E+03  0.25500000920E-02 0. -1.
        2   -1    0    0  501    0  0.00000000000E+00  0.00000000000E+00 -0.10059712116E+04  0.10059712116E+04  0.25500000920E-02 0.  1.
    10030    2    1    2    0    0  0.00000000000E+00  0.00000000000E+00 -0.84542789185E+03  0.11665145314E+04  0.80374612390E+03 0.  0.
        3    1    3    3  502    0 -0.33466174392E+03  0.21215728665E+03 -0.51999480945E+03  0.65376127843E+03  0.10100000352E+00 0. -1.
       -3    1    3    3    0  502  0.33466174392E+03 -0.21215728665E+03 -0.32543308240E+03  0.51275325298E+03  0.10100000352E+00 0.  1.
</event>
<event>
 5   0  0.1358000E-02  0.7927114E+03  0.7818609E-02  0.9570627E-01
        3   -1    0    0  501    0  0.00000000000E+00  0.00000000000E+00  0.85225044274E+03  0.85225044873E+03  0.10100000352E+00 0. -1.
       -3   -1    0    0    0  501  0.00000000000E+00  0.00000000000E+00 -0.18433294089E+03  0.18433296856E+03  0.10100000352E+00 0.  1.
    10030    2    1    2    0    0  0.00000000000E+00  0.00000000000E+00  0.66791750185E+03  0.10365834173E+04  0.79271141767E+03 0.  0.
        3    1    3    3  502    0  0.46911392073E+01  0.15229074879E+03 -0.14450874841E+03  0.20999349400E+03  0.10100000352E+00 0.  1.
       -3    1    3    3    0  502 -0.46911392073E+01 -0.15229074879E+03  0.81242625027E+03  0.82658992329E+03  0.10100000352E+00 0. -1.
</event>
<event>
 5   0  0.3467240E-02  0.8144107E+03  0.7818609E-02  0.9539389E-01
        2   -1    0    0  501    0  0.00000000000E+00  0.00000000000E+00  0.10283010663E+04  0.10283010663E+04  0.25500000920E-02 0.  1.
       -2   -1    0    0    0  501  0.00000000000E+00  0.00000000000E+00 -0.16125259164E+03  0.16125259166E+03  0.25500000920E-02 0. -1.
    10030    2    1    2    0    0  0.00000000000E+00  0.00000000000E+00  0.86704847461E+03  0.11895536579E+04  0.81441073652E+03 0.  0.
        2    1    3    3  502    0  0.39047084956E+03 -0.31280141019E+02  0.27107027157E+03  0.47636648047E+03  0.25500000920E-02 0. -1.
       -2    1    3    3    0  502 -0.39047084956E+03  0.31280141019E+02  0.59597820304E+03  0.71318717745E+03  0.25500000920E-02 0.  1.
</event>
<event>
 5   0  0.3416160E-02  0.8056428E+03  0.7818609E-02  0.9551885E-01
        2   -1    0    0  501    0  0.00000000000E+00  0.00000000000E+00  0.10858811333E+04  0.10858811333E+04  0.25500000920E-02 0.  1.
       -2   -1    0    0    0  501  0.00000000000E+00  0.00000000000E+00 -0.14943171630E+03  0.14943171632E+03  0.25500000920E-02 0. -1.
    10030    2    1    2    0    0  0.00000000000E+00  0.00000000000E+00  0.93644941700E+03  0.12353128496E+04  0.80564280288E+03 0.  0.
        1    1    3    3  502    0  0.16779687024E+02 -0.19494681422E+03  0.10081192699E+04  0.10269324616E+04  0.50400001928E-02 0.  1.
       -1    1    3    3    0  502 -0.16779687024E+02  0.19494681422E+03 -0.71669852917E+02  0.20838038802E+03  0.50400001928E-02 0. -1.
</event>
<event>
 5   0  0.2129257E-02  0.7936764E+03  0.7818609E-02  0.9569216E-01
        1   -1    0    0  501    0  0.00000000000E+00  0.00000000000E+00  0.56125264852E+03  0.56125264854E+03  0.50400001928E-02 0.  1.
       -1   -1    0    0    0  501  0.00000000000E+00  0.00000000000E+00 -0.28058762701E+03  0.28058762706E+03  0.50400001928E-02 0. -1.
    10030    2    1    2    0    0  0.00000000000E+00  0.00000000000E+00  0.28066502151E+03  0.84184027560E+03  0.79367637947E+03 0.  0.
        3    1    3    3  502    0  0.20545979407E+03 -0.21103237172E+03  0.42242704589E+03  0.51496893906E+03  0.10100000352E+00 0.  1.
       -3    1    3    3    0  502 -0.20545979407E+03  0.21103237172E+03 -0.14176202438E+03  0.32687133654E+03  0.10100000352E+00 0. -1.
</event>
<event>
 5   0  0.3404132E-02  0.7975172E+03  0.7818609E-02  0.9563618E-01
        2   -1    0    0  501    0  0.00000000000E+00  0.00000000000E+00  0.55380967828E+03  0.55380967828E+03  0.25500000920E-02 0.  1.
       -2   -1    0    0    0  501  0.00000000000E+00  0.00000000000E+00 -0.28711744639E+03  0.28711744640E+03  0.25500000920E-02 0. -1.
    10030    2    1    2    0    0  0.00000000000E+00  0.00000000000E+00  0.26669223189E+03  0.84092712468E+03  0.79751719886E+03 0.  0.
        5    1    3    3  502    0  0.19561547504E+03 -0.28588169511E+03  0.34155979125E+03  0.48649659677E+03  0.46999998093E+01 0. -1.
       -5    1    3    3    0  502 -0.19561547504E+03  0.28588169511E+03 -0.74867559363E+02  0.35443052791E+03  0.46999998093E+01 0.  1.
</event>
<event>
 5   0  0.3343036E-02  0.7871803E+03  0.7818609E-02  0.9578761E-01
       -2   -1    0    0    0  501  0.00000000000E+00  0.00000000000E+00  0.58180869660E+03  0.58180869660E+03  0.25500000920E-02 0. -1.
        2   -1    0    0  501    0  0.00000000000E+00  0.00000000000E+00 -0.26626143547E+03  0.26626143548E+03  0.25500000920E-02 0.  1.
    10030    2    1    2    0    0  0.00000000000E+00  0.00000000000E+00  0.31554726113E+03  0.84807013208E+03  0.78718033190E+03 0.  0.
        4    1    3    3  502    0  0.36262525888E+03  0.61093439183E+01  0.32249646670E+03  0.48532461961E+03  0.12699999809E+01 0.  1.
       -4    1    3    3    0  502 -0.36262525888E+03 -0.61093439183E+01 -0.69492055727E+01  0.36274551247E+03  0.12699999809E+01 0. -1.
</event>
<event>
 5   0  0.3467240E-02  0.7947257E+03  0.7818609E-02  0.9567683E-01
        2   -1    0    0  501    0  0.00000000000E+00  0.00000000000E+00  0.41637145784E+03  0.41637145784E+03  0.25500000920E-02 0. -1.
       -2   -1    0    0    0  501  0.00000000000E+00  0.00000000000E+00 -0.37922204931E+03  0.37922204932E+03  0.25500000920E-02 0.  1.
    10030    2    1    2    0    0  0.00000000000E+00  0.00000000000E+00  0.37149408529E+02  0.79559350716E+03  0.79472570745E+03 0.  0.
        2    1    3    3  502    0 -0.14046031410E+03 -0.35493550483E+03 -0.91949315670E+02  0.39263594981E+03  0.25500000920E-02 0.  1.
       -2    1    3    3    0  502  0.14046031410E+03  0.35493550483E+03  0.12909872420E+03  0.40295755735E+03  0.25500000920E-02 0. -1.
</event>
<event>
 5   0  0.2129257E-02  0.7769848E+03  0.7818609E-02  0.9593941E-01
        1   -1    0    0  501    0  0.00000000000E+00  0.00000000000E+00  0.60343311815E+03  0.60343311817E+03  0.50400001928E-02 0. -1.
       -1   -1    0    0    0  501  0.00000000000E+00  0.00000000000E+00 -0.25011276620E+03  0.25011276625E+03  0.50400001928E-02 0.  1.
    10030    2    1    2    0    0  0.00000000000E+00  0.00000000000E+00  0.35332035195E+03  0.85354588442E+03  0.77698475255E+03 0.  0.
        3    1    3    3  502    0 -0.26699281808E+03  0.25272552980E+03  0.31461707144E+03  0.48387939630E+03  0.10100000352E+00 0. -1.
       -3    1    3    3    0  502  0.26699281808E+03 -0.25272552980E+03  0.38703280511E+02  0.36966648812E+03  0.10100000352E+00 0.  1.
</event>
<event>
 5   0  0.2077795E-02  0.8212765E+03  0.7818609E-02  0.9529721E-01
       -1   -1    0    0    0  501  0.00000000000E+00  0.00000000000E+00  0.47601408194E+03  0.47601408196E+03  0.50400001928E-02 0. -1.
        1   -1    0    0  501    0  0.00000000000E+00  0.00000000000E+00 -0.35424117661E+03  0.35424117664E+03  0.50400001928E-02 0.  1.
    10030    2    1    2    0    0  0.00000000000E+00  0.00000000000E+00  0.12177290533E+03  0.83025525860E+03  0.82127653928E+03 0.  0.
        5    1    3    3  502    0 -0.34108118124E+03 -0.21459209170E+03 -0.18814289680E+02  0.40343798223E+03  0.46999998093E+01 0.  1.
       -5    1    3    3    0  502  0.34108118124E+03  0.21459209170E+03  0.14058719501E+03  0.42681727637E+03  0.46999998093E+01 0. -1.
</event>
<event>
 5   0  0.3416160E-02  0.8677637E+03  0.7818609E-02  0.9466800E-01
        2   -1    0    0  501    0  0.00000000000E+00  0.00000000000E+00  0.17670395169E+04  0.17670395170E+04  0.25500000920E-02 0.  1.
       -2   -1    0    0    0  501  0.00000000000E+00  0.00000000000E+00 -0.10653608950E+03  0.10653608953E+03  0.25500000920E-02 0. -1.
    10030    2    1    2    0    0  0.00000000000E+00  0.00000000000E+00  0.16605034274E+04  0.18735756065E+04  0.86776374703E+03 0.  0.
        1    1    3    3  502    0 -0.29908264485E+03 -0.91110833836E+02  0.18072279506E+03  0.36112648916E+03  0.50400001928E-02 0. -1.
       -1    1    3    3    0  502  0.29908264485E+03  0.91110833836E+02  0.14797806324E+04  0.15124491173E+04  0.50400001928E-02 0.  1.
</event>
<event>
 5   0  0.3404132E-02  0.7794385E+03  0.7818609E-02  0.9590265E-01
        2   -1    0    0  501    0  0.00000000000E+00  0.00000000000E+00  0.12378964587E+04  0.12378964587E+04  0.25500000920E-02 0.  1.
       -2   -1    0    0    0  501  0.00000000000E+00  0.00000000000E+00 -0.12269289462E+03  0.12269289464E+03  0.25500000920E-02 0. -1.
    10030    2    1    2    0    0  0.00000000000E+00  0.00000000000E+00  0.11152035641E+04  0.13605893534E+04  0.77943851528E+03 0.  0.
        5    1    3    3  502    0 -0.42616997501E+02 -0.38473264979E+03  0.63612650509E+03  0.74465726396E+03  0.46999998093E+01 0.  1.
       -5    1    3    3    0  502  0.42616997501E+02  0.38473264979E+03  0.47907705903E+03  0.61593208942E+03  0.46999998093E+01 0. -1.
</event>
<event>
 5   0  0.3404132E-02  0.8043867E+03  0.7818609E-02  0.9553689E-01
        2   -1    0    0  501    0  0.00000000000E+00  0.00000000000E+00  0.69418291289E+03  0.69418291289E+03  0.25500000920E-02 0.  1.
       -2   -1    0    0    0  501  0.00000000000E+00  0.00000000000E+00 -0.23302140961E+03  0.23302140962E+03  0.25500000920E-02 0. -1.
    10030    2    1    2    0    0  0.00000000000E+00  0.00000000000E+00  0.46116150328E+03  0.92720432251E+03  0.80438667541E+03 0.  0.
        5    1    3    3  502    0  0.15920002247E+03 -0.32947439681E+03  0.38253756315E+02  0.36794492139E+03  0.46999998093E+01 0. -1.
       -5    1    3    3    0  502 -0.15920002247E+03  0.32947439681E+03  0.42290774696E+03  0.55925940112E+03  0.46999998093E+01 0.  1.
</event>
<event>
 5   0  0.2132540E-02  0.7993542E+03  0.7818609E-02  0.9560952E-01
        1   -1    0    0  501    0  0.00000000000E+00  0.00000000000E+00  0.47730090646E+03  0.47730090649E+03  0.50400001928E-02 0.  1.
       -1   -1    0    0    0  501  0.00000000000E+00  0.00000000000E+00 -0.33467727081E+03  0.33467727085E+03  0.50400001928E-02 0. -1.
    10030    2    1    2    0    0  0.00000000000E+00  0.00000000000E+00  0.14262363566E+03  0.81197817734E+03  0.79935415119E+03 0.  0.
        4    1    3    3  502    0 -0.21763102604E+03  0.23003243392E+03  0.31901110742E+03  0.44949736785E+03  0.12699999809E+01 0.  1.
       -4    1    3    3    0  502  0.21763102604E+03 -0.23003243392E+03 -0.17638747176E+03  0.36248080948E+03  0.12699999809E+01 0. -1.
</event>
<event>
 5   0  0.2132540E-02  0.8067679E+03  0.7818609E-02  0.9550272E-01
        1   -1    0    0  501    0  0.00000000000E+00  0.00000000000E+00  0.11688030286E+04  0.11688030286E+04  0.50400001928E-02 0.  1.
       -1   -1    0    0    0  501  0.00000000000E+00  0.00000000000E+00 -0.13921815877E+03  0.13921815886E+03  0.50400001928E-02 0. -1.
    10030    2    1    2    0    0  0.00000000000E+00  0.00000000000E+00  0.10295848698E+04  0.13080211874E+04  0.80676788650E+03 0.  0.
        4    1    3    3  502    0  0.77473339688E+02  0.24769841881E+03  0.10154607809E+04  0.10481024928E+04  0.12699999809E+01 0.  1.
       -4    1    3    3    0  502 -0.77473339688E+02 -0.24769841881E+03  0.14124088943E+02  0.25991869465E+03  0.12699999809E+01 0. -1.
</event>
<event>
 5   0  0.2063692E-02  0.8061260E+03  0.7818609E-02  0.9551192E-01
        1   -1    0    0  501    0  0.00000000000E+00  0.00000000000E+00  0.33201318821E+03  0.33201318825E+03  0.50400001928E-02 0.  1.
       -1   -1    0    0    0  501  0.00000000000E+00  0.00000000000E+00 -0.48931727529E+03  0.48931727531E+03  0.50400001928E-02 0. -1.
    10030    2    1    2    0    0  0.00000000000E+00  0.00000000000E+00 -0.15730408708E+03  0.82133046356E+03  0.80612601655E+03 0.  0.
        2    1    3    3  502    0  0.37493457136E+02  0.23388531435E+03 -0.41091902765E+03  0.47430216833E+03  0.25500000920E-02 0. -1.
       -2    1    3    3    0  502 -0.37493457136E+02 -0.23388531435E+03  0.25361494057E+03  0.34702829522E+03  0.25500000920E-02 0.  1.
</event>
<event>
 5   0  0.3416160E-02  0.8162979E+03  0.7818609E-02  0.9536722E-01
        2   -1    0    0  501    0  0.00000000000E+00  0.00000000000E+00  0.63115568906E+03  0.63115568906E+03  0.25500000920E-02 0. -1.
       -2   -1    0    0    0  501  0.00000000000E+00  0.00000000000E+00 -0.26393738553E+03  0.26393738554E+03  0.25500000920E-02 0.  1.
    10030    2    1    2    0    0  0.00000000000E+00  0.00000000000E+00  0.36721830353E+03  0.89509307461E+03  0.81629794179E+03 0.  0.
        1    1    3    3  502    0 -0.87724586151E+02 -0.21986338238E+03  0.54819433200E+03  0.59712020196E+03  0.50400001928E-02 0. -1.
       -1    1    3    3    0  502  0.87724586151E+02  0.21986338238E+03 -0.18097602847E+03  0.29797287265E+03  0.50400001928E-02 0.  1.
</event>
<event>
 5   0  0.3404132E-02  0.6265506E+03  0.7818609E-02  0.9851803E-01
       -2   -1    0    0    0  501  0.00000000000E+00  0.00000000000E+00  0.91972445905E+02  0.91972445940E+02  0.25500000920E-02 0. -1.
        2   -1    0    0  501    0  0.00000000000E+00  0.00000000000E+00 -0.10670739635E+04  0.10670739635E+04  0.25500000920E-02 0.  1.
    10030    2    1    2    0    0  0.00000000000E+00  0.00000000000E+00 -0.97510151755E+03  0.11590464094E+04  0.62655056429E+03 0.  0.
        5    1    3    3  502    0 -0.12227069895E+03  0.13331674670E+03 -0.96061458553E+03  0.97751007704E+03  0.46999998093E+01 0.  1.
       -5    1    3    3    0  502  0.12227069895E+03 -0.13331674670E+03 -0.14486932021E+02  0.18153633237E+03  0.46999998093E+01 0. -1.
</event>
<event>
 5   0  0.3550586E-02  0.7829241E+03  0.7818609E-02  0.9585068E-01
        2   -1    0    0  501    0  0.00000000000E+00  0.00000000000E+00  0.74655502990E+03  0.74655502991E+03  0.25500000920E-02 0. -1.
       -2   -1    0    0    0  501  0.00000000000E+00  0.00000000000E+00 -0.20526625525E+03  0.20526625526E+03  0.25500000920E-02 0.  1.
    10030    2    1    2    0    0  0.00000000000E+00  0.00000000000E+00  0.54128877465E+03  0.95182128517E+03  0.78292414788E+03 0.  0.
        3    1    3    3  502    0  0.15771183687E+03 -0.20023043928E+03  0.63185477178E+03  0.68132643801E+03  0.10100000352E+00 0. -1.
       -3    1    3    3    0  502 -0.15771183687E+03  0.20023043928E+03 -0.90565997128E+02  0.27049484716E+03  0.10100000352E+00 0.  1.
</event>
<event>
 5   0  0.2132540E-02  0.8045684E+03  0.7818609E-02  0.9553428E-01
        1   -1    0    0  501    0  0.00000000000E+00  0.00000000000E+00  0.99601309466E+03  0.99601309467E+03  0.50400001928E-02 0.  1.
       -1   -1    0    0    0  501  0.00000000000E+00  0.00000000000E+00 -0.16248035721E+03  0.16248035729E+03  0.50400001928E-02 0. -1.
    10030    2    1    2    0    0  0.00000000000E+00  0.00000000000E+00  0.83353273745E+03  0.11584934520E+04  0.80456836492E+03 0.  0.
        4    1    3    3  502    0  0.12816536656E+03  0.13778006601E+03 -0.95199087264E+02  0.21088903929E+03  0.12699999809E+01 0. -1.
       -4    1    3    3    0  502 -0.12816536656E+03 -0.13778006601E+03  0.92873182472E+03  0.94760441267E+03  0.12699999809E+01 0.  1.
</event>
<event>
 5   0  0.3416160E-02  0.8040427E+03  0.7818609E-02  0.9554184E-01
        2   -1    0    0  501    0  0.00000000000E+00  0.00000000000E+00  0.23116382270E+03  0.23116382271E+03  0.25500000920E-02 0.  1.
       -2   -1    0    0    0  501  0.00000000000E+00  0.00000000000E+00 -0.69916293936E+03  0.69916293936E+03  0.25500000920E-02 0. -1.
    10030    2    1    2    0    0  0.00000000000E+00  0.00000000000E+00 -0.46799911666E+03  0.93032676207E+03  0.80404272961E+03 0.  0.
        1    1    3    3  502    0  0.34729026707E+03 -0.52930328723E+02 -0.46017184155E+03  0.57893891999E+03  0.50400001928E-02 0. -1.
       -1    1    3    3    0  502 -0.34729026707E+03  0.52930328723E+02 -0.78272751106E+01  0.35138784208E+03  0.50400001928E-02 0.  1.
</event>
<event>
 5   0  0.2132540E-02  0.8044071E+03  0.7818609E-02  0.9553660E-01
        1   -1    0    0  501    0  0.00000000000E+00  0.00000000000E+00  0.59123850480E+03  0.59123850482E+03  0.50400001928E-02 0. -1.
       -1   -1    0    0    0  501  0.00000000000E+00  0.00000000000E+00 -0.27360816937E+03  0.27360816942E+03  0.50400001928E-02 0.  1.
    10030    2    1    2    0    0  0.00000000000E+00  0.00000000000E+00  0.31763033543E+03  0.86484667424E+03  0.80440707354E+03 0.  0.
        4    1    3    3  502    0 -0.24467548037E+03  0.31220034057E+03  0.23038180672E+03  0.45870745919E+03  0.12699999809E+01 0. -1.
       -4    1    3    3    0  502  0.24467548037E+03 -0.31220034057E+03  0.87248528704E+02  0.40613921505E+03  0.12699999809E+01 0.  1.
</event>
<event>
 5   0  0.3550586E-02  0.8011289E+03  0.7818609E-02  0.9558384E-01
       -2   -1    0    0    0  501  0.00000000000E+00  0.00000000000E+00  0.68849884290E+03  0.68849884291E+03  0.25500000920E-02 0.  1.
        2   -1    0    0  501    0  0.00000000000E+00  0.00000000000E+00 -0.23304598469E+03  0.23304598470E+03  0.25500000920E-02 0. -1.
    10030    2    1    2    0    0  0.00000000000E+00  0.00000000000E+00  0.45545285822E+03  0.92154482761E+03  0.80112893047E+03 0.  0.
        3    1    3    3  502    0  0.31509342428E+03  0.10993525493E+03 -0.27118678838E+02  0.33482093609E+03  0.10100000352E+00 0. -1.
       -3    1    3    3    0  502 -0.31509342428E+03 -0.10993525493E+03  0.48257153706E+03  0.58672389152E+03  0.10100000352E+00 0.  1.
</event>
<event>
 5   0  0.3343036E-02  0.7959322E+03  0.7818609E-02  0.9565924E-01
       -2   -1    0    0    0  501  0.00000000000E+00  0.00000000000E+00  0.21416848734E+03  0.21416848735E+03  0.25500000920E-02 0. -1.
        2   -1    0    0  501    0  0.00000000000E+00  0.00000000000E+00 -0.73949728586E+03  0.73949728586E+03  0.25500000920E-02 0.  1.
    10030    2    1    2    0    0  0.00000000000E+00  0.00000000000E+00 -0.52532879852E+03  0.95366577322E+03  0.79593219589E+03 0.  0.
        4    1    3    3  502    0  0.97562966426E+02  0.21703370508E+03  0.11953873882E+03  0.26629548351E+03  0.12699999809E+01 0. -1.
       -4    1    3    3    0  502 -0.97562966426E+02 -0.21703370508E+03 -0.64486753734E+03  0.68737028971E+03  0.12699999809E+01 0.  1.
</event>
<event>
 5   0  0.1989298E-02  0.8319714E+03  0.7818609E-02  0.9514859E-01
        1   -1    0    0  501    0  0.00000000000E+00  0.00000000000E+00  0.12322877571E+04  0.12322877571E+04  0.50400001928E-02 0.  1.
       -1   -1    0    0    0  501  0.00000000000E+00  0.00000000000E+00 -0.14042506883E+03  0.14042506893E+03  0.50400001928E-02 0. -1.
    10030    2    1    2    0    0  0.00000000000E+00  0.00000000000E+00  0.10918626882E+04  0.13727128260E+04  0.83197137734E+03 0.  0.
        1    1    3    3  502    0 -0.12940373065E+03 -0.18899046687E+02  0.11974881571E+04  0.12046079802E+04  0.50400001928E-02 0.  1.
       -1    1    3    3    0  502  0.12940373065E+03  0.18899046687E+02 -0.10562546891E+03  0.16810484579E+03  0.50400001928E-02 0. -1.
</event>
<event>
 5   0  0.3416160E-02  0.8216902E+03  0.7818609E-02  0.9529141E-01
       -2   -1    0    0    0  501  0.00000000000E+00  0.00000000000E+00  0.11532355227E+03  0.11532355230E+03  0.25500000920E-02 0.  1.
        2   -1    0    0  501    0  0.00000000000E+00  0.00000000000E+00 -0.14636533521E+04  0.14636533521E+04  0.25500000920E-02 0. -1.
    10030    2    1    2    0    0  0.00000000000E+00  0.00000000000E+00 -0.13483297998E+04  0.15789769044E+04  0.82169021872E+03 0.  0.
        1    1    3    3  502    0 -0.14105394275E+03 -0.11590233960E+03  0.33096289988E+02  0.18553956863E+03  0.50400001928E-02 0.  1.
       -1    1    3    3    0  502  0.14105394275E+03  0.11590233960E+03 -0.13814260898E+04  0.13934373358E+04  0.50400001928E-02 0. -1.
</event>
<event>
 5   0  0.2077795E-02  0.8830005E+03  0.7818609E-02  0.9447085E-01
       -1   -1    0    0    0  501  0.00000000000E+00  0.00000000000E+00  0.52127925438E+03  0.52127925441E+03  0.50400001928E-02 0. -1.
        1   -1    0    0  501    0  0.00000000000E+00  0.00000000000E+00 -0.37393102380E+03  0.37393102383E+03  0.50400001928E-02 0.  1.
    10030    2    1    2    0    0  0.00000000000E+00  0.00000000000E+00  0.14734823058E+03  0.89521027824E+03  0.88300053296E+03 0.  0.
        5    1    3    3  502    0  0.80827844585E+02  0.41441493642E+03  0.20440487123E+03  0.46912292778E+03  0.46999998093E+01 0. -1.
       -5    1    3    3    0  502 -0.80827844585E+02 -0.41441493642E+03 -0.57056640647E+02  0.42608735046E+03  0.46999998093E+01 0.  1.
</event>
<event>
 5   0  0.2077795E-02  0.7999134E+03  0.7818609E-02  0.9560142E-01
       -1   -1    0    0    0  501  0.00000000000E+00  0.00000000000E+00  0.72367469606E+02  0.72367469781E+02  0.50400001928E-02 0.  1.
        1   -1    0    0  501    0  0.00000000000E+00  0.00000000000E+00 -0.22104595110E+04  0.22104595110E+04  0.50400001928E-02 0. -1.
    10030    2    1    2    0    0  0.00000000000E+00  0.00000000000E+00 -0.21380920414E+04  0.22828269808E+04  0.79991339953E+03 0.  0.
        5    1    3    3  502    0  0.33980014544E+03 -0.19521815265E+03 -0.12967999324E+04  0.13547274340E+04  0.46999998093E+01 0. -1.
       -5    1    3    3    0  502 -0.33980014544E+03  0.19521815265E+03 -0.84129210907E+03  0.92809954679E+03  0.46999998093E+01 0.  1.
</event>
<event>
 5   0  0.2132540E-02  0.8417271E+03  0.7818609E-02  0.9501508E-01
        1   -1    0    0  501    0  0.00000000000E+00  0.00000000000E+00  0.12336034179E+04  0.12336034180E+04  0.50400001928E-02 0.  1.
       -1   -1    0    0    0  501  0.00000000000E+00  0.00000000000E+00 -0.14358432068E+03  0.14358432077E+03  0.50400001928E-02 0. -1.
    10030    2    1    2    0    0  0.00000000000E+00  0.00000000000E+00  0.10900190973E+04  0.13771877387E+04  0.84172705511E+03 0.  0.
        4    1    3    3  502    0  0.35686311041E+03  0.11785902133E+03  0.85493911639E+03  0.93389749658E+03  0.12699999809E+01 0.  1.
       -4    1    3    3    0  502 -0.35686311041E+03 -0.11785902133E+03  0.23507998087E+03  0.44329024215E+03  0.12699999809E+01 0. -1.
</event>
<event>
 5   0  0.2129257E-02  0.6529468E+03  0.7818609E-02  0.9801265E-01
       -1   -1    0    0    0  501  0.00000000000E+00  0.00000000000E+00  0.14156930278E+03  0.14156930287E+03  0.50400001928E-02 0. -1.
        1   -1    0    0  501    0  0.00000000000E+00  0.00000000000E+00 -0.75288125125E+03  0.75288125127E+03  0.50400001928E-02 0.  1.
    10030    2    1    2    0    0  0.00000000000E+00  0.00000000000E+00 -0.61131194847E+03  0.89445055414E+03  0.65294677842E+03 0.  0.
        3    1    3    3  502    0 -0.21690593047E+03  0.10385007278E+03 -0.31917071179E+01  0.24050616932E+03  0.10100000352E+00 0. -1.
       -3    1    3    3    0  502  0.21690593047E+03 -0.10385007278E+03 -0.60812024135E+03  0.65394438481E+03  0.10100000352E+00 0.  1.
</event>
<event>
 5   0  0.2129257E-02  0.1007040E+04  0.7818609E-02  0.9300857E-01
       -1   -1    0    0    0  501  0.00000000000E+00  0.00000000000E+00  0.28688779552E+03  0.28688779556E+03  0.50400001928E-02 0. -1.
        1   -1    0    0  501    0  0.00000000000E+00  0.00000000000E+00 -0.88373401723E+03  0.88373401724E+03  0.50400001928E-02 0.  1.
    10030    2    1    2    0    0  0.00000000000E+00  0.00000000000E+00 -0.59684622171E+03  0.11706218128E+04  0.10070402257E+04 0.  0.
        3    1    3    3  502    0  0.11127652999E+03 -0.32577462852E+03 -0.72556318997E+03  0.80308998720E+03  0.10100000352E+00 0.  1.
       -3    1    3    3    0  502 -0.11127652999E+03  0.32577462852E+03  0.12871696825E+03  0.36753182560E+03  0.10100000352E+00 0. -1.
</event>
<event>
 5   0  0.2132540E-02  0.8006813E+03  0.7818609E-02  0.9559031E-01
        1   -1    0    0  501    0  0.00000000000E+00  0.00000000000E+00  0.36223981882E+03  0.36223981886E+03  0.50400001928E-02 0.  1.
       -1   -1    0    0    0  501  0.00000000000E+00  0.00000000000E+00 -0.44244898521E+03  0.44244898524E+03  0.50400001928E-02 0. -1.
    10030    2    1    2    0    0  0.00000000000E+00  0.00000000000E+00 -0.80209166387E+02  0.80468880409E+03  0.80068131055E+03 0.  0.
        4    1    3    3  502    0  0.62589650946E+02  0.14413468628E+03 -0.41015771885E+03  0.43923028064E+03  0.12699999809E+01 0. -1.
       -4    1    3    3    0  502 -0.62589650946E+02 -0.14413468628E+03  0.32994855246E+03  0.36545852346E+03  0.12699999809E+01 0.  1.
</event>
<event>
 5   0  0.2129257E-02  0.7873541E+03  0.7818609E-02  0.9578504E-01
       -1   -1    0    0    0  501  0.00000000000E+00  0.00000000000E+00  0.32959248539E+03  0.32959248543E+03  0.50400001928E-02 0. -1.
        1   -1    0    0  501    0  0.00000000000E+00  0.00000000000E+00 -0.47022198084E+03  0.47022198087E+03  0.50400001928E-02 0.  1.
    10030    2    1    2    0    0  0.00000000000E+00  0.00000000000E+00 -0.14062949545E+03  0.79981446630E+03  0.78735412968E+03 0.  0.
        3    1    3    3  502    0 -0.10834344528E+03  0.15092393840E+03  0.28225910342E+03  0.33791500260E+03  0.10100000352E+00 0. -1.
       -3    1    3    3    0  502  0.10834344528E+03 -0.15092393840E+03 -0.42288859887E+03  0.46189946370E+03  0.10100000352E+00 0.  1.
</event>
<event>
 5   0  0.1989298E-02  0.8044734E+03  0.7818609E-02  0.9553565E-01
        1   -1    0    0  501    0  0.00000000000E+00  0.00000000000E+00  0.82332807317E+03  0.82332807319E+03  0.50400001928E-02 0.  1.
       -1   -1    0    0    0  501  0.00000000000E+00  0.00000000000E+00 -0.19651262865E+03  0.19651262871E+03  0.50400001928E-02 0. -1.
    10030    2    1    2    0    0  0.00000000000E+00  0.00000000000E+00  0.62681544452E+03  0.10198407019E+04  0.80447340277E+03 0.  0.
        1    1    3    3  502    0 -0.37523381135E+03 -0.74093848024E+01  0.12996556220E+03  0.39717295924E+03  0.50400001928E-02 0. -1.
       -1    1    3    3    0  502  0.37523381135E+03  0.74093848024E+01  0.49684988232E+03  0.62266774266E+03  0.50400001928E-02 0.  1.
</event>
<event>
 5   0  0.2077795E-02  0.7928714E+03  0.7818609E-02  0.9570393E-01
       -1   -1    0    0    0  501  0.00000000000E+00  0.00000000000E+00  0.51244800451E+03  0.51244800453E+03  0.50400001928E-02 0.  1.
        1   -1    0    0  501    0  0.00000000000E+00  0.00000000000E+00 -0.30668722828E+03  0.30668722833E+03  0.50400001928E-02 0. -1.
    10030    2    1    2    0    0  0.00000000000E+00  0.00000000000E+00  0.20576077622E+03  0.81913523286E+03  0.79287138470E+03 0.  0.
        5    1    3    3  502    0 -0.18184499111E+03  0.24841367729E+03 -0.15511599581E+03  0.34476081275E+03  0.46999998093E+01 0. -1.
       -5    1    3    3    0  502  0.18184499111E+03 -0.24841367729E+03  0.36087677203E+03  0.47437442010E+03  0.46999998093E+01 0.  1.
</event>
<event>
 5   0  0.3550586E-02  0.7965994E+03  0.7818609E-02  0.9564952E-01
        2   -1    0    0  501    0  0.00000000000E+00  0.00000000000E+00  0.13361844413E+03  0.13361844415E+03  0.25500000920E-02 0. -1.
       -2   -1    0    0    0  501  0.00000000000E+00  0.00000000000E+00 -0.11872809348E+04  0.11872809348E+04  0.25500000920E-02 0.  1.
    10030    2    1    2    0    0  0.00000000000E+00  0.00000000000E+00 -0.10536624907E+04  0.13208993790E+04  0.79659935041E+03 0.  0.
        3    1    3    3  502    0  0.13307266675E+03 -0.31202767336E+03 -0.87296073838E+03  0.93655222200E+03  0.10100000352E+00 0.  1.
       -3    1    3    3    0  502 -0.13307266675E+03  0.31202767336E+03 -0.18070175229E+03  0.38434715695E+03  0.10100000352E+00 0. -1.
</event>
<event>
 5   0  0.3467240E-02  0.8141670E+03  0.7818609E-02  0.9539734E-01
        2   -1    0    0  501    0  0.00000000000E+00  0.00000000000E+00  0.18441665034E+04  0.18441665034E+04  0.25500000920E-02 0.  1.
       -2   -1    0    0    0  501  0.00000000000E+00  0.00000000000E+00 -0.89860091471E+02  0.89860091507E+02  0.25500000920E-02 0. -1.
    10030    2    1    2    0    0  0.00000000000E+00  0.00000000000E+00  0.17543064120E+04  0.19340265949E+04  0.81416698710E+03 0.  0.
        2    1    3    3  502    0 -0.32662807499E+03 -0.49246508288E+02  0.14423238841E+04  0.14796652677E+04  0.25500000920E-02 0.  1.
       -2    1    3    3    0  502  0.32662807499E+03  0.49246508288E+02  0.31198252788E+03  0.45436132720E+03  0.25500000920E-02 0. -1.
</event>
<event>
 5   0  0.2077795E-02  0.8073666E+03  0.7818609E-02  0.9549415E-01
        1   -1    0    0  501    0  0.00000000000E+00  0.00000000000E+00  0.12004531826E+04  0.12004531826E+04  0.50400001928E-02 0.  1.
       -1   -1    0    0    0  501  0.00000000000E+00  0.00000000000E+00 -0.13574890386E+03  0.13574890395E+03  0.50400001928E-02 0. -1.
    10030    2    1    2    0    0  0.00000000000E+00  0.00000000000E+00  0.10647042787E+04  0.13362020865E+04  0.80736659266E+03 0.  0.
        5    1    3    3  502    0 -0.77514977897E+02  0.39387339649E+03  0.60243738026E+03  0.72394593127E+03  0.46999998093E+01 0. -1.
       -5    1    3    3    0  502  0.77514977897E+02 -0.39387339649E+03  0.46226689845E+03  0.61225615526E+03  0.46999998093E+01 0.  1.
</event>
<event>
 5   0  0.3550586E-02  0.8060396E+03  0.7818609E-02  0.9551316E-01
       -2   -1    0    0    0  501  0.00000000000E+00  0.00000000000E+00  0.77269147733E+03  0.77269147733E+03  0.25500000920E-02 0.  1.
        2   -1    0    0  501    0  0.00000000000E+00  0.00000000000E+00 -0.21020674656E+03  0.21020674657E+03  0.25500000920E-02 0. -1.
    10030    2    1    2    0    0  0.00000000000E+00  0.00000000000E+00  0.56248473077E+03  0.98289822390E+03  0.80603960585E+03 0.  0.
        3    1    3    3  502    0  0.17837012574E+03 -0.35111664059E+03  0.38561585380E+03  0.55117909426E+03  0.10100000352E+00 0.  1.
       -3    1    3    3    0  502 -0.17837012574E+03  0.35111664059E+03  0.17686887697E+03  0.43171912964E+03  0.10100000352E+00 0. -1.
</event>
<event>
 5   0  0.3416160E-02  0.8039433E+03  0.7818609E-02  0.9554327E-01
       -2   -1    0    0    0  501  0.00000000000E+00  0.00000000000E+00  0.18830471880E+03  0.18830471882E+03  0.25500000920E-02 0. -1.
        2   -1    0    0  501    0  0.00000000000E+00  0.00000000000E+00 -0.85808361041E+03  0.85808361041E+03  0.25500000920E-02 0.  1.
    10030    2    1    2    0    0  0.00000000000E+00  0.00000000000E+00 -0.66977889161E+03  0.10463883292E+04  0.80394326411E+03 0.  0.
        1    1    3    3  502    0  0.30733928171E+03  0.18492904247E+03 -0.98716344955E+02  0.37202298534E+03  0.50400001928E-02 0. -1.
       -1    1    3    3    0  502 -0.30733928171E+03 -0.18492904247E+03 -0.57106254665E+03  0.67436534389E+03  0.50400001928E-02 0.  1.
</event>
<event>
 5   0  0.3343036E-02  0.7414726E+03  0.7818609E-02  0.9648824E-01
       -2   -1    0    0    0  501  0.00000000000E+00  0.00000000000E+00  0.49369162196E+03  0.49369162197E+03  0.25500000920E-02 0.  1.
        2   -1    0    0  501    0  0.00000000000E+00  0.00000000000E+00 -0.27840338547E+03  0.27840338548E+03  0.25500000920E-02 0. -1.
    10030    2    1    2    0    0  0.00000000000E+00  0.00000000000E+00  0.21528823649E+03  0.77209500745E+03  0.74147263993E+03 0.  0.
        4    1    3    3  502    0 -0.33823611405E+03  0.62964550144E+02 -0.36174379208E+02  0.34594566342E+03  0.12699999809E+01 0. -1.
       -4    1    3    3    0  502  0.33823611405E+03 -0.62964550144E+02  0.25146261570E+03  0.42614934403E+03  0.12699999809E+01 0.  1.
</event>
<event>
 5   0  0.3467240E-02  0.7463684E+03  0.7818609E-02  0.9641065E-01
        2   -1    0    0  501    0  0.00000000000E+00  0.00000000000E+00  0.44548764482E+03  0.44548764483E+03  0.25500000920E-02 0.  1.
       -2   -1    0    0    0  501  0.00000000000E+00  0.00000000000E+00 -0.31261575704E+03  0.31261575706E+03  0.25500000920E-02 0. -1.
    10030    2    1    2    0    0  0.00000000000E+00  0.00000000000E+00  0.13287188777E+03  0.75810340188E+03  0.74636842738E+03 0.  0.
        2    1    3    3  502    0 -0.18621533816E+02 -0.29100526248E+03  0.30298299726E+03  0.42051102358E+03  0.25500000920E-02 0.  1.
       -2    1    3    3    0  502  0.18621533816E+02  0.29100526248E+03 -0.17011110948E+03  0.33759237831E+03  0.25500000920E-02 0. -1.
</event>
<event>
 5   0  0.2077795E-02  0.7209889E+03  0.7818609E-02  0.9681997E-01
        1   -1    0    0  501    0  0.00000000000E+00  0.00000000000E+00  0.17648355697E+04  0.17648355697E+04  0.50400001928E-02 0. -1.
       -1   -1    0    0    0  501  0.00000000000E+00  0.00000000000E+00 -0.73636458989E+02  0.73636459162E+02  0.50400001928E-02 0.  1.
    10030    2    1    2    0    0  0.00000000000E+00  0.00000000000E+00  0.16911991107E+04  0.18384720288E+04  0.72098888261E+03 0.  0.
        5    1    3    3  502    0 -0.29564077572E+03 -0.44206382706E+01  0.13713502365E+04  0.14028708321E+04  0.46999998093E+01 0. -1.
       -5    1    3    3    0  502  0.29564077572E+03  0.44206382706E+01  0.31984887416E+03  0.43560119676E+03  0.46999998093E+01 0.  1.
</event>
<event>
 5   0  0.3467240E-02  0.7891715E+03  0.7818609E-02  0.9575825E-01
       -2   -1    0    0    0  501  0.00000000000E+00  0.00000000000E+00  0.70056473147E+03  0.70056473147E+03  0.25500000920E-02 0. -1.
        2   -1    0    0  501    0  0.00000000000E+00  0.00000000000E+00 -0.22224626630E+03  0.22224626631E+03  0.25500000920E-02 0.  1.
    10030    2    1    2    0    0  0.00000000000E+00  0.00000000000E+00  0.47831846517E+03  0.92281099779E+03  0.78917145381E+03 0.  0.
        2    1    3    3  502    0 -0.36952369620E+03 -0.91426579615E+02  0.11768656574E+03  0.39844285573E+03  0.25500000920E-02 0.  1.
       -2    1    3    3    0  502  0.36952369620E+03  0.91426579615E+02  0.36063189943E+03  0.52436814206E+03  0.25500000920E-02 0. -1.
</event>
<event>
 5   0  0.2077795E-02  0.7956084E+03  0.7818609E-02  0.9566396E-01
       -1   -1    0    0    0  501  0.00000000000E+00  0.00000000000E+00  0.18129575244E+03  0.18129575251E+03  0.50400001928E-02 0.  1.
        1   -1    0    0  501    0  0.00000000000E+00  0.00000000000E+00 -0.87287316838E+03  0.87287316840E+03  0.50400001928E-02 0. -1.
    10030    2    1    2    0    0  0.00000000000E+00  0.00000000000E+00 -0.69157741594E+03  0.10541689209E+04  0.79560844111E+03 0.  0.
        5    1    3    3  502    0  0.78128269005E+02  0.12307554777E+03  0.14458894832E+03  0.20537689951E+03  0.46999998093E+01 0.  1.
       -5    1    3    3    0  502 -0.78128269005E+02 -0.12307554777E+03 -0.83616636426E+03  0.84879202140E+03  0.46999998093E+01 0. -1.
</event>
<event>
 5   0  0.2063692E-02  0.8055994E+03  0.7818609E-02  0.9551947E-01
       -1   -1    0    0    0  501  0.00000000000E+00  0.00000000000E+00  0.32601507642E+03  0.32601507645E+03  0.50400001928E-02 0.  1.
        1   -1    0    0  501    0  0.00000000000E+00  0.00000000000E+00 -0.49766897844E+03  0.49766897847E+03  0.50400001928E-02 0. -1.
    10030    2    1    2    0    0  0.00000000000E+00  0.00000000000E+00 -0.17165390203E+03  0.82368405492E+03  0.80559937950E+03 0.  0.
        2    1    3    3  502    0 -0.12726561780E+03 -0.32569544235E+03 -0.29024902702E+03  0.45444312772E+03  0.25500000920E-02 0. -1.
       -2    1    3    3    0  502  0.12726561780E+03  0.32569544235E+03  0.11859512499E+03  0.36924092720E+03  0.25500000920E-02 0.  1.
</event>
<event>
 5   0  0.2063692E-02  0.8265068E+03  0.7818609E-02  0.9522423E-01
       -1   -1    0    0    0  501  0.00000000000E+00  0.00000000000E+00  0.23533414680E+03  0.23533414686E+03  0.50400001928E-02 0. -1.
        1   -1    0    0  501    0  0.00000000000E+00  0.00000000000E+00 -0.72568464274E+03  0.72568464276E+03  0.50400001928E-02 0.  1.
    10030    2    1    2    0    0  0.00000000000E+00  0.00000000000E+00 -0.49035049594E+03  0.96101878962E+03  0.82650680888E+03 0.  0.
        2    1    3    3  502    0  0.15329994159E+03 -0.35921440955E+03 -0.88128927519E+02  0.40037803635E+03  0.25500000920E-02 0. -1.
       -2    1    3    3    0  502 -0.15329994159E+03  0.35921440955E+03 -0.40222156842E+03  0.56064075327E+03  0.25500000920E-02 0.  1.
</event>
<event>
 5   0  0.2063692E-02  0.7982005E+03  0.7818609E-02  0.9562626E-01
        1   -1    0    0  501    0  0.00000000000E+00  0.00000000000E+00  0.12034008135E+03  0.12034008146E+03  0.50400001928E-02 0. -1.
       -1   -1    0    0    0  501  0.00000000000E+00  0.00000000000E+00 -0.13235905658E+04  0.13235905659E+04  0.50400001928E-02 0.  1.
    10030    2    1    2    0    0  0.00000000000E+00  0.00000000000E+00 -0.12032504845E+04  0.14439306473E+04  0.79820046718E+03 0.  0.
        2    1    3    3  502    0 -0.20967903373E+03 -0.26935274666E+03 -0.97571650484E+03  0.10337015513E+04  0.25500000920E-02 0.  1.
       -2    1    3    3    0  502  0.20967903373E+03  0.26935274666E+03 -0.22753397965E+03  0.41022909601E+03  0.25500000920E-02 0. -1.
</event>
<event>
 5   0  0.3416160E-02  0.7934168E+03  0.7818609E-02  0.9569595E-01
        2   -1    0    0  501    0  0.00000000000E+00  0.00000000000E+00  0.83221029815E+03  0.83221029816E+03  0.25500000920E-02 0. -1.
       -2   -1    0    0    0  501  0.00000000000E+00  0.00000000000E+00 -0.18910791853E+03  0.18910791855E+03  0.25500000920E-02 0.  1.
    10030    2    1    2    0    0  0.00000000000E+00  0.00000000000E+00  0.64310237962E+03  0.10213182167E+04  0.79341680667E+03 0.  0.
        1    1    3    3  502    0  0.17212925376E+03  0.31811499772E+03  0.53130395397E+03  0.64273596702E+03  0.50400001928E-02 0. -1.
       -1    1    3    3    0  502 -0.17212925376E+03 -0.31811499772E+03  0.11179842565E+03  0.37858224969E+03  0.50400001928E-02 0.  1.
</event>
<event>
 5   0  0.3343036E-02  0.7852745E+03  0.7818609E-02  0.9581580E-01
       -2   -1    0    0    0  501  0.00000000000E+00  0.00000000000E+00  0.74162984469E+03  0.74162984470E+03  0.25500000920E-02 0. -1.
        2   -1    0    0  501    0  0.00000000000E+00  0.00000000000E+00 -0.20787193049E+03  0.20787193051E+03  0.25500000920E-02 0.  1.
    10030    2    1    2    0    0  0.00000000000E+00  0.00000000000E+00  0.53375791420E+03  0.94950177521E+03  0.78527454444E+03 0.  0.
        4    1    3    3  502    0 -0.35084701904E+03 -0.43065024866E+02  0.60211941665E+02  0.35857400624E+03  0.12699999809E+01 0. -1.
       -4    1    3    3    0  502  0.35084701904E+03  0.43065024866E+02  0.47354597253E+03  0.59092776897E+03  0.12699999809E+01 0.  1.
</event>
<event>
 5   0  0.2129257E-02  0.8075567E+03  0.7818609E-02  0.9549143E-01
        1   -1    0    0  501    0  0.00000000000E+00  0.00000000000E+00  0.48887684827E+03  0.48887684829E+03  0.50400001928E-02 0.  1.
       -1   -1    0    0    0  501  0.00000000000E+00  0.00000000000E+00 -0.33349290964E+03  0.33349290968E+03  0.50400001928E-02 0. -1.
    10030    2    1    2    0    0  0.00000000000E+00  0.00000000000E+00  0.15538393863E+03  0.82236975797E+03  0.80755671655E+03 0.  0.
        3    1    3    3  502    0 -0.17136346574E+03  0.33621442604E+03  0.22396295274E+03  0.43882227845E+03  0.10100000352E+00 0.  1.
       -3    1    3    3    0  502  0.17136346574E+03 -0.33621442604E+03 -0.68579014105E+02  0.38354747952E+03  0.10100000352E+00 0. -1.
</event>
<event>
 5   0  0.3550586E-02  0.7648310E+03  0.7818609E-02  0.9612366E-01
        2   -1    0    0  501    0  0.00000000000E+00  0.00000000000E+00  0.19557957918E+04  0.19557957918E+04  0.25500000920E-02 0.  1.
       -2   -1    0    0    0  501  0.00000000000E+00  0.00000000000E+00 -0.74773456890E+02  0.74773456934E+02  0.25500000920E-02 0. -1.
    10030    2    1    2    0    0  0.00000000000E+00  0.00000000000E+00  0.18810223349E+04  0.20305692487E+04  0.76483099406E+03 0.  0.
        3    1    3    3  502    0 -0.10237157729E+03 -0.36831529941E+03  0.96778108445E+03  0.10405461726E+04  0.10100000352E+00 0. -1.
       -3    1    3    3    0  502  0.10237157729E+03  0.36831529941E+03  0.91324125045E+03  0.99002307616E+03  0.10100000352E+00 0.  1.
</event>
<event>
 5   0  0.2129257E-02  0.7533585E+03  0.7818609E-02  0.9630096E-01
       -1   -1    0    0    0  501  0.00000000000E+00  0.00000000000E+00  0.19779832266E+03  0.19779832272E+03  0.50400001928E-02 0.  1.
        1   -1    0    0  501    0  0.00000000000E+00  0.00000000000E+00 -0.71733292731E+03  0.71733292733E+03  0.50400001928E-02 0. -1.
    10030    2    1    2    0    0  0.00000000000E+00  0.00000000000E+00 -0.51953460465E+03  0.91513125005E+03  0.75335848000E+03 0.  0.
        3    1    3    3  502    0  0.14317471124E+03  0.34795301159E+03 -0.23814148249E+03  0.44528830223E+03  0.10100000352E+00 0. -1.
       -3    1    3    3    0  502 -0.14317471124E+03 -0.34795301159E+03 -0.28139312216E+03  0.46984294782E+03  0.10100000352E+00 0.  1.
</event>
<event>
 5   0  0.2063692E-02  0.5246479E+03  0.7818609E-02  0.1007538E+00
       -1   -1    0    0    0  501  0.00000000000E+00  0.00000000000E+00  0.56375861150E+03  0.56375861152E+03  0.50400001928E-02 0. -1.
        1   -1    0    0  501    0  0.00000000000E+00  0.00000000000E+00 -0.12206261380E+03  0.12206261390E+03  0.50400001928E-02 0.  1.
    10030    2    1    2    0    0  0.00000000000E+00  0.00000000000E+00  0.44169599770E+03  0.68582122542E+03  0.52464788082E+03 0.  0.
        2    1    3    3  502    0 -0.14042401888E+03  0.17085401653E+03  0.40526949473E+03  0.46168535108E+03  0.25500000920E-02 0.  1.
       -2    1    3    3    0  502  0.14042401888E+03 -0.17085401653E+03  0.36426502976E+02  0.22413587434E+03  0.25500000920E-02 0. -1.
</event>
<event>
 5   0  0.3467240E-02  0.8023636E+03  0.7818609E-02  0.9556602E-01
       -2   -1    0    0    0  501  0.00000000000E+00  0.00000000000E+00  0.29234773109E+03  0.29234773111E+03  0.25500000920E-02 0. -1.
        2   -1    0    0  501    0  0.00000000000E+00  0.00000000000E+00 -0.55053220047E+03  0.55053220047E+03  0.25500000920E-02 0.  1.
    10030    2    1    2    0    0  0.00000000000E+00  0.00000000000E+00 -0.25818446937E+03  0.84287993158E+03  0.80236360762E+03 0.  0.
        2    1    3    3  502    0  0.32754181832E+03 -0.15744751808E+03  0.49410151718E+02  0.36676249372E+03  0.25500000920E-02 0. -1.
       -2    1    3    3    0  502 -0.32754181832E+03  0.15744751808E+03 -0.30759462109E+03  0.47611743786E+03  0.25500000920E-02 0.  1.
</event>
<event>
 5   0  0.2077795E-02  0.7946102E+03  0.7818609E-02  0.9567852E-01
       -1   -1    0    0    0  501  0.00000000000E+00  0.00000000000E+00  0.26714541786E+03  0.26714541790E+03  0.50400001928E-02 0.  1.
        1   -1    0    0  501    0  0.00000000000E+00  0.00000000000E+00 -0.59088174397E+03  0.59088174399E+03  0.50400001928E-02 0. -1.
    10030    2    1    2    0    0  0.00000000000E+00  0.00000000000E+00 -0.32373632611E+03  0.85802716189E+03  0.79461021998E+03 0.  0.
        5    1    3    3  502    0  0.25825083654E+03 -0.18981488489E+03  0.91613548248E+02  0.33337414015E+03  0.46999998093E+01 0.  1.
       -5    1    3    3    0  502 -0.25825083654E+03  0.18981488489E+03 -0.41534987436E+03  0.52465302174E+03  0.46999998093E+01 0. -1.
</event>
<event>
 5   0  0.1989298E-02  0.6954747E+03  0.7818609E-02  0.9725002E-01
        1   -1    0    0  501    0  0.00000000000E+00  0.00000000000E+00  0.38336067425E+03  0.38336067428E+03  0.50400001928E-02 0.  1.
       -1   -1    0    0    0  501  0.00000000000E+00  0.00000000000E+00 -0.31542428938E+03  0.31542428942E+03  0.50400001928E-02 0. -1.
    10030    2    1    2    0    0  0.00000000000E+00  0.00000000000E+00  0.67936384873E+02  0.69878496370E+03  0.69547471062E+03 0.  0.
        1    1    3    3  502    0 -0.96770911590E+02  0.13348466521E+03  0.34159290141E+03  0.37929998088E+03  0.50400001928E-02 0.  1.
       -1    1    3    3    0  502  0.96770911590E+02 -0.13348466521E+03 -0.27365651654E+03  0.31948498282E+03  0.50400001928E-02 0. -1.
</event>
<event>
 5   0  0.3343036E-02  0.8175428E+03  0.7818609E-02  0.9534966E-01
       -2   -1    0    0    0  501  0.00000000000E+00  0.00000000000E+00  0.77783387286E+02  0.77783387328E+02  0.25500000920E-02 0.  1.
        2   -1    0    0  501    0  0.00000000000E+00  0.00000000000E+00 -0.21481974282E+04  0.21481974282E+04  0.25500000920E-02 0. -1.
    10030    2    1    2    0    0  0.00000000000E+00  0.00000000000E+00 -0.20704140409E+04  0.22259808155E+04  0.81754283698E+03 0.  0.
        4    1    3    3  502    0  0.24276058380E+03 -0.12653738460E+03 -0.18617281707E+04  0.18817486031E+04  0.12699999809E+01 0. -1.
       -4    1    3    3    0  502 -0.24276058380E+03  0.12653738460E+03 -0.20868587018E+03  0.34423221241E+03  0.12699999809E+01 0.  1.
</event>
<event>
 5   0  0.1989298E-02  0.7979435E+03  0.7818609E-02  0.9562999E-01
       -1   -1    0    0    0  501  0.00000000000E+00  0.00000000000E+00  0.32458033168E+03  0.32458033172E+03  0.50400001928E-02 0. -1.
        1   -1    0    0  501    0  0.00000000000E+00  0.00000000000E+00 -0.49041312951E+03  0.49041312954E+03  0.50400001928E-02 0.  1.
    10030    2    1    2    0    0  0.00000000000E+00  0.00000000000E+00 -0.16583279783E+03  0.81499346126E+03  0.79794349741E+03 0.  0.
        1    1    3    3  502    0  0.19990986379E+03  0.73933973374E+02  0.26155596462E+03  0.33740436972E+03  0.50400001928E-02 0. -1.
       -1    1    3    3    0  502 -0.19990986379E+03 -0.73933973374E+02 -0.42738876245E+03  0.47758909153E+03  0.50400001928E-02 0.  1.
</event>
<event>
 5   0  0.3343036E-02  0.8010041E+03  0.7818609E-02  0.9558565E-01
        2   -1    0    0  501    0  0.00000000000E+00  0.00000000000E+00  0.34641121752E+03  0.34641121753E+03  0.25500000920E-02 0.  1.
       -2   -1    0    0    0  501  0.00000000000E+00  0.00000000000E+00 -0.46303896967E+03  0.46303896967E+03  0.25500000920E-02 0. -1.
    10030    2    1    2    0    0  0.00000000000E+00  0.00000000000E+00 -0.11662775215E+03  0.80945018720E+03  0.80100410298E+03 0.  0.
        4    1    3    3  502    0  0.13007458991E+03  0.24563246345E+02 -0.44029099745E+03  0.45976138088E+03  0.12699999809E+01 0. -1.
       -4    1    3    3    0  502 -0.13007458991E+03 -0.24563246345E+02  0.32366324530E+03  0.34968880633E+03  0.12699999809E+01 0.  1.
</event>
<event>
 5   0  0.3404132E-02  0.7849839E+03  0.7818609E-02  0.9582010E-01
       -2   -1    0    0    0  501  0.00000000000E+00  0.00000000000E+00  0.22128976266E+03  0.22128976268E+03  0.25500000920E-02 0.  1.
        2   -1    0    0  501    0  0.00000000000E+00  0.00000000000E+00 -0.69614581954E+03  0.69614581954E+03  0.25500000920E-02 0. -1.
    10030    2    1    2    0    0  0.00000000000E+00  0.00000000000E+00 -0.47485605687E+03  0.91743558222E+03  0.78498393154E+03 0.  0.
        5    1    3    3  502    0  0.68586092618E+01 -0.17834999976E+03 -0.64593626294E+03  0.67015782374E+03  0.46999998093E+01 0. -1.
       -5    1    3    3    0  502 -0.68586092618E+01  0.17834999976E+03  0.17108020607E+03  0.24727775848E+03  0.46999998093E+01 0.  1.
</event>
<event>
 5   0  0.2132540E-02  0.5260596E+03  0.7818609E-02  0.1007192E+00
       -1   -1    0    0    0  501  0.00000000000E+00  0.00000000000E+00  0.11329249292E+03  0.11329249303E+03  0.50400001928E-02 0.  1.
        1   -1    0    0  501    0  0.00000000000E+00  0.00000000000E+00 -0.61067297563E+03  0.61067297565E+03  0.50400001928E-02 0. -1.
    10030    2    1    2    0    0  0.00000000000E+00  0.00000000000E+00 -0.49738048271E+03  0.72396546869E+03  0.52605955487E+03 0.  0.
        4    1    3    3  502    0  0.17386582712E+03 -0.33802081448E+01 -0.52026770864E+03  0.54856253354E+03  0.12699999809E+01 0. -1.
       -4    1    3    3    0  502 -0.17386582712E+03  0.33802081448E+01  0.22887225927E+02  0.17540293515E+03  0.12699999809E+01 0.  1.
</event>
<event>
 5   0  0.3404132E-02  0.5502518E+03  0.7818609E-02  0.1001436E+00
        2   -1    0    0  501    0  0.00000000000E+00  0.00000000000E+00  0.26756090284E+03  0.26756090285E+03  0.25500000920E-02 0.  1.
       -2   -1    0    0    0  501  0.00000000000E+00  0.00000000000E+00 -0.28290483596E+03  0.28290483597E+03  0.25500000920E-02 0. -1.
    10030    2    1    2    0    0  0.00000000000E+00  0.00000000000E+00 -0.15343933119E+02  0.55046573883E+03  0.55025184537E+03 0.  0.
        5    1    3    3  502    0  0.94012652935E+02 -0.92560773490E+02  0.23380601360E+03  0.26850180204E+03  0.46999998093E+01 0.  1.
       -5    1    3    3    0  502 -0.94012652935E+02  0.92560773490E+02 -0.24914994672E+03  0.28196393679E+03  0.46999998093E+01 0. -1.
</event>
<event>
 5   0  0.1358000E-02  0.8027882E+03  0.7818609E-02  0.9555990E-01
       -4   -1    0    0    0  501  0.00000000000E+00  0.00000000000E+00  0.77401258200E+03  0.77401362390E+03  0.12699999809E+01 0. -1.
        4   -1    0    0  501    0  0.00000000000E+00  0.00000000000E+00 -0.20815526800E+03  0.20815914223E+03  0.12699999809E+01 0.  1.
    10030    2    1    2    0    0  0.00000000000E+00  0.00000000000E+00  0.56585731400E+03  0.98217276614E+03  0.80278816804E+03 0.  0.
        1    1    3    3  502    0  0.66402853881E+02  0.88476815508E+02 -0.18913949675E+03  0.21911466209E+03  0.50400001928E-02 0.  1.
       -1    1    3    3    0  502 -0.66402853881E+02 -0.88476815508E+02  0.75499681075E+03  0.76305810405E+03  0.50400001928E-02 0. -1.
</event>
<event>
 5   0  0.3467240E-02  0.5154167E+03  0.7818609E-02  0.1009831E+00
        2   -1    0    0  501    0  0.00000000000E+00  0.00000000000E+00  0.26408091094E+03  0.26408091095E+03  0.25500000920E-02 0. -1.
       -2   -1    0    0    0  501  0.00000000000E+00  0.00000000000E+00 -0.25148961214E+03  0.25148961216E+03  0.25500000920E-02 0.  1.
    10030    2    1    2    0    0  0.00000000000E+00  0.00000000000E+00  0.12591298799E+02  0.51557052311E+03  0.51541674739E+03 0.  0.
        2    1    3    3  502    0 -0.71583387208E+02 -0.24749823314E+03  0.45874484416E+00  0.25764271227E+03  0.25500000920E-02 0.  1.
       -2    1    3    3    0  502  0.71583387208E+02  0.24749823314E+03  0.12132553954E+02  0.25792781084E+03  0.25500000920E-02 0. -1.
</event>
<event>
 5   0  0.2129257E-02  0.7980128E+03  0.7818609E-02  0.9562898E-01
        1   -1    0    0  501    0  0.00000000000E+00  0.00000000000E+00  0.19674711710E+03  0.19674711717E+03  0.50400001928E-02 0.  1.
       -1   -1    0    0    0  501  0.00000000000E+00  0.00000000000E+00 -0.80919155711E+03  0.80919155713E+03  0.50400001928E-02 0. -1.
    10030    2    1    2    0    0  0.00000000000E+00  0.00000000000E+00 -0.61244444001E+03  0.10059386743E+04  0.79801279710E+03 0.  0.
        3    1    3    3  502    0 -0.84232680098E+02 -0.22778271939E+03  0.92850291680E+02  0.26000249713E+03  0.10100000352E+00 0.  1.
       -3    1    3    3    0  502  0.84232680098E+02  0.22778271939E+03 -0.70529473169E+03  0.74593617716E+03  0.10100000352E+00 0. -1.
</event>
</LesHouchesEvents>
