<LesHouchesEvents version="3.0">
<header>
<!--
#*********************************************************************
#                                                                    *
#                        MadGraph5_aMC@NLO                           *
#                                                                    *
#                           Going Beyond                             *
#                                                                    *
#                   http://madgraph.hep.uiuc.edu                     *
#                   http://madgraph.phys.ucl.ac.be                   *
#                   http://amcatnlo.cern.ch                          *
#                                                                    *
#                     The MadGraph5_aMC@NLO team                     *
#                                                                    *
#....................................................................*
#                                                                    *
# This file contains all the information necessary to reproduce      *
# the events generated:                                              *
#                                                                    *
# 1. software version                                                *
# 2. proc_card          : code generation info including model       *
# 3. param_card         : model primary parameters in the LH format  *
# 4. run_card           : running parameters (collider and cuts)     *
# 5. pythia_card        : present only if pythia has been run        *
# 6. pgs_card           : present only if pgs has been run           *
# 7. delphes_cards      : present only if delphes has been run       *
#                                                                    *
#                                                                    *
#*********************************************************************
-->
<MGVersion>
#5.2.2.3
</MGVersion>
<MG5ProcCard>
#************************************************************
#*                     MadGraph5_aMC@NLO                    *
#*                                                          *
#*                *                       *                 *
#*                  *        * *        *                   *
#*                    * * * * 5 * * * *                     *
#*                  *        * *        *                   *
#*                *                       *                 *
#*                                                          *
#*                                                          *
#*         VERSION 2.2.3                 2015-02-10         *
#*                                                          *
#*    The MadGraph5_aMC@NLO Development Team - Find us at   *
#*    https://server06.fynu.ucl.ac.be/projects/madgraph     *
#*                                                          *
#************************************************************
#*                                                          *
#*               Command File for MadGraph5_aMC@NLO         *
#*                                                          *
#*     run as ./bin/mg5_aMC  filename                       *
#*                                                          *
#************************************************************
set group_subprocesses Auto
set ignore_six_quark_processes False
set loop_optimized_output True
set gauge unitary
set complex_mass_scheme False
import model sm
define p = g u c d s u~ c~ d~ s~
define j = g u c d s u~ c~ d~ s~
define l+ = e+ mu+
define l- = e- mu-
define vl = ve vm vt
define vl~ = ve~ vm~ vt~
import model Zprime_UFO
generate p p > zph, zph > j j
add process p p > zph, zph > b b~
output Dijet_signal
</MG5ProcCard>
<MGProcCard>
#*********************************************************************
#                        MadGraph/MadEvent                           *
#                   http://madgraph.hep.uiuc.edu                     *
#                                                                    *
#                          proc_card.dat                             *
#*********************************************************************
#                                                                    *
#            This Files is generated by MADGRAPH 5                   *
#                                                                    *
# WARNING: This Files is generated for MADEVENT (compatibility issue)*
#          This files is NOT a valid MG4 proc_card.dat               *
#          Running this in MG4 will NEVER reproduce the result of MG5*
#                                                                    *
#*********************************************************************
#*********************************************************************
# Process(es) requested : mg2 input                                  *
#*********************************************************************
# Begin PROCESS # This is TAG. Do not modify this line
p p > zph , zph > j j           #Process
# Be carefull the coupling are here in MG5 convention
          
end_coup           # End the couplings input

done               # this tells MG there are no more procs
# End PROCESS  # This is TAG. Do not modify this line
#*********************************************************************
# Model information                                                  *
#*********************************************************************
# Begin MODEL  # This is TAG. Do not modify this line
Zprime_UFO
# End   MODEL  # This is TAG. Do not modify this line
#*********************************************************************
# Start multiparticle definitions                                    *
#*********************************************************************
# Begin MULTIPARTICLES # This is TAG. Do not modify this line

# End  MULTIPARTICLES # This is TAG. Do not modify this line
</MGProcCard>
<MGRunCard>
#*********************************************************************
#                       MadGraph5_aMC@NLO                            *
#                                                                    *
#                     run_card.dat MadEvent                          *
#                                                                    *
#  This file is used to set the parameters of the run.               *
#                                                                    *
#  Some notation/conventions:                                        *
#                                                                    *
#   Lines starting with a '# ' are info or comments                  *
#                                                                    *
#   mind the format:   value    = variable     ! comment             *
#*********************************************************************
#
#*******************                                                 
# Running parameters
#*******************                                                 
#                                                                    
#*********************************************************************
# Tag name for the run (one word)                                    *
#*********************************************************************
  tag_1     = run_tag ! name of the run 
#*********************************************************************
# Run to generate the grid pack                                      *
#*********************************************************************
  .false.     = gridpack  !True = setting up the grid pack
#*********************************************************************
# Number of events and rnd seed                                      *
# Warning: Do not generate more than 1M events in a single run       *
# If you want to run Pythia, avoid more than 50k events in a run.    *
#*********************************************************************
  2000 = nevents ! Number of unweighted events requested 
 2244 = iseed   ! rnd seed (0=assigned automatically=default))
#*********************************************************************
# Collider type and energy                                           *
# lpp: 0=No PDF, 1=proton, -1=antiproton, 2=photon from proton,      *
#                                         3=photon from electron     *
#*********************************************************************
        1     = lpp1    ! beam 1 type 
        1     = lpp2    ! beam 2 type
     4000     = ebeam1  ! beam 1 total energy in GeV
     4000     = ebeam2  ! beam 2 total energy in GeV
#*********************************************************************
# Beam polarization from -100 (left-handed) to 100 (right-handed)    *
#*********************************************************************
        0     = polbeam1 ! beam polarization for beam 1
        0     = polbeam2 ! beam polarization for beam 2
#*********************************************************************
# PDF CHOICE: this automatically fixes also alpha_s and its evol.    *
#*********************************************************************
 'nn23lo1'    = pdlabel     ! PDF set                                     
 230000    = lhaid     ! if pdlabel=lhapdf, this is the lhapdf number
#*********************************************************************
# Renormalization and factorization scales                           *
#*********************************************************************
 F        = fixed_ren_scale  ! if .true. use fixed ren scale
 F        = fixed_fac_scale  ! if .true. use fixed fac scale
 91.1880  = scale            ! fixed ren scale
 91.1880  = dsqrt_q2fact1    ! fixed fact scale for pdf1
 91.1880  = dsqrt_q2fact2    ! fixed fact scale for pdf2
 1        = scalefact        ! scale factor for event-by-event scales
#*********************************************************************
# Matching - Warning! ickkw > 1 is still beta
#*********************************************************************
 0        = ickkw            ! 0 no matching, 1 MLM, 2 CKKW matching
 1        = highestmult      ! for ickkw=2, highest mult group
 1        = ktscheme         ! for ickkw=1, 1 Durham kT, 2 Pythia pTE
 1        = alpsfact         ! scale factor for QCD emission vx
 F        = chcluster        ! cluster only according to channel diag
 T        = pdfwgt           ! for ickkw=1, perform pdf reweighting
 5        = asrwgtflavor     ! highest quark flavor for a_s reweight
 T        = clusinfo         ! include clustering tag in output
 3.0      = lhe_version       ! Change the way clustering information pass to shower.        
#*********************************************************************
#**********************************************************
#
#**********************************************************
# Automatic ptj and mjj cuts if xqcut > 0
# (turn off for VBF and single top processes)
#**********************************************************
   T  = auto_ptj_mjj  ! Automatic setting of ptj and mjj
#**********************************************************
#                                                                    
#**********************************
# BW cutoff (M+/-bwcutoff*Gamma)
#**********************************
  15  = bwcutoff      ! (M+/-bwcutoff*Gamma)
#**********************************************************
# Apply pt/E/eta/dr/mij cuts on decay products or not
# (note that etmiss/ptll/ptheavy/ht/sorted cuts always apply)
#**********************************************************
   T  = cut_decays    ! Cut decay products 
#*************************************************************
# Number of helicities to sum per event (0 = all helicities)
# 0 gives more stable result, but longer run time (needed for
# long decay chains e.g.).
# Use >=2 if most helicities contribute, e.g. pure QCD.
#*************************************************************
   0  = nhel          ! Number of helicities used per event
#*******************                                                 
# Standard Cuts
#*******************                                                 
#                                                                    
#*********************************************************************
# Minimum and maximum pt's (for max, -1 means no cut)                *
#*********************************************************************
 20  = ptj       ! minimum pt for the jets 
  0  = ptb       ! minimum pt for the b 
 10  = pta       ! minimum pt for the photons 
 10  = ptl       ! minimum pt for the charged leptons 
  0  = misset    ! minimum missing Et (sum of neutrino's momenta)
  0  = ptheavy   ! minimum pt for one heavy final state
 1.0 = ptonium   ! minimum pt for the quarkonium states
 -1  = ptjmax    ! maximum pt for the jets
 -1  = ptbmax    ! maximum pt for the b
 -1  = ptamax    ! maximum pt for the photons
 -1  = ptlmax    ! maximum pt for the charged leptons
 -1  = missetmax ! maximum missing Et (sum of neutrino's momenta)
#*********************************************************************
# Minimum and maximum E's (in the center of mass frame)              *
#*********************************************************************
  0  = ej     ! minimum E for the jets 
  0  = eb     ! minimum E for the b 
  0  = ea     ! minimum E for the photons 
  0  = el     ! minimum E for the charged leptons 
 -1   = ejmax ! maximum E for the jets
 -1   = ebmax ! maximum E for the b
 -1   = eamax ! maximum E for the photons
 -1   = elmax ! maximum E for the charged leptons
#*********************************************************************
# Maximum and minimum absolute rapidity (for max, -1 means no cut)   *
#*********************************************************************
   5  = etaj    ! max rap for the jets 
  -1  = etab    ! max rap for the b
 2.5  = etaa    ! max rap for the photons 
 2.5  = etal    ! max rap for the charged leptons 
 0.6  = etaonium ! max rap for the quarkonium states
   0  = etajmin ! min rap for the jets
   0  = etabmin ! min rap for the b
   0  = etaamin ! min rap for the photons
   0  = etalmin ! main rap for the charged leptons
#*********************************************************************
# Minimum and maximum DeltaR distance                                *
#*********************************************************************
 0.4 = drjj    ! min distance between jets 
 0   = drbb    ! min distance between b's 
 0.4 = drll    ! min distance between leptons 
 0.4 = draa    ! min distance between gammas 
 0   = drbj    ! min distance between b and jet 
 0.4 = draj    ! min distance between gamma and jet 
 0.4 = drjl    ! min distance between jet and lepton 
 0   = drab    ! min distance between gamma and b 
 0   = drbl    ! min distance between b and lepton 
 0.4 = dral    ! min distance between gamma and lepton 
 -1  = drjjmax ! max distance between jets
 -1  = drbbmax ! max distance between b's
 -1  = drllmax ! max distance between leptons
 -1  = draamax ! max distance between gammas
 -1  = drbjmax ! max distance between b and jet
 -1  = drajmax ! max distance between gamma and jet
 -1  = drjlmax ! max distance between jet and lepton
 -1  = drabmax ! max distance between gamma and b
 -1  = drblmax ! max distance between b and lepton
 -1  = dralmax ! maxdistance between gamma and lepton
#*********************************************************************
# Minimum and maximum invariant mass for pairs                       *
# WARNING: for four lepton final state mmll cut require to have      *
#          different lepton masses for each flavor!                  *           
#*********************************************************************
 0   = mmjj    ! min invariant mass of a jet pair 
 0   = mmbb    ! min invariant mass of a b pair 
 0   = mmaa    ! min invariant mass of gamma gamma pair
 0   = mmll    ! min invariant mass of l+l- (same flavour) lepton pair
 -1  = mmjjmax ! max invariant mass of a jet pair
 -1  = mmbbmax ! max invariant mass of a b pair
 -1  = mmaamax ! max invariant mass of gamma gamma pair
 -1  = mmllmax ! max invariant mass of l+l- (same flavour) lepton pair
#*********************************************************************
# Minimum and maximum invariant mass for all letpons                 *
#*********************************************************************
 0   = mmnl    ! min invariant mass for all letpons (l+- and vl) 
 -1  = mmnlmax ! max invariant mass for all letpons (l+- and vl) 
#*********************************************************************
# Minimum and maximum pt for 4-momenta sum of leptons                *
#*********************************************************************
 0   = ptllmin  ! Minimum pt for 4-momenta sum of leptons(l and vl)
 -1  = ptllmax  ! Maximum pt for 4-momenta sum of leptons(l and vl)
#*********************************************************************
# Inclusive cuts                                                     *
#*********************************************************************
 0  = xptj ! minimum pt for at least one jet  
 0  = xptb ! minimum pt for at least one b 
 0  = xpta ! minimum pt for at least one photon 
 0  = xptl ! minimum pt for at least one charged lepton 
#*********************************************************************
# Control the pt's of the jets sorted by pt                          *
#*********************************************************************
 0   = ptj1min ! minimum pt for the leading jet in pt
 0   = ptj2min ! minimum pt for the second jet in pt
 0   = ptj3min ! minimum pt for the third jet in pt
 0   = ptj4min ! minimum pt for the fourth jet in pt
 -1  = ptj1max ! maximum pt for the leading jet in pt 
 -1  = ptj2max ! maximum pt for the second jet in pt
 -1  = ptj3max ! maximum pt for the third jet in pt
 -1  = ptj4max ! maximum pt for the fourth jet in pt
 0   = cutuse  ! reject event if fails any (0) / all (1) jet pt cuts
#*********************************************************************
# Control the pt's of leptons sorted by pt                           *
#*********************************************************************
 0   = ptl1min ! minimum pt for the leading lepton in pt
 0   = ptl2min ! minimum pt for the second lepton in pt
 0   = ptl3min ! minimum pt for the third lepton in pt
 0   = ptl4min ! minimum pt for the fourth lepton in pt
 -1  = ptl1max ! maximum pt for the leading lepton in pt 
 -1  = ptl2max ! maximum pt for the second lepton in pt
 -1  = ptl3max ! maximum pt for the third lepton in pt
 -1  = ptl4max ! maximum pt for the fourth lepton in pt
#*********************************************************************
# Control the Ht(k)=Sum of k leading jets                            *
#*********************************************************************
 0   = htjmin ! minimum jet HT=Sum(jet pt)
 -1  = htjmax ! maximum jet HT=Sum(jet pt)
 0   = ihtmin  !inclusive Ht for all partons (including b)
 -1  = ihtmax  !inclusive Ht for all partons (including b)
 0   = ht2min ! minimum Ht for the two leading jets
 0   = ht3min ! minimum Ht for the three leading jets
 0   = ht4min ! minimum Ht for the four leading jets
 -1  = ht2max ! maximum Ht for the two leading jets
 -1  = ht3max ! maximum Ht for the three leading jets
 -1  = ht4max ! maximum Ht for the four leading jets
#***********************************************************************
# Photon-isolation cuts, according to hep-ph/9801442                   *
# When ptgmin=0, all the other parameters are ignored                  *
# When ptgmin>0, pta and draj are not going to be used                 *
#***********************************************************************
   0 = ptgmin ! Min photon transverse momentum
 0.4 = R0gamma ! Radius of isolation code
 1.0 = xn ! n parameter of eq.(3.4) in hep-ph/9801442
 1.0 = epsgamma ! epsilon_gamma parameter of eq.(3.4) in hep-ph/9801442
 .true. = isoEM ! isolate photons from EM energy (photons and leptons)
#*********************************************************************
# WBF cuts                                                           *
#*********************************************************************
 0   = xetamin ! minimum rapidity for two jets in the WBF case  
 0   = deltaeta ! minimum rapidity for two jets in the WBF case 
#*********************************************************************
# KT DURHAM CUT                                                      *
#*********************************************************************
 -1    =  ktdurham        
 0.4  =  dparameter 
#*********************************************************************
# maximal pdg code for quark to be considered as a light jet         *
# (otherwise b cuts are applied)                                     *
#*********************************************************************
 4 = maxjetflavor    ! Maximum jet pdg code
#*********************************************************************
# Jet measure cuts                                                   *
#*********************************************************************
 0   = xqcut   ! minimum kt jet measure between partons
#*********************************************************************
#
#*********************************************************************
# Store info for systematics studies                                 *
# WARNING: If use_syst is T, matched Pythia output is                *
#          meaningful ONLY if plotted taking matchscale              *
#          reweighting into account!                                 *
#*********************************************************************
   F  = use_syst      ! Enable systematics studies
#
#**************************************
# Parameter of the systematics study
#  will be used by SysCalc (if installed)
#**************************************                                  
#
0.5 1 2 = sys_scalefact  # factorization/renormalization scale factor
0.5 1 2 = sys_alpsfact  # \alpha_s emission scale factors
30 50 = sys_matchscale # variation of merging scale
# PDF sets and number of members (0 or none for all members).
CT10nlo.LHgrid = sys_pdf # matching scales
# MSTW2008nlo68cl.LHgrid 1  = sys_pdf
</MGRunCard>
<slha>
######################################################################
## PARAM_CARD AUTOMATICALY GENERATED BY MG5 FOLLOWING UFO MODEL   ####
######################################################################
##                                                                  ##
##  Width set on Auto will be computed following the information    ##
##        present in the decay.py files of the model.               ##
##        See  arXiv:1402.1178 for more details.                    ##
##                                                                  ##
######################################################################

###################################
## INFORMATION FOR CKMBLOCK
###################################
Block ckmblock 
    1 2.277360e-01 # cabi 

###################################
## INFORMATION FOR FRBLOCK
###################################
Block frblock 
    1 1.200000e+00 # gz 

###################################
## INFORMATION FOR MASS
###################################
Block mass 
    1 5.040000e-03 # MD 
    2 2.550000e-03 # MU 
    3 1.010000e-01 # MS 
    4 1.270000e+00 # MC 
    5 4.700000e+00 # MB 
    6 1.720000e+02 # MT 
   11 5.110000e-04 # Me 
   13 1.056600e-01 # MM 
   15 1.777000e+00 # MTA 
   23 9.118760e+01 # MZ 
   25 1.200000e+02 # MH 
  10030 1.900000e+03 # MZph 
  10031 3.000000e+02 # MZpl 
## Dependent parameters, given by model restrictions.
## Those values should be edited following the 
## analytical expression. MG5 ignores those values 
## but they are important for interfacing the output of MG5
## to external program such as Pythia.
  12 0.000000 # ve : 0.0 
  14 0.000000 # vm : 0.0 
  16 0.000000 # vt : 0.0 
  21 0.000000 # g : 0.0 
  22 0.000000 # a : 0.0 
  24 79.824360 # w+ : cmath.sqrt(MZ__exp__2/2. + cmath.sqrt(MZ__exp__4/4. - (aEW*cmath.pi*MZ__exp__2)/(Gf*sqrt__2))) 

###################################
## INFORMATION FOR SMINPUTS
###################################
Block sminputs 
    1 1.279000e+02 # aEWM1 
    2 1.166370e-05 # Gf 
    3 1.184000e-01 # aS 

###################################
## INFORMATION FOR YUKAWA
###################################
Block yukawa 
    1 5.040000e-03 # ymdo 
    2 2.550000e-03 # ymup 
    3 1.010000e-01 # yms 
    4 1.270000e+00 # ymc 
    5 4.700000e+00 # ymb 
    6 1.720000e+02 # ymt 
   11 5.110000e-04 # yme 
   13 1.056600e-01 # ymm 
   15 1.777000e+00 # ymtau 

###################################
## INFORMATION FOR DECAY
###################################
DECAY   6 1.508336e+00 # WT 
DECAY  23 2.495200e+00 # WZ 
DECAY  24 2.085000e+00 # WW 
DECAY  25 5.753088e-03 # WH 
## Dependent parameters, given by model restrictions.
## Those values should be edited following the 
## analytical expression. MG5 ignores those values 
## but they are important for interfacing the output of MG5
## to external program such as Pythia.
DECAY  1 0.000000 # d : 0.0 
DECAY  2 0.000000 # u : 0.0 
DECAY  3 0.000000 # s : 0.0 
DECAY  4 0.000000 # c : 0.0 
DECAY  5 0.000000 # b : 0.0 
DECAY  11 0.000000 # e- : 0.0 
DECAY  12 0.000000 # ve : 0.0 
DECAY  13 0.000000 # mu- : 0.0 
DECAY  14 0.000000 # vm : 0.0 
DECAY  15 0.000000 # ta- : 0.0 
DECAY  16 0.000000 # vt : 0.0 
DECAY  21 0.000000 # g : 0.0 
DECAY  22 0.000000 # a : 0.0 
DECAY  10030 0.308725 # zph : (gz__exp__2*MZph*(5 + cmath.sqrt(1 - (4*MT__exp__2)/MZph__exp__2)))/(144.*cmath.pi) 
DECAY  10031 0.132629 # zpl : (5*gz__exp__2*MZpl)/(144.*cmath.pi) 
#===========================================================
# QUANTUM NUMBERS OF NEW STATE(S) (NON SM PDG CODE)
#===========================================================

Block QNUMBERS 10030  # zph 
        1 0  # 3 times electric charge
        2 3  # number of spin states (2S+1)
        3 1  # colour rep (1: singlet, 3: triplet, 8: octet)
        4 0  # Particle/Antiparticle distinction (0=own anti)
Block QNUMBERS 10031  # zpl 
        1 0  # 3 times electric charge
        2 3  # number of spin states (2S+1)
        3 1  # colour rep (1: singlet, 3: triplet, 8: octet)
        4 0  # Particle/Antiparticle distinction (0=own anti)
</slha>
## END BANNER##
<MGGenerationInfo>
#  Number of Events        :         3901
#  Integrated weight (pb)  :  0.74129E-01
#  Max wgt                 :  0.26518E-04
#  Average wgt             :  0.19003E-04
</MGGenerationInfo>
</header>
<init>
     2212     2212  0.40000000000E+04  0.40000000000E+04 0 0  247000  247000 2   1
  0.74162750585E-01  0.14389548512E-03  0.26518280000E-04   0
</init>
<event>
 5   0  0.2595012E-04  0.1932867E+04  0.7818609E-02  0.8638667E-01
       -2   -1    0    0    0  501  0.00000000000E+00  0.00000000000E+00  0.94231464625E+03  0.94231464625E+03  0.25500000920E-02 0. -1.
        2   -1    0    0  501    0  0.00000000000E+00  0.00000000000E+00 -0.99117010168E+03  0.99117010168E+03  0.25500000920E-02 0.  1.
    10030    2    1    2    0    0  0.00000000000E+00  0.00000000000E+00 -0.48855455430E+02  0.19334847479E+04  0.19328674075E+04 0.  0.
        1    1    3    3  502    0  0.65406840436E+03 -0.71137686801E+03 -0.35902127611E+02  0.96703231007E+03  0.50400001928E-02 0.  1.
       -1    1    3    3    0  502 -0.65406840436E+03  0.71137686801E+03 -0.12953327818E+02  0.96645243786E+03  0.50400001928E-02 0. -1.
</event>
<event>
 5   0  0.2595012E-04  0.1907039E+04  0.7818609E-02  0.8651360E-01
        2   -1    0    0  501    0  0.00000000000E+00  0.00000000000E+00  0.14068941112E+04  0.14068941112E+04  0.25500000920E-02 0. -1.
       -2   -1    0    0    0  501  0.00000000000E+00  0.00000000000E+00 -0.64624608819E+03  0.64624608820E+03  0.25500000920E-02 0.  1.
    10030    2    1    2    0    0  0.00000000000E+00  0.00000000000E+00  0.76064802298E+03  0.20531401994E+04  0.19070393974E+04 0.  0.
        1    1    3    3  502    0 -0.82510930567E+03  0.32517630642E+03  0.75737601217E+03  0.11662604428E+04  0.50400001928E-02 0. -1.
       -1    1    3    3    0  502  0.82510930567E+03 -0.32517630642E+03  0.32720108122E+01  0.88687975659E+03  0.50400001928E-02 0.  1.
</event>
<event>
 5   0  0.2651828E-04  0.1888492E+04  0.7818609E-02  0.8660606E-01
       -2   -1    0    0    0  501  0.00000000000E+00  0.00000000000E+00  0.50790115982E+03  0.50790115982E+03  0.25500000920E-02 0. -1.
        2   -1    0    0  501    0  0.00000000000E+00  0.00000000000E+00 -0.17554597734E+04  0.17554597734E+04  0.25500000920E-02 0.  1.
    10030    2    1    2    0    0  0.00000000000E+00  0.00000000000E+00 -0.12475586136E+04  0.22633609332E+04  0.18884915196E+04 0.  0.
        3    1    3    3  502    0  0.68488721958E+03  0.60764689733E+03 -0.34709715056E+03  0.97917398735E+03  0.10100000352E+00 0.  1.
       -3    1    3    3    0  502 -0.68488721958E+03 -0.60764689733E+03 -0.90046146305E+03  0.12841869459E+04  0.10100000352E+00 0. -1.
</event>
<event>
 5   0  0.2595012E-04  0.1910076E+04  0.7818609E-02  0.8649857E-01
        2   -1    0    0  501    0  0.00000000000E+00  0.00000000000E+00  0.17622156840E+04  0.17622156840E+04  0.25500000920E-02 0. -1.
       -2   -1    0    0    0  501  0.00000000000E+00  0.00000000000E+00 -0.51758560462E+03  0.51758560463E+03  0.25500000920E-02 0.  1.
    10030    2    1    2    0    0  0.00000000000E+00  0.00000000000E+00  0.12446300793E+04  0.22798012886E+04  0.19100758836E+04 0.  0.
        1    1    3    3  502    0  0.11948689048E+03  0.69327800822E+02 -0.50559771956E+03  0.52413024623E+03  0.50400001928E-02 0.  1.
       -1    1    3    3    0  502 -0.11948689048E+03 -0.69327800822E+02  0.17502277989E+04  0.17556710424E+04  0.50400001928E-02 0. -1.
</event>
<event>
 5   0  0.2651828E-04  0.1938693E+04  0.7818609E-02  0.8635832E-01
        2   -1    0    0  501    0  0.00000000000E+00  0.00000000000E+00  0.19507506740E+04  0.19507506740E+04  0.25500000920E-02 0.  1.
       -2   -1    0    0    0  501  0.00000000000E+00  0.00000000000E+00 -0.48167764601E+03  0.48167764601E+03  0.25500000920E-02 0. -1.
    10030    2    1    2    0    0  0.00000000000E+00  0.00000000000E+00  0.14690730280E+04  0.24324283200E+04  0.19386933668E+04 0.  0.
        3    1    3    3  502    0 -0.15739877310E+01  0.69974531387E+03 -0.10711229024E+03  0.70789761593E+03  0.10100000352E+00 0. -1.
       -3    1    3    3    0  502  0.15739877310E+01 -0.69974531387E+03  0.15761853182E+04  0.17245307041E+04  0.10100000352E+00 0.  1.
</event>
<event>
 5   0  0.1317527E-04  0.1900419E+04  0.7818609E-02  0.8654648E-01
        1   -1    0    0  501    0  0.00000000000E+00  0.00000000000E+00  0.94208845455E+03  0.94208845457E+03  0.50400001928E-02 0.  1.
       -1   -1    0    0    0  501  0.00000000000E+00  0.00000000000E+00 -0.95840077897E+03  0.95840077898E+03  0.50400001928E-02 0. -1.
    10030    2    1    2    0    0  0.00000000000E+00  0.00000000000E+00 -0.16312324418E+02  0.19004892336E+04  0.19004192261E+04 0.  0.
        1    1    3    3  502    0 -0.11909648731E+03 -0.35068506388E+02 -0.95025484208E+03  0.95833086058E+03  0.50400001928E-02 0. -1.
       -1    1    3    3    0  502  0.11909648731E+03  0.35068506388E+02  0.93394251766E+03  0.94215837297E+03  0.50400001928E-02 0.  1.
</event>
<event>
 5   0  0.1239615E-04  0.1953193E+04  0.7818609E-02  0.8628823E-01
       -1   -1    0    0    0  501  0.00000000000E+00  0.00000000000E+00  0.79069137446E+03  0.79069137447E+03  0.50400001928E-02 0. -1.
        1   -1    0    0  501    0  0.00000000000E+00  0.00000000000E+00 -0.12062108203E+04  0.12062108203E+04  0.50400001928E-02 0.  1.
    10030    2    1    2    0    0  0.00000000000E+00  0.00000000000E+00 -0.41551944583E+03  0.19969021948E+04  0.19531927620E+04 0.  0.
        3    1    3    3  502    0  0.42853873658E+03 -0.50628201282E+03  0.52506069587E+03  0.84596434310E+03  0.10100000352E+00 0. -1.
       -3    1    3    3    0  502 -0.42853873658E+03  0.50628201282E+03 -0.94058014169E+03  0.11509378517E+04  0.10100000352E+00 0.  1.
</event>
<event>
 5   0  0.2595012E-04  0.1894893E+04  0.7818609E-02  0.8657403E-01
        2   -1    0    0  501    0  0.00000000000E+00  0.00000000000E+00  0.85078609999E+03  0.85078609999E+03  0.25500000920E-02 0. -1.
       -2   -1    0    0    0  501  0.00000000000E+00  0.00000000000E+00 -0.10550886498E+04  0.10550886498E+04  0.25500000920E-02 0.  1.
    10030    2    1    2    0    0  0.00000000000E+00  0.00000000000E+00 -0.20430254978E+03  0.19058747498E+04  0.18948928809E+04 0.  0.
        1    1    3    3  502    0  0.10313886188E+02  0.21871939936E+03 -0.10292908286E+04  0.10523232211E+04  0.50400001928E-02 0.  1.
       -1    1    3    3    0  502 -0.10313886188E+02 -0.21871939936E+03  0.82498827879E+03  0.85355152865E+03  0.50400001928E-02 0. -1.
</event>
<event>
 5   0  0.1255141E-04  0.1899183E+04  0.7818609E-02  0.8655263E-01
        1   -1    0    0  501    0  0.00000000000E+00  0.00000000000E+00  0.17256038060E+04  0.17256038060E+04  0.50400001928E-02 0.  1.
       -1   -1    0    0    0  501  0.00000000000E+00  0.00000000000E+00 -0.52255550407E+03  0.52255550409E+03  0.50400001928E-02 0. -1.
    10030    2    1    2    0    0  0.00000000000E+00  0.00000000000E+00  0.12030483019E+04  0.22481593101E+04  0.18991827365E+04 0.  0.
        2    1    3    3  502    0  0.37760591720E+03 -0.78811917480E+03  0.16177111324E+03  0.88875640953E+03  0.25500000920E-02 0. -1.
       -2    1    3    3    0  502 -0.37760591720E+03  0.78811917480E+03  0.10412771887E+04  0.13594029006E+04  0.25500000920E-02 0.  1.
</event>
<event>
 5   0  0.2595012E-04  0.1918651E+04  0.7818609E-02  0.8645628E-01
        2   -1    0    0  501    0  0.00000000000E+00  0.00000000000E+00  0.15811606976E+04  0.15811606976E+04  0.25500000920E-02 0.  1.
       -2   -1    0    0    0  501  0.00000000000E+00  0.00000000000E+00 -0.58204448442E+03  0.58204448443E+03  0.25500000920E-02 0. -1.
    10030    2    1    2    0    0  0.00000000000E+00  0.00000000000E+00  0.99911621317E+03  0.21632051820E+04  0.19186514671E+04 0.  0.
        1    1    3    3  502    0 -0.44208914263E+03 -0.55013722995E+03  0.12321581711E+04  0.14199674435E+04  0.50400001928E-02 0.  1.
       -1    1    3    3    0  502  0.44208914263E+03  0.55013722995E+03 -0.23304195796E+03  0.74323773855E+03  0.50400001928E-02 0. -1.
</event>
<event>
 5   0  0.9266125E-05  0.1896056E+04  0.7818609E-02  0.8656822E-01
        4   -1    0    0  501    0  0.00000000000E+00  0.00000000000E+00  0.90615402580E+03  0.90615491577E+03  0.12699999809E+01 0.  1.
       -4   -1    0    0    0  501  0.00000000000E+00  0.00000000000E+00 -0.99183512643E+03  0.99183593952E+03  0.12699999809E+01 0. -1.
    10030    2    1    2    0    0  0.00000000000E+00  0.00000000000E+00 -0.85681100631E+02  0.18979908553E+04  0.18960559158E+04 0.  0.
        5    1    3    3  502    0  0.28483241211E+02  0.34946435816E+03 -0.92453352996E+03  0.98879774003E+03  0.46999998093E+01 0. -1.
       -5    1    3    3    0  502 -0.28483241211E+02 -0.34946435816E+03  0.83885242933E+03  0.90919311527E+03  0.46999998093E+01 0.  1.
</event>
<event>
 5   0  0.2541124E-04  0.1884119E+04  0.7818609E-02  0.8662802E-01
        2   -1    0    0  501    0  0.00000000000E+00  0.00000000000E+00  0.12585570007E+04  0.12585570007E+04  0.25500000920E-02 0. -1.
       -2   -1    0    0    0  501  0.00000000000E+00  0.00000000000E+00 -0.70515390395E+03  0.70515390396E+03  0.25500000920E-02 0.  1.
    10030    2    1    2    0    0  0.00000000000E+00  0.00000000000E+00  0.55340309671E+03  0.19637109046E+04  0.18841192981E+04 0.  0.
        5    1    3    3  502    0 -0.53318956639E+03  0.53980343078E+03 -0.30525438540E+03  0.81785156807E+03  0.46999998093E+01 0.  1.
       -5    1    3    3    0  502  0.53318956639E+03 -0.53980343078E+03  0.85865748211E+03  0.11458593366E+04  0.46999998093E+01 0. -1.
</event>
<event>
 5   0  0.1324058E-04  0.1878765E+04  0.7818609E-02  0.8665499E-01
        1   -1    0    0  501    0  0.00000000000E+00  0.00000000000E+00  0.10797558021E+04  0.10797558021E+04  0.50400001928E-02 0.  1.
       -1   -1    0    0    0  501  0.00000000000E+00  0.00000000000E+00 -0.81725861025E+03  0.81725861027E+03  0.50400001928E-02 0. -1.
    10030    2    1    2    0    0  0.00000000000E+00  0.00000000000E+00  0.26249719185E+03  0.18970144124E+04  0.18787652608E+04 0.  0.
        5    1    3    3  502    0  0.30366778249E+03 -0.77284612487E+03 -0.31223561266E+03  0.88714058787E+03  0.46999998093E+01 0. -1.
       -5    1    3    3    0  502 -0.30366778249E+03  0.77284612487E+03  0.57473280451E+03  0.10098738245E+04  0.46999998093E+01 0.  1.
</event>
<event>
 5   0  0.1317527E-04  0.1887024E+04  0.7818609E-02  0.8661342E-01
        1   -1    0    0  501    0  0.00000000000E+00  0.00000000000E+00  0.11146542971E+04  0.11146542971E+04  0.50400001928E-02 0.  1.
       -1   -1    0    0    0  501  0.00000000000E+00  0.00000000000E+00 -0.79864670631E+03  0.79864670633E+03  0.50400001928E-02 0. -1.
    10030    2    1    2    0    0  0.00000000000E+00  0.00000000000E+00  0.31600759081E+03  0.19133010035E+04  0.18870240943E+04 0.  0.
        1    1    3    3  502    0  0.69269686438E+03 -0.35673436671E+03  0.69750971311E+03  0.10457572157E+04  0.50400001928E-02 0.  1.
       -1    1    3    3    0  502 -0.69269686438E+03  0.35673436671E+03 -0.38150212230E+03  0.86754378775E+03  0.50400001928E-02 0. -1.
</event>
<event>
 5   0  0.1239615E-04  0.1811618E+04  0.7818609E-02  0.8700145E-01
        1   -1    0    0  501    0  0.00000000000E+00  0.00000000000E+00  0.92154704716E+03  0.92154704717E+03  0.50400001928E-02 0.  1.
       -1   -1    0    0    0  501  0.00000000000E+00  0.00000000000E+00 -0.89033992189E+03  0.89033992190E+03  0.50400001928E-02 0. -1.
    10030    2    1    2    0    0  0.00000000000E+00  0.00000000000E+00  0.31207125267E+02  0.18118869691E+04  0.18116182004E+04 0.  0.
        3    1    3    3  502    0  0.62115884780E+03  0.45882548062E+03  0.48909853439E+03  0.91409874872E+03  0.10100000352E+00 0.  1.
       -3    1    3    3    0  502 -0.62115884780E+03 -0.45882548062E+03 -0.45789140912E+03  0.89778822036E+03  0.10100000352E+00 0. -1.
</event>
<event>
 5   0  0.1239615E-04  0.1890653E+04  0.7818609E-02  0.8659523E-01
        1   -1    0    0  501    0  0.00000000000E+00  0.00000000000E+00  0.76350139799E+03  0.76350139801E+03  0.50400001928E-02 0. -1.
       -1   -1    0    0    0  501  0.00000000000E+00  0.00000000000E+00 -0.11704523615E+04  0.11704523615E+04  0.50400001928E-02 0.  1.
    10030    2    1    2    0    0  0.00000000000E+00  0.00000000000E+00 -0.40695096352E+03  0.19339537595E+04  0.18906528125E+04 0.  0.
        3    1    3    3  502    0 -0.72441884352E+03  0.59127454567E+03 -0.61539658661E+02  0.93711012639E+03  0.10100000352E+00 0. -1.
       -3    1    3    3    0  502  0.72441884352E+03 -0.59127454567E+03 -0.34541130486E+03  0.99684363313E+03  0.10100000352E+00 0.  1.
</event>
<event>
 5   0  0.2595012E-04  0.1964882E+04  0.7818609E-02  0.8623218E-01
        2   -1    0    0  501    0  0.00000000000E+00  0.00000000000E+00  0.68538320777E+03  0.68538320778E+03  0.25500000920E-02 0.  1.
       -2   -1    0    0    0  501  0.00000000000E+00  0.00000000000E+00 -0.14082496699E+04  0.14082496699E+04  0.25500000920E-02 0. -1.
    10030    2    1    2    0    0  0.00000000000E+00  0.00000000000E+00 -0.72286646214E+03  0.20936328777E+04  0.19648823640E+04 0.  0.
        1    1    3    3  502    0 -0.65832954209E+03 -0.63587448094E+03 -0.74183719015E+03  0.11781581211E+04  0.50400001928E-02 0. -1.
       -1    1    3    3    0  502  0.65832954209E+03  0.63587448094E+03  0.18970728005E+02  0.91547475664E+03  0.50400001928E-02 0.  1.
</event>
<event>
 5   0  0.1277709E-04  0.1913192E+04  0.7818609E-02  0.8648318E-01
        1   -1    0    0  501    0  0.00000000000E+00  0.00000000000E+00  0.20644988343E+04  0.20644988343E+04  0.50400001928E-02 0. -1.
       -1   -1    0    0    0  501  0.00000000000E+00  0.00000000000E+00 -0.44324361025E+03  0.44324361027E+03  0.50400001928E-02 0.  1.
    10030    2    1    2    0    0  0.00000000000E+00  0.00000000000E+00  0.16212552241E+04  0.25077424446E+04  0.19131920099E+04 0.  0.
        4    1    3    3  502    0 -0.68376180937E+03  0.26245875328E+03  0.16172101168E+04  0.17753267259E+04  0.12699999809E+01 0. -1.
       -4    1    3    3    0  502  0.68376180937E+03 -0.26245875328E+03  0.40451072834E+01  0.73241571865E+03  0.12699999809E+01 0.  1.
</event>
<event>
 5   0  0.1317527E-04  0.1815690E+04  0.7818609E-02  0.8698000E-01
       -1   -1    0    0    0  501  0.00000000000E+00  0.00000000000E+00  0.63595620982E+03  0.63595620984E+03  0.50400001928E-02 0. -1.
        1   -1    0    0  501    0  0.00000000000E+00  0.00000000000E+00 -0.12959731273E+04  0.12959731273E+04  0.50400001928E-02 0.  1.
    10030    2    1    2    0    0  0.00000000000E+00  0.00000000000E+00 -0.66001691743E+03  0.19319293371E+04  0.18156895749E+04 0.  0.
        1    1    3    3  502    0 -0.26946409101E+03 -0.47724810474E+03 -0.11000863729E+04  0.12290511290E+04  0.50400001928E-02 0.  1.
       -1    1    3    3    0  502  0.26946409101E+03  0.47724810474E+03  0.44006945545E+03  0.70287820813E+03  0.50400001928E-02 0. -1.
</event>
<event>
 5   0  0.2608744E-04  0.1762613E+04  0.7818609E-02  0.8726438E-01
        2   -1    0    0  501    0  0.00000000000E+00  0.00000000000E+00  0.11863749464E+04  0.11863749464E+04  0.25500000920E-02 0. -1.
       -2   -1    0    0    0  501  0.00000000000E+00  0.00000000000E+00 -0.65468411719E+03  0.65468411719E+03  0.25500000920E-02 0.  1.
    10030    2    1    2    0    0  0.00000000000E+00  0.00000000000E+00  0.53169082923E+03  0.18410590636E+04  0.17626126454E+04 0.  0.
        2    1    3    3  502    0  0.36634988431E+03 -0.79733811100E+03  0.35160012297E+03  0.94529516421E+03  0.25500000920E-02 0. -1.
       -2    1    3    3    0  502 -0.36634988431E+03  0.79733811100E+03  0.18009070627E+03  0.89576389941E+03  0.25500000920E-02 0.  1.
</event>
<event>
 5   0  0.1239615E-04  0.1919905E+04  0.7818609E-02  0.8645011E-01
        1   -1    0    0  501    0  0.00000000000E+00  0.00000000000E+00  0.14903690313E+04  0.14903690313E+04  0.50400001928E-02 0.  1.
       -1   -1    0    0    0  501  0.00000000000E+00  0.00000000000E+00 -0.61830938549E+03  0.61830938551E+03  0.50400001928E-02 0. -1.
    10030    2    1    2    0    0  0.00000000000E+00  0.00000000000E+00  0.87205964578E+03  0.21086784168E+04  0.19199053726E+04 0.  0.
        3    1    3    3  502    0 -0.10427853753E+02  0.17344200865E+03 -0.60089419866E+03  0.62551156558E+03  0.10100000352E+00 0. -1.
       -3    1    3    3    0  502  0.10427853753E+02 -0.17344200865E+03  0.14729538444E+04  0.14831668512E+04  0.10100000352E+00 0.  1.
</event>
<event>
 5   0  0.2651828E-04  0.1844012E+04  0.7818609E-02  0.8683238E-01
       -2   -1    0    0    0  501  0.00000000000E+00  0.00000000000E+00  0.10783413973E+04  0.10783413973E+04  0.25500000920E-02 0.  1.
        2   -1    0    0  501    0  0.00000000000E+00  0.00000000000E+00 -0.78833553949E+03  0.78833553949E+03  0.25500000920E-02 0. -1.
    10030    2    1    2    0    0  0.00000000000E+00  0.00000000000E+00  0.29000585782E+03  0.18666769368E+04  0.18440117648E+04 0.  0.
        3    1    3    3  502    0  0.38148899598E+01 -0.67294306479E+03  0.78300979808E+03  0.10324588495E+04  0.10100000352E+00 0.  1.
       -3    1    3    3    0  502 -0.38148899598E+01  0.67294306479E+03 -0.49300394027E+03  0.83421808729E+03  0.10100000352E+00 0. -1.
</event>
<event>
 5   0  0.1317527E-04  0.1921471E+04  0.7818609E-02  0.8644242E-01
        1   -1    0    0  501    0  0.00000000000E+00  0.00000000000E+00  0.14211147513E+04  0.14211147513E+04  0.50400001928E-02 0.  1.
       -1   -1    0    0    0  501  0.00000000000E+00  0.00000000000E+00 -0.64949888011E+03  0.64949888013E+03  0.50400001928E-02 0. -1.
    10030    2    1    2    0    0  0.00000000000E+00  0.00000000000E+00  0.77161587122E+03  0.20706136315E+04  0.19214707279E+04 0.  0.
        1    1    3    3  502    0 -0.76535654884E+03 -0.57985357839E+03  0.42008266729E+03  0.10480793227E+04  0.50400001928E-02 0.  1.
       -1    1    3    3    0  502  0.76535654884E+03  0.57985357839E+03  0.35153320393E+03  0.10225343088E+04  0.50400001928E-02 0. -1.
</event>
<event>
 5   0  0.2608744E-04  0.1907721E+04  0.7818609E-02  0.8651023E-01
       -2   -1    0    0    0  501  0.00000000000E+00  0.00000000000E+00  0.58639820222E+03  0.58639820223E+03  0.25500000920E-02 0.  1.
        2   -1    0    0  501    0  0.00000000000E+00  0.00000000000E+00 -0.15515905545E+04  0.15515905546E+04  0.25500000920E-02 0. -1.
    10030    2    1    2    0    0  0.00000000000E+00  0.00000000000E+00 -0.96519235233E+03  0.21379887568E+04  0.19077210611E+04 0.  0.
        2    1    3    3  502    0  0.10573229114E+03  0.43286678049E+03 -0.14277794210E+04  0.14956961730E+04  0.25500000920E-02 0. -1.
       -2    1    3    3    0  502 -0.10573229114E+03 -0.43286678049E+03  0.46258706865E+03  0.64229258374E+03  0.25500000920E-02 0.  1.
</event>
<event>
 5   0  0.1255141E-04  0.1852260E+04  0.7818609E-02  0.8678992E-01
       -1   -1    0    0    0  501  0.00000000000E+00  0.00000000000E+00  0.69502264182E+03  0.69502264184E+03  0.50400001928E-02 0. -1.
        1   -1    0    0  501    0  0.00000000000E+00  0.00000000000E+00 -0.12340844585E+04  0.12340844585E+04  0.50400001928E-02 0.  1.
    10030    2    1    2    0    0  0.00000000000E+00  0.00000000000E+00 -0.53906181669E+03  0.19291071004E+04  0.18522598528E+04 0.  0.
        2    1    3    3  502    0  0.59642843999E+03 -0.39798860770E+03 -0.88001975329E+03  0.11351460620E+04  0.25500000920E-02 0.  1.
       -2    1    3    3    0  502 -0.59642843999E+03  0.39798860770E+03  0.34095793660E+03  0.79396103835E+03  0.25500000920E-02 0. -1.
</event>
<event>
 5   0  0.2651828E-04  0.1899493E+04  0.7818609E-02  0.8655109E-01
        2   -1    0    0  501    0  0.00000000000E+00  0.00000000000E+00  0.14797664842E+04  0.14797664842E+04  0.25500000920E-02 0. -1.
       -2   -1    0    0    0  501  0.00000000000E+00  0.00000000000E+00 -0.60956782026E+03  0.60956782026E+03  0.25500000920E-02 0.  1.
    10030    2    1    2    0    0  0.00000000000E+00  0.00000000000E+00  0.87019866398E+03  0.20893343045E+04  0.18994925957E+04 0.  0.
        3    1    3    3  502    0  0.55293908379E+03 -0.35081429227E+03  0.11917498325E+04  0.13598087996E+04  0.10100000352E+00 0. -1.
       -3    1    3    3    0  502 -0.55293908379E+03  0.35081429227E+03 -0.32155116855E+03  0.72952550486E+03  0.10100000352E+00 0.  1.
</event>
<event>
 5   0  0.2541124E-04  0.1638924E+04  0.7818609E-02  0.8796986E-01
        2   -1    0    0  501    0  0.00000000000E+00  0.00000000000E+00  0.67763573738E+03  0.67763573739E+03  0.25500000920E-02 0.  1.
       -2   -1    0    0    0  501  0.00000000000E+00  0.00000000000E+00 -0.99097232262E+03  0.99097232262E+03  0.25500000920E-02 0. -1.
    10030    2    1    2    0    0  0.00000000000E+00  0.00000000000E+00 -0.31333658524E+03  0.16686080600E+04  0.16389243553E+04 0.  0.
        5    1    3    3  502    0  0.14947248015E+03  0.16875667625E+02  0.66344539722E+03  0.68030044508E+03  0.46999998093E+01 0.  1.
       -5    1    3    3    0  502 -0.14947248015E+03 -0.16875667625E+02 -0.97678198246E+03  0.98830761493E+03  0.46999998093E+01 0. -1.
</event>
<event>
 5   0  0.1255141E-04  0.1858782E+04  0.7818609E-02  0.8675650E-01
       -1   -1    0    0    0  501  0.00000000000E+00  0.00000000000E+00  0.98897138147E+03  0.98897138148E+03  0.50400001928E-02 0. -1.
        1   -1    0    0  501    0  0.00000000000E+00  0.00000000000E+00 -0.87339980180E+03  0.87339980182E+03  0.50400001928E-02 0.  1.
    10030    2    1    2    0    0  0.00000000000E+00  0.00000000000E+00  0.11557157967E+03  0.18623711833E+04  0.18587817608E+04 0.  0.
        2    1    3    3  502    0 -0.67217483944E+03  0.63011486734E+03  0.18010203190E+03  0.93877606633E+03  0.25500000920E-02 0.  1.
       -2    1    3    3    0  502  0.67217483944E+03 -0.63011486734E+03 -0.64530452232E+02  0.92359511697E+03  0.25500000920E-02 0. -1.
</event>
<event>
 5   0  0.2651828E-04  0.1905443E+04  0.7818609E-02  0.8652152E-01
       -2   -1    0    0    0  501  0.00000000000E+00  0.00000000000E+00  0.55911228299E+03  0.55911228299E+03  0.25500000920E-02 0.  1.
        2   -1    0    0  501    0  0.00000000000E+00  0.00000000000E+00 -0.16234266534E+04  0.16234266534E+04  0.25500000920E-02 0. -1.
    10030    2    1    2    0    0  0.00000000000E+00  0.00000000000E+00 -0.10643143704E+04  0.21825389364E+04  0.19054425024E+04 0.  0.
        3    1    3    3  502    0  0.34921075891E+02  0.41333852746E+03  0.45024615879E+03  0.61220081145E+03  0.10100000352E+00 0.  1.
       -3    1    3    3    0  502 -0.34921075891E+02 -0.41333852746E+03 -0.15145605292E+04  0.15703381249E+04  0.10100000352E+00 0. -1.
</event>
<event>
 5   0  0.2595012E-04  0.1913992E+04  0.7818609E-02  0.8647923E-01
       -2   -1    0    0    0  501  0.00000000000E+00  0.00000000000E+00  0.96944733652E+03  0.96944733653E+03  0.25500000920E-02 0.  1.
        2   -1    0    0  501    0  0.00000000000E+00  0.00000000000E+00 -0.94470497020E+03  0.94470497020E+03  0.25500000920E-02 0. -1.
    10030    2    1    2    0    0  0.00000000000E+00  0.00000000000E+00  0.24742366329E+02  0.19141523067E+04  0.19139923899E+04 0.  0.
        1    1    3    3  502    0  0.62264099247E+03 -0.54125952455E+03  0.49738390736E+03  0.96334543635E+03  0.50400001928E-02 0.  1.
       -1    1    3    3    0  502 -0.62264099247E+03  0.54125952455E+03 -0.47264154103E+03  0.95080687037E+03  0.50400001928E-02 0. -1.
</event>
<event>
 5   0  0.1324058E-04  0.1379637E+04  0.7818609E-02  0.8968691E-01
        1   -1    0    0  501    0  0.00000000000E+00  0.00000000000E+00  0.79505735186E+03  0.79505735188E+03  0.50400001928E-02 0.  1.
       -1   -1    0    0    0  501  0.00000000000E+00  0.00000000000E+00 -0.59850992588E+03  0.59850992590E+03  0.50400001928E-02 0. -1.
    10030    2    1    2    0    0  0.00000000000E+00  0.00000000000E+00  0.19654742599E+03  0.13935672778E+04  0.13796372230E+04 0.  0.
        5    1    3    3  502    0 -0.62426653257E+03 -0.29134125553E+03  0.13383136042E+03  0.70179865624E+03  0.46999998093E+01 0.  1.
       -5    1    3    3    0  502  0.62426653257E+03  0.29134125553E+03  0.62716065568E+02  0.69176862154E+03  0.46999998093E+01 0. -1.
</event>
<event>
 5   0  0.2651828E-04  0.1890187E+04  0.7818609E-02  0.8659756E-01
       -2   -1    0    0    0  501  0.00000000000E+00  0.00000000000E+00  0.10051272258E+04  0.10051272258E+04  0.25500000920E-02 0. -1.
        2   -1    0    0  501    0  0.00000000000E+00  0.00000000000E+00 -0.88864536516E+03  0.88864536516E+03  0.25500000920E-02 0.  1.
    10030    2    1    2    0    0  0.00000000000E+00  0.00000000000E+00  0.11648186061E+03  0.18937725909E+04  0.18901869226E+04 0.  0.
        3    1    3    3  502    0 -0.12825122375E+03 -0.50374862204E+03 -0.73255388963E+03  0.89824621459E+03  0.10100000352E+00 0.  1.
       -3    1    3    3    0  502  0.12825122375E+03  0.50374862204E+03  0.84903575024E+03  0.99552637634E+03  0.10100000352E+00 0. -1.
</event>
<event>
 5   0  0.1277709E-04  0.1829898E+04  0.7818609E-02  0.8690559E-01
       -1   -1    0    0    0  501  0.00000000000E+00  0.00000000000E+00  0.62025967938E+03  0.62025967940E+03  0.50400001928E-02 0. -1.
        1   -1    0    0  501    0  0.00000000000E+00  0.00000000000E+00 -0.13496478251E+04  0.13496478251E+04  0.50400001928E-02 0.  1.
    10030    2    1    2    0    0  0.00000000000E+00  0.00000000000E+00 -0.72938814568E+03  0.19699075045E+04  0.18298984969E+04 0.  0.
        4    1    3    3  502    0 -0.45992643129E+03  0.12300963211E+03  0.47641025435E+03  0.67352211184E+03  0.12699999809E+01 0. -1.
       -4    1    3    3    0  502  0.45992643129E+03 -0.12300963211E+03 -0.12057984000E+04  0.12963853926E+04  0.12699999809E+01 0.  1.
</event>
<event>
 5   0  0.1317527E-04  0.1888178E+04  0.7818609E-02  0.8660763E-01
        1   -1    0    0  501    0  0.00000000000E+00  0.00000000000E+00  0.64021163958E+03  0.64021163960E+03  0.50400001928E-02 0.  1.
       -1   -1    0    0    0  501  0.00000000000E+00  0.00000000000E+00 -0.13922025052E+04  0.13922025052E+04  0.50400001928E-02 0. -1.
    10030    2    1    2    0    0  0.00000000000E+00  0.00000000000E+00 -0.75199086562E+03  0.20324141448E+04  0.18881782209E+04 0.  0.
        1    1    3    3  502    0 -0.11926401885E+03  0.55652720681E+03 -0.11867655693E+04  0.13161910783E+04  0.50400001928E-02 0. -1.
       -1    1    3    3    0  502  0.11926401885E+03 -0.55652720681E+03  0.43477470364E+03  0.71622306655E+03  0.50400001928E-02 0.  1.
</event>
<event>
 5   0  0.1239615E-04  0.1899195E+04  0.7818609E-02  0.8655257E-01
        1   -1    0    0  501    0  0.00000000000E+00  0.00000000000E+00  0.14563629009E+04  0.14563629009E+04  0.50400001928E-02 0.  1.
       -1   -1    0    0    0  501  0.00000000000E+00  0.00000000000E+00 -0.61916934727E+03  0.61916934729E+03  0.50400001928E-02 0. -1.
    10030    2    1    2    0    0  0.00000000000E+00  0.00000000000E+00  0.83719355362E+03  0.20755322482E+04  0.18991948470E+04 0.  0.
        3    1    3    3  502    0 -0.24078712936E+03 -0.76925173925E+03  0.96721170756E+03  0.12590572574E+04  0.10100000352E+00 0.  1.
       -3    1    3    3    0  502  0.24078712936E+03  0.76925173925E+03 -0.13001815394E+03  0.81647499077E+03  0.10100000352E+00 0. -1.
</event>
<event>
 5   0  0.2562925E-04  0.1898927E+04  0.7818609E-02  0.8655390E-01
        2   -1    0    0  501    0  0.00000000000E+00  0.00000000000E+00  0.15976628287E+04  0.15976628287E+04  0.25500000920E-02 0.  1.
       -2   -1    0    0    0  501  0.00000000000E+00  0.00000000000E+00 -0.56425004400E+03  0.56425004400E+03  0.25500000920E-02 0. -1.
    10030    2    1    2    0    0  0.00000000000E+00  0.00000000000E+00  0.10334127847E+04  0.21619128727E+04  0.18989274040E+04 0.  0.
        4    1    3    3  502    0  0.64769334247E+03 -0.59930716291E+03  0.91567251838E+03  0.12716656460E+04  0.12699999809E+01 0.  1.
       -4    1    3    3    0  502 -0.64769334247E+03  0.59930716291E+03  0.11774026629E+03  0.89024722667E+03  0.12699999809E+01 0. -1.
</event>
<event>
 5   0  0.2562925E-04  0.1908148E+04  0.7818609E-02  0.8650811E-01
        2   -1    0    0  501    0  0.00000000000E+00  0.00000000000E+00  0.88710913857E+03  0.88710913857E+03  0.25500000920E-02 0. -1.
       -2   -1    0    0    0  501  0.00000000000E+00  0.00000000000E+00 -0.10260934816E+04  0.10260934816E+04  0.25500000920E-02 0.  1.
    10030    2    1    2    0    0  0.00000000000E+00  0.00000000000E+00 -0.13898434307E+03  0.19132026202E+04  0.19081476930E+04 0.  0.
        4    1    3    3  502    0  0.31062727825E+02 -0.92369008275E+03  0.16796221712E+03  0.93935146847E+03  0.12699999809E+01 0.  1.
       -4    1    3    3    0  502 -0.31062727825E+02  0.92369008275E+03 -0.30694656020E+03  0.97385115174E+03  0.12699999809E+01 0. -1.
</event>
<event>
 5   0  0.1255141E-04  0.1854328E+04  0.7818609E-02  0.8677930E-01
       -1   -1    0    0    0  501  0.00000000000E+00  0.00000000000E+00  0.40410405734E+03  0.40410405737E+03  0.50400001928E-02 0.  1.
        1   -1    0    0  501    0  0.00000000000E+00  0.00000000000E+00 -0.21272571657E+04  0.21272571657E+04  0.50400001928E-02 0. -1.
    10030    2    1    2    0    0  0.00000000000E+00  0.00000000000E+00 -0.17231531083E+04  0.25313612230E+04  0.18543281821E+04 0.  0.
        2    1    3    3  502    0  0.66730576858E+02  0.48217284777E+03 -0.19387939042E+04  0.19989660898E+04  0.25500000920E-02 0. -1.
       -2    1    3    3    0  502 -0.66730576858E+02 -0.48217284777E+03  0.21564079593E+03  0.53239513324E+03  0.25500000920E-02 0.  1.
</event>
<event>
 5   0  0.1324058E-04  0.1872897E+04  0.7818609E-02  0.8668466E-01
        1   -1    0    0  501    0  0.00000000000E+00  0.00000000000E+00  0.15085199880E+04  0.15085199880E+04  0.50400001928E-02 0.  1.
       -1   -1    0    0    0  501  0.00000000000E+00  0.00000000000E+00 -0.58132181013E+03  0.58132181015E+03  0.50400001928E-02 0. -1.
    10030    2    1    2    0    0  0.00000000000E+00  0.00000000000E+00  0.92719817786E+03  0.20898417981E+04  0.18728967618E+04 0.  0.
        5    1    3    3  502    0 -0.49575011389E+03 -0.73296754609E+03  0.80553234612E+03  0.11966261111E+04  0.46999998093E+01 0. -1.
       -5    1    3    3    0  502  0.49575011389E+03  0.73296754609E+03  0.12166583174E+03  0.89321568708E+03  0.46999998093E+01 0.  1.
</event>
<event>
 5   0  0.1324058E-04  0.1880537E+04  0.7818609E-02  0.8664605E-01
        1   -1    0    0  501    0  0.00000000000E+00  0.00000000000E+00  0.14365833514E+04  0.14365833514E+04  0.50400001928E-02 0. -1.
       -1   -1    0    0    0  501  0.00000000000E+00  0.00000000000E+00 -0.61542195519E+03  0.61542195521E+03  0.50400001928E-02 0.  1.
    10030    2    1    2    0    0  0.00000000000E+00  0.00000000000E+00  0.82116139620E+03  0.20520053066E+04  0.18805370881E+04 0.  0.
        5    1    3    3  502    0 -0.34473406815E+02  0.45256960614E+03 -0.48795534089E+03  0.66643091831E+03  0.46999998093E+01 0.  1.
       -5    1    3    3    0  502  0.34473406815E+02 -0.45256960614E+03  0.13091167371E+04  0.13855743883E+04  0.46999998093E+01 0. -1.
</event>
<event>
 5   0  0.2608744E-04  0.1891004E+04  0.7818609E-02  0.8659347E-01
        2   -1    0    0  501    0  0.00000000000E+00  0.00000000000E+00  0.11787900541E+04  0.11787900541E+04  0.25500000920E-02 0. -1.
       -2   -1    0    0    0  501  0.00000000000E+00  0.00000000000E+00 -0.75838244374E+03  0.75838244374E+03  0.25500000920E-02 0.  1.
    10030    2    1    2    0    0  0.00000000000E+00  0.00000000000E+00  0.42040761034E+03  0.19371724978E+04  0.18910036297E+04 0.  0.
        2    1    3    3  502    0 -0.79930359262E+01 -0.89330154277E+03  0.52747845800E+03  0.10374415929E+04  0.25500000920E-02 0. -1.
       -2    1    3    3    0  502  0.79930359262E+01  0.89330154277E+03 -0.10707084765E+03  0.89973090497E+03  0.25500000920E-02 0.  1.
</event>
<event>
 5   0  0.2651828E-04  0.1885665E+04  0.7818609E-02  0.8662025E-01
       -2   -1    0    0    0  501  0.00000000000E+00  0.00000000000E+00  0.77845218258E+03  0.77845218259E+03  0.25500000920E-02 0. -1.
        2   -1    0    0  501    0  0.00000000000E+00  0.00000000000E+00 -0.11419242964E+04  0.11419242964E+04  0.25500000920E-02 0.  1.
    10030    2    1    2    0    0  0.00000000000E+00  0.00000000000E+00 -0.36347211381E+03  0.19203764790E+04  0.18856653583E+04 0.  0.
        3    1    3    3  502    0 -0.55845697994E+03 -0.54552916249E+03  0.35663213828E+03  0.85829060220E+03  0.10100000352E+00 0. -1.
       -3    1    3    3    0  502  0.55845697994E+03  0.54552916249E+03 -0.72010425209E+03  0.10620858768E+04  0.10100000352E+00 0.  1.
</event>
<event>
 5   0  0.2595012E-04  0.1934206E+04  0.7818609E-02  0.8638015E-01
        2   -1    0    0  501    0  0.00000000000E+00  0.00000000000E+00  0.11335255113E+04  0.11335255113E+04  0.25500000920E-02 0.  1.
       -2   -1    0    0    0  501  0.00000000000E+00  0.00000000000E+00 -0.82511420552E+03  0.82511420553E+03  0.25500000920E-02 0. -1.
    10030    2    1    2    0    0  0.00000000000E+00  0.00000000000E+00  0.30841130579E+03  0.19586397168E+04  0.19342057819E+04 0.  0.
        1    1    3    3  502    0  0.52516723885E+03 -0.79806337926E+03  0.30637779509E+03  0.10032811866E+04  0.50400001928E-02 0. -1.
       -1    1    3    3    0  502 -0.52516723885E+03  0.79806337926E+03  0.20335106976E+01  0.95535853022E+03  0.50400001928E-02 0.  1.
</event>
<event>
 5   0  0.2608744E-04  0.1883869E+04  0.7818609E-02  0.8662928E-01
       -2   -1    0    0    0  501  0.00000000000E+00  0.00000000000E+00  0.31939285993E+03  0.31939285994E+03  0.25500000920E-02 0.  1.
        2   -1    0    0  501    0  0.00000000000E+00  0.00000000000E+00 -0.27778970070E+04  0.27778970070E+04  0.25500000920E-02 0. -1.
    10030    2    1    2    0    0  0.00000000000E+00  0.00000000000E+00 -0.24585041471E+04  0.30972898670E+04  0.18838688592E+04 0.  0.
        2    1    3    3  502    0  0.77069853505E+03  0.31652079888E+03 -0.50681752913E+03  0.97520544291E+03  0.25500000920E-02 0.  1.
       -2    1    3    3    0  502 -0.77069853505E+03 -0.31652079888E+03 -0.19516866180E+04  0.21220844241E+04  0.25500000920E-02 0. -1.
</event>
<event>
 5   0  0.2651828E-04  0.1889089E+04  0.7818609E-02  0.8660307E-01
       -2   -1    0    0    0  501  0.00000000000E+00  0.00000000000E+00  0.46468526469E+03  0.46468526469E+03  0.25500000920E-02 0.  1.
        2   -1    0    0  501    0  0.00000000000E+00  0.00000000000E+00 -0.19199328782E+04  0.19199328782E+04  0.25500000920E-02 0. -1.
    10030    2    1    2    0    0  0.00000000000E+00  0.00000000000E+00 -0.14552476135E+04  0.23846181429E+04  0.18890892173E+04 0.  0.
        3    1    3    3  502    0 -0.24246889177E+03  0.50732726470E+03 -0.16856441863E+04  0.17769548250E+04  0.10100000352E+00 0. -1.
       -3    1    3    3    0  502  0.24246889177E+03 -0.50732726470E+03  0.23039657279E+03  0.60766331792E+03  0.10100000352E+00 0.  1.
</event>
<event>
 5   0  0.1324058E-04  0.1751603E+04  0.7818609E-02  0.8732468E-01
        1   -1    0    0  501    0  0.00000000000E+00  0.00000000000E+00  0.79288809401E+03  0.79288809402E+03  0.50400001928E-02 0. -1.
       -1   -1    0    0    0  501  0.00000000000E+00  0.00000000000E+00 -0.96738534525E+03  0.96738534526E+03  0.50400001928E-02 0.  1.
    10030    2    1    2    0    0  0.00000000000E+00  0.00000000000E+00 -0.17449725124E+03  0.17602734393E+04  0.17516030630E+04 0.  0.
        5    1    3    3  502    0 -0.42718295291E+03 -0.66013738664E+03  0.30032813382E+03  0.84171593929E+03  0.46999998093E+01 0. -1.
       -5    1    3    3    0  502  0.42718295291E+03  0.66013738664E+03 -0.47482538506E+03  0.91855749999E+03  0.46999998093E+01 0.  1.
</event>
<event>
 5   0  0.2541124E-04  0.1910746E+04  0.7818609E-02  0.8649526E-01
        2   -1    0    0  501    0  0.00000000000E+00  0.00000000000E+00  0.85224981653E+03  0.85224981653E+03  0.25500000920E-02 0. -1.
       -2   -1    0    0    0  501  0.00000000000E+00  0.00000000000E+00 -0.10709737504E+04  0.10709737504E+04  0.25500000920E-02 0.  1.
    10030    2    1    2    0    0  0.00000000000E+00  0.00000000000E+00 -0.21872393386E+03  0.19232235669E+04  0.19107455951E+04 0.  0.
        5    1    3    3  502    0 -0.83480266736E+03 -0.42433858605E+03  0.80966423722E+02  0.93996615940E+03  0.46999998093E+01 0.  1.
       -5    1    3    3    0  502  0.83480266736E+03  0.42433858605E+03 -0.29969035759E+03  0.98325740753E+03  0.46999998093E+01 0. -1.
</event>
<event>
 5   0  0.1324058E-04  0.1808779E+04  0.7818609E-02  0.8701645E-01
        1   -1    0    0  501    0  0.00000000000E+00  0.00000000000E+00  0.12459600226E+04  0.12459600226E+04  0.50400001928E-02 0. -1.
       -1   -1    0    0    0  501  0.00000000000E+00  0.00000000000E+00 -0.65645821669E+03  0.65645821671E+03  0.50400001928E-02 0.  1.
    10030    2    1    2    0    0  0.00000000000E+00  0.00000000000E+00  0.58950180590E+03  0.19024182393E+04  0.18087793614E+04 0.  0.
        5    1    3    3  502    0 -0.14863644621E+03 -0.80598922596E+03 -0.10738703801E+03  0.82659874875E+03  0.46999998093E+01 0. -1.
       -5    1    3    3    0  502  0.14863644621E+03  0.80598922596E+03  0.69688884391E+03  0.10758194906E+04  0.46999998093E+01 0.  1.
</event>
<event>
 5   0  0.1239615E-04  0.1877791E+04  0.7818609E-02  0.8665991E-01
       -1   -1    0    0    0  501  0.00000000000E+00  0.00000000000E+00  0.41400206897E+03  0.41400206900E+03  0.50400001928E-02 0.  1.
        1   -1    0    0  501    0  0.00000000000E+00  0.00000000000E+00 -0.21292762357E+04  0.21292762357E+04  0.50400001928E-02 0. -1.
    10030    2    1    2    0    0  0.00000000000E+00  0.00000000000E+00 -0.17152741667E+04  0.25432783047E+04  0.18777910076E+04 0.  0.
        3    1    3    3  502    0  0.41288181182E+02 -0.41917844994E+03  0.27885580989E+03  0.50514934396E+03  0.10100000352E+00 0.  1.
       -3    1    3    3    0  502 -0.41288181182E+02  0.41917844994E+03 -0.19941299766E+04  0.20381289607E+04  0.10100000352E+00 0. -1.
</event>
<event>
 5   0  0.2651828E-04  0.1841452E+04  0.7818609E-02  0.8684561E-01
        2   -1    0    0  501    0  0.00000000000E+00  0.00000000000E+00  0.12381351787E+04  0.12381351787E+04  0.25500000920E-02 0.  1.
       -2   -1    0    0    0  501  0.00000000000E+00  0.00000000000E+00 -0.68468829846E+03  0.68468829846E+03  0.25500000920E-02 0. -1.
    10030    2    1    2    0    0  0.00000000000E+00  0.00000000000E+00  0.55344688023E+03  0.19228234771E+04  0.18414523277E+04 0.  0.
        3    1    3    3  502    0  0.27987903270E+03 -0.49031984519E+03  0.10361801262E+04  0.11800063930E+04  0.10100000352E+00 0.  1.
       -3    1    3    3    0  502 -0.27987903270E+03  0.49031984519E+03 -0.48273324593E+03  0.74281708412E+03  0.10100000352E+00 0. -1.
</event>
<event>
 5   0  0.1317527E-04  0.1918031E+04  0.7818609E-02  0.8645933E-01
        1   -1    0    0  501    0  0.00000000000E+00  0.00000000000E+00  0.12678469275E+04  0.12678469275E+04  0.50400001928E-02 0. -1.
       -1   -1    0    0    0  501  0.00000000000E+00  0.00000000000E+00 -0.72541177577E+03  0.72541177578E+03  0.50400001928E-02 0.  1.
    10030    2    1    2    0    0  0.00000000000E+00  0.00000000000E+00  0.54243515174E+03  0.19932587033E+04  0.19180313773E+04 0.  0.
        1    1    3    3  502    0 -0.73726926095E+03 -0.61168431824E+03  0.31754659351E+03  0.10092370918E+04  0.50400001928E-02 0. -1.
       -1    1    3    3    0  502  0.73726926095E+03  0.61168431824E+03  0.22488855823E+03  0.98402161154E+03  0.50400001928E-02 0.  1.
</event>
<event>
 5   0  0.1239615E-04  0.1836667E+04  0.7818609E-02  0.8687040E-01
       -1   -1    0    0    0  501  0.00000000000E+00  0.00000000000E+00  0.43181246020E+03  0.43181246023E+03  0.50400001928E-02 0. -1.
        1   -1    0    0  501    0  0.00000000000E+00  0.00000000000E+00 -0.19530155970E+04  0.19530155970E+04  0.50400001928E-02 0.  1.
    10030    2    1    2    0    0  0.00000000000E+00  0.00000000000E+00 -0.15212031368E+04  0.23848280572E+04  0.18366670572E+04 0.  0.
        3    1    3    3  502    0 -0.74817141993E+03  0.19332246471E+03 -0.14048788038E+04  0.16033772209E+04  0.10100000352E+00 0.  1.
       -3    1    3    3    0  502  0.74817141993E+03 -0.19332246471E+03 -0.11632433300E+03  0.78145083633E+03  0.10100000352E+00 0. -1.
</event>
<event>
 5   0  0.1277709E-04  0.1908216E+04  0.7818609E-02  0.8650778E-01
       -1   -1    0    0    0  501  0.00000000000E+00  0.00000000000E+00  0.77426583735E+03  0.77426583736E+03  0.50400001928E-02 0. -1.
        1   -1    0    0  501    0  0.00000000000E+00  0.00000000000E+00 -0.11757226034E+04  0.11757226034E+04  0.50400001928E-02 0.  1.
    10030    2    1    2    0    0  0.00000000000E+00  0.00000000000E+00 -0.40145676604E+03  0.19499884408E+04  0.19082157593E+04 0.  0.
        4    1    3    3  502    0 -0.91903553173E+02 -0.48275962854E+03 -0.10364434778E+04  0.11470483066E+04  0.12699999809E+01 0.  1.
       -4    1    3    3    0  502  0.91903553173E+02  0.48275962854E+03  0.63498671178E+03  0.80294013417E+03  0.12699999809E+01 0. -1.
</event>
<event>
 5   0  0.1324058E-04  0.1885839E+04  0.7818609E-02  0.8661938E-01
       -1   -1    0    0    0  501  0.00000000000E+00  0.00000000000E+00  0.88264103899E+03  0.88264103901E+03  0.50400001928E-02 0.  1.
        1   -1    0    0  501    0  0.00000000000E+00  0.00000000000E+00 -0.10073140750E+04  0.10073140750E+04  0.50400001928E-02 0. -1.
    10030    2    1    2    0    0  0.00000000000E+00  0.00000000000E+00 -0.12467303603E+03  0.18899551140E+04  0.18858385316E+04 0.  0.
        5    1    3    3  502    0 -0.56786984454E+03  0.47466847681E+03 -0.64781063885E+03  0.98359902248E+03  0.46999998093E+01 0. -1.
       -5    1    3    3    0  502  0.56786984454E+03 -0.47466847681E+03  0.52313760283E+03  0.90635609156E+03  0.46999998093E+01 0.  1.
</event>
<event>
 5   0  0.2562925E-04  0.1871606E+04  0.7818609E-02  0.8669120E-01
        2   -1    0    0  501    0  0.00000000000E+00  0.00000000000E+00  0.16689309009E+04  0.16689309009E+04  0.25500000920E-02 0.  1.
       -2   -1    0    0    0  501  0.00000000000E+00  0.00000000000E+00 -0.52472346429E+03  0.52472346430E+03  0.25500000920E-02 0. -1.
    10030    2    1    2    0    0  0.00000000000E+00  0.00000000000E+00  0.11442074366E+04  0.21936543652E+04  0.18716059457E+04 0.  0.
        4    1    3    3  502    0  0.13309841646E+03 -0.64692052678E+03  0.13491292988E+04  0.15021227760E+04  0.12699999809E+01 0.  1.
       -4    1    3    3    0  502 -0.13309841646E+03  0.64692052678E+03 -0.20492186214E+03  0.69153158923E+03  0.12699999809E+01 0. -1.
</event>
<event>
 5   0  0.2595012E-04  0.1910459E+04  0.7818609E-02  0.8649668E-01
        2   -1    0    0  501    0  0.00000000000E+00  0.00000000000E+00  0.12929534086E+04  0.12929534086E+04  0.25500000920E-02 0.  1.
       -2   -1    0    0    0  501  0.00000000000E+00  0.00000000000E+00 -0.70571996765E+03  0.70571996765E+03  0.25500000920E-02 0. -1.
    10030    2    1    2    0    0  0.00000000000E+00  0.00000000000E+00  0.58723344096E+03  0.19986733763E+04  0.19104586232E+04 0.  0.
        1    1    3    3  502    0  0.44752692520E+03  0.49439578993E+02 -0.58774330299E+03  0.74038288134E+03  0.50400001928E-02 0. -1.
       -1    1    3    3    0  502 -0.44752692520E+03 -0.49439578993E+02  0.11749767440E+04  0.12582904949E+04  0.50400001928E-02 0.  1.
</event>
<event>
 5   0  0.1277709E-04  0.1900387E+04  0.7818609E-02  0.8654664E-01
        1   -1    0    0  501    0  0.00000000000E+00  0.00000000000E+00  0.65384036604E+03  0.65384036606E+03  0.50400001928E-02 0.  1.
       -1   -1    0    0    0  501  0.00000000000E+00  0.00000000000E+00 -0.13808685782E+04  0.13808685783E+04  0.50400001928E-02 0. -1.
    10030    2    1    2    0    0  0.00000000000E+00  0.00000000000E+00 -0.72702821221E+03  0.20347089443E+04  0.19003869255E+04 0.  0.
        4    1    3    3  502    0  0.63187889963E+03  0.21700810841E+03  0.35989148310E+03  0.75887216013E+03  0.12699999809E+01 0.  1.
       -4    1    3    3    0  502 -0.63187889963E+03 -0.21700810841E+03 -0.10869196953E+04  0.12758367842E+04  0.12699999809E+01 0. -1.
</event>
<event>
 5   0  0.2608744E-04  0.1921626E+04  0.7818609E-02  0.8644166E-01
       -2   -1    0    0    0  501  0.00000000000E+00  0.00000000000E+00  0.80726789394E+03  0.80726789394E+03  0.25500000920E-02 0. -1.
        2   -1    0    0  501    0  0.00000000000E+00  0.00000000000E+00 -0.11435624548E+04  0.11435624548E+04  0.25500000920E-02 0.  1.
    10030    2    1    2    0    0  0.00000000000E+00  0.00000000000E+00 -0.33629456086E+03  0.19508303487E+04  0.19216256186E+04 0.  0.
        2    1    3    3  502    0  0.92932343836E+01 -0.31594664199E+03 -0.10892695481E+04  0.11342031534E+04  0.25500000920E-02 0.  1.
       -2    1    3    3    0  502 -0.92932343836E+01  0.31594664199E+03  0.75297498722E+03  0.81662719534E+03  0.25500000920E-02 0. -1.
</event>
<event>
 5   0  0.1324058E-04  0.1923474E+04  0.7818609E-02  0.8643259E-01
       -1   -1    0    0    0  501  0.00000000000E+00  0.00000000000E+00  0.61998147359E+03  0.61998147361E+03  0.50400001928E-02 0. -1.
        1   -1    0    0  501    0  0.00000000000E+00  0.00000000000E+00 -0.14918796624E+04  0.14918796624E+04  0.50400001928E-02 0.  1.
    10030    2    1    2    0    0  0.00000000000E+00  0.00000000000E+00 -0.87189818885E+03  0.21118611361E+04  0.19234736822E+04 0.  0.
        5    1    3    3  502    0  0.68856985678E+03 -0.39327919878E+03 -0.10334134714E+04  0.13025983528E+04  0.46999998093E+01 0.  1.
       -5    1    3    3    0  502 -0.68856985678E+03  0.39327919878E+03  0.16151528256E+03  0.80926278325E+03  0.46999998093E+01 0. -1.
</event>
<event>
 5   0  0.2608744E-04  0.1906322E+04  0.7818609E-02  0.8651716E-01
        2   -1    0    0  501    0  0.00000000000E+00  0.00000000000E+00  0.75508604678E+03  0.75508604678E+03  0.25500000920E-02 0.  1.
       -2   -1    0    0    0  501  0.00000000000E+00  0.00000000000E+00 -0.12031946660E+04  0.12031946660E+04  0.25500000920E-02 0. -1.
    10030    2    1    2    0    0  0.00000000000E+00  0.00000000000E+00 -0.44810861923E+03  0.19582807128E+04  0.19063215929E+04 0.  0.
        2    1    3    3  502    0 -0.62662161412E+03 -0.10580245082E+03  0.50570745171E+03  0.81215074500E+03  0.25500000920E-02 0.  1.
       -2    1    3    3    0  502  0.62662161412E+03  0.10580245082E+03 -0.95381607094E+03  0.11461299678E+04  0.25500000920E-02 0. -1.
</event>
<event>
 5   0  0.1277709E-04  0.1925823E+04  0.7818609E-02  0.8642108E-01
       -1   -1    0    0    0  501  0.00000000000E+00  0.00000000000E+00  0.58041679641E+03  0.58041679643E+03  0.50400001928E-02 0. -1.
        1   -1    0    0  501    0  0.00000000000E+00  0.00000000000E+00 -0.15974707315E+04  0.15974707315E+04  0.50400001928E-02 0.  1.
    10030    2    1    2    0    0  0.00000000000E+00  0.00000000000E+00 -0.10170539351E+04  0.21778875279E+04  0.19258232986E+04 0.  0.
        4    1    3    3  502    0 -0.71098552404E+03  0.66019910145E+02  0.22204511788E+03  0.74777315491E+03  0.12699999809E+01 0. -1.
       -4    1    3    3    0  502  0.71098552404E+03 -0.66019910145E+02 -0.12390990529E+04  0.14301143730E+04  0.12699999809E+01 0.  1.
</event>
<event>
 5   0  0.1277709E-04  0.1968712E+04  0.7818609E-02  0.8621390E-01
        1   -1    0    0  501    0  0.00000000000E+00  0.00000000000E+00  0.72735473166E+03  0.72735473168E+03  0.50400001928E-02 0.  1.
       -1   -1    0    0    0  501  0.00000000000E+00  0.00000000000E+00 -0.13321650098E+04  0.13321650098E+04  0.50400001928E-02 0. -1.
    10030    2    1    2    0    0  0.00000000000E+00  0.00000000000E+00 -0.60481027809E+03  0.20595197414E+04  0.19687117851E+04 0.  0.
        4    1    3    3  502    0 -0.24976837748E+03 -0.95189118858E+03 -0.27963338472E+03  0.10230725879E+04  0.12699999809E+01 0.  1.
       -4    1    3    3    0  502  0.24976837748E+03  0.95189118858E+03 -0.32517689337E+03  0.10364471536E+04  0.12699999809E+01 0. -1.
</event>
<event>
 5   0  0.1255141E-04  0.1892779E+04  0.7818609E-02  0.8658459E-01
        1   -1    0    0  501    0  0.00000000000E+00  0.00000000000E+00  0.31646241243E+04  0.31646241243E+04  0.50400001928E-02 0. -1.
       -1   -1    0    0    0  501  0.00000000000E+00  0.00000000000E+00 -0.28302046376E+03  0.28302046380E+03  0.50400001928E-02 0.  1.
    10030    2    1    2    0    0  0.00000000000E+00  0.00000000000E+00  0.28816036606E+04  0.34476445881E+04  0.18927793188E+04 0.  0.
        2    1    3    3  502    0 -0.28174332963E+03  0.22687960366E+03 -0.15212698839E+03  0.39242359633E+03  0.25500000920E-02 0.  1.
       -2    1    3    3    0  502  0.28174332963E+03 -0.22687960366E+03  0.30337306490E+04  0.30552209918E+04  0.25500000920E-02 0. -1.
</event>
<event>
 5   0  0.2562925E-04  0.1895858E+04  0.7818609E-02  0.8656921E-01
       -2   -1    0    0    0  501  0.00000000000E+00  0.00000000000E+00  0.56778449045E+03  0.56778449046E+03  0.25500000920E-02 0.  1.
        2   -1    0    0  501    0  0.00000000000E+00  0.00000000000E+00 -0.15825893320E+04  0.15825893320E+04  0.25500000920E-02 0. -1.
    10030    2    1    2    0    0  0.00000000000E+00  0.00000000000E+00 -0.10148048416E+04  0.21503738225E+04  0.18958583043E+04 0.  0.
        4    1    3    3  502    0 -0.53205591334E+03  0.11362614698E+03 -0.13878695849E+04  0.14906971503E+04  0.12699999809E+01 0. -1.
       -4    1    3    3    0  502  0.53205591334E+03 -0.11362614698E+03  0.37306474337E+03  0.65967667219E+03  0.12699999809E+01 0.  1.
</event>
<event>
 5   0  0.9266125E-05  0.1510792E+04  0.7818609E-02  0.8877308E-01
       -3   -1    0    0    0  501  0.00000000000E+00  0.00000000000E+00  0.31115858233E+03  0.31115859872E+03  0.10100000352E+00 0.  1.
        3   -1    0    0  501    0  0.00000000000E+00  0.00000000000E+00 -0.18338657896E+04  0.18338657924E+04  0.10100000352E+00 0. -1.
    10030    2    1    2    0    0  0.00000000000E+00  0.00000000000E+00 -0.15227072073E+04  0.21450243911E+04  0.15107919775E+04 0.  0.
        1    1    3    3  502    0 -0.39687651808E+03 -0.58374484021E+03 -0.11432619151E+04  0.13436207856E+04  0.50400001928E-02 0. -1.
       -1    1    3    3    0  502  0.39687651808E+03  0.58374484021E+03 -0.37944529219E+03  0.80140360548E+03  0.50400001928E-02 0.  1.
</event>
<event>
 5   0  0.2541124E-04  0.1893140E+04  0.7818609E-02  0.8658279E-01
       -2   -1    0    0    0  501  0.00000000000E+00  0.00000000000E+00  0.93207857910E+03  0.93207857910E+03  0.25500000920E-02 0.  1.
        2   -1    0    0  501    0  0.00000000000E+00  0.00000000000E+00 -0.96128623479E+03  0.96128623480E+03  0.25500000920E-02 0. -1.
    10030    2    1    2    0    0  0.00000000000E+00  0.00000000000E+00 -0.29207655694E+02  0.18933648139E+04  0.18931395171E+04 0.  0.
        5    1    3    3  502    0 -0.26300605134E+03  0.70763027394E+03 -0.58568792104E+03  0.95549213418E+03  0.46999998093E+01 0. -1.
       -5    1    3    3    0  502  0.26300605134E+03 -0.70763027394E+03  0.55648026535E+03  0.93787267971E+03  0.46999998093E+01 0.  1.
</event>
<event>
 5   0  0.2541124E-04  0.1915342E+04  0.7818609E-02  0.8647257E-01
       -2   -1    0    0    0  501  0.00000000000E+00  0.00000000000E+00  0.58004864570E+03  0.58004864570E+03  0.25500000920E-02 0.  1.
        2   -1    0    0  501    0  0.00000000000E+00  0.00000000000E+00 -0.15811321937E+04  0.15811321937E+04  0.25500000920E-02 0. -1.
    10030    2    1    2    0    0  0.00000000000E+00  0.00000000000E+00 -0.10010835480E+04  0.21611808394E+04  0.19153418365E+04 0.  0.
        5    1    3    3  502    0 -0.36511485010E+03  0.77807765557E+01  0.49837982248E+03  0.61787857359E+03  0.46999998093E+01 0.  1.
       -5    1    3    3    0  502  0.36511485010E+03 -0.77807765557E+01 -0.14994633705E+04  0.15433022658E+04  0.46999998093E+01 0. -1.
</event>
<event>
 5   0  0.2562925E-04  0.1899815E+04  0.7818609E-02  0.8654949E-01
        2   -1    0    0  501    0  0.00000000000E+00  0.00000000000E+00  0.59352875303E+03  0.59352875304E+03  0.25500000920E-02 0.  1.
       -2   -1    0    0    0  501  0.00000000000E+00  0.00000000000E+00 -0.15202701151E+04  0.15202701151E+04  0.25500000920E-02 0. -1.
    10030    2    1    2    0    0  0.00000000000E+00  0.00000000000E+00 -0.92674136209E+03  0.21137988682E+04  0.18998147549E+04 0.  0.
        4    1    3    3  502    0 -0.39759115593E+03 -0.26972060620E+02  0.49602469412E+03  0.63627692824E+03  0.12699999809E+01 0.  1.
       -4    1    3    3    0  502  0.39759115593E+03  0.26972060620E+02 -0.14227660562E+04  0.14775219399E+04  0.12699999809E+01 0. -1.
</event>
<event>
 5   0  0.1277709E-04  0.1892744E+04  0.7818609E-02  0.8658477E-01
        1   -1    0    0  501    0  0.00000000000E+00  0.00000000000E+00  0.68828176727E+03  0.68828176729E+03  0.50400001928E-02 0.  1.
       -1   -1    0    0    0  501  0.00000000000E+00  0.00000000000E+00 -0.13012397728E+04  0.13012397728E+04  0.50400001928E-02 0. -1.
    10030    2    1    2    0    0  0.00000000000E+00  0.00000000000E+00 -0.61295800549E+03  0.19895215400E+04  0.18927436281E+04 0.  0.
        4    1    3    3  502    0  0.41717048766E+03  0.84414272423E+03 -0.20670544420E+03  0.96402121772E+03  0.12699999809E+01 0.  1.
       -4    1    3    3    0  502 -0.41717048766E+03 -0.84414272423E+03 -0.40625256128E+03  0.10255003223E+04  0.12699999809E+01 0. -1.
</event>
<event>
 5   0  0.1255141E-04  0.1886579E+04  0.7818609E-02  0.8661566E-01
       -1   -1    0    0    0  501  0.00000000000E+00  0.00000000000E+00  0.11224327119E+04  0.11224327119E+04  0.50400001928E-02 0.  1.
        1   -1    0    0  501    0  0.00000000000E+00  0.00000000000E+00 -0.79273834653E+03  0.79273834654E+03  0.50400001928E-02 0. -1.
    10030    2    1    2    0    0  0.00000000000E+00  0.00000000000E+00  0.32969436539E+03  0.19151710585E+04  0.18865793937E+04 0.  0.
        2    1    3    3  502    0 -0.67251062110E+03 -0.65408301658E+03  0.26483005421E+03  0.97479745881E+03  0.25500000920E-02 0.  1.
       -2    1    3    3    0  502  0.67251062110E+03  0.65408301658E+03  0.64864311174E+02  0.94037359966E+03  0.25500000920E-02 0. -1.
</event>
<event>
 5   0  0.2608744E-04  0.1898498E+04  0.7818609E-02  0.8655605E-01
        2   -1    0    0  501    0  0.00000000000E+00  0.00000000000E+00  0.11769946216E+04  0.11769946216E+04  0.25500000920E-02 0. -1.
       -2   -1    0    0    0  501  0.00000000000E+00  0.00000000000E+00 -0.76557139585E+03  0.76557139586E+03  0.25500000920E-02 0.  1.
    10030    2    1    2    0    0  0.00000000000E+00  0.00000000000E+00  0.41142322572E+03  0.19425660174E+04  0.18984977381E+04 0.  0.
        2    1    3    3  502    0 -0.24356616228E+03 -0.60099473174E+03  0.91502298759E+03  0.11215106824E+04  0.25500000920E-02 0. -1.
       -2    1    3    3    0  502  0.24356616228E+03  0.60099473174E+03 -0.50359976187E+03  0.82105533501E+03  0.25500000920E-02 0.  1.
</event>
<event>
 5   0  0.1255141E-04  0.1885878E+04  0.7818609E-02  0.8661918E-01
        1   -1    0    0  501    0  0.00000000000E+00  0.00000000000E+00  0.78834419980E+03  0.78834419982E+03  0.50400001928E-02 0. -1.
       -1   -1    0    0    0  501  0.00000000000E+00  0.00000000000E+00 -0.11278494437E+04  0.11278494437E+04  0.50400001928E-02 0.  1.
    10030    2    1    2    0    0  0.00000000000E+00  0.00000000000E+00 -0.33950524392E+03  0.19161936436E+04  0.18858775859E+04 0.  0.
        2    1    3    3  502    0  0.13824093127E+03 -0.42038752753E+03  0.67627718257E+03  0.80819988620E+03  0.25500000920E-02 0. -1.
       -2    1    3    3    0  502 -0.13824093127E+03  0.42038752753E+03 -0.10157824265E+04  0.11079937574E+04  0.25500000920E-02 0.  1.
</event>
<event>
 5   0  0.2651828E-04  0.1906315E+04  0.7818609E-02  0.8651719E-01
       -2   -1    0    0    0  501  0.00000000000E+00  0.00000000000E+00  0.55420462745E+03  0.55420462746E+03  0.25500000920E-02 0.  1.
        2   -1    0    0  501    0  0.00000000000E+00  0.00000000000E+00 -0.16393036830E+04  0.16393036830E+04  0.25500000920E-02 0. -1.
    10030    2    1    2    0    0  0.00000000000E+00  0.00000000000E+00 -0.10850990556E+04  0.21935083105E+04  0.19063154901E+04 0.  0.
        3    1    3    3  502    0 -0.10430681192E+03  0.35719225025E+03  0.46717318699E+03  0.59725791036E+03  0.10100000352E+00 0.  1.
       -3    1    3    3    0  502  0.10430681192E+03 -0.35719225025E+03 -0.15522722426E+04  0.15962504001E+04  0.10100000352E+00 0. -1.
</event>
<event>
 5   0  0.2541124E-04  0.1885646E+04  0.7818609E-02  0.8662034E-01
       -2   -1    0    0    0  501  0.00000000000E+00  0.00000000000E+00  0.37853419723E+03  0.37853419724E+03  0.25500000920E-02 0. -1.
        2   -1    0    0  501    0  0.00000000000E+00  0.00000000000E+00 -0.23483094385E+04  0.23483094385E+04  0.25500000920E-02 0.  1.
    10030    2    1    2    0    0  0.00000000000E+00  0.00000000000E+00 -0.19697752412E+04  0.27268436357E+04  0.18856462321E+04 0.  0.
        5    1    3    3  502    0 -0.85906732272E+03  0.33419329356E+03 -0.12712439801E+04  0.15702755075E+04  0.46999998093E+01 0.  1.
       -5    1    3    3    0  502  0.85906732272E+03 -0.33419329356E+03 -0.69853126110E+03  0.11565681282E+04  0.46999998093E+01 0. -1.
</event>
<event>
 5   0  0.1324058E-04  0.1899269E+04  0.7818609E-02  0.8655220E-01
        1   -1    0    0  501    0  0.00000000000E+00  0.00000000000E+00  0.15088227032E+04  0.15088227032E+04  0.50400001928E-02 0. -1.
       -1   -1    0    0    0  501  0.00000000000E+00  0.00000000000E+00 -0.59768843692E+03  0.59768843695E+03  0.50400001928E-02 0.  1.
    10030    2    1    2    0    0  0.00000000000E+00  0.00000000000E+00  0.91113426627E+03  0.21065111401E+04  0.18992692101E+04 0.  0.
        5    1    3    3  502    0 -0.63108312387E+03 -0.70753592671E+03  0.39572829690E+03  0.10273733361E+04  0.46999998093E+01 0. -1.
       -5    1    3    3    0  502  0.63108312387E+03  0.70753592671E+03  0.51540596936E+03  0.10791378040E+04  0.46999998093E+01 0.  1.
</event>
<event>
 5   0  0.1239615E-04  0.1890060E+04  0.7818609E-02  0.8659820E-01
       -1   -1    0    0    0  501  0.00000000000E+00  0.00000000000E+00  0.74698771582E+03  0.74698771584E+03  0.50400001928E-02 0. -1.
        1   -1    0    0  501    0  0.00000000000E+00  0.00000000000E+00 -0.11955773303E+04  0.11955773303E+04  0.50400001928E-02 0.  1.
    10030    2    1    2    0    0  0.00000000000E+00  0.00000000000E+00 -0.44858961449E+03  0.19425650462E+04  0.18900598711E+04 0.  0.
        3    1    3    3  502    0  0.22874337270E+02  0.64516746232E+03 -0.93362456008E+03  0.11350855118E+04  0.10100000352E+00 0.  1.
       -3    1    3    3    0  502 -0.22874337270E+02 -0.64516746232E+03  0.48503494559E+03  0.80747953435E+03  0.10100000352E+00 0. -1.
</event>
<event>
 5   0  0.2651828E-04  0.1909380E+04  0.7818609E-02  0.8650201E-01
        2   -1    0    0  501    0  0.00000000000E+00  0.00000000000E+00  0.10730916878E+04  0.10730916878E+04  0.25500000920E-02 0. -1.
       -2   -1    0    0    0  501  0.00000000000E+00  0.00000000000E+00 -0.84935262510E+03  0.84935262510E+03  0.25500000920E-02 0.  1.
    10030    2    1    2    0    0  0.00000000000E+00  0.00000000000E+00  0.22373906268E+03  0.19224443129E+04  0.19093802576E+04 0.  0.
        3    1    3    3  502    0 -0.15461559816E+03 -0.22131273222E+03  0.10338575653E+04  0.10685255187E+04  0.10100000352E+00 0. -1.
       -3    1    3    3    0  502  0.15461559816E+03  0.22131273222E+03 -0.81011850258E+03  0.85391879419E+03  0.10100000352E+00 0.  1.
</event>
<event>
 5   0  0.2595012E-04  0.1909182E+04  0.7818609E-02  0.8650299E-01
        2   -1    0    0  501    0  0.00000000000E+00  0.00000000000E+00  0.97847909239E+03  0.97847909240E+03  0.25500000920E-02 0. -1.
       -2   -1    0    0    0  501  0.00000000000E+00  0.00000000000E+00 -0.93128635953E+03  0.93128635953E+03  0.25500000920E-02 0.  1.
    10030    2    1    2    0    0  0.00000000000E+00  0.00000000000E+00  0.47192732868E+02  0.19097654519E+04  0.19091822667E+04 0.  0.
        1    1    3    3  502    0 -0.42325669022E+03 -0.91595465724E+02  0.87456668139E+03  0.97591128458E+03  0.50400001928E-02 0. -1.
       -1    1    3    3    0  502  0.42325669022E+03  0.91595465724E+02 -0.82737394852E+03  0.93385416734E+03  0.50400001928E-02 0.  1.
</event>
<event>
 5   0  0.2595012E-04  0.1930907E+04  0.7818609E-02  0.8639623E-01
        2   -1    0    0  501    0  0.00000000000E+00  0.00000000000E+00  0.11219329575E+04  0.11219329575E+04  0.25500000920E-02 0. -1.
       -2   -1    0    0    0  501  0.00000000000E+00  0.00000000000E+00 -0.83079831049E+03  0.83079831049E+03  0.25500000920E-02 0.  1.
    10030    2    1    2    0    0  0.00000000000E+00  0.00000000000E+00  0.29113464700E+03  0.19527312680E+04  0.19309065286E+04 0.  0.
        1    1    3    3  502    0  0.32724385815E+03  0.89323869629E+03 -0.21024966952E+02  0.95152822371E+03  0.50400001928E-02 0.  1.
       -1    1    3    3    0  502 -0.32724385815E+03 -0.89323869629E+03  0.31215961395E+03  0.10012030443E+04  0.50400001928E-02 0. -1.
</event>
<event>
 5   0  0.2608744E-04  0.1884436E+04  0.7818609E-02  0.8662643E-01
        2   -1    0    0  501    0  0.00000000000E+00  0.00000000000E+00  0.14456619519E+04  0.14456619519E+04  0.25500000920E-02 0. -1.
       -2   -1    0    0    0  501  0.00000000000E+00  0.00000000000E+00 -0.61409539100E+03  0.61409539101E+03  0.25500000920E-02 0.  1.
    10030    2    1    2    0    0  0.00000000000E+00  0.00000000000E+00  0.83156656092E+03  0.20597573429E+04  0.18844355565E+04 0.  0.
        2    1    3    3  502    0 -0.22119732223E+03  0.44521200447E+03 -0.45907801785E+03  0.67667910472E+03  0.25500000920E-02 0.  1.
       -2    1    3    3    0  502  0.22119732223E+03 -0.44521200447E+03  0.12906445788E+04  0.13830782382E+04  0.25500000920E-02 0. -1.
</event>
<event>
 5   0  0.1317527E-04  0.1915275E+04  0.7818609E-02  0.8647290E-01
        1   -1    0    0  501    0  0.00000000000E+00  0.00000000000E+00  0.90293307321E+03  0.90293307322E+03  0.50400001928E-02 0.  1.
       -1   -1    0    0    0  501  0.00000000000E+00  0.00000000000E+00 -0.10156565513E+04  0.10156565513E+04  0.50400001928E-02 0. -1.
    10030    2    1    2    0    0  0.00000000000E+00  0.00000000000E+00 -0.11272347810E+03  0.19185896245E+04  0.19152753235E+04 0.  0.
        1    1    3    3  502    0  0.24038822264E+03 -0.46518495041E+03  0.74682768733E+03  0.91210478030E+03  0.50400001928E-02 0.  1.
       -1    1    3    3    0  502 -0.24038822264E+03  0.46518495041E+03 -0.85955116543E+03  0.10064848442E+04  0.50400001928E-02 0. -1.
</event>
<event>
 5   0  0.2595012E-04  0.1882436E+04  0.7818609E-02  0.8663649E-01
        2   -1    0    0  501    0  0.00000000000E+00  0.00000000000E+00  0.10575251580E+04  0.10575251580E+04  0.25500000920E-02 0. -1.
       -2   -1    0    0    0  501  0.00000000000E+00  0.00000000000E+00 -0.83770279493E+03  0.83770279493E+03  0.25500000920E-02 0.  1.
    10030    2    1    2    0    0  0.00000000000E+00  0.00000000000E+00  0.21982236311E+03  0.18952279530E+04  0.18824364856E+04 0.  0.
        1    1    3    3  502    0  0.30453912817E+03  0.25926021134E+03 -0.74789474995E+03  0.84811938711E+03  0.50400001928E-02 0.  1.
       -1    1    3    3    0  502 -0.30453912817E+03 -0.25926021134E+03  0.96771711306E+03  0.10471085659E+04  0.50400001928E-02 0. -1.
</event>
<event>
 5   0  0.2562925E-04  0.1484447E+04  0.7818609E-02  0.8894862E-01
        2   -1    0    0  501    0  0.00000000000E+00  0.00000000000E+00  0.97414054472E+03  0.97414054472E+03  0.25500000920E-02 0. -1.
       -2   -1    0    0    0  501  0.00000000000E+00  0.00000000000E+00 -0.56551946140E+03  0.56551946141E+03  0.25500000920E-02 0.  1.
    10030    2    1    2    0    0  0.00000000000E+00  0.00000000000E+00  0.40862108332E+03  0.15396600061E+04  0.14844466123E+04 0.  0.
        4    1    3    3  502    0  0.92113617025E+02  0.71656076600E+03  0.38078478585E+03  0.81666573079E+03  0.12699999809E+01 0. -1.
       -4    1    3    3    0  502 -0.92113617025E+02 -0.71656076600E+03  0.27836297464E+02  0.72299427534E+03  0.12699999809E+01 0.  1.
</event>
<event>
 5   0  0.2651828E-04  0.1892407E+04  0.7818609E-02  0.8658645E-01
       -2   -1    0    0    0  501  0.00000000000E+00  0.00000000000E+00  0.76290822086E+03  0.76290822086E+03  0.25500000920E-02 0. -1.
        2   -1    0    0  501    0  0.00000000000E+00  0.00000000000E+00 -0.11735374483E+04  0.11735374483E+04  0.25500000920E-02 0.  1.
    10030    2    1    2    0    0  0.00000000000E+00  0.00000000000E+00 -0.41062922747E+03  0.19364456692E+04  0.18924073207E+04 0.  0.
        3    1    3    3  502    0  0.21790377618E+02  0.10694849747E+03 -0.11670743272E+04  0.11721669237E+04  0.10100000352E+00 0.  1.
       -3    1    3    3    0  502 -0.21790377618E+02 -0.10694849747E+03  0.75644509973E+03  0.76427874547E+03  0.10100000352E+00 0. -1.
</event>
<event>
 5   0  0.1324058E-04  0.1850166E+04  0.7818609E-02  0.8680067E-01
       -1   -1    0    0    0  501  0.00000000000E+00  0.00000000000E+00  0.82500439686E+03  0.82500439688E+03  0.50400001928E-02 0. -1.
        1   -1    0    0  501    0  0.00000000000E+00  0.00000000000E+00 -0.10373019633E+04  0.10373019633E+04  0.50400001928E-02 0.  1.
    10030    2    1    2    0    0  0.00000000000E+00  0.00000000000E+00 -0.21229756645E+03  0.18623063602E+04  0.18501661338E+04 0.  0.
        5    1    3    3  502    0 -0.60911718034E+02 -0.31476088125E+03 -0.97958218402E+03  0.10307220746E+04  0.46999998093E+01 0.  1.
       -5    1    3    3    0  502  0.60911718034E+02  0.31476088125E+03  0.76728461757E+03  0.83158428563E+03  0.46999998093E+01 0. -1.
</event>
<event>
 5   0  0.1255141E-04  0.1912622E+04  0.7818609E-02  0.8648599E-01
        1   -1    0    0  501    0  0.00000000000E+00  0.00000000000E+00  0.87885906583E+03  0.87885906584E+03  0.50400001928E-02 0.  1.
       -1   -1    0    0    0  501  0.00000000000E+00  0.00000000000E+00 -0.10405891143E+04  0.10405891143E+04  0.50400001928E-02 0. -1.
    10030    2    1    2    0    0  0.00000000000E+00  0.00000000000E+00 -0.16173004843E+03  0.19194481801E+04  0.19126224686E+04 0.  0.
        2    1    3    3  502    0  0.47922976334E+03  0.12513579485E+03 -0.90183767215E+03  0.10288981097E+04  0.25500000920E-02 0. -1.
       -2    1    3    3    0  502 -0.47922976334E+03 -0.12513579485E+03  0.74010762372E+03  0.89055007042E+03  0.25500000920E-02 0.  1.
</event>
<event>
 5   0  0.2595012E-04  0.1915925E+04  0.7818609E-02  0.8646970E-01
        2   -1    0    0  501    0  0.00000000000E+00  0.00000000000E+00  0.10345774251E+04  0.10345774251E+04  0.25500000920E-02 0. -1.
       -2   -1    0    0    0  501  0.00000000000E+00  0.00000000000E+00 -0.88702117634E+03  0.88702117634E+03  0.25500000920E-02 0.  1.
    10030    2    1    2    0    0  0.00000000000E+00  0.00000000000E+00  0.14755624871E+03  0.19215986014E+04  0.19159249303E+04 0.  0.
        1    1    3    3  502    0  0.65587973692E+03 -0.60930835146E+03  0.41575291527E+03  0.98705895621E+03  0.50400001928E-02 0.  1.
       -1    1    3    3    0  502 -0.65587973692E+03  0.60930835146E+03 -0.26819666655E+03  0.93453964519E+03  0.50400001928E-02 0. -1.
</event>
<event>
 5   0  0.2562925E-04  0.1852612E+04  0.7818609E-02  0.8678811E-01
       -2   -1    0    0    0  501  0.00000000000E+00  0.00000000000E+00  0.79080509718E+03  0.79080509719E+03  0.25500000920E-02 0. -1.
        2   -1    0    0  501    0  0.00000000000E+00  0.00000000000E+00 -0.10850248745E+04  0.10850248745E+04  0.25500000920E-02 0.  1.
    10030    2    1    2    0    0  0.00000000000E+00  0.00000000000E+00 -0.29421977735E+03  0.18758299717E+04  0.18526124272E+04 0.  0.
        4    1    3    3  502    0 -0.70781862626E+03  0.55504440391E+03 -0.37115217889E+03  0.97305552298E+03  0.12699999809E+01 0. -1.
       -4    1    3    3    0  502  0.70781862626E+03 -0.55504440391E+03  0.76932401541E+02  0.90277444875E+03  0.12699999809E+01 0.  1.
</event>
<event>
 5   0  0.2651828E-04  0.1929234E+04  0.7818609E-02  0.8640440E-01
       -2   -1    0    0    0  501  0.00000000000E+00  0.00000000000E+00  0.64076091532E+03  0.64076091532E+03  0.25500000920E-02 0.  1.
        2   -1    0    0  501    0  0.00000000000E+00  0.00000000000E+00 -0.14521580048E+04  0.14521580048E+04  0.25500000920E-02 0. -1.
    10030    2    1    2    0    0  0.00000000000E+00  0.00000000000E+00 -0.81139708950E+03  0.20929189201E+04  0.19292341406E+04 0.  0.
        3    1    3    3  502    0 -0.88097610244E+02 -0.33401641895E+03  0.57135906843E+03  0.66766709694E+03  0.10100000352E+00 0.  1.
       -3    1    3    3    0  502  0.88097610244E+02  0.33401641895E+03 -0.13827561579E+04  0.14252518232E+04  0.10100000352E+00 0. -1.
</event>
<event>
 5   0  0.1317527E-04  0.1819711E+04  0.7818609E-02  0.8695887E-01
        1   -1    0    0  501    0  0.00000000000E+00  0.00000000000E+00  0.10961111964E+04  0.10961111964E+04  0.50400001928E-02 0. -1.
       -1   -1    0    0    0  501  0.00000000000E+00  0.00000000000E+00 -0.75524904340E+03  0.75524904342E+03  0.50400001928E-02 0.  1.
    10030    2    1    2    0    0  0.00000000000E+00  0.00000000000E+00  0.34086215298E+03  0.18513602398E+04  0.18197108919E+04 0.  0.
        1    1    3    3  502    0  0.88074865872E+03  0.22464331605E+02 -0.60707620439E+02  0.88312414826E+03  0.50400001928E-02 0.  1.
       -1    1    3    3    0  502 -0.88074865872E+03 -0.22464331605E+02  0.40156977342E+03  0.96823609155E+03  0.50400001928E-02 0. -1.
</event>
<event>
 5   0  0.2608744E-04  0.1886000E+04  0.7818609E-02  0.8661857E-01
        2   -1    0    0  501    0  0.00000000000E+00  0.00000000000E+00  0.16352463441E+04  0.16352463441E+04  0.25500000920E-02 0.  1.
       -2   -1    0    0    0  501  0.00000000000E+00  0.00000000000E+00 -0.54380111850E+03  0.54380111851E+03  0.25500000920E-02 0. -1.
    10030    2    1    2    0    0  0.00000000000E+00  0.00000000000E+00  0.10914452256E+04  0.21790474626E+04  0.18859997783E+04 0.  0.
        2    1    3    3  502    0  0.28898861502E+03  0.23653164655E+03  0.15461695282E+04  0.15906293878E+04  0.25500000920E-02 0.  1.
       -2    1    3    3    0  502 -0.28898861502E+03 -0.23653164655E+03 -0.45472430257E+03  0.58841807483E+03  0.25500000920E-02 0. -1.
</event>
<event>
 5   0  0.1317527E-04  0.1895536E+04  0.7818609E-02  0.8657082E-01
       -1   -1    0    0    0  501  0.00000000000E+00  0.00000000000E+00  0.41474554125E+03  0.41474554128E+03  0.50400001928E-02 0. -1.
        1   -1    0    0  501    0  0.00000000000E+00  0.00000000000E+00 -0.21658195628E+04  0.21658195628E+04  0.50400001928E-02 0.  1.
    10030    2    1    2    0    0  0.00000000000E+00  0.00000000000E+00 -0.17510740216E+04  0.25805651041E+04  0.18955358154E+04 0.  0.
        1    1    3    3  502    0 -0.38927603380E+03  0.85549490447E+03 -0.10414739961E+04  0.14028811235E+04  0.50400001928E-02 0. -1.
       -1    1    3    3    0  502  0.38927603380E+03 -0.85549490447E+03 -0.70960002553E+03  0.11776839807E+04  0.50400001928E-02 0.  1.
</event>
<event>
 5   0  0.1255141E-04  0.1908604E+04  0.7818609E-02  0.8650585E-01
        1   -1    0    0  501    0  0.00000000000E+00  0.00000000000E+00  0.12872429918E+04  0.12872429918E+04  0.50400001928E-02 0. -1.
       -1   -1    0    0    0  501  0.00000000000E+00  0.00000000000E+00 -0.70747531952E+03  0.70747531954E+03  0.50400001928E-02 0.  1.
    10030    2    1    2    0    0  0.00000000000E+00  0.00000000000E+00  0.57976767227E+03  0.19947183113E+04  0.19086043560E+04 0.  0.
        2    1    3    3  502    0  0.88174882924E+02 -0.94817108489E+03  0.35506298495E+03  0.10163035666E+04  0.25500000920E-02 0. -1.
       -2    1    3    3    0  502 -0.88174882924E+02  0.94817108489E+03  0.22470468731E+03  0.97841474473E+03  0.25500000920E-02 0.  1.
</event>
<event>
 5   0  0.2541124E-04  0.1899412E+04  0.7818609E-02  0.8655149E-01
       -2   -1    0    0    0  501  0.00000000000E+00  0.00000000000E+00  0.81181197238E+03  0.81181197239E+03  0.25500000920E-02 0.  1.
        2   -1    0    0  501    0  0.00000000000E+00  0.00000000000E+00 -0.11110222379E+04  0.11110222379E+04  0.25500000920E-02 0. -1.
    10030    2    1    2    0    0  0.00000000000E+00  0.00000000000E+00 -0.29921026548E+03  0.19228342103E+04  0.18994116503E+04 0.  0.
        5    1    3    3  502    0  0.59571145250E+03  0.49040853268E+02  0.59749407715E+03  0.84516176094E+03  0.46999998093E+01 0.  1.
       -5    1    3    3    0  502 -0.59571145250E+03 -0.49040853268E+02 -0.89670434262E+03  0.10776724493E+04  0.46999998093E+01 0. -1.
</event>
<event>
 5   0  0.1317527E-04  0.1691208E+04  0.7818609E-02  0.8766394E-01
       -1   -1    0    0    0  501  0.00000000000E+00  0.00000000000E+00  0.40824216847E+03  0.40824216850E+03  0.50400001928E-02 0. -1.
        1   -1    0    0  501    0  0.00000000000E+00  0.00000000000E+00 -0.17515251394E+04  0.17515251394E+04  0.50400001928E-02 0.  1.
    10030    2    1    2    0    0  0.00000000000E+00  0.00000000000E+00 -0.13432829709E+04  0.21597673079E+04  0.16912083504E+04 0.  0.
        1    1    3    3  502    0  0.30213846292E+03 -0.39604187203E+03  0.20098070588E+03  0.53714994121E+03  0.50400001928E-02 0. -1.
       -1    1    3    3    0  502 -0.30213846292E+03  0.39604187203E+03 -0.15442636768E+04  0.16226173667E+04  0.50400001928E-02 0.  1.
</event>
<event>
 5   0  0.2562925E-04  0.1892257E+04  0.7818609E-02  0.8658720E-01
        2   -1    0    0  501    0  0.00000000000E+00  0.00000000000E+00  0.17743976797E+04  0.17743976797E+04  0.25500000920E-02 0.  1.
       -2   -1    0    0    0  501  0.00000000000E+00  0.00000000000E+00 -0.50448637447E+03  0.50448637448E+03  0.25500000920E-02 0. -1.
    10030    2    1    2    0    0  0.00000000000E+00  0.00000000000E+00  0.12699113052E+04  0.22788840542E+04  0.18922573317E+04 0.  0.
        4    1    3    3  502    0 -0.31817895611E+03 -0.30440462523E+03 -0.37355592951E+03  0.57744754684E+03  0.12699999809E+01 0. -1.
       -4    1    3    3    0  502  0.31817895611E+03  0.30440462523E+03  0.16434672347E+04  0.17014365073E+04  0.12699999809E+01 0.  1.
</event>
<event>
 5   0  0.9266125E-05  0.1772271E+04  0.7818609E-02  0.8721186E-01
       -3   -1    0    0    0  501  0.00000000000E+00  0.00000000000E+00  0.14693598959E+04  0.14693598993E+04  0.10100000352E+00 0. -1.
        3   -1    0    0  501    0  0.00000000000E+00  0.00000000000E+00 -0.53440669402E+03  0.53440670357E+03  0.10100000352E+00 0.  1.
    10030    2    1    2    0    0  0.00000000000E+00  0.00000000000E+00  0.93495320184E+03  0.20037666029E+04  0.17722706084E+04 0.  0.
        3    1    3    3  502    0  0.79348572914E+03 -0.14658593781E+01  0.91348337425E+03  0.12099891059E+04  0.10100000352E+00 0.  1.
       -3    1    3    3    0  502 -0.79348572914E+03  0.14658593781E+01  0.21469827587E+02  0.79377749703E+03  0.10100000352E+00 0. -1.
</event>
<event>
 5   0  0.2651828E-04  0.1866504E+04  0.7818609E-02  0.8671712E-01
        2   -1    0    0  501    0  0.00000000000E+00  0.00000000000E+00  0.13541419202E+04  0.13541419202E+04  0.25500000920E-02 0.  1.
       -2   -1    0    0    0  501  0.00000000000E+00  0.00000000000E+00 -0.64318144045E+03  0.64318144046E+03  0.25500000920E-02 0. -1.
    10030    2    1    2    0    0  0.00000000000E+00  0.00000000000E+00  0.71096047980E+03  0.19973233607E+04  0.18665036307E+04 0.  0.
        3    1    3    3  502    0  0.49689311371E+03 -0.24780354352E+03 -0.44719255060E+03  0.71294498396E+03  0.10100000352E+00 0. -1.
       -3    1    3    3    0  502 -0.49689311371E+03  0.24780354352E+03  0.11581530304E+04  0.12843783767E+04  0.10100000352E+00 0.  1.
</event>
<event>
 5   0  0.2541124E-04  0.1845510E+04  0.7818609E-02  0.8682465E-01
       -2   -1    0    0    0  501  0.00000000000E+00  0.00000000000E+00  0.11493108419E+04  0.11493108419E+04  0.25500000920E-02 0.  1.
        2   -1    0    0  501    0  0.00000000000E+00  0.00000000000E+00 -0.74085824930E+03  0.74085824931E+03  0.25500000920E-02 0. -1.
    10030    2    1    2    0    0  0.00000000000E+00  0.00000000000E+00  0.40845259257E+03  0.18901690912E+04  0.18455095971E+04 0.  0.
        5    1    3    3  502    0  0.73161366889E+03  0.26818810060E+03 -0.30197147034E+03  0.83569867578E+03  0.46999998093E+01 0. -1.
       -5    1    3    3    0  502 -0.73161366889E+03 -0.26818810060E+03  0.71042406291E+03  0.10544704154E+04  0.46999998093E+01 0.  1.
</event>
<event>
 5   0  0.1239615E-04  0.1860934E+04  0.7818609E-02  0.8674550E-01
       -1   -1    0    0    0  501  0.00000000000E+00  0.00000000000E+00  0.16490874959E+04  0.16490874959E+04  0.50400001928E-02 0.  1.
        1   -1    0    0  501    0  0.00000000000E+00  0.00000000000E+00 -0.52499897358E+03  0.52499897360E+03  0.50400001928E-02 0. -1.
    10030    2    1    2    0    0  0.00000000000E+00  0.00000000000E+00  0.11240885223E+04  0.21740864695E+04  0.18609344349E+04 0.  0.
        3    1    3    3  502    0 -0.20006906007E+03  0.37125527763E+03  0.15310177764E+04  0.15880407904E+04  0.10100000352E+00 0.  1.
       -3    1    3    3    0  502  0.20006906007E+03 -0.37125527763E+03 -0.40692925411E+03  0.58604567912E+03  0.10100000352E+00 0. -1.
</event>
<event>
 5   0  0.2608744E-04  0.1910802E+04  0.7818609E-02  0.8649498E-01
        2   -1    0    0  501    0  0.00000000000E+00  0.00000000000E+00  0.17445899997E+04  0.17445899997E+04  0.25500000920E-02 0.  1.
       -2   -1    0    0    0  501  0.00000000000E+00  0.00000000000E+00 -0.52321213574E+03  0.52321213574E+03  0.25500000920E-02 0. -1.
    10030    2    1    2    0    0  0.00000000000E+00  0.00000000000E+00  0.12213778640E+04  0.22678021355E+04  0.19108015698E+04 0.  0.
        2    1    3    3  502    0  0.26531162593E+03 -0.70343035328E+03 -0.89025441391E+02  0.75705353179E+03  0.25500000920E-02 0. -1.
       -2    1    3    3    0  502 -0.26531162593E+03  0.70343035328E+03  0.13104033054E+04  0.15107486037E+04  0.25500000920E-02 0.  1.
</event>
<event>
 5   0  0.2562925E-04  0.1810666E+04  0.7818609E-02  0.8700648E-01
        2   -1    0    0  501    0  0.00000000000E+00  0.00000000000E+00  0.97105291807E+03  0.97105291807E+03  0.25500000920E-02 0.  1.
       -2   -1    0    0    0  501  0.00000000000E+00  0.00000000000E+00 -0.84406136516E+03  0.84406136516E+03  0.25500000920E-02 0. -1.
    10030    2    1    2    0    0  0.00000000000E+00  0.00000000000E+00  0.12699155291E+03  0.18151142832E+04  0.18106664537E+04 0.  0.
        4    1    3    3  502    0 -0.67391274358E+03 -0.21855251909E+03  0.62853189555E+03  0.94708898536E+03  0.12699999809E+01 0.  1.
       -4    1    3    3    0  502  0.67391274358E+03  0.21855251909E+03 -0.50154034264E+03  0.86802529788E+03  0.12699999809E+01 0. -1.
</event>
<event>
 5   0  0.2562925E-04  0.1908677E+04  0.7818609E-02  0.8650549E-01
        2   -1    0    0  501    0  0.00000000000E+00  0.00000000000E+00  0.14628196220E+04  0.14628196220E+04  0.25500000920E-02 0. -1.
       -2   -1    0    0    0  501  0.00000000000E+00  0.00000000000E+00 -0.62260732321E+03  0.62260732321E+03  0.25500000920E-02 0.  1.
    10030    2    1    2    0    0  0.00000000000E+00  0.00000000000E+00  0.84021229883E+03  0.20854269452E+04  0.19086772480E+04 0.  0.
        4    1    3    3  502    0  0.42902019477E+03 -0.20782106249E+03 -0.48320167110E+03  0.67877344482E+03  0.12699999809E+01 0.  1.
       -4    1    3    3    0  502 -0.42902019477E+03  0.20782106249E+03  0.13234139699E+04  0.14066535004E+04  0.12699999809E+01 0. -1.
</event>
<event>
 5   0  0.1277709E-04  0.1903730E+04  0.7818609E-02  0.8653002E-01
       -1   -1    0    0    0  501  0.00000000000E+00  0.00000000000E+00  0.11658084124E+04  0.11658084124E+04  0.50400001928E-02 0.  1.
        1   -1    0    0  501    0  0.00000000000E+00  0.00000000000E+00 -0.77718303578E+03  0.77718303579E+03  0.50400001928E-02 0. -1.
    10030    2    1    2    0    0  0.00000000000E+00  0.00000000000E+00  0.38862537659E+03  0.19429914482E+04  0.19037295197E+04 0.  0.
        4    1    3    3  502    0  0.28625533279E+03  0.90702176010E+03  0.23269572962E+03  0.97917286744E+03  0.12699999809E+01 0. -1.
       -4    1    3    3    0  502 -0.28625533279E+03 -0.90702176010E+03  0.15592964697E+03  0.96381858073E+03  0.12699999809E+01 0.  1.
</event>
<event>
 5   0  0.1324058E-04  0.1878556E+04  0.7818609E-02  0.8665605E-01
        1   -1    0    0  501    0  0.00000000000E+00  0.00000000000E+00  0.17184189075E+04  0.17184189075E+04  0.50400001928E-02 0. -1.
       -1   -1    0    0    0  501  0.00000000000E+00  0.00000000000E+00 -0.51340400386E+03  0.51340400389E+03  0.50400001928E-02 0.  1.
    10030    2    1    2    0    0  0.00000000000E+00  0.00000000000E+00  0.12050149037E+04  0.22318229114E+04  0.18785559853E+04 0.  0.
        5    1    3    3  502    0 -0.62567289432E+03 -0.65375013812E+03  0.90156939017E+03  0.12773821938E+04  0.46999998093E+01 0. -1.
       -5    1    3    3    0  502  0.62567289432E+03  0.65375013812E+03  0.30344551349E+03  0.95444071761E+03  0.46999998093E+01 0.  1.
</event>
<event>
 5   0  0.1317527E-04  0.1888078E+04  0.7818609E-02  0.8660814E-01
       -1   -1    0    0    0  501  0.00000000000E+00  0.00000000000E+00  0.79090203815E+03  0.79090203817E+03  0.50400001928E-02 0.  1.
        1   -1    0    0  501    0  0.00000000000E+00  0.00000000000E+00 -0.11268269059E+04  0.11268269059E+04  0.50400001928E-02 0. -1.
    10030    2    1    2    0    0  0.00000000000E+00  0.00000000000E+00 -0.33592486774E+03  0.19177289441E+04  0.18880780668E+04 0.  0.
        1    1    3    3  502    0 -0.12591372670E+03  0.27921957200E+02 -0.11178364385E+04  0.11252520631E+04  0.50400001928E-02 0. -1.
       -1    1    3    3    0  502  0.12591372670E+03 -0.27921957200E+02  0.78191157079E+03  0.79247688094E+03  0.50400001928E-02 0.  1.
</event>
<event>
 5   0  0.1277709E-04  0.1880889E+04  0.7818609E-02  0.8664428E-01
        1   -1    0    0  501    0  0.00000000000E+00  0.00000000000E+00  0.86101778337E+03  0.86101778339E+03  0.50400001928E-02 0.  1.
       -1   -1    0    0    0  501  0.00000000000E+00  0.00000000000E+00 -0.10271980892E+04  0.10271980892E+04  0.50400001928E-02 0. -1.
    10030    2    1    2    0    0  0.00000000000E+00  0.00000000000E+00 -0.16618030586E+03  0.18882158726E+04  0.18808889621E+04 0.  0.
        4    1    3    3  502    0 -0.19031795270E+03 -0.65724113124E+03 -0.73077575576E+03  0.10011102066E+04  0.12699999809E+01 0. -1.
       -4    1    3    3    0  502  0.19031795270E+03  0.65724113124E+03  0.56459544990E+03  0.88710566600E+03  0.12699999809E+01 0.  1.
</event>
<event>
 5   0  0.1317527E-04  0.1882837E+04  0.7818609E-02  0.8663447E-01
       -1   -1    0    0    0  501  0.00000000000E+00  0.00000000000E+00  0.65701803810E+03  0.65701803812E+03  0.50400001928E-02 0. -1.
        1   -1    0    0  501    0  0.00000000000E+00  0.00000000000E+00 -0.13489254488E+04  0.13489254488E+04  0.50400001928E-02 0.  1.
    10030    2    1    2    0    0  0.00000000000E+00  0.00000000000E+00 -0.69190741070E+03  0.20059434869E+04  0.18828365324E+04 0.  0.
        1    1    3    3  502    0  0.41210665087E+03 -0.42124463930E+03 -0.11281147732E+04  0.12727615171E+04  0.50400001928E-02 0.  1.
       -1    1    3    3    0  502 -0.41210665087E+03  0.42124463930E+03  0.43620736248E+03  0.73318196987E+03  0.50400001928E-02 0. -1.
</event>
<event>
 5   0  0.2608744E-04  0.1897556E+04  0.7818609E-02  0.8656074E-01
       -2   -1    0    0    0  501  0.00000000000E+00  0.00000000000E+00  0.56433729623E+03  0.56433729624E+03  0.25500000920E-02 0. -1.
        2   -1    0    0  501    0  0.00000000000E+00  0.00000000000E+00 -0.15951088366E+04  0.15951088366E+04  0.25500000920E-02 0.  1.
    10030    2    1    2    0    0  0.00000000000E+00  0.00000000000E+00 -0.10307715404E+04  0.21594461329E+04  0.18975556994E+04 0.  0.
        2    1    3    3  502    0  0.85095940178E+01  0.69474335510E+03  0.21987971368E+03  0.72875773144E+03  0.25500000920E-02 0. -1.
       -2    1    3    3    0  502 -0.85095940178E+01 -0.69474335510E+03 -0.12506512541E+04  0.14306884014E+04  0.25500000920E-02 0.  1.
</event>
<event>
 5   0  0.1277709E-04  0.1892371E+04  0.7818609E-02  0.8658663E-01
       -1   -1    0    0    0  501  0.00000000000E+00  0.00000000000E+00  0.11295995050E+04  0.11295995050E+04  0.50400001928E-02 0. -1.
        1   -1    0    0  501    0  0.00000000000E+00  0.00000000000E+00 -0.79255245950E+03  0.79255245951E+03  0.50400001928E-02 0.  1.
    10030    2    1    2    0    0  0.00000000000E+00  0.00000000000E+00  0.33704704554E+03  0.19221519646E+04  0.18923708579E+04 0.  0.
        4    1    3    3  502    0  0.73352833361E+03  0.54092914407E+03 -0.89635894638E+02  0.91580803754E+03  0.12699999809E+01 0.  1.
       -4    1    3    3    0  502 -0.73352833361E+03 -0.54092914407E+03  0.42668294018E+03  0.10063439270E+04  0.12699999809E+01 0. -1.
</event>
<event>
 5   0  0.2562925E-04  0.1894255E+04  0.7818609E-02  0.8657721E-01
       -2   -1    0    0    0  501  0.00000000000E+00  0.00000000000E+00  0.77973106894E+03  0.77973106895E+03  0.25500000920E-02 0.  1.
        2   -1    0    0  501    0  0.00000000000E+00  0.00000000000E+00 -0.11504611304E+04  0.11504611304E+04  0.25500000920E-02 0. -1.
    10030    2    1    2    0    0  0.00000000000E+00  0.00000000000E+00 -0.37073006145E+03  0.19301921993E+04  0.18942547738E+04 0.  0.
        4    1    3    3  502    0  0.11116672040E+03 -0.57065535351E+03  0.57651188018E+03  0.81876317278E+03  0.12699999809E+01 0.  1.
       -4    1    3    3    0  502 -0.11116672040E+03  0.57065535351E+03 -0.94724194163E+03  0.11114290266E+04  0.12699999809E+01 0. -1.
</event>
<event>
 5   0  0.1317527E-04  0.1906063E+04  0.7818609E-02  0.8651844E-01
        1   -1    0    0  501    0  0.00000000000E+00  0.00000000000E+00  0.77385300448E+03  0.77385300450E+03  0.50400001928E-02 0. -1.
       -1   -1    0    0    0  501  0.00000000000E+00  0.00000000000E+00 -0.11736970558E+04  0.11736970558E+04  0.50400001928E-02 0.  1.
    10030    2    1    2    0    0  0.00000000000E+00  0.00000000000E+00 -0.39984405135E+03  0.19475500603E+04  0.19060629507E+04 0.  0.
        1    1    3    3  502    0  0.73116836256E+03 -0.60429510196E+03 -0.10577946449E+03  0.95444698114E+03  0.50400001928E-02 0. -1.
       -1    1    3    3    0  502 -0.73116836256E+03  0.60429510196E+03 -0.29406458686E+03  0.99310307921E+03  0.50400001928E-02 0.  1.
</event>
<event>
 5   0  0.1239615E-04  0.1909874E+04  0.7818609E-02  0.8649957E-01
        1   -1    0    0  501    0  0.00000000000E+00  0.00000000000E+00  0.12413260496E+04  0.12413260496E+04  0.50400001928E-02 0.  1.
       -1   -1    0    0    0  501  0.00000000000E+00  0.00000000000E+00 -0.73462116409E+03  0.73462116410E+03  0.50400001928E-02 0. -1.
    10030    2    1    2    0    0  0.00000000000E+00  0.00000000000E+00  0.50670488554E+03  0.19759472137E+04  0.19098737001E+04 0.  0.
        3    1    3    3  502    0  0.56219847495E+03  0.33163639710E+03  0.97449948783E+03  0.11729019938E+04  0.10100000352E+00 0.  1.
       -3    1    3    3    0  502 -0.56219847495E+03 -0.33163639710E+03 -0.46779460228E+03  0.80304521993E+03  0.10100000352E+00 0. -1.
</event>
<event>
 5   0  0.2608744E-04  0.1915998E+04  0.7818609E-02  0.8646934E-01
        2   -1    0    0  501    0  0.00000000000E+00  0.00000000000E+00  0.14647218027E+04  0.14647218027E+04  0.25500000920E-02 0.  1.
       -2   -1    0    0    0  501  0.00000000000E+00  0.00000000000E+00 -0.62657806827E+03  0.62657806827E+03  0.25500000920E-02 0. -1.
    10030    2    1    2    0    0  0.00000000000E+00  0.00000000000E+00  0.83814373447E+03  0.20912998710E+04  0.19159984945E+04 0.  0.
        2    1    3    3  502    0 -0.24803106831E+03  0.58216352096E+03  0.12041347917E+04  0.13602846660E+04  0.25500000920E-02 0.  1.
       -2    1    3    3    0  502  0.24803106831E+03 -0.58216352096E+03 -0.36599105723E+03  0.73101520501E+03  0.25500000920E-02 0. -1.
</event>
<event>
 5   0  0.2651828E-04  0.1552512E+04  0.7818609E-02  0.8850265E-01
        2   -1    0    0  501    0  0.00000000000E+00  0.00000000000E+00  0.82505200598E+03  0.82505200599E+03  0.25500000920E-02 0.  1.
       -2   -1    0    0    0  501  0.00000000000E+00  0.00000000000E+00 -0.73034598183E+03  0.73034598184E+03  0.25500000920E-02 0. -1.
    10030    2    1    2    0    0  0.00000000000E+00  0.00000000000E+00  0.94706024149E+02  0.15553979878E+04  0.15525120513E+04 0.  0.
        3    1    3    3  502    0 -0.37403802897E+03 -0.64116251678E+03 -0.18018055926E+03  0.76384479063E+03  0.10100000352E+00 0.  1.
       -3    1    3    3    0  502  0.37403802897E+03  0.64116251678E+03  0.27488658340E+03  0.79155319719E+03  0.10100000352E+00 0. -1.
</event>
<event>
 5   0  0.2541124E-04  0.1902215E+04  0.7818609E-02  0.8653755E-01
        2   -1    0    0  501    0  0.00000000000E+00  0.00000000000E+00  0.14476233692E+04  0.14476233692E+04  0.25500000920E-02 0. -1.
       -2   -1    0    0    0  501  0.00000000000E+00  0.00000000000E+00 -0.62488982675E+03  0.62488982675E+03  0.25500000920E-02 0.  1.
    10030    2    1    2    0    0  0.00000000000E+00  0.00000000000E+00  0.82273354241E+03  0.20725131959E+04  0.19022146213E+04 0.  0.
        5    1    3    3  502    0  0.11192450792E+03 -0.78257618976E+03 -0.16477585837E+03  0.80754304019E+03  0.46999998093E+01 0.  1.
       -5    1    3    3    0  502 -0.11192450792E+03  0.78257618976E+03  0.98750940078E+03  0.12649701557E+04  0.46999998093E+01 0. -1.
</event>
<event>
 5   0  0.1277709E-04  0.1882551E+04  0.7818609E-02  0.8663591E-01
       -1   -1    0    0    0  501  0.00000000000E+00  0.00000000000E+00  0.91509677657E+03  0.91509677658E+03  0.50400001928E-02 0.  1.
        1   -1    0    0  501    0  0.00000000000E+00  0.00000000000E+00 -0.96820264318E+03  0.96820264320E+03  0.50400001928E-02 0. -1.
    10030    2    1    2    0    0  0.00000000000E+00  0.00000000000E+00 -0.53105866612E+02  0.18832994198E+04  0.18825505230E+04 0.  0.
        4    1    3    3  502    0  0.52620999714E+03 -0.77300314883E+03 -0.13414419817E+03  0.94468360206E+03  0.12699999809E+01 0. -1.
       -4    1    3    3    0  502 -0.52620999714E+03  0.77300314883E+03  0.81038331555E+02  0.93861581772E+03  0.12699999809E+01 0.  1.
</event>
<event>
 5   0  0.1317527E-04  0.1943636E+04  0.7818609E-02  0.8633436E-01
        1   -1    0    0  501    0  0.00000000000E+00  0.00000000000E+00  0.73355793183E+03  0.73355793184E+03  0.50400001928E-02 0. -1.
       -1   -1    0    0    0  501  0.00000000000E+00  0.00000000000E+00 -0.12874649557E+04  0.12874649557E+04  0.50400001928E-02 0.  1.
    10030    2    1    2    0    0  0.00000000000E+00  0.00000000000E+00 -0.55390702383E+03  0.20210228875E+04  0.19436359023E+04 0.  0.
        1    1    3    3  502    0  0.18062945117E+02  0.94856068083E+03 -0.58007520861E+02  0.95050434387E+03  0.50400001928E-02 0.  1.
       -1    1    3    3    0  502 -0.18062945117E+02 -0.94856068083E+03 -0.49589950297E+03  0.10705185436E+04  0.50400001928E-02 0. -1.
</event>
<event>
 5   0  0.1324058E-04  0.1864308E+04  0.7818609E-02  0.8672829E-01
        1   -1    0    0  501    0  0.00000000000E+00  0.00000000000E+00  0.51388324643E+03  0.51388324645E+03  0.50400001928E-02 0. -1.
       -1   -1    0    0    0  501  0.00000000000E+00  0.00000000000E+00 -0.16908727257E+04  0.16908727257E+04  0.50400001928E-02 0.  1.
    10030    2    1    2    0    0  0.00000000000E+00  0.00000000000E+00 -0.11769894792E+04  0.22047559721E+04  0.18643080921E+04 0.  0.
        5    1    3    3  502    0 -0.67010223792E+03  0.33864391112E+03  0.64809455069E+02  0.75361731885E+03  0.46999998093E+01 0. -1.
       -5    1    3    3    0  502  0.67010223792E+03 -0.33864391112E+03 -0.12417989343E+04  0.14511386533E+04  0.46999998093E+01 0.  1.
</event>
<event>
 5   0  0.2651828E-04  0.1900060E+04  0.7818609E-02  0.8654826E-01
        2   -1    0    0  501    0  0.00000000000E+00  0.00000000000E+00  0.11739251147E+04  0.11739251147E+04  0.25500000920E-02 0.  1.
       -2   -1    0    0    0  501  0.00000000000E+00  0.00000000000E+00 -0.76883713033E+03  0.76883713033E+03  0.25500000920E-02 0. -1.
    10030    2    1    2    0    0  0.00000000000E+00  0.00000000000E+00  0.40508798433E+03  0.19427622450E+04  0.19000602268E+04 0.  0.
        3    1    3    3  502    0  0.46997418409E+03  0.10501659560E+03  0.10398827994E+04  0.11459757701E+04  0.10100000352E+00 0.  1.
       -3    1    3    3    0  502 -0.46997418409E+03 -0.10501659560E+03 -0.63479481507E+03  0.79678647485E+03  0.10100000352E+00 0. -1.
</event>
<event>
 5   0  0.2608744E-04  0.1847153E+04  0.7818609E-02  0.8681618E-01
       -2   -1    0    0    0  501  0.00000000000E+00  0.00000000000E+00  0.63119732366E+03  0.63119732366E+03  0.25500000920E-02 0.  1.
        2   -1    0    0  501    0  0.00000000000E+00  0.00000000000E+00 -0.13513901479E+04  0.13513901479E+04  0.25500000920E-02 0. -1.
    10030    2    1    2    0    0  0.00000000000E+00  0.00000000000E+00 -0.72019282421E+03  0.19825874715E+04  0.18471533175E+04 0.  0.
        2    1    3    3  502    0  0.29679451476E+03  0.72739673546E+02  0.57536614277E+03  0.65147850491E+03  0.25500000920E-02 0.  1.
       -2    1    3    3    0  502 -0.29679451476E+03 -0.72739673546E+02 -0.12955589670E+04  0.13311089666E+04  0.25500000920E-02 0. -1.
</event>
<event>
 5   0  0.1255141E-04  0.1599078E+04  0.7818609E-02  0.8821115E-01
       -1   -1    0    0    0  501  0.00000000000E+00  0.00000000000E+00  0.10849157162E+04  0.10849157162E+04  0.50400001928E-02 0.  1.
        1   -1    0    0  501    0  0.00000000000E+00  0.00000000000E+00 -0.58922795920E+03  0.58922795922E+03  0.50400001928E-02 0. -1.
    10030    2    1    2    0    0  0.00000000000E+00  0.00000000000E+00  0.49568775703E+03  0.16741436754E+04  0.15990780761E+04 0.  0.
        2    1    3    3  502    0 -0.31663069076E+03 -0.30465811314E+03  0.94717606284E+03  0.10441331593E+04  0.25500000920E-02 0.  1.
       -2    1    3    3    0  502  0.31663069076E+03  0.30465811314E+03 -0.45148830581E+03  0.63001051620E+03  0.25500000920E-02 0. -1.
</event>
<event>
 5   0  0.1255141E-04  0.1906701E+04  0.7818609E-02  0.8651528E-01
        1   -1    0    0  501    0  0.00000000000E+00  0.00000000000E+00  0.12363221608E+04  0.12363221608E+04  0.50400001928E-02 0. -1.
       -1   -1    0    0    0  501  0.00000000000E+00  0.00000000000E+00 -0.73514610871E+03  0.73514610872E+03  0.50400001928E-02 0.  1.
    10030    2    1    2    0    0  0.00000000000E+00  0.00000000000E+00  0.50117605205E+03  0.19714682695E+04  0.19067012620E+04 0.  0.
        2    1    3    3  502    0 -0.16090258784E+03  0.93947101552E+03  0.23037946855E+03  0.98059682403E+03  0.25500000920E-02 0. -1.
       -2    1    3    3    0  502  0.16090258784E+03 -0.93947101552E+03  0.27079658350E+03  0.99087144545E+03  0.25500000920E-02 0.  1.
</event>
<event>
 5   0  0.2595012E-04  0.1904903E+04  0.7818609E-02  0.8652420E-01
       -2   -1    0    0    0  501  0.00000000000E+00  0.00000000000E+00  0.84705304651E+03  0.84705304651E+03  0.25500000920E-02 0.  1.
        2   -1    0    0  501    0  0.00000000000E+00  0.00000000000E+00 -0.10709643247E+04  0.10709643247E+04  0.25500000920E-02 0. -1.
    10030    2    1    2    0    0  0.00000000000E+00  0.00000000000E+00 -0.22391127817E+03  0.19180173712E+04  0.19049027208E+04 0.  0.
        1    1    3    3  502    0 -0.71360962878E+03 -0.29809024555E+02  0.52249063180E+03  0.88494278944E+03  0.50400001928E-02 0.  1.
       -1    1    3    3    0  502  0.71360962878E+03  0.29809024555E+02 -0.74640190997E+03  0.10330745818E+04  0.50400001928E-02 0. -1.
</event>
<event>
 5   0  0.1239615E-04  0.1866316E+04  0.7818609E-02  0.8671807E-01
       -1   -1    0    0    0  501  0.00000000000E+00  0.00000000000E+00  0.84031076008E+03  0.84031076010E+03  0.50400001928E-02 0.  1.
        1   -1    0    0  501    0  0.00000000000E+00  0.00000000000E+00 -0.10362638363E+04  0.10362638363E+04  0.50400001928E-02 0. -1.
    10030    2    1    2    0    0  0.00000000000E+00  0.00000000000E+00 -0.19595307626E+03  0.18765745964E+04  0.18663157846E+04 0.  0.
        3    1    3    3  502    0 -0.65813620974E+02  0.13735995949E+03  0.82772757645E+03  0.84162470389E+03  0.10100000352E+00 0.  1.
       -3    1    3    3    0  502  0.65813620974E+02 -0.13735995949E+03 -0.10236806527E+04  0.10349498926E+04  0.10100000352E+00 0. -1.
</event>
<event>
 5   0  0.2595012E-04  0.1915291E+04  0.7818609E-02  0.8647282E-01
       -2   -1    0    0    0  501  0.00000000000E+00  0.00000000000E+00  0.82578381733E+03  0.82578381734E+03  0.25500000920E-02 0. -1.
        2   -1    0    0  501    0  0.00000000000E+00  0.00000000000E+00 -0.11105629726E+04  0.11105629726E+04  0.25500000920E-02 0.  1.
    10030    2    1    2    0    0  0.00000000000E+00  0.00000000000E+00 -0.28477915526E+03  0.19363467899E+04  0.19152910284E+04 0.  0.
        1    1    3    3  502    0  0.49701866667E+03  0.80758545271E+03 -0.72673080152E+01  0.94830091861E+03  0.50400001928E-02 0.  1.
       -1    1    3    3    0  502 -0.49701866667E+03 -0.80758545271E+03 -0.27751184725E+03  0.98804587132E+03  0.50400001928E-02 0. -1.
</event>
<event>
 5   0  0.1255141E-04  0.1934231E+04  0.7818609E-02  0.8638003E-01
        1   -1    0    0  501    0  0.00000000000E+00  0.00000000000E+00  0.88734586566E+03  0.88734586567E+03  0.50400001928E-02 0.  1.
       -1   -1    0    0    0  501  0.00000000000E+00  0.00000000000E+00 -0.10540560033E+04  0.10540560033E+04  0.50400001928E-02 0. -1.
    10030    2    1    2    0    0  0.00000000000E+00  0.00000000000E+00 -0.16671013760E+03  0.19414018689E+04  0.19342308411E+04 0.  0.
        2    1    3    3  502    0  0.65705239720E+03  0.64474072422E+03 -0.38093998988E+03  0.99625485194E+03  0.25500000920E-02 0.  1.
       -2    1    3    3    0  502 -0.65705239720E+03 -0.64474072422E+03  0.21422985228E+03  0.94514701700E+03  0.25500000920E-02 0. -1.
</event>
<event>
 5   0  0.1277709E-04  0.1865149E+04  0.7818609E-02  0.8672401E-01
        1   -1    0    0  501    0  0.00000000000E+00  0.00000000000E+00  0.70454993538E+03  0.70454993540E+03  0.50400001928E-02 0. -1.
       -1   -1    0    0    0  501  0.00000000000E+00  0.00000000000E+00 -0.12343976003E+04  0.12343976003E+04  0.50400001928E-02 0.  1.
    10030    2    1    2    0    0  0.00000000000E+00  0.00000000000E+00 -0.52984766490E+03  0.19389475357E+04  0.18651485191E+04 0.  0.
        4    1    3    3  502    0  0.25046019299E+03  0.47573547883E+03 -0.10570704710E+04  0.11859401956E+04  0.12699999809E+01 0.  1.
       -4    1    3    3    0  502 -0.25046019299E+03 -0.47573547883E+03  0.52722280606E+03  0.75300734008E+03  0.12699999809E+01 0. -1.
</event>
<event>
 5   0  0.2562925E-04  0.1898945E+04  0.7818609E-02  0.8655382E-01
        2   -1    0    0  501    0  0.00000000000E+00  0.00000000000E+00  0.13454353845E+04  0.13454353845E+04  0.25500000920E-02 0. -1.
       -2   -1    0    0    0  501  0.00000000000E+00  0.00000000000E+00 -0.67004166314E+03  0.67004166314E+03  0.25500000920E-02 0.  1.
    10030    2    1    2    0    0  0.00000000000E+00  0.00000000000E+00  0.67539372136E+03  0.20154770476E+04  0.18989447203E+04 0.  0.
        4    1    3    3  502    0 -0.70291893927E+03 -0.57267453619E+03  0.63685360094E+03  0.11079870403E+04  0.12699999809E+01 0. -1.
       -4    1    3    3    0  502  0.70291893927E+03  0.57267453619E+03  0.38540120415E+02  0.90749000731E+03  0.12699999809E+01 0.  1.
</event>
<event>
 5   0  0.2608744E-04  0.1916183E+04  0.7818609E-02  0.8646843E-01
        2   -1    0    0  501    0  0.00000000000E+00  0.00000000000E+00  0.86426499637E+03  0.86426499637E+03  0.25500000920E-02 0. -1.
       -2   -1    0    0    0  501  0.00000000000E+00  0.00000000000E+00 -0.10621044132E+04  0.10621044132E+04  0.25500000920E-02 0.  1.
    10030    2    1    2    0    0  0.00000000000E+00  0.00000000000E+00 -0.19783941686E+03  0.19263694096E+04  0.19161833595E+04 0.  0.
        2    1    3    3  502    0  0.64972535589E+03  0.61514996004E+03  0.24551967101E+03  0.92781055194E+03  0.25500000920E-02 0. -1.
       -2    1    3    3    0  502 -0.64972535589E+03 -0.61514996004E+03 -0.44335908786E+03  0.99855885767E+03  0.25500000920E-02 0.  1.
</event>
<event>
 5   0  0.1324058E-04  0.1895806E+04  0.7818609E-02  0.8656947E-01
       -1   -1    0    0    0  501  0.00000000000E+00  0.00000000000E+00  0.89818533288E+03  0.89818533289E+03  0.50400001928E-02 0. -1.
        1   -1    0    0  501    0  0.00000000000E+00  0.00000000000E+00 -0.10003723974E+04  0.10003723975E+04  0.50400001928E-02 0.  1.
    10030    2    1    2    0    0  0.00000000000E+00  0.00000000000E+00 -0.10218706457E+03  0.18985577304E+04  0.18958057019E+04 0.  0.
        5    1    3    3  502    0 -0.51221104453E+03 -0.78230291251E+03  0.10450164449E+03  0.94090418469E+03  0.46999998093E+01 0. -1.
       -5    1    3    3    0  502  0.51221104453E+03  0.78230291251E+03 -0.20668870906E+03  0.95765354566E+03  0.46999998093E+01 0.  1.
</event>
<event>
 5   0  0.2541124E-04  0.1923660E+04  0.7818609E-02  0.8643168E-01
        2   -1    0    0  501    0  0.00000000000E+00  0.00000000000E+00  0.68080519673E+03  0.68080519673E+03  0.25500000920E-02 0.  1.
       -2   -1    0    0    0  501  0.00000000000E+00  0.00000000000E+00 -0.13588567065E+04  0.13588567065E+04  0.25500000920E-02 0. -1.
    10030    2    1    2    0    0  0.00000000000E+00  0.00000000000E+00 -0.67805150976E+03  0.20396619032E+04  0.19236597489E+04 0.  0.
        5    1    3    3  502    0 -0.12230524027E+03 -0.94449806670E+03 -0.48151502354E+03  0.10671991275E+04  0.46999998093E+01 0.  1.
       -5    1    3    3    0  502  0.12230524027E+03  0.94449806670E+03 -0.19653648622E+03  0.97246277575E+03  0.46999998093E+01 0. -1.
</event>
<event>
 5   0  0.2608744E-04  0.1926461E+04  0.7818609E-02  0.8641796E-01
        2   -1    0    0  501    0  0.00000000000E+00  0.00000000000E+00  0.15077447257E+04  0.15077447257E+04  0.25500000920E-02 0.  1.
       -2   -1    0    0    0  501  0.00000000000E+00  0.00000000000E+00 -0.61536505198E+03  0.61536505198E+03  0.25500000920E-02 0. -1.
    10030    2    1    2    0    0  0.00000000000E+00  0.00000000000E+00  0.89237967370E+03  0.21231097777E+04  0.19264614312E+04 0.  0.
        2    1    3    3  502    0 -0.27032795604E+03  0.12971799693E+03 -0.56262317621E+03  0.63753337243E+03  0.25500000920E-02 0. -1.
       -2    1    3    3    0  502  0.27032795604E+03 -0.12971799693E+03  0.14550028499E+04  0.14855764052E+04  0.25500000920E-02 0.  1.
</event>
<event>
 5   0  0.9266125E-05  0.1965437E+04  0.7818609E-02  0.8622953E-01
       -4   -1    0    0    0  501  0.00000000000E+00  0.00000000000E+00  0.10635042352E+04  0.10635049935E+04  0.12699999809E+01 0.  1.
        4   -1    0    0  501    0  0.00000000000E+00  0.00000000000E+00 -0.90806794419E+03  0.90806883228E+03  0.12699999809E+01 0. -1.
    10030    2    1    2    0    0  0.00000000000E+00  0.00000000000E+00  0.15543629105E+03  0.19715738258E+04  0.19654370786E+04 0.  0.
        3    1    3    3  502    0 -0.23914179381E+03 -0.47022682593E+03  0.90942310881E+03  0.10513574399E+04  0.10100000352E+00 0.  1.
       -3    1    3    3    0  502  0.23914179381E+03  0.47022682593E+03 -0.75398681776E+03  0.92021638593E+03  0.10100000352E+00 0. -1.
</event>
<event>
 5   0  0.1239615E-04  0.1889069E+04  0.7818609E-02  0.8660317E-01
       -1   -1    0    0    0  501  0.00000000000E+00  0.00000000000E+00  0.90384970508E+03  0.90384970510E+03  0.50400001928E-02 0.  1.
        1   -1    0    0  501    0  0.00000000000E+00  0.00000000000E+00 -0.98705013372E+03  0.98705013373E+03  0.50400001928E-02 0. -1.
    10030    2    1    2    0    0  0.00000000000E+00  0.00000000000E+00 -0.83200428639E+02  0.18908998388E+04  0.18890685242E+04 0.  0.
        3    1    3    3  502    0 -0.44738490854E+03  0.82491585056E+03  0.65767674678E+02  0.94072568485E+03  0.10100000352E+00 0.  1.
       -3    1    3    3    0  502  0.44738490854E+03 -0.82491585056E+03 -0.14896810332E+03  0.95017415399E+03  0.10100000352E+00 0. -1.
</event>
<event>
 5   0  0.2595012E-04  0.1867784E+04  0.7818609E-02  0.8671061E-01
        2   -1    0    0  501    0  0.00000000000E+00  0.00000000000E+00  0.87369237413E+03  0.87369237413E+03  0.25500000920E-02 0. -1.
       -2   -1    0    0    0  501  0.00000000000E+00  0.00000000000E+00 -0.99823927346E+03  0.99823927347E+03  0.25500000920E-02 0.  1.
    10030    2    1    2    0    0  0.00000000000E+00  0.00000000000E+00 -0.12454689934E+03  0.18719316476E+04  0.18677837571E+04 0.  0.
        1    1    3    3  502    0  0.13480345798E+03 -0.42209180816E+03  0.76163526560E+03  0.88114796976E+03  0.50400001928E-02 0. -1.
       -1    1    3    3    0  502 -0.13480345798E+03  0.42209180816E+03 -0.88618216493E+03  0.99078367783E+03  0.50400001928E-02 0.  1.
</event>
<event>
 5   0  0.1239615E-04  0.1932141E+04  0.7818609E-02  0.8639021E-01
       -1   -1    0    0    0  501  0.00000000000E+00  0.00000000000E+00  0.75161916571E+03  0.75161916573E+03  0.50400001928E-02 0.  1.
        1   -1    0    0  501    0  0.00000000000E+00  0.00000000000E+00 -0.12417092080E+04  0.12417092080E+04  0.50400001928E-02 0. -1.
    10030    2    1    2    0    0  0.00000000000E+00  0.00000000000E+00 -0.49009004229E+03  0.19933283737E+04  0.19321412360E+04 0.  0.
        3    1    3    3  502    0  0.20774280050E+03 -0.87309003802E+03  0.12383819034E+03  0.90596864914E+03  0.10100000352E+00 0.  1.
       -3    1    3    3    0  502 -0.20774280050E+03  0.87309003802E+03 -0.61392823263E+03  0.10873597246E+04  0.10100000352E+00 0. -1.
</event>
<event>
 5   0  0.2608744E-04  0.1912895E+04  0.7818609E-02  0.8648464E-01
        2   -1    0    0  501    0  0.00000000000E+00  0.00000000000E+00  0.20461638902E+04  0.20461638902E+04  0.25500000920E-02 0. -1.
       -2   -1    0    0    0  501  0.00000000000E+00  0.00000000000E+00 -0.44707655936E+03  0.44707655936E+03  0.25500000920E-02 0.  1.
    10030    2    1    2    0    0  0.00000000000E+00  0.00000000000E+00  0.15990873309E+04  0.24932404496E+04  0.19128950958E+04 0.  0.
        2    1    3    3  502    0  0.67102114195E+03  0.14340593095E+03  0.16679912275E+04  0.18036156379E+04  0.25500000920E-02 0. -1.
       -2    1    3    3    0  502 -0.67102114195E+03 -0.14340593095E+03 -0.68903896665E+02  0.68962481174E+03  0.25500000920E-02 0.  1.
</event>
<event>
 5   0  0.2651828E-04  0.1893294E+04  0.7818609E-02  0.8658202E-01
       -2   -1    0    0    0  501  0.00000000000E+00  0.00000000000E+00  0.88584869832E+03  0.88584869833E+03  0.25500000920E-02 0.  1.
        2   -1    0    0  501    0  0.00000000000E+00  0.00000000000E+00 -0.10116179150E+04  0.10116179150E+04  0.25500000920E-02 0. -1.
    10030    2    1    2    0    0  0.00000000000E+00  0.00000000000E+00 -0.12576921665E+03  0.18974666133E+04  0.18932938633E+04 0.  0.
        3    1    3    3  502    0 -0.75008587473E+03  0.67336994234E+02  0.51194494772E+03  0.91063204971E+03  0.10100000352E+00 0.  1.
       -3    1    3    3    0  502  0.75008587473E+03 -0.67336994234E+02 -0.63771416437E+03  0.98683456359E+03  0.10100000352E+00 0. -1.
</event>
<event>
 5   0  0.2595012E-04  0.1912004E+04  0.7818609E-02  0.8648904E-01
        2   -1    0    0  501    0  0.00000000000E+00  0.00000000000E+00  0.80589830620E+03  0.80589830621E+03  0.25500000920E-02 0. -1.
       -2   -1    0    0    0  501  0.00000000000E+00  0.00000000000E+00 -0.11340637166E+04  0.11340637166E+04  0.25500000920E-02 0.  1.
    10030    2    1    2    0    0  0.00000000000E+00  0.00000000000E+00 -0.32816541039E+03  0.19399620228E+04  0.19120042137E+04 0.  0.
        1    1    3    3  502    0 -0.66655038269E+02 -0.52685070476E+03 -0.97064388032E+03  0.11064194962E+04  0.50400001928E-02 0.  1.
       -1    1    3    3    0  502  0.66655038269E+02  0.52685070476E+03  0.64247846993E+03  0.83354252656E+03  0.50400001928E-02 0. -1.
</event>
<event>
 5   0  0.2541124E-04  0.1939659E+04  0.7818609E-02  0.8635364E-01
       -2   -1    0    0    0  501  0.00000000000E+00  0.00000000000E+00  0.68017250790E+03  0.68017250790E+03  0.25500000920E-02 0.  1.
        2   -1    0    0  501    0  0.00000000000E+00  0.00000000000E+00 -0.13828388523E+04  0.13828388523E+04  0.25500000920E-02 0. -1.
    10030    2    1    2    0    0  0.00000000000E+00  0.00000000000E+00 -0.70266634442E+03  0.20630113602E+04  0.19396587022E+04 0.  0.
        5    1    3    3  502    0  0.34722702115E+03 -0.64438556494E+03 -0.10279898908E+04  0.12619764919E+04  0.46999998093E+01 0. -1.
       -5    1    3    3    0  502 -0.34722702115E+03  0.64438556494E+03  0.32532354634E+03  0.80103486836E+03  0.46999998093E+01 0.  1.
</event>
<event>
 5   0  0.1277709E-04  0.1911246E+04  0.7818609E-02  0.8649279E-01
       -1   -1    0    0    0  501  0.00000000000E+00  0.00000000000E+00  0.69198722566E+03  0.69198722567E+03  0.50400001928E-02 0. -1.
        1   -1    0    0  501    0  0.00000000000E+00  0.00000000000E+00 -0.13196995758E+04  0.13196995759E+04  0.50400001928E-02 0.  1.
    10030    2    1    2    0    0  0.00000000000E+00  0.00000000000E+00 -0.62771235019E+03  0.20116868015E+04  0.19112459268E+04 0.  0.
        4    1    3    3  502    0 -0.80143850156E+03  0.26754150171E+03 -0.78378465950E+03  0.11524765214E+04  0.12699999809E+01 0.  1.
       -4    1    3    3    0  502  0.80143850156E+03 -0.26754150171E+03  0.15607230931E+03  0.85921028017E+03  0.12699999809E+01 0. -1.
</event>
<event>
 5   0  0.1324058E-04  0.1920097E+04  0.7818609E-02  0.8644917E-01
        1   -1    0    0  501    0  0.00000000000E+00  0.00000000000E+00  0.14058573148E+04  0.14058573148E+04  0.50400001928E-02 0.  1.
       -1   -1    0    0    0  501  0.00000000000E+00  0.00000000000E+00 -0.65560923611E+03  0.65560923613E+03  0.50400001928E-02 0. -1.
    10030    2    1    2    0    0  0.00000000000E+00  0.00000000000E+00  0.75024807873E+03  0.20614665510E+04  0.19200969145E+04 0.  0.
        5    1    3    3  502    0 -0.24528834148E+03  0.39823466711E+02  0.13707170340E+04  0.13930683961E+04  0.46999998093E+01 0.  1.
       -5    1    3    3    0  502  0.24528834148E+03 -0.39823466711E+02 -0.62046895527E+03  0.66839815486E+03  0.46999998093E+01 0. -1.
</event>
<event>
 5   0  0.2562925E-04  0.1905730E+04  0.7818609E-02  0.8652009E-01
       -2   -1    0    0    0  501  0.00000000000E+00  0.00000000000E+00  0.86577025932E+03  0.86577025932E+03  0.25500000920E-02 0. -1.
        2   -1    0    0  501    0  0.00000000000E+00  0.00000000000E+00 -0.10487213876E+04  0.10487213876E+04  0.25500000920E-02 0.  1.
    10030    2    1    2    0    0  0.00000000000E+00  0.00000000000E+00 -0.18295112830E+03  0.19144916469E+04  0.19057300834E+04 0.  0.
        4    1    3    3  502    0 -0.54752421163E+03  0.31406524839E+03 -0.80857131656E+03  0.10257723575E+04  0.12699999809E+01 0.  1.
       -4    1    3    3    0  502  0.54752421163E+03 -0.31406524839E+03  0.62562018826E+03  0.88871928944E+03  0.12699999809E+01 0. -1.
</event>
<event>
 5   0  0.1277709E-04  0.1899475E+04  0.7818609E-02  0.8655118E-01
        1   -1    0    0  501    0  0.00000000000E+00  0.00000000000E+00  0.11993992753E+04  0.11993992753E+04  0.50400001928E-02 0.  1.
       -1   -1    0    0    0  501  0.00000000000E+00  0.00000000000E+00 -0.75204432891E+03  0.75204432893E+03  0.50400001928E-02 0. -1.
    10030    2    1    2    0    0  0.00000000000E+00  0.00000000000E+00  0.44735494637E+03  0.19514436042E+04  0.18994751097E+04 0.  0.
        4    1    3    3  502    0  0.43363282164E+03 -0.67102434466E+03  0.75123299108E+03  0.10966602550E+04  0.12699999809E+01 0.  1.
       -4    1    3    3    0  502 -0.43363282164E+03  0.67102434466E+03 -0.30387804470E+03  0.85478334921E+03  0.12699999809E+01 0. -1.
</event>
<event>
 5   0  0.1239615E-04  0.1914872E+04  0.7818609E-02  0.8647489E-01
        1   -1    0    0  501    0  0.00000000000E+00  0.00000000000E+00  0.96691267520E+03  0.96691267522E+03  0.50400001928E-02 0. -1.
       -1   -1    0    0    0  501  0.00000000000E+00  0.00000000000E+00 -0.94805210656E+03  0.94805210657E+03  0.50400001928E-02 0.  1.
    10030    2    1    2    0    0  0.00000000000E+00  0.00000000000E+00  0.18860568644E+02  0.19149647818E+04  0.19148719003E+04 0.  0.
        3    1    3    3  502    0  0.61657634567E+03 -0.65562861762E+03  0.33604728075E+03  0.96069925542E+03  0.10100000352E+00 0.  1.
       -3    1    3    3    0  502 -0.61657634567E+03  0.65562861762E+03 -0.31718671210E+03  0.95426552636E+03  0.10100000352E+00 0. -1.
</event>
<event>
 5   0  0.2595012E-04  0.1907998E+04  0.7818609E-02  0.8650885E-01
        2   -1    0    0  501    0  0.00000000000E+00  0.00000000000E+00  0.14805862122E+04  0.14805862122E+04  0.25500000920E-02 0. -1.
       -2   -1    0    0    0  501  0.00000000000E+00  0.00000000000E+00 -0.61469859219E+03  0.61469859220E+03  0.25500000920E-02 0.  1.
    10030    2    1    2    0    0  0.00000000000E+00  0.00000000000E+00  0.86588762005E+03  0.20952848044E+04  0.19079981764E+04 0.  0.
        1    1    3    3  502    0  0.22733731786E+03  0.92416320630E+03  0.36047887824E+03  0.10176958827E+04  0.50400001928E-02 0.  1.
       -1    1    3    3    0  502 -0.22733731786E+03 -0.92416320630E+03  0.50540874181E+03  0.10775889218E+04  0.50400001928E-02 0. -1.
</event>
<event>
 5   0  0.1324058E-04  0.1939685E+04  0.7818609E-02  0.8635351E-01
       -1   -1    0    0    0  501  0.00000000000E+00  0.00000000000E+00  0.86365583116E+03  0.86365583117E+03  0.50400001928E-02 0.  1.
        1   -1    0    0  501    0  0.00000000000E+00  0.00000000000E+00 -0.10890851226E+04  0.10890851226E+04  0.50400001928E-02 0. -1.
    10030    2    1    2    0    0  0.00000000000E+00  0.00000000000E+00 -0.22542929145E+03  0.19527409538E+04  0.19396852495E+04 0.  0.
        5    1    3    3  502    0  0.79652792589E+02  0.92940062433E+03 -0.37991121138E+03  0.10072163156E+04  0.46999998093E+01 0. -1.
       -5    1    3    3    0  502 -0.79652792589E+02 -0.92940062433E+03  0.15448191993E+03  0.94552463820E+03  0.46999998093E+01 0.  1.
</event>
<event>
 5   0  0.2562925E-04  0.1832981E+04  0.7818609E-02  0.8688955E-01
        2   -1    0    0  501    0  0.00000000000E+00  0.00000000000E+00  0.11567437794E+04  0.11567437794E+04  0.25500000920E-02 0. -1.
       -2   -1    0    0    0  501  0.00000000000E+00  0.00000000000E+00 -0.72613707855E+03  0.72613707856E+03  0.25500000920E-02 0.  1.
    10030    2    1    2    0    0  0.00000000000E+00  0.00000000000E+00  0.43060670080E+03  0.18828808579E+04  0.18329806857E+04 0.  0.
        4    1    3    3  502    0  0.37759443011E+03  0.70250262750E+03  0.67910977091E+03  0.10475109494E+04  0.12699999809E+01 0.  1.
       -4    1    3    3    0  502 -0.37759443011E+03 -0.70250262750E+03 -0.24850307011E+03  0.83536990851E+03  0.12699999809E+01 0. -1.
</event>
<event>
 5   0  0.2595012E-04  0.1895041E+04  0.7818609E-02  0.8657329E-01
       -2   -1    0    0    0  501  0.00000000000E+00  0.00000000000E+00  0.49760077427E+03  0.49760077428E+03  0.25500000920E-02 0. -1.
        2   -1    0    0  501    0  0.00000000000E+00  0.00000000000E+00 -0.18042468637E+04  0.18042468637E+04  0.25500000920E-02 0.  1.
    10030    2    1    2    0    0  0.00000000000E+00  0.00000000000E+00 -0.13066460894E+04  0.23018476380E+04  0.18950405129E+04 0.  0.
        1    1    3    3  502    0  0.77847999615E+02 -0.51729783197E+03 -0.16129404937E+04  0.16956516135E+04  0.50400001928E-02 0.  1.
       -1    1    3    3    0  502 -0.77847999615E+02  0.51729783197E+03  0.30629440429E+03  0.60619602450E+03  0.50400001928E-02 0. -1.
</event>
<event>
 5   0  0.2651828E-04  0.1643403E+04  0.7818609E-02  0.8794319E-01
        2   -1    0    0  501    0  0.00000000000E+00  0.00000000000E+00  0.51147229912E+03  0.51147229913E+03  0.25500000920E-02 0. -1.
       -2   -1    0    0    0  501  0.00000000000E+00  0.00000000000E+00 -0.13200972923E+04  0.13200972923E+04  0.25500000920E-02 0.  1.
    10030    2    1    2    0    0  0.00000000000E+00  0.00000000000E+00 -0.80862499318E+03  0.18315695914E+04  0.16434028078E+04 0.  0.
        3    1    3    3  502    0  0.25241878639E+03  0.27349063707E+03 -0.12207772387E+04  0.12762481926E+04  0.10100000352E+00 0.  1.
       -3    1    3    3    0  502 -0.25241878639E+03 -0.27349063707E+03  0.41215224556E+03  0.55532139884E+03  0.10100000352E+00 0. -1.
</event>
<event>
 5   0  0.2608744E-04  0.1890866E+04  0.7818609E-02  0.8659416E-01
        2   -1    0    0  501    0  0.00000000000E+00  0.00000000000E+00  0.13158426470E+04  0.13158426470E+04  0.25500000920E-02 0.  1.
       -2   -1    0    0    0  501  0.00000000000E+00  0.00000000000E+00 -0.67929360524E+03  0.67929360525E+03  0.25500000920E-02 0. -1.
    10030    2    1    2    0    0  0.00000000000E+00  0.00000000000E+00  0.63654904177E+03  0.19951362523E+04  0.18908659346E+04 0.  0.
        2    1    3    3  502    0 -0.88251812354E+03  0.33734511326E+03  0.35487953746E+03  0.10092469717E+04  0.25500000920E-02 0.  1.
       -2    1    3    3    0  502  0.88251812354E+03 -0.33734511326E+03  0.28166950431E+03  0.98588928054E+03  0.25500000920E-02 0. -1.
</event>
<event>
 5   0  0.2595012E-04  0.1908436E+04  0.7818609E-02  0.8650668E-01
        2   -1    0    0  501    0  0.00000000000E+00  0.00000000000E+00  0.17392505772E+04  0.17392505772E+04  0.25500000920E-02 0. -1.
       -2   -1    0    0    0  501  0.00000000000E+00  0.00000000000E+00 -0.52351991981E+03  0.52351991981E+03  0.25500000920E-02 0.  1.
    10030    2    1    2    0    0  0.00000000000E+00  0.00000000000E+00  0.12157306574E+04  0.22627704970E+04  0.19084363471E+04 0.  0.
        1    1    3    3  502    0 -0.11542692923E+02 -0.23561502351E+03  0.17041329513E+04  0.17203827448E+04  0.50400001928E-02 0. -1.
       -1    1    3    3    0  502  0.11542692923E+02  0.23561502351E+03 -0.48840229386E+03  0.54238775220E+03  0.50400001928E-02 0.  1.
</event>
<event>
 5   0  0.2541124E-04  0.1879166E+04  0.7818609E-02  0.8665297E-01
        2   -1    0    0  501    0  0.00000000000E+00  0.00000000000E+00  0.12996707081E+04  0.12996707082E+04  0.25500000920E-02 0. -1.
       -2   -1    0    0    0  501  0.00000000000E+00  0.00000000000E+00 -0.67926149582E+03  0.67926149582E+03  0.25500000920E-02 0.  1.
    10030    2    1    2    0    0  0.00000000000E+00  0.00000000000E+00  0.62040921233E+03  0.19789322040E+04  0.18791660590E+04 0.  0.
        5    1    3    3  502    0 -0.89457086799E+03  0.25110291927E+03  0.16320708772E+03  0.94338134251E+03  0.46999998093E+01 0. -1.
       -5    1    3    3    0  502  0.89457086799E+03 -0.25110291927E+03  0.45720212461E+03  0.10355508615E+04  0.46999998093E+01 0.  1.
</event>
<event>
 5   0  0.2608744E-04  0.1898476E+04  0.7818609E-02  0.8655615E-01
       -2   -1    0    0    0  501  0.00000000000E+00  0.00000000000E+00  0.98255306914E+03  0.98255306914E+03  0.25500000920E-02 0. -1.
        2   -1    0    0  501    0  0.00000000000E+00  0.00000000000E+00 -0.91705233940E+03  0.91705233941E+03  0.25500000920E-02 0.  1.
    10030    2    1    2    0    0  0.00000000000E+00  0.00000000000E+00  0.65500729735E+02  0.18996054085E+04  0.18984757998E+04 0.  0.
        2    1    3    3  502    0 -0.55302276790E+02  0.91716177156E+03  0.27123759055E+03  0.95802603700E+03  0.25500000920E-02 0. -1.
       -2    1    3    3    0  502  0.55302276790E+02 -0.91716177156E+03 -0.20573686081E+03  0.94157937155E+03  0.25500000920E-02 0.  1.
</event>
<event>
 5   0  0.1239615E-04  0.1892671E+04  0.7818609E-02  0.8658513E-01
        1   -1    0    0  501    0  0.00000000000E+00  0.00000000000E+00  0.74819966452E+03  0.74819966454E+03  0.50400001928E-02 0. -1.
       -1   -1    0    0    0  501  0.00000000000E+00  0.00000000000E+00 -0.11969405417E+04  0.11969405417E+04  0.50400001928E-02 0.  1.
    10030    2    1    2    0    0  0.00000000000E+00  0.00000000000E+00 -0.44874087714E+03  0.19451402062E+04  0.18926706124E+04 0.  0.
        3    1    3    3  502    0 -0.58354557082E+03 -0.55191527016E+03 -0.73865761743E+03  0.10912153704E+04  0.10100000352E+00 0.  1.
       -3    1    3    3    0  502  0.58354557082E+03  0.55191527016E+03  0.28991674029E+03  0.85392483578E+03  0.10100000352E+00 0. -1.
</event>
<event>
 5   0  0.1317527E-04  0.1937357E+04  0.7818609E-02  0.8636482E-01
       -1   -1    0    0    0  501  0.00000000000E+00  0.00000000000E+00  0.85151837650E+03  0.85151837652E+03  0.50400001928E-02 0.  1.
        1   -1    0    0  501    0  0.00000000000E+00  0.00000000000E+00 -0.11019586396E+04  0.11019586397E+04  0.50400001928E-02 0. -1.
    10030    2    1    2    0    0  0.00000000000E+00  0.00000000000E+00 -0.25044026314E+03  0.19534770162E+04  0.19373569953E+04 0.  0.
        1    1    3    3  502    0  0.33873422289E+03  0.90021891863E+03 -0.24108076349E+03  0.99159210857E+03  0.50400001928E-02 0. -1.
       -1    1    3    3    0  502 -0.33873422289E+03 -0.90021891863E+03 -0.93594996481E+01  0.96188490760E+03  0.50400001928E-02 0.  1.
</event>
<event>
 5   0  0.2562925E-04  0.1914882E+04  0.7818609E-02  0.8647484E-01
        2   -1    0    0  501    0  0.00000000000E+00  0.00000000000E+00  0.10547632449E+04  0.10547632449E+04  0.25500000920E-02 0.  1.
       -2   -1    0    0    0  501  0.00000000000E+00  0.00000000000E+00 -0.86909871416E+03  0.86909871417E+03  0.25500000920E-02 0. -1.
    10030    2    1    2    0    0  0.00000000000E+00  0.00000000000E+00  0.18566453073E+03  0.19238619591E+04  0.19148821164E+04 0.  0.
        4    1    3    3  502    0 -0.50181498340E+02 -0.62742248584E+03  0.81768256955E+03  0.10318834992E+04  0.12699999809E+01 0.  1.
       -4    1    3    3    0  502  0.50181498340E+02  0.62742248584E+03 -0.63201803883E+03  0.89197845984E+03  0.12699999809E+01 0. -1.
</event>
<event>
 5   0  0.2541124E-04  0.1909150E+04  0.7818609E-02  0.8650315E-01
        2   -1    0    0  501    0  0.00000000000E+00  0.00000000000E+00  0.10803167679E+04  0.10803167679E+04  0.25500000920E-02 0.  1.
       -2   -1    0    0    0  501  0.00000000000E+00  0.00000000000E+00 -0.84346846846E+03  0.84346846846E+03  0.25500000920E-02 0. -1.
    10030    2    1    2    0    0  0.00000000000E+00  0.00000000000E+00  0.23684829944E+03  0.19237852364E+04  0.19091496847E+04 0.  0.
        5    1    3    3  502    0 -0.10647271696E+03  0.62315800423E+03 -0.60227101941E+03  0.87316367796E+03  0.46999998093E+01 0. -1.
       -5    1    3    3    0  502  0.10647271696E+03 -0.62315800423E+03  0.83911931885E+03  0.10506215584E+04  0.46999998093E+01 0.  1.
</event>
<event>
 5   0  0.2541124E-04  0.1927405E+04  0.7818609E-02  0.8641334E-01
        2   -1    0    0  501    0  0.00000000000E+00  0.00000000000E+00  0.20021046577E+04  0.20021046577E+04  0.25500000920E-02 0.  1.
       -2   -1    0    0    0  501  0.00000000000E+00  0.00000000000E+00 -0.46387317266E+03  0.46387317266E+03  0.25500000920E-02 0. -1.
    10030    2    1    2    0    0  0.00000000000E+00  0.00000000000E+00  0.15382314850E+04  0.24659778303E+04  0.19274051360E+04 0.  0.
        5    1    3    3  502    0 -0.14074777785E+03 -0.75643222108E+03  0.15115163172E+04  0.16960846999E+04  0.46999998093E+01 0.  1.
       -5    1    3    3    0  502  0.14074777785E+03  0.75643222108E+03  0.26715167783E+02  0.76989313041E+03  0.46999998093E+01 0. -1.
</event>
<event>
 5   0  0.1277709E-04  0.1773357E+04  0.7818609E-02  0.8720598E-01
       -1   -1    0    0    0  501  0.00000000000E+00  0.00000000000E+00  0.10962054789E+04  0.10962054789E+04  0.50400001928E-02 0. -1.
        1   -1    0    0  501    0  0.00000000000E+00  0.00000000000E+00 -0.71719977693E+03  0.71719977695E+03  0.50400001928E-02 0.  1.
    10030    2    1    2    0    0  0.00000000000E+00  0.00000000000E+00  0.37900570197E+03  0.18134052559E+04  0.17733565067E+04 0.  0.
        4    1    3    3  502    0 -0.26525876151E+03 -0.41043347987E+03  0.94606189593E+03  0.10648251386E+04  0.12699999809E+01 0. -1.
       -4    1    3    3    0  502  0.26525876151E+03  0.41043347987E+03 -0.56705619396E+03  0.74858011727E+03  0.12699999809E+01 0.  1.
</event>
<event>
 5   0  0.9266125E-05  0.1907288E+04  0.7818609E-02  0.8651237E-01
       -3   -1    0    0    0  501  0.00000000000E+00  0.00000000000E+00  0.73905083103E+03  0.73905083794E+03  0.10100000352E+00 0.  1.
        3   -1    0    0  501    0  0.00000000000E+00  0.00000000000E+00 -0.12305468138E+04  0.12305468180E+04  0.10100000352E+00 0. -1.
    10030    2    1    2    0    0  0.00000000000E+00  0.00000000000E+00 -0.49149598279E+03  0.19695976559E+04  0.19072877667E+04 0.  0.
        2    1    3    3  502    0 -0.92017322876E+03  0.74303728264E+02  0.12237808668E+01  0.92316916792E+03  0.25500000920E-02 0.  1.
       -2    1    3    3    0  502  0.92017322876E+03 -0.74303728264E+02 -0.49271976366E+03  0.10464284880E+04  0.25500000920E-02 0. -1.
</event>
<event>
 5   0  0.2595012E-04  0.1918774E+04  0.7818609E-02  0.8645568E-01
        2   -1    0    0  501    0  0.00000000000E+00  0.00000000000E+00  0.12943216601E+04  0.12943216601E+04  0.25500000920E-02 0. -1.
       -2   -1    0    0    0  501  0.00000000000E+00  0.00000000000E+00 -0.71112386325E+03  0.71112386325E+03  0.25500000920E-02 0.  1.
    10030    2    1    2    0    0  0.00000000000E+00  0.00000000000E+00  0.58319779681E+03  0.20054455233E+04  0.19187735866E+04 0.  0.
        1    1    3    3  502    0  0.22733025879E+03  0.39857746522E+03  0.11722007634E+04  0.12588080363E+04  0.50400001928E-02 0. -1.
       -1    1    3    3    0  502 -0.22733025879E+03 -0.39857746522E+03 -0.58900296663E+03  0.74663748705E+03  0.50400001928E-02 0.  1.
</event>
<event>
 5   0  0.2562925E-04  0.1897549E+04  0.7818609E-02  0.8656077E-01
       -2   -1    0    0    0  501  0.00000000000E+00  0.00000000000E+00  0.75968432163E+03  0.75968432164E+03  0.25500000920E-02 0.  1.
        2   -1    0    0  501    0  0.00000000000E+00  0.00000000000E+00 -0.11849308216E+04  0.11849308216E+04  0.25500000920E-02 0. -1.
    10030    2    1    2    0    0  0.00000000000E+00  0.00000000000E+00 -0.42524650001E+03  0.19446151433E+04  0.18975493326E+04 0.  0.
        4    1    3    3  502    0  0.17896801250E+03  0.74947283094E+03 -0.77991716880E+03  0.10963628400E+04  0.12699999809E+01 0. -1.
       -4    1    3    3    0  502 -0.17896801250E+03 -0.74947283094E+03  0.35467066880E+03  0.84825230328E+03  0.12699999809E+01 0.  1.
</event>
<event>
 5   0  0.2608744E-04  0.1906255E+04  0.7818609E-02  0.8651749E-01
        2   -1    0    0  501    0  0.00000000000E+00  0.00000000000E+00  0.77605942683E+03  0.77605942684E+03  0.25500000920E-02 0. -1.
       -2   -1    0    0    0  501  0.00000000000E+00  0.00000000000E+00 -0.11705955981E+04  0.11705955981E+04  0.25500000920E-02 0.  1.
    10030    2    1    2    0    0  0.00000000000E+00  0.00000000000E+00 -0.39453617129E+03  0.19466550250E+04  0.19062547038E+04 0.  0.
        2    1    3    3  502    0 -0.86792143277E+03  0.15488441500E+03 -0.56712481614E+03  0.10482878195E+04  0.25500000920E-02 0.  1.
       -2    1    3    3    0  502  0.86792143277E+03 -0.15488441500E+03  0.17258864485E+03  0.89836720544E+03  0.25500000920E-02 0. -1.
</event>
<event>
 5   0  0.2608744E-04  0.1896627E+04  0.7818609E-02  0.8656537E-01
        2   -1    0    0  501    0  0.00000000000E+00  0.00000000000E+00  0.24168300987E+04  0.24168300987E+04  0.25500000920E-02 0.  1.
       -2   -1    0    0    0  501  0.00000000000E+00  0.00000000000E+00 -0.37209833417E+03  0.37209833418E+03  0.25500000920E-02 0. -1.
    10030    2    1    2    0    0  0.00000000000E+00  0.00000000000E+00  0.20447317645E+04  0.27889284328E+04  0.18966269572E+04 0.  0.
        2    1    3    3  502    0 -0.30194660819E+03 -0.87927528886E+03  0.12974717214E+04  0.15961609115E+04  0.25500000920E-02 0.  1.
       -2    1    3    3    0  502  0.30194660819E+03  0.87927528886E+03  0.74726004311E+03  0.11927675213E+04  0.25500000920E-02 0. -1.
</event>
<event>
 5   0  0.1255141E-04  0.1886703E+04  0.7818609E-02  0.8661504E-01
       -1   -1    0    0    0  501  0.00000000000E+00  0.00000000000E+00  0.94001851005E+03  0.94001851006E+03  0.50400001928E-02 0.  1.
        1   -1    0    0  501    0  0.00000000000E+00  0.00000000000E+00 -0.94669630036E+03  0.94669630038E+03  0.50400001928E-02 0. -1.
    10030    2    1    2    0    0  0.00000000000E+00  0.00000000000E+00 -0.66777903176E+01  0.18867148104E+04  0.18867029928E+04 0.  0.
        2    1    3    3  502    0 -0.48759227762E+03 -0.73370110635E+03  0.33407765648E+03  0.94216316167E+03  0.25500000920E-02 0.  1.
       -2    1    3    3    0  502  0.48759227762E+03  0.73370110635E+03 -0.34075544680E+03  0.94455164876E+03  0.25500000920E-02 0. -1.
</event>
<event>
 5   0  0.1239615E-04  0.1862754E+04  0.7818609E-02  0.8673621E-01
        1   -1    0    0  501    0  0.00000000000E+00  0.00000000000E+00  0.72581977483E+03  0.72581977485E+03  0.50400001928E-02 0.  1.
       -1   -1    0    0    0  501  0.00000000000E+00  0.00000000000E+00 -0.11951499672E+04  0.11951499672E+04  0.50400001928E-02 0. -1.
    10030    2    1    2    0    0  0.00000000000E+00  0.00000000000E+00 -0.46933019239E+03  0.19209697421E+04  0.18627543908E+04 0.  0.
        3    1    3    3  502    0 -0.74544600905E+03 -0.53091706077E+03 -0.41298764991E+03  0.10040525320E+04  0.10100000352E+00 0.  1.
       -3    1    3    3    0  502  0.74544600905E+03  0.53091706077E+03 -0.56342542479E+02  0.91691721007E+03  0.10100000352E+00 0. -1.
</event>
<event>
 5   0  0.2541124E-04  0.1871253E+04  0.7818609E-02  0.8669299E-01
        2   -1    0    0  501    0  0.00000000000E+00  0.00000000000E+00  0.11698235664E+04  0.11698235664E+04  0.25500000920E-02 0. -1.
       -2   -1    0    0    0  501  0.00000000000E+00  0.00000000000E+00 -0.74831531443E+03  0.74831531444E+03  0.25500000920E-02 0.  1.
    10030    2    1    2    0    0  0.00000000000E+00  0.00000000000E+00  0.42150825199E+03  0.19181388809E+04  0.18712529385E+04 0.  0.
        5    1    3    3  502    0 -0.68948368474E+02  0.48987538155E+03 -0.60327389441E+03  0.78018795725E+03  0.46999998093E+01 0.  1.
       -5    1    3    3    0  502  0.68948368474E+02 -0.48987538155E+03  0.10247821464E+04  0.11379509236E+04  0.46999998093E+01 0. -1.
</event>
<event>
 5   0  0.2595012E-04  0.1885836E+04  0.7818609E-02  0.8661939E-01
        2   -1    0    0  501    0  0.00000000000E+00  0.00000000000E+00  0.74263314029E+03  0.74263314030E+03  0.25500000920E-02 0.  1.
       -2   -1    0    0    0  501  0.00000000000E+00  0.00000000000E+00 -0.11972190762E+04  0.11972190762E+04  0.25500000920E-02 0. -1.
    10030    2    1    2    0    0  0.00000000000E+00  0.00000000000E+00 -0.45458593592E+03  0.19398522165E+04  0.18858362200E+04 0.  0.
        1    1    3    3  502    0 -0.38116294576E+03 -0.80041805765E+03  0.10306050447E+03  0.89251091077E+03  0.50400001928E-02 0.  1.
       -1    1    3    3    0  502  0.38116294576E+03  0.80041805765E+03 -0.55764644040E+03  0.10473413058E+04  0.50400001928E-02 0. -1.
</event>
<event>
 5   0  0.1277709E-04  0.1907070E+04  0.7818609E-02  0.8651345E-01
        1   -1    0    0  501    0  0.00000000000E+00  0.00000000000E+00  0.23830211978E+04  0.23830211978E+04  0.50400001928E-02 0.  1.
       -1   -1    0    0    0  501  0.00000000000E+00  0.00000000000E+00 -0.38154482745E+03  0.38154482748E+03  0.50400001928E-02 0. -1.
    10030    2    1    2    0    0  0.00000000000E+00  0.00000000000E+00  0.20014763703E+04  0.27645660253E+04  0.19070704358E+04 0.  0.
        4    1    3    3  502    0  0.76855601902E+03  0.75896868591E+02  0.18998988836E+03  0.79532160766E+03  0.12699999809E+01 0. -1.
       -4    1    3    3    0  502 -0.76855601902E+03 -0.75896868591E+02  0.18114864820E+04  0.19692444176E+04  0.12699999809E+01 0.  1.
</event>
<event>
 5   0  0.1239615E-04  0.1866228E+04  0.7818609E-02  0.8671852E-01
       -1   -1    0    0    0  501  0.00000000000E+00  0.00000000000E+00  0.65541006174E+03  0.65541006176E+03  0.50400001928E-02 0.  1.
        1   -1    0    0  501    0  0.00000000000E+00  0.00000000000E+00 -0.13284845354E+04  0.13284845354E+04  0.50400001928E-02 0. -1.
    10030    2    1    2    0    0  0.00000000000E+00  0.00000000000E+00 -0.67307447363E+03  0.19838945971E+04  0.18662284226E+04 0.  0.
        3    1    3    3  502    0 -0.30920276299E+03  0.26432590196E+03  0.55618929565E+03  0.68907261873E+03  0.10100000352E+00 0.  1.
       -3    1    3    3    0  502  0.30920276299E+03 -0.26432590196E+03 -0.12292637693E+04  0.12948219784E+04  0.10100000352E+00 0. -1.
</event>
<event>
 5   0  0.2541124E-04  0.1895467E+04  0.7818609E-02  0.8657116E-01
       -2   -1    0    0    0  501  0.00000000000E+00  0.00000000000E+00  0.11837645125E+04  0.11837645125E+04  0.25500000920E-02 0.  1.
        2   -1    0    0  501    0  0.00000000000E+00  0.00000000000E+00 -0.75876445631E+03  0.75876445631E+03  0.25500000920E-02 0. -1.
    10030    2    1    2    0    0  0.00000000000E+00  0.00000000000E+00  0.42500005615E+03  0.19425289688E+04  0.18954666304E+04 0.  0.
        5    1    3    3  502    0  0.12030884266E+03  0.12967752313E+03 -0.74168439584E+03  0.76250135125E+03  0.46999998093E+01 0. -1.
       -5    1    3    3    0  502 -0.12030884266E+03 -0.12967752313E+03  0.11666844520E+04  0.11800276175E+04  0.46999998093E+01 0.  1.
</event>
<event>
 5   0  0.9266125E-05  0.1905307E+04  0.7818609E-02  0.8652219E-01
       -4   -1    0    0    0  501  0.00000000000E+00  0.00000000000E+00  0.15777432817E+04  0.15777437928E+04  0.12699999809E+01 0. -1.
        4   -1    0    0  501    0  0.00000000000E+00  0.00000000000E+00 -0.57521822449E+03  0.57521962648E+03  0.12699999809E+01 0.  1.
    10030    2    1    2    0    0  0.00000000000E+00  0.00000000000E+00  0.10025250572E+04  0.21529634193E+04  0.19053070604E+04 0.  0.
        4    1    3    3  502    0 -0.31274247926E+03  0.86964537965E+03  0.76252117911E+03  0.11981365140E+04  0.12699999809E+01 0. -1.
       -4    1    3    3    0  502  0.31274247926E+03 -0.86964537965E+03  0.24000387806E+03  0.95482690528E+03  0.12699999809E+01 0.  1.
</event>
<event>
 5   0  0.2608744E-04  0.1895287E+04  0.7818609E-02  0.8657206E-01
       -2   -1    0    0    0  501  0.00000000000E+00  0.00000000000E+00  0.55247381627E+03  0.55247381627E+03  0.25500000920E-02 0. -1.
        2   -1    0    0  501    0  0.00000000000E+00  0.00000000000E+00 -0.16254668088E+04  0.16254668088E+04  0.25500000920E-02 0.  1.
    10030    2    1    2    0    0  0.00000000000E+00  0.00000000000E+00 -0.10729929926E+04  0.21779406251E+04  0.18952866286E+04 0.  0.
        2    1    3    3  502    0 -0.91751350340E+03  0.45187483332E+02 -0.80391414788E+03  0.12207173689E+04  0.25500000920E-02 0.  1.
       -2    1    3    3    0  502  0.91751350340E+03 -0.45187483332E+02 -0.26907884469E+03  0.95722325621E+03  0.25500000920E-02 0. -1.
</event>
<event>
 5   0  0.2562925E-04  0.1926337E+04  0.7818609E-02  0.8641857E-01
        2   -1    0    0  501    0  0.00000000000E+00  0.00000000000E+00  0.68603761642E+03  0.68603761643E+03  0.25500000920E-02 0. -1.
       -2   -1    0    0    0  501  0.00000000000E+00  0.00000000000E+00 -0.13522493653E+04  0.13522493653E+04  0.25500000920E-02 0.  1.
    10030    2    1    2    0    0  0.00000000000E+00  0.00000000000E+00 -0.66621174890E+03  0.20382869818E+04  0.19263373862E+04 0.  0.
        4    1    3    3  502    0  0.16615417707E+03 -0.69113370328E+03 -0.10208151148E+04  0.12439204628E+04  0.12699999809E+01 0.  1.
       -4    1    3    3    0  502 -0.16615417707E+03  0.69113370328E+03  0.35460336590E+03  0.79436651891E+03  0.12699999809E+01 0. -1.
</event>
<event>
 5   0  0.1317527E-04  0.1838917E+04  0.7818609E-02  0.8685874E-01
       -1   -1    0    0    0  501  0.00000000000E+00  0.00000000000E+00  0.48930506838E+03  0.48930506841E+03  0.50400001928E-02 0.  1.
        1   -1    0    0  501    0  0.00000000000E+00  0.00000000000E+00 -0.17277635975E+04  0.17277635975E+04  0.50400001928E-02 0. -1.
    10030    2    1    2    0    0  0.00000000000E+00  0.00000000000E+00 -0.12384585291E+04  0.22170686659E+04  0.18389165128E+04 0.  0.
        1    1    3    3  502    0 -0.84375659350E+03 -0.73424341828E+02 -0.18774006122E+03  0.86750369086E+03  0.50400001928E-02 0.  1.
       -1    1    3    3    0  502  0.84375659350E+03  0.73424341828E+02 -0.10507184679E+04  0.13495649750E+04  0.50400001928E-02 0. -1.
</event>
<event>
 5   0  0.1317527E-04  0.1915206E+04  0.7818609E-02  0.8647324E-01
       -1   -1    0    0    0  501  0.00000000000E+00  0.00000000000E+00  0.77117211488E+03  0.77117211489E+03  0.50400001928E-02 0.  1.
        1   -1    0    0  501    0  0.00000000000E+00  0.00000000000E+00 -0.11891033283E+04  0.11891033283E+04  0.50400001928E-02 0. -1.
    10030    2    1    2    0    0  0.00000000000E+00  0.00000000000E+00 -0.41793121345E+03  0.19602754432E+04  0.19152058151E+04 0.  0.
        1    1    3    3  502    0 -0.78477485604E+03  0.43225588803E+03 -0.55498409643E+03  0.10539089499E+04  0.50400001928E-02 0. -1.
       -1    1    3    3    0  502  0.78477485604E+03 -0.43225588803E+03  0.13705288299E+03  0.90636649330E+03  0.50400001928E-02 0.  1.
</event>
<event>
 5   0  0.1324058E-04  0.1568578E+04  0.7818609E-02  0.8840088E-01
        1   -1    0    0  501    0  0.00000000000E+00  0.00000000000E+00  0.73979626553E+03  0.73979626555E+03  0.50400001928E-02 0. -1.
       -1   -1    0    0    0  501  0.00000000000E+00  0.00000000000E+00 -0.83145771905E+03  0.83145771907E+03  0.50400001928E-02 0.  1.
    10030    2    1    2    0    0  0.00000000000E+00  0.00000000000E+00 -0.91661453525E+02  0.15712539846E+04  0.15685781020E+04 0.  0.
        5    1    3    3  502    0  0.28404954540E+03 -0.45234874160E+03 -0.62107835346E+03  0.81918492382E+03  0.46999998093E+01 0.  1.
       -5    1    3    3    0  502 -0.28404954540E+03  0.45234874160E+03  0.52941689994E+03  0.75206906080E+03  0.46999998093E+01 0. -1.
</event>
<event>
 5   0  0.2595012E-04  0.1904778E+04  0.7818609E-02  0.8652482E-01
        2   -1    0    0  501    0  0.00000000000E+00  0.00000000000E+00  0.12430689346E+04  0.12430689346E+04  0.25500000920E-02 0. -1.
       -2   -1    0    0    0  501  0.00000000000E+00  0.00000000000E+00 -0.72968169761E+03  0.72968169761E+03  0.25500000920E-02 0.  1.
    10030    2    1    2    0    0  0.00000000000E+00  0.00000000000E+00  0.51338723698E+03  0.19727506322E+04  0.19047778353E+04 0.  0.
        1    1    3    3  502    0 -0.78618328194E+03 -0.52934642363E+03  0.35358895792E+03  0.10115912911E+04  0.50400001928E-02 0. -1.
       -1    1    3    3    0  502  0.78618328194E+03  0.52934642363E+03  0.15979827906E+03  0.96115934112E+03  0.50400001928E-02 0.  1.
</event>
<event>
 5   0  0.2562925E-04  0.1550388E+04  0.7818609E-02  0.8851620E-01
        2   -1    0    0  501    0  0.00000000000E+00  0.00000000000E+00  0.94278161517E+03  0.94278161517E+03  0.25500000920E-02 0.  1.
       -2   -1    0    0    0  501  0.00000000000E+00  0.00000000000E+00 -0.63739678257E+03  0.63739678257E+03  0.25500000920E-02 0. -1.
    10030    2    1    2    0    0  0.00000000000E+00  0.00000000000E+00  0.30538483260E+03  0.15801783977E+04  0.15503882974E+04 0.  0.
        4    1    3    3  502    0  0.17010628241E+03 -0.58318277834E+03 -0.33810577642E+03  0.69523767822E+03  0.12699999809E+01 0. -1.
       -4    1    3    3    0  502 -0.17010628241E+03  0.58318277834E+03  0.64349060902E+03  0.88494071952E+03  0.12699999809E+01 0.  1.
</event>
<event>
 5   0  0.1277709E-04  0.1884939E+04  0.7818609E-02  0.8662390E-01
        1   -1    0    0  501    0  0.00000000000E+00  0.00000000000E+00  0.15391667226E+04  0.15391667226E+04  0.50400001928E-02 0. -1.
       -1   -1    0    0    0  501  0.00000000000E+00  0.00000000000E+00 -0.57709730451E+03  0.57709730454E+03  0.50400001928E-02 0.  1.
    10030    2    1    2    0    0  0.00000000000E+00  0.00000000000E+00  0.96206941809E+03  0.21162640271E+04  0.18849392211E+04 0.  0.
        4    1    3    3  502    0 -0.37304926837E+03  0.79974946103E+03  0.85252258712E+03  0.12270131750E+04  0.12699999809E+01 0. -1.
       -4    1    3    3    0  502  0.37304926837E+03 -0.79974946103E+03  0.10954683096E+03  0.88925085219E+03  0.12699999809E+01 0.  1.
</event>
<event>
 5   0  0.1324058E-04  0.1917458E+04  0.7818609E-02  0.8646215E-01
        1   -1    0    0  501    0  0.00000000000E+00  0.00000000000E+00  0.78771302074E+03  0.78771302076E+03  0.50400001928E-02 0.  1.
       -1   -1    0    0    0  501  0.00000000000E+00  0.00000000000E+00 -0.11668731622E+04  0.11668731622E+04  0.50400001928E-02 0. -1.
    10030    2    1    2    0    0  0.00000000000E+00  0.00000000000E+00 -0.37916014142E+03  0.19545861829E+04  0.19174578831E+04 0.  0.
        5    1    3    3  502    0  0.84630984078E+03 -0.45004713254E+03 -0.17033797714E+03  0.97356041649E+03  0.46999998093E+01 0.  1.
       -5    1    3    3    0  502 -0.84630984078E+03  0.45004713254E+03 -0.20882216428E+03  0.98102576643E+03  0.46999998093E+01 0. -1.
</event>
<event>
 5   0  0.2595012E-04  0.1916982E+04  0.7818609E-02  0.8646449E-01
       -2   -1    0    0    0  501  0.00000000000E+00  0.00000000000E+00  0.11600377641E+04  0.11600377641E+04  0.25500000920E-02 0. -1.
        2   -1    0    0  501    0  0.00000000000E+00  0.00000000000E+00 -0.79196097706E+03  0.79196097706E+03  0.25500000920E-02 0.  1.
    10030    2    1    2    0    0  0.00000000000E+00  0.00000000000E+00  0.36807678704E+03  0.19519987412E+04  0.19169816286E+04 0.  0.
        1    1    3    3  502    0  0.41217296594E+03  0.32488721564E+03 -0.63265117943E+03  0.82200107761E+03  0.50400001928E-02 0.  1.
       -1    1    3    3    0  502 -0.41217296594E+03 -0.32488721564E+03  0.10007279665E+04  0.11299976636E+04  0.50400001928E-02 0. -1.
</event>
<event>
 5   0  0.1239615E-04  0.1889981E+04  0.7818609E-02  0.8659860E-01
        1   -1    0    0  501    0  0.00000000000E+00  0.00000000000E+00  0.11370108570E+04  0.11370108571E+04  0.50400001928E-02 0.  1.
       -1   -1    0    0    0  501  0.00000000000E+00  0.00000000000E+00 -0.78539888254E+03  0.78539888256E+03  0.50400001928E-02 0. -1.
    10030    2    1    2    0    0  0.00000000000E+00  0.00000000000E+00  0.35161197451E+03  0.19224097396E+04  0.18899810122E+04 0.  0.
        3    1    3    3  502    0 -0.10975692412E+03 -0.33269112610E+03  0.10685192857E+04  0.11244836335E+04  0.10100000352E+00 0.  1.
       -3    1    3    3    0  502  0.10975692412E+03  0.33269112610E+03 -0.71690731122E+03  0.79792610614E+03  0.10100000352E+00 0. -1.
</event>
<event>
 5   0  0.2608744E-04  0.1888223E+04  0.7818609E-02  0.8660741E-01
        2   -1    0    0  501    0  0.00000000000E+00  0.00000000000E+00  0.58812548257E+03  0.58812548258E+03  0.25500000920E-02 0.  1.
       -2   -1    0    0    0  501  0.00000000000E+00  0.00000000000E+00 -0.15155713056E+04  0.15155713056E+04  0.25500000920E-02 0. -1.
    10030    2    1    2    0    0  0.00000000000E+00  0.00000000000E+00 -0.92744582298E+03  0.21036967881E+04  0.18882225562E+04 0.  0.
        2    1    3    3  502    0  0.53072510409E+03 -0.69567194065E+03 -0.68694924415E+02  0.87769446721E+03  0.25500000920E-02 0.  1.
       -2    1    3    3    0  502 -0.53072510409E+03  0.69567194065E+03 -0.85875089857E+03  0.12260023209E+04  0.25500000920E-02 0. -1.
</event>
<event>
 5   0  0.2608744E-04  0.2212469E+04  0.7818609E-02  0.8513256E-01
       -2   -1    0    0    0  501  0.00000000000E+00  0.00000000000E+00  0.59046700107E+03  0.59046700108E+03  0.25500000920E-02 0. -1.
        2   -1    0    0  501    0  0.00000000000E+00  0.00000000000E+00 -0.20725199545E+04  0.20725199545E+04  0.25500000920E-02 0.  1.
    10030    2    1    2    0    0  0.00000000000E+00  0.00000000000E+00 -0.14820529534E+04  0.26629869556E+04  0.22124688854E+04 0.  0.
        2    1    3    3  502    0  0.45269980449E+03  0.86821610141E+03 -0.12140020371E+03  0.98664802295E+03  0.25500000920E-02 0. -1.
       -2    1    3    3    0  502 -0.45269980449E+03 -0.86821610141E+03 -0.13606527497E+04  0.16763389326E+04  0.25500000920E-02 0.  1.
</event>
<event>
 5   0  0.2562925E-04  0.1739110E+04  0.7818609E-02  0.8739368E-01
        2   -1    0    0  501    0  0.00000000000E+00  0.00000000000E+00  0.93753279189E+03  0.93753279189E+03  0.25500000920E-02 0. -1.
       -2   -1    0    0    0  501  0.00000000000E+00  0.00000000000E+00 -0.80650598215E+03  0.80650598215E+03  0.25500000920E-02 0.  1.
    10030    2    1    2    0    0  0.00000000000E+00  0.00000000000E+00  0.13102680974E+03  0.17440387740E+04  0.17391098932E+04 0.  0.
        4    1    3    3  502    0 -0.42621464965E+03 -0.58604832304E+03  0.54751332969E+03  0.90823126108E+03  0.12699999809E+01 0. -1.
       -4    1    3    3    0  502  0.42621464965E+03  0.58604832304E+03 -0.41648651995E+03  0.83580751296E+03  0.12699999809E+01 0.  1.
</event>
<event>
 5   0  0.2541124E-04  0.1892732E+04  0.7818609E-02  0.8658483E-01
       -2   -1    0    0    0  501  0.00000000000E+00  0.00000000000E+00  0.37983091207E+03  0.37983091208E+03  0.25500000920E-02 0.  1.
        2   -1    0    0  501    0  0.00000000000E+00  0.00000000000E+00 -0.23579134002E+04  0.23579134002E+04  0.25500000920E-02 0. -1.
    10030    2    1    2    0    0  0.00000000000E+00  0.00000000000E+00 -0.19780824882E+04  0.27377443123E+04  0.18927317796E+04 0.  0.
        5    1    3    3  502    0 -0.31416213037E+03  0.81099448674E+03 -0.15286594820E+04  0.17587585973E+04  0.46999998093E+01 0. -1.
       -5    1    3    3    0  502  0.31416213037E+03 -0.81099448674E+03 -0.44942300614E+03  0.97898571498E+03  0.46999998093E+01 0.  1.
</event>
<event>
 5   0  0.2595012E-04  0.1886575E+04  0.7818609E-02  0.8661568E-01
       -2   -1    0    0    0  501  0.00000000000E+00  0.00000000000E+00  0.85656004416E+03  0.85656004417E+03  0.25500000920E-02 0.  1.
        2   -1    0    0  501    0  0.00000000000E+00  0.00000000000E+00 -0.10387962121E+04  0.10387962121E+04  0.25500000920E-02 0. -1.
    10030    2    1    2    0    0  0.00000000000E+00  0.00000000000E+00 -0.18223616792E+03  0.18953562563E+04  0.18865750230E+04 0.  0.
        1    1    3    3  502    0 -0.40493529118E+03 -0.85147562655E+03 -0.62560494382E+02  0.94493235109E+03  0.50400001928E-02 0. -1.
       -1    1    3    3    0  502  0.40493529118E+03  0.85147562655E+03 -0.11967567354E+03  0.95042390517E+03  0.50400001928E-02 0.  1.
</event>
<event>
 5   0  0.2541124E-04  0.1891370E+04  0.7818609E-02  0.8659164E-01
       -2   -1    0    0    0  501  0.00000000000E+00  0.00000000000E+00  0.49085821707E+03  0.49085821708E+03  0.25500000920E-02 0. -1.
        2   -1    0    0  501    0  0.00000000000E+00  0.00000000000E+00 -0.18219523105E+04  0.18219523105E+04  0.25500000920E-02 0.  1.
    10030    2    1    2    0    0  0.00000000000E+00  0.00000000000E+00 -0.13310940934E+04  0.23128105276E+04  0.18913701517E+04 0.  0.
        5    1    3    3  502    0  0.48069028459E+03 -0.43700754684E+03 -0.15058847365E+04  0.16400456321E+04  0.46999998093E+01 0.  1.
       -5    1    3    3    0  502 -0.48069028459E+03  0.43700754684E+03  0.17479064308E+03  0.67276489549E+03  0.46999998093E+01 0. -1.
</event>
<event>
 5   0  0.1277709E-04  0.1902610E+04  0.7818609E-02  0.8653558E-01
        1   -1    0    0  501    0  0.00000000000E+00  0.00000000000E+00  0.16076780515E+04  0.16076780515E+04  0.50400001928E-02 0.  1.
       -1   -1    0    0    0  501  0.00000000000E+00  0.00000000000E+00 -0.56291219492E+03  0.56291219495E+03  0.50400001928E-02 0. -1.
    10030    2    1    2    0    0  0.00000000000E+00  0.00000000000E+00  0.10447658565E+04  0.21705902464E+04  0.19026103970E+04 0.  0.
        4    1    3    3  502    0 -0.16371282589E+03 -0.63297466503E+02 -0.54427779929E+03  0.57188145128E+03  0.12699999809E+01 0. -1.
       -4    1    3    3    0  502  0.16371282589E+03  0.63297466503E+02  0.15890436558E+04  0.15987087951E+04  0.12699999809E+01 0.  1.
</event>
<event>
 5   0  0.1324058E-04  0.1869423E+04  0.7818609E-02  0.8670228E-01
        1   -1    0    0  501    0  0.00000000000E+00  0.00000000000E+00  0.11558053176E+04  0.11558053176E+04  0.50400001928E-02 0.  1.
       -1   -1    0    0    0  501  0.00000000000E+00  0.00000000000E+00 -0.75591089164E+03  0.75591089166E+03  0.50400001928E-02 0. -1.
    10030    2    1    2    0    0  0.00000000000E+00  0.00000000000E+00  0.39989442598E+03  0.19117162093E+04  0.18694232568E+04 0.  0.
        5    1    3    3  502    0 -0.26623675550E+03 -0.78058338017E+03  0.64975199977E+03  0.10499486533E+04  0.46999998093E+01 0.  1.
       -5    1    3    3    0  502  0.26623675550E+03  0.78058338017E+03 -0.24985757379E+03  0.86176755599E+03  0.46999998093E+01 0. -1.
</event>
<event>
 5   0  0.2562925E-04  0.1915518E+04  0.7818609E-02  0.8647170E-01
        2   -1    0    0  501    0  0.00000000000E+00  0.00000000000E+00  0.27797613145E+04  0.27797613145E+04  0.25500000920E-02 0. -1.
       -2   -1    0    0    0  501  0.00000000000E+00  0.00000000000E+00 -0.32999326746E+03  0.32999326747E+03  0.25500000920E-02 0.  1.
    10030    2    1    2    0    0  0.00000000000E+00  0.00000000000E+00  0.24497680470E+04  0.31097545819E+04  0.19155182264E+04 0.  0.
        4    1    3    3  502    0 -0.44243646033E+02 -0.77677815842E+03  0.21316363028E+04  0.22691885660E+04  0.12699999809E+01 0. -1.
       -4    1    3    3    0  502  0.44243646033E+02  0.77677815842E+03  0.31813174419E+03  0.84056601595E+03  0.12699999809E+01 0.  1.
</event>
<event>
 5   0  0.2608744E-04  0.1914004E+04  0.7818609E-02  0.8647917E-01
        2   -1    0    0  501    0  0.00000000000E+00  0.00000000000E+00  0.12460566033E+04  0.12460566033E+04  0.25500000920E-02 0.  1.
       -2   -1    0    0    0  501  0.00000000000E+00  0.00000000000E+00 -0.73500079065E+03  0.73500079066E+03  0.25500000920E-02 0. -1.
    10030    2    1    2    0    0  0.00000000000E+00  0.00000000000E+00  0.51105581263E+03  0.19810573939E+04  0.19140037499E+04 0.  0.
        2    1    3    3  502    0  0.41008976600E+03  0.21571209395E+03  0.11222081478E+04  0.12141072649E+04  0.25500000920E-02 0.  1.
       -2    1    3    3    0  502 -0.41008976600E+03 -0.21571209395E+03 -0.61115233517E+03  0.76695012905E+03  0.25500000920E-02 0. -1.
</event>
<event>
 5   0  0.1324058E-04  0.1896016E+04  0.7818609E-02  0.8656842E-01
       -1   -1    0    0    0  501  0.00000000000E+00  0.00000000000E+00  0.97657754843E+03  0.97657754844E+03  0.50400001928E-02 0. -1.
        1   -1    0    0  501    0  0.00000000000E+00  0.00000000000E+00 -0.92027397465E+03  0.92027397466E+03  0.50400001928E-02 0.  1.
    10030    2    1    2    0    0  0.00000000000E+00  0.00000000000E+00  0.56303573783E+02  0.18968515231E+04  0.18960157194E+04 0.  0.
        5    1    3    3  502    0 -0.82855855372E+03 -0.41378857476E+03  0.23064296282E+03  0.95443623561E+03  0.46999998093E+01 0.  1.
       -5    1    3    3    0  502  0.82855855372E+03  0.41378857476E+03 -0.17433938903E+03  0.94241528750E+03  0.46999998093E+01 0. -1.
</event>
<event>
 5   0  0.1277709E-04  0.1885940E+04  0.7818609E-02  0.8661887E-01
       -1   -1    0    0    0  501  0.00000000000E+00  0.00000000000E+00  0.12024556383E+04  0.12024556383E+04  0.50400001928E-02 0.  1.
        1   -1    0    0  501    0  0.00000000000E+00  0.00000000000E+00 -0.73948034316E+03  0.73948034318E+03  0.50400001928E-02 0. -1.
    10030    2    1    2    0    0  0.00000000000E+00  0.00000000000E+00  0.46297529512E+03  0.19419359815E+04  0.18859398803E+04 0.  0.
        4    1    3    3  502    0 -0.18989558284E+03 -0.23296393276E+02 -0.71928478475E+03  0.74429514898E+03  0.12699999809E+01 0. -1.
       -4    1    3    3    0  502  0.18989558284E+03  0.23296393276E+02  0.11822600799E+04  0.11976408325E+04  0.12699999809E+01 0.  1.
</event>
<event>
 5   0  0.2541124E-04  0.1911131E+04  0.7818609E-02  0.8649335E-01
       -2   -1    0    0    0  501  0.00000000000E+00  0.00000000000E+00  0.72721464044E+03  0.72721464045E+03  0.25500000920E-02 0. -1.
        2   -1    0    0  501    0  0.00000000000E+00  0.00000000000E+00 -0.12556208053E+04  0.12556208053E+04  0.25500000920E-02 0.  1.
    10030    2    1    2    0    0  0.00000000000E+00  0.00000000000E+00 -0.52840616484E+03  0.19828354457E+04  0.19111314266E+04 0.  0.
        5    1    3    3  502    0 -0.11533201098E+03  0.88942671359E+03  0.77867453398E+02  0.90025928593E+03  0.46999998093E+01 0. -1.
       -5    1    3    3    0  502  0.11533201098E+03 -0.88942671359E+03 -0.60627361824E+03  0.10825761598E+04  0.46999998093E+01 0.  1.
</event>
<event>
 5   0  0.1255141E-04  0.1903370E+04  0.7818609E-02  0.8653181E-01
        1   -1    0    0  501    0  0.00000000000E+00  0.00000000000E+00  0.13744160432E+04  0.13744160432E+04  0.50400001928E-02 0. -1.
       -1   -1    0    0    0  501  0.00000000000E+00  0.00000000000E+00 -0.65897366435E+03  0.65897366437E+03  0.50400001928E-02 0.  1.
    10030    2    1    2    0    0  0.00000000000E+00  0.00000000000E+00  0.71544237886E+03  0.20333897076E+04  0.19033696187E+04 0.  0.
        2    1    3    3  502    0  0.36234269879E+02 -0.70338701654E+03  0.10414714091E+04  0.12572704217E+04  0.25500000920E-02 0. -1.
       -2    1    3    3    0  502 -0.36234269879E+02  0.70338701654E+03 -0.32602903023E+03  0.77611928588E+03  0.25500000920E-02 0.  1.
</event>
<event>
 5   0  0.1239615E-04  0.1910131E+04  0.7818609E-02  0.8649830E-01
       -1   -1    0    0    0  501  0.00000000000E+00  0.00000000000E+00  0.12598374774E+04  0.12598374774E+04  0.50400001928E-02 0. -1.
        1   -1    0    0  501    0  0.00000000000E+00  0.00000000000E+00 -0.72402208046E+03  0.72402208048E+03  0.50400001928E-02 0.  1.
    10030    2    1    2    0    0  0.00000000000E+00  0.00000000000E+00  0.53581539690E+03  0.19838595579E+04  0.19101310441E+04 0.  0.
        3    1    3    3  502    0 -0.78810245667E+03  0.24448588588E+02  0.82764100887E+03  0.11431066728E+04  0.10100000352E+00 0.  1.
       -3    1    3    3    0  502  0.78810245667E+03 -0.24448588588E+02 -0.29182561197E+03  0.84075288503E+03  0.10100000352E+00 0. -1.
</event>
<event>
 5   0  0.1317527E-04  0.1869639E+04  0.7818609E-02  0.8670118E-01
        1   -1    0    0  501    0  0.00000000000E+00  0.00000000000E+00  0.84481266969E+03  0.84481266970E+03  0.50400001928E-02 0. -1.
       -1   -1    0    0    0  501  0.00000000000E+00  0.00000000000E+00 -0.10344155575E+04  0.10344155575E+04  0.50400001928E-02 0.  1.
    10030    2    1    2    0    0  0.00000000000E+00  0.00000000000E+00 -0.18960288785E+03  0.18792282272E+04  0.18696388622E+04 0.  0.
        1    1    3    3  502    0  0.17757326838E+03  0.57916069679E+03 -0.81044198664E+03  0.10118179639E+04  0.50400001928E-02 0.  1.
       -1    1    3    3    0  502 -0.17757326838E+03 -0.57916069679E+03  0.62083909879E+03  0.86741026334E+03  0.50400001928E-02 0. -1.
</event>
<event>
 5   0  0.2595012E-04  0.1871756E+04  0.7818609E-02  0.8669044E-01
       -2   -1    0    0    0  501  0.00000000000E+00  0.00000000000E+00  0.70690908416E+03  0.70690908416E+03  0.25500000920E-02 0. -1.
        2   -1    0    0  501    0  0.00000000000E+00  0.00000000000E+00 -0.12390106120E+04  0.12390106120E+04  0.25500000920E-02 0.  1.
    10030    2    1    2    0    0  0.00000000000E+00  0.00000000000E+00 -0.53210152786E+03  0.19459196962E+04  0.18717562416E+04 0.  0.
        1    1    3    3  502    0  0.10915580909E+03  0.34232567870E+03  0.63234540439E+03  0.72729813105E+03  0.50400001928E-02 0. -1.
       -1    1    3    3    0  502 -0.10915580909E+03 -0.34232567870E+03 -0.11644469322E+04  0.12186215651E+04  0.50400001928E-02 0.  1.
</event>
<event>
 5   0  0.2651828E-04  0.1876518E+04  0.7818609E-02  0.8666634E-01
       -2   -1    0    0    0  501  0.00000000000E+00  0.00000000000E+00  0.28755987768E+03  0.28755987769E+03  0.25500000920E-02 0. -1.
        2   -1    0    0  501    0  0.00000000000E+00  0.00000000000E+00 -0.30613788214E+04  0.30613788214E+04  0.25500000920E-02 0.  1.
    10030    2    1    2    0    0  0.00000000000E+00  0.00000000000E+00 -0.27738189437E+04  0.33489386991E+04  0.18765177531E+04 0.  0.
        3    1    3    3  502    0  0.48904934725E+03  0.72917286816E+03 -0.19773781561E+04  0.21635356984E+04  0.10100000352E+00 0.  1.
       -3    1    3    3    0  502 -0.48904934725E+03 -0.72917286816E+03 -0.79644078760E+03  0.11854030007E+04  0.10100000352E+00 0. -1.
</event>
<event>
 5   0  0.2541124E-04  0.1870770E+04  0.7818609E-02  0.8669544E-01
        2   -1    0    0  501    0  0.00000000000E+00  0.00000000000E+00  0.11470050484E+04  0.11470050484E+04  0.25500000920E-02 0.  1.
       -2   -1    0    0    0  501  0.00000000000E+00  0.00000000000E+00 -0.76280853418E+03  0.76280853418E+03  0.25500000920E-02 0. -1.
    10030    2    1    2    0    0  0.00000000000E+00  0.00000000000E+00  0.38419651420E+03  0.19098135826E+04  0.18707701512E+04 0.  0.
        5    1    3    3  502    0 -0.61143924699E+03  0.36225752884E+02 -0.52958761516E+03  0.80972550291E+03  0.46999998093E+01 0. -1.
       -5    1    3    3    0  502  0.61143924699E+03 -0.36225752884E+02  0.91378412937E+03  0.11000880797E+04  0.46999998093E+01 0.  1.
</event>
<event>
 5   0  0.2562925E-04  0.1906083E+04  0.7818609E-02  0.8651834E-01
        2   -1    0    0  501    0  0.00000000000E+00  0.00000000000E+00  0.58272284719E+03  0.58272284720E+03  0.25500000920E-02 0.  1.
       -2   -1    0    0    0  501  0.00000000000E+00  0.00000000000E+00 -0.15586968112E+04  0.15586968112E+04  0.25500000920E-02 0. -1.
    10030    2    1    2    0    0  0.00000000000E+00  0.00000000000E+00 -0.97597396397E+03  0.21414196584E+04  0.19060831500E+04 0.  0.
        4    1    3    3  502    0  0.12442764618E+03  0.47988293506E+03 -0.14024336416E+04  0.14874782695E+04  0.12699999809E+01 0. -1.
       -4    1    3    3    0  502 -0.12442764618E+03 -0.47988293506E+03  0.42645967759E+03  0.65394138882E+03  0.12699999809E+01 0.  1.
</event>
<event>
 5   0  0.2595012E-04  0.1902306E+04  0.7818609E-02  0.8653709E-01
        2   -1    0    0  501    0  0.00000000000E+00  0.00000000000E+00  0.15146070058E+04  0.15146070058E+04  0.25500000920E-02 0.  1.
       -2   -1    0    0    0  501  0.00000000000E+00  0.00000000000E+00 -0.59731169590E+03  0.59731169590E+03  0.25500000920E-02 0. -1.
    10030    2    1    2    0    0  0.00000000000E+00  0.00000000000E+00  0.91729530993E+03  0.21119187017E+04  0.19023064730E+04 0.  0.
        1    1    3    3  502    0  0.74319966420E+03 -0.15335070983E+03  0.10952710928E+04  0.13324717437E+04  0.50400001928E-02 0.  1.
       -1    1    3    3    0  502 -0.74319966420E+03  0.15335070983E+03 -0.17797578285E+03  0.77944695803E+03  0.50400001928E-02 0. -1.
</event>
<event>
 5   0  0.1255141E-04  0.1865123E+04  0.7818609E-02  0.8672415E-01
        1   -1    0    0  501    0  0.00000000000E+00  0.00000000000E+00  0.95339881391E+03  0.95339881392E+03  0.50400001928E-02 0.  1.
       -1   -1    0    0    0  501  0.00000000000E+00  0.00000000000E+00 -0.91217918835E+03  0.91217918837E+03  0.50400001928E-02 0. -1.
    10030    2    1    2    0    0  0.00000000000E+00  0.00000000000E+00  0.41219625553E+02  0.18655780023E+04  0.18651225764E+04 0.  0.
        2    1    3    3  502    0 -0.79449493245E+03 -0.48307161910E+03  0.91972657008E+02  0.93436575093E+03  0.25500000920E-02 0. -1.
       -2    1    3    3    0  502  0.79449493245E+03  0.48307161910E+03 -0.50753031455E+02  0.93121225136E+03  0.25500000920E-02 0.  1.
</event>
<event>
 5   0  0.1239615E-04  0.1895913E+04  0.7818609E-02  0.8656893E-01
        1   -1    0    0  501    0  0.00000000000E+00  0.00000000000E+00  0.16595868543E+04  0.16595868543E+04  0.50400001928E-02 0.  1.
       -1   -1    0    0    0  501  0.00000000000E+00  0.00000000000E+00 -0.54147311869E+03  0.54147311872E+03  0.50400001928E-02 0. -1.
    10030    2    1    2    0    0  0.00000000000E+00  0.00000000000E+00  0.11181137356E+04  0.22010599730E+04  0.18959131518E+04 0.  0.
        3    1    3    3  502    0 -0.49860880666E+03 -0.48467734681E+03  0.13070354614E+04  0.14804947079E+04  0.10100000352E+00 0.  1.
       -3    1    3    3    0  502  0.49860880666E+03  0.48467734681E+03 -0.18892172580E+03  0.72056526510E+03  0.10100000352E+00 0. -1.
</event>
<event>
 5   0  0.2651828E-04  0.1553518E+04  0.7818609E-02  0.8849624E-01
        2   -1    0    0  501    0  0.00000000000E+00  0.00000000000E+00  0.53971706089E+03  0.53971706090E+03  0.25500000920E-02 0.  1.
       -2   -1    0    0    0  501  0.00000000000E+00  0.00000000000E+00 -0.11179085244E+04  0.11179085244E+04  0.25500000920E-02 0. -1.
    10030    2    1    2    0    0  0.00000000000E+00  0.00000000000E+00 -0.57819146346E+03  0.16576255853E+04  0.15535176898E+04 0.  0.
        3    1    3    3  502    0  0.55196468386E+03  0.24083621224E+02  0.29348748835E+03  0.62560366771E+03  0.10100000352E+00 0.  1.
       -3    1    3    3    0  502 -0.55196468386E+03 -0.24083621224E+02 -0.87167895181E+03  0.10320219175E+04  0.10100000352E+00 0. -1.
</event>
<event>
 5   0  0.2651828E-04  0.1900483E+04  0.7818609E-02  0.8654616E-01
        2   -1    0    0  501    0  0.00000000000E+00  0.00000000000E+00  0.19317577383E+04  0.19317577383E+04  0.25500000920E-02 0. -1.
       -2   -1    0    0    0  501  0.00000000000E+00  0.00000000000E+00 -0.46742882483E+03  0.46742882483E+03  0.25500000920E-02 0.  1.
    10030    2    1    2    0    0  0.00000000000E+00  0.00000000000E+00  0.14643289134E+04  0.23991865631E+04  0.19004833590E+04 0.  0.
        3    1    3    3  502    0 -0.25325889633E+03  0.68801717205E+03 -0.30994223711E+02  0.73380402677E+03  0.10100000352E+00 0.  1.
       -3    1    3    3    0  502  0.25325889633E+03 -0.68801717205E+03  0.14953231372E+04  0.16653825363E+04  0.10100000352E+00 0. -1.
</event>
<event>
 5   0  0.1277709E-04  0.1907519E+04  0.7818609E-02  0.8651123E-01
       -1   -1    0    0    0  501  0.00000000000E+00  0.00000000000E+00  0.64494647010E+03  0.64494647012E+03  0.50400001928E-02 0. -1.
        1   -1    0    0  501    0  0.00000000000E+00  0.00000000000E+00 -0.14104383581E+04  0.14104383581E+04  0.50400001928E-02 0.  1.
    10030    2    1    2    0    0  0.00000000000E+00  0.00000000000E+00 -0.76549188797E+03  0.20553848282E+04  0.19075190593E+04 0.  0.
        4    1    3    3  502    0  0.14538131828E+02  0.34428039858E+03  0.57552703605E+03  0.67080051599E+03  0.12699999809E+01 0. -1.
       -4    1    3    3    0  502 -0.14538131828E+02 -0.34428039858E+03 -0.13410189240E+04  0.13845843122E+04  0.12699999809E+01 0.  1.
</event>
<event>
 5   0  0.1317527E-04  0.1897698E+04  0.7818609E-02  0.8656003E-01
       -1   -1    0    0    0  501  0.00000000000E+00  0.00000000000E+00  0.56888490744E+03  0.56888490747E+03  0.50400001928E-02 0.  1.
        1   -1    0    0  501    0  0.00000000000E+00  0.00000000000E+00 -0.15825949260E+04  0.15825949260E+04  0.50400001928E-02 0. -1.
    10030    2    1    2    0    0  0.00000000000E+00  0.00000000000E+00 -0.10137100186E+04  0.21514798335E+04  0.18976979402E+04 0.  0.
        1    1    3    3  502    0 -0.49086527884E+03  0.45030427604E+03 -0.12729351464E+04  0.14366929212E+04  0.50400001928E-02 0. -1.
       -1    1    3    3    0  502  0.49086527884E+03 -0.45030427604E+03  0.25922512783E+03  0.71478691224E+03  0.50400001928E-02 0.  1.
</event>
<event>
 5   0  0.2541124E-04  0.1947397E+04  0.7818609E-02  0.8631617E-01
       -2   -1    0    0    0  501  0.00000000000E+00  0.00000000000E+00  0.67758623829E+03  0.67758623830E+03  0.25500000920E-02 0.  1.
        2   -1    0    0  501    0  0.00000000000E+00  0.00000000000E+00 -0.13992148711E+04  0.13992148711E+04  0.25500000920E-02 0. -1.
    10030    2    1    2    0    0  0.00000000000E+00  0.00000000000E+00 -0.72162863278E+03  0.20768011094E+04  0.19473969714E+04 0.  0.
        5    1    3    3  502    0 -0.78560194992E+03  0.51303769185E+03 -0.83355815516E+02  0.94199170853E+03  0.46999998093E+01 0.  1.
       -5    1    3    3    0  502  0.78560194992E+03 -0.51303769185E+03 -0.63827281726E+03  0.11348094008E+04  0.46999998093E+01 0. -1.
</event>
<event>
 5   0  0.1277709E-04  0.1895845E+04  0.7818609E-02  0.8656927E-01
        1   -1    0    0  501    0  0.00000000000E+00  0.00000000000E+00  0.93058969770E+03  0.93058969772E+03  0.50400001928E-02 0.  1.
       -1   -1    0    0    0  501  0.00000000000E+00  0.00000000000E+00 -0.96557818698E+03  0.96557818699E+03  0.50400001928E-02 0. -1.
    10030    2    1    2    0    0  0.00000000000E+00  0.00000000000E+00 -0.34988489272E+02  0.18961678847E+04  0.18958450497E+04 0.  0.
        4    1    3    3  502    0  0.17983021335E+03  0.92986369125E+03  0.22137120338E+02  0.94735265606E+03  0.12699999809E+01 0.  1.
       -4    1    3    3    0  502 -0.17983021335E+03 -0.92986369125E+03 -0.57125609610E+02  0.94881522865E+03  0.12699999809E+01 0. -1.
</event>
<event>
 5   0  0.1317527E-04  0.1873746E+04  0.7818609E-02  0.8668036E-01
       -1   -1    0    0    0  501  0.00000000000E+00  0.00000000000E+00  0.58284354906E+03  0.58284354909E+03  0.50400001928E-02 0.  1.
        1   -1    0    0  501    0  0.00000000000E+00  0.00000000000E+00 -0.15059461257E+04  0.15059461257E+04  0.50400001928E-02 0. -1.
    10030    2    1    2    0    0  0.00000000000E+00  0.00000000000E+00 -0.92310257664E+03  0.20887896748E+04  0.18737459642E+04 0.  0.
        1    1    3    3  502    0 -0.16648406577E+03 -0.84970677602E+03 -0.86040173367E+03  0.12206595318E+04  0.50400001928E-02 0. -1.
       -1    1    3    3    0  502  0.16648406577E+03  0.84970677602E+03 -0.62700842968E+02  0.86813014295E+03  0.50400001928E-02 0.  1.
</event>
<event>
 5   0  0.2562925E-04  0.2052674E+04  0.7818609E-02  0.8582382E-01
        2   -1    0    0  501    0  0.00000000000E+00  0.00000000000E+00  0.17357535140E+04  0.17357535140E+04  0.25500000920E-02 0. -1.
       -2   -1    0    0    0  501  0.00000000000E+00  0.00000000000E+00 -0.60686467492E+03  0.60686467492E+03  0.25500000920E-02 0.  1.
    10030    2    1    2    0    0  0.00000000000E+00  0.00000000000E+00  0.11288888391E+04  0.23426181889E+04  0.20526738582E+04 0.  0.
        4    1    3    3  502    0 -0.74571781104E+03 -0.41163664983E+03  0.12178808131E+04  0.14861948301E+04  0.12699999809E+01 0. -1.
       -4    1    3    3    0  502  0.74571781104E+03  0.41163664983E+03 -0.88991974036E+02  0.85642335882E+03  0.12699999809E+01 0.  1.
</event>
<event>
 5   0  0.1239615E-04  0.1915479E+04  0.7818609E-02  0.8647190E-01
        1   -1    0    0  501    0  0.00000000000E+00  0.00000000000E+00  0.13761600077E+04  0.13761600077E+04  0.50400001928E-02 0.  1.
       -1   -1    0    0    0  501  0.00000000000E+00  0.00000000000E+00 -0.66653912901E+03  0.66653912903E+03  0.50400001928E-02 0. -1.
    10030    2    1    2    0    0  0.00000000000E+00  0.00000000000E+00  0.70962087868E+03  0.20426991367E+04  0.19154785229E+04 0.  0.
        3    1    3    3  502    0  0.91228272880E+03 -0.20701100433E+02  0.66494568539E+03  0.11290886093E+04  0.10100000352E+00 0.  1.
       -3    1    3    3    0  502 -0.91228272880E+03  0.20701100433E+02  0.44675193290E+02  0.91361052748E+03  0.10100000352E+00 0. -1.
</event>
<event>
 5   0  0.1239615E-04  0.1887698E+04  0.7818609E-02  0.8661004E-01
       -1   -1    0    0    0  501  0.00000000000E+00  0.00000000000E+00  0.41704243882E+03  0.41704243885E+03  0.50400001928E-02 0. -1.
        1   -1    0    0  501    0  0.00000000000E+00  0.00000000000E+00 -0.21361154616E+04  0.21361154616E+04  0.50400001928E-02 0.  1.
    10030    2    1    2    0    0  0.00000000000E+00  0.00000000000E+00 -0.17190730228E+04  0.25531579005E+04  0.18876978590E+04 0.  0.
        3    1    3    3  502    0 -0.85475116752E+03 -0.15583499024E+03 -0.36081115155E+03  0.94078095210E+03  0.10100000352E+00 0. -1.
       -3    1    3    3    0  502  0.85475116752E+03  0.15583499024E+03 -0.13582618712E+04  0.16123769484E+04  0.10100000352E+00 0.  1.
</event>
<event>
 5   0  0.1317527E-04  0.2085045E+04  0.7818609E-02  0.8567860E-01
        1   -1    0    0  501    0  0.00000000000E+00  0.00000000000E+00  0.82399185668E+03  0.82399185669E+03  0.50400001928E-02 0.  1.
       -1   -1    0    0    0  501  0.00000000000E+00  0.00000000000E+00 -0.13190098374E+04  0.13190098374E+04  0.50400001928E-02 0. -1.
    10030    2    1    2    0    0  0.00000000000E+00  0.00000000000E+00 -0.49501798071E+03  0.21430016941E+04  0.20850451937E+04 0.  0.
        1    1    3    3  502    0 -0.76634527722E+02 -0.96581396233E+03 -0.64315569976E+03  0.11628923918E+04  0.50400001928E-02 0. -1.
       -1    1    3    3    0  502  0.76634527722E+02  0.96581396233E+03  0.14813771905E+03  0.98010930233E+03  0.50400001928E-02 0.  1.
</event>
<event>
 5   0  0.1324058E-04  0.1939588E+04  0.7818609E-02  0.8635398E-01
        1   -1    0    0  501    0  0.00000000000E+00  0.00000000000E+00  0.80140495267E+03  0.80140495269E+03  0.50400001928E-02 0.  1.
       -1   -1    0    0    0  501  0.00000000000E+00  0.00000000000E+00 -0.11735645249E+04  0.11735645249E+04  0.50400001928E-02 0. -1.
    10030    2    1    2    0    0  0.00000000000E+00  0.00000000000E+00 -0.37215957221E+03  0.19749694776E+04  0.19395880207E+04 0.  0.
        5    1    3    3  502    0 -0.59644800289E+03  0.23045826406E+03  0.55634141664E+03  0.84758426926E+03  0.46999998093E+01 0.  1.
       -5    1    3    3    0  502  0.59644800289E+03 -0.23045826406E+03 -0.92850098885E+03  0.11273852083E+04  0.46999998093E+01 0. -1.
</event>
<event>
 5   0  0.1324058E-04  0.2022180E+04  0.7818609E-02  0.8596321E-01
       -1   -1    0    0    0  501  0.00000000000E+00  0.00000000000E+00  0.71216121213E+03  0.71216121215E+03  0.50400001928E-02 0.  1.
        1   -1    0    0  501    0  0.00000000000E+00  0.00000000000E+00 -0.14354933220E+04  0.14354933220E+04  0.50400001928E-02 0. -1.
    10030    2    1    2    0    0  0.00000000000E+00  0.00000000000E+00 -0.72333210984E+03  0.21476545341E+04  0.20221796797E+04 0.  0.
        5    1    3    3  502    0 -0.28087131967E+03 -0.26090431433E+03  0.63197221325E+03  0.73916894399E+03  0.46999998093E+01 0.  1.
       -5    1    3    3    0  502  0.28087131967E+03  0.26090431433E+03 -0.13553043231E+04  0.14084855901E+04  0.46999998093E+01 0. -1.
</event>
<event>
 5   0  0.1255141E-04  0.1905673E+04  0.7818609E-02  0.8652038E-01
       -1   -1    0    0    0  501  0.00000000000E+00  0.00000000000E+00  0.47386843314E+03  0.47386843317E+03  0.50400001928E-02 0. -1.
        1   -1    0    0  501    0  0.00000000000E+00  0.00000000000E+00 -0.19159262369E+04  0.19159262369E+04  0.50400001928E-02 0.  1.
    10030    2    1    2    0    0  0.00000000000E+00  0.00000000000E+00 -0.14420578038E+04  0.23897946701E+04  0.19056725468E+04 0.  0.
        2    1    3    3  502    0 -0.61299490836E+03  0.74572136196E+02  0.18897171705E+03  0.64578175185E+03  0.25500000920E-02 0. -1.
       -2    1    3    3    0  502  0.61299490836E+03 -0.74572136196E+02 -0.16310295208E+04  0.17440129182E+04  0.25500000920E-02 0.  1.
</event>
<event>
 5   0  0.1255141E-04  0.1910113E+04  0.7818609E-02  0.8649839E-01
       -1   -1    0    0    0  501  0.00000000000E+00  0.00000000000E+00  0.53465998565E+03  0.53465998567E+03  0.50400001928E-02 0.  1.
        1   -1    0    0  501    0  0.00000000000E+00  0.00000000000E+00 -0.17060047606E+04  0.17060047606E+04  0.50400001928E-02 0. -1.
    10030    2    1    2    0    0  0.00000000000E+00  0.00000000000E+00 -0.11713447749E+04  0.22406647463E+04  0.19101125421E+04 0.  0.
        2    1    3    3  502    0 -0.30099212953E+03  0.33131728601E+03 -0.15753329449E+04  0.16376938949E+04  0.25500000920E-02 0. -1.
       -2    1    3    3    0  502  0.30099212953E+03 -0.33131728601E+03  0.40398817000E+03  0.60297085134E+03  0.25500000920E-02 0.  1.
</event>
<event>
 5   0  0.1255141E-04  0.1837064E+04  0.7818609E-02  0.8686834E-01
       -1   -1    0    0    0  501  0.00000000000E+00  0.00000000000E+00  0.77249874630E+03  0.77249874632E+03  0.50400001928E-02 0. -1.
        1   -1    0    0  501    0  0.00000000000E+00  0.00000000000E+00 -0.10921711833E+04  0.10921711833E+04  0.50400001928E-02 0.  1.
    10030    2    1    2    0    0  0.00000000000E+00  0.00000000000E+00 -0.31967243701E+03  0.18646699296E+04  0.18370638202E+04 0.  0.
        2    1    3    3  502    0  0.12257965504E+03 -0.73790947188E+03 -0.70091785386E+03  0.10250960923E+04  0.25500000920E-02 0.  1.
       -2    1    3    3    0  502 -0.12257965504E+03  0.73790947188E+03  0.38124541685E+03  0.83957383737E+03  0.25500000920E-02 0. -1.
</event>
<event>
 5   0  0.2541124E-04  0.1903914E+04  0.7818609E-02  0.8652910E-01
        2   -1    0    0  501    0  0.00000000000E+00  0.00000000000E+00  0.13812927991E+04  0.13812927991E+04  0.25500000920E-02 0. -1.
       -2   -1    0    0    0  501  0.00000000000E+00  0.00000000000E+00 -0.65606827586E+03  0.65606827587E+03  0.25500000920E-02 0.  1.
    10030    2    1    2    0    0  0.00000000000E+00  0.00000000000E+00  0.72522452324E+03  0.20373610750E+04  0.19039142682E+04 0.  0.
        5    1    3    3  502    0  0.29962162699E+03  0.54928469666E+03  0.11303332161E+04  0.12919605515E+04  0.46999998093E+01 0. -1.
       -5    1    3    3    0  502 -0.29962162699E+03 -0.54928469666E+03 -0.40510869283E+03  0.74540052345E+03  0.46999998093E+01 0.  1.
</event>
<event>
 5   0  0.1317527E-04  0.1912784E+04  0.7818609E-02  0.8648519E-01
        1   -1    0    0  501    0  0.00000000000E+00  0.00000000000E+00  0.77342262490E+03  0.77342262492E+03  0.50400001928E-02 0.  1.
       -1   -1    0    0    0  501  0.00000000000E+00  0.00000000000E+00 -0.11826464565E+04  0.11826464565E+04  0.50400001928E-02 0. -1.
    10030    2    1    2    0    0  0.00000000000E+00  0.00000000000E+00 -0.40922383157E+03  0.19560690814E+04  0.19127838631E+04 0.  0.
        1    1    3    3  502    0  0.61355671562E+03  0.36465648549E+03  0.44639379868E+03  0.84183942603E+03  0.50400001928E-02 0.  1.
       -1    1    3    3    0  502 -0.61355671562E+03 -0.36465648549E+03 -0.85561763025E+03  0.11142296554E+04  0.50400001928E-02 0. -1.
</event>
<event>
 5   0  0.9266125E-05  0.1908962E+04  0.7818609E-02  0.8650408E-01
        3   -1    0    0  501    0  0.00000000000E+00  0.00000000000E+00  0.38161223815E+03  0.38161225152E+03  0.10100000352E+00 0. -1.
       -3   -1    0    0    0  501  0.00000000000E+00  0.00000000000E+00 -0.23873297121E+04  0.23873297142E+04  0.10100000352E+00 0.  1.
    10030    2    1    2    0    0  0.00000000000E+00  0.00000000000E+00 -0.20057174739E+04  0.27689419657E+04  0.19089622899E+04 0.  0.
        5    1    3    3  502    0  0.71842744898E+03 -0.50672337898E+03 -0.15419001390E+04  0.17749323117E+04  0.46999998093E+01 0.  1.
       -5    1    3    3    0  502 -0.71842744898E+03  0.50672337898E+03 -0.46381733491E+03  0.99400965409E+03  0.46999998093E+01 0. -1.
</event>
<event>
 5   0  0.2541124E-04  0.1915067E+04  0.7818609E-02  0.8647393E-01
        2   -1    0    0  501    0  0.00000000000E+00  0.00000000000E+00  0.16493376991E+04  0.16493376991E+04  0.25500000920E-02 0.  1.
       -2   -1    0    0    0  501  0.00000000000E+00  0.00000000000E+00 -0.55590241949E+03  0.55590241949E+03  0.25500000920E-02 0. -1.
    10030    2    1    2    0    0  0.00000000000E+00  0.00000000000E+00  0.10934352796E+04  0.22052401186E+04  0.19150674322E+04 0.  0.
        5    1    3    3  502    0 -0.89529642957E+03 -0.29329607512E+03  0.34970846051E+03  0.10049360088E+04  0.46999998093E+01 0. -1.
       -5    1    3    3    0  502  0.89529642957E+03  0.29329607512E+03  0.74372681910E+03  0.12003041098E+04  0.46999998093E+01 0.  1.
</event>
<event>
 5   0  0.1277709E-04  0.1896775E+04  0.7818609E-02  0.8656463E-01
        1   -1    0    0  501    0  0.00000000000E+00  0.00000000000E+00  0.80807886207E+03  0.80807886208E+03  0.50400001928E-02 0. -1.
       -1   -1    0    0    0  501  0.00000000000E+00  0.00000000000E+00 -0.11130583418E+04  0.11130583418E+04  0.50400001928E-02 0.  1.
    10030    2    1    2    0    0  0.00000000000E+00  0.00000000000E+00 -0.30497947969E+03  0.19211372039E+04  0.18967750718E+04 0.  0.
        4    1    3    3  502    0  0.37816922092E+03  0.73451686946E+03 -0.62420795954E+03  0.10354536111E+04  0.12699999809E+01 0.  1.
       -4    1    3    3    0  502 -0.37816922092E+03 -0.73451686946E+03  0.31922847984E+03  0.88568359272E+03  0.12699999809E+01 0. -1.
</event>
<event>
 5   0  0.2562925E-04  0.1889171E+04  0.7818609E-02  0.8660265E-01
        2   -1    0    0  501    0  0.00000000000E+00  0.00000000000E+00  0.72135293656E+03  0.72135293656E+03  0.25500000920E-02 0.  1.
       -2   -1    0    0    0  501  0.00000000000E+00  0.00000000000E+00 -0.12369007043E+04  0.12369007043E+04  0.25500000920E-02 0. -1.
    10030    2    1    2    0    0  0.00000000000E+00  0.00000000000E+00 -0.51554776778E+03  0.19582536409E+04  0.18891711996E+04 0.  0.
        4    1    3    3  502    0  0.48332722509E+03  0.80465334363E+03 -0.14823005789E+03  0.95028731070E+03  0.12699999809E+01 0. -1.
       -4    1    3    3    0  502 -0.48332722509E+03 -0.80465334363E+03 -0.36731770989E+03  0.10079663302E+04  0.12699999809E+01 0.  1.
</event>
<event>
 5   0  0.2595012E-04  0.1890256E+04  0.7818609E-02  0.8659722E-01
       -2   -1    0    0    0  501  0.00000000000E+00  0.00000000000E+00  0.20146778734E+04  0.20146778734E+04  0.25500000920E-02 0.  1.
        2   -1    0    0  501    0  0.00000000000E+00  0.00000000000E+00 -0.44337943705E+03  0.44337943705E+03  0.25500000920E-02 0. -1.
    10030    2    1    2    0    0  0.00000000000E+00  0.00000000000E+00  0.15712984363E+04  0.24580573104E+04  0.18902557936E+04 0.  0.
        1    1    3    3  502    0 -0.32748783226E+03  0.46754738544E+03 -0.19389251534E+03  0.60286245981E+03  0.50400001928E-02 0. -1.
       -1    1    3    3    0  502  0.32748783226E+03 -0.46754738544E+03  0.17651909517E+04  0.18551948506E+04  0.50400001928E-02 0.  1.
</event>
<event>
 5   0  0.1239615E-04  0.1902394E+04  0.7818609E-02  0.8653666E-01
       -1   -1    0    0    0  501  0.00000000000E+00  0.00000000000E+00  0.88157402483E+03  0.88157402485E+03  0.50400001928E-02 0. -1.
        1   -1    0    0  501    0  0.00000000000E+00  0.00000000000E+00 -0.10263188273E+04  0.10263188273E+04  0.50400001928E-02 0.  1.
    10030    2    1    2    0    0  0.00000000000E+00  0.00000000000E+00 -0.14474480245E+03  0.19078928521E+04  0.19023943012E+04 0.  0.
        3    1    3    3  502    0  0.91743071803E+02 -0.43788972979E+03 -0.91421016037E+03  0.10178135557E+04  0.10100000352E+00 0.  1.
       -3    1    3    3    0  502 -0.91743071803E+02  0.43788972979E+03  0.76946535792E+03  0.89007929642E+03  0.10100000352E+00 0. -1.
</event>
<event>
 5   0  0.2651828E-04  0.1769306E+04  0.7818609E-02  0.8722795E-01
       -2   -1    0    0    0  501  0.00000000000E+00  0.00000000000E+00  0.61578305608E+03  0.61578305609E+03  0.25500000920E-02 0. -1.
        2   -1    0    0  501    0  0.00000000000E+00  0.00000000000E+00 -0.12709198125E+04  0.12709198125E+04  0.25500000920E-02 0.  1.
    10030    2    1    2    0    0  0.00000000000E+00  0.00000000000E+00 -0.65513675647E+03  0.18867028686E+04  0.17693059500E+04 0.  0.
        3    1    3    3  502    0 -0.12314098036E+03 -0.20553865229E+03  0.58052347623E+03  0.62802655619E+03  0.10100000352E+00 0. -1.
       -3    1    3    3    0  502  0.12314098036E+03  0.20553865229E+03 -0.12356602327E+04  0.12586763124E+04  0.10100000352E+00 0.  1.
</event>
<event>
 5   0  0.1277709E-04  0.1935291E+04  0.7818609E-02  0.8637486E-01
        1   -1    0    0  501    0  0.00000000000E+00  0.00000000000E+00  0.63119964066E+03  0.63119964068E+03  0.50400001928E-02 0.  1.
       -1   -1    0    0    0  501  0.00000000000E+00  0.00000000000E+00 -0.14834265202E+04  0.14834265202E+04  0.50400001928E-02 0. -1.
    10030    2    1    2    0    0  0.00000000000E+00  0.00000000000E+00 -0.85222687953E+03  0.21146261609E+04  0.19352914887E+04 0.  0.
        4    1    3    3  502    0  0.16722070722E+03  0.87245521863E+03 -0.69002644053E+01  0.88836372055E+03  0.12699999809E+01 0.  1.
       -4    1    3    3    0  502 -0.16722070722E+03 -0.87245521863E+03 -0.84532661512E+03  0.12262624403E+04  0.12699999809E+01 0. -1.
</event>
<event>
 5   0  0.2608744E-04  0.1888916E+04  0.7818609E-02  0.8660393E-01
       -2   -1    0    0    0  501  0.00000000000E+00  0.00000000000E+00  0.64657776685E+03  0.64657776685E+03  0.25500000920E-02 0.  1.
        2   -1    0    0  501    0  0.00000000000E+00  0.00000000000E+00 -0.13795731103E+04  0.13795731103E+04  0.25500000920E-02 0. -1.
    10030    2    1    2    0    0  0.00000000000E+00  0.00000000000E+00 -0.73299534341E+03  0.20261508771E+04  0.18889164098E+04 0.  0.
        2    1    3    3  502    0 -0.46053267003E+03 -0.86950494174E+02 -0.12460403786E+04  0.13312653205E+04  0.25500000920E-02 0. -1.
       -2    1    3    3    0  502  0.46053267003E+03  0.86950494174E+02  0.51304503518E+03  0.69488555657E+03  0.25500000920E-02 0.  1.
</event>
<event>
 5   0  0.1277709E-04  0.1465980E+04  0.7818609E-02  0.8907397E-01
        1   -1    0    0  501    0  0.00000000000E+00  0.00000000000E+00  0.13785455613E+04  0.13785455613E+04  0.50400001928E-02 0.  1.
       -1   -1    0    0    0  501  0.00000000000E+00  0.00000000000E+00 -0.38973989220E+03  0.38973989223E+03  0.50400001928E-02 0. -1.
    10030    2    1    2    0    0  0.00000000000E+00  0.00000000000E+00  0.98880566907E+03  0.17682854535E+04  0.14659798068E+04 0.  0.
        4    1    3    3  502    0 -0.65323129288E+02  0.56749563059E+03  0.10484139234E+04  0.11939396005E+04  0.12699999809E+01 0.  1.
       -4    1    3    3    0  502  0.65323129288E+02 -0.56749563059E+03 -0.59608254361E+02  0.57434585299E+03  0.12699999809E+01 0. -1.
</event>
<event>
 5   0  0.1277709E-04  0.1882402E+04  0.7818609E-02  0.8663666E-01
       -1   -1    0    0    0  501  0.00000000000E+00  0.00000000000E+00  0.11390863010E+04  0.11390863010E+04  0.50400001928E-02 0. -1.
        1   -1    0    0  501    0  0.00000000000E+00  0.00000000000E+00 -0.77769271639E+03  0.77769271640E+03  0.50400001928E-02 0.  1.
    10030    2    1    2    0    0  0.00000000000E+00  0.00000000000E+00  0.36139358458E+03  0.19167790174E+04  0.18824017846E+04 0.  0.
        4    1    3    3  502    0  0.80277259151E+02  0.70669507701E+03  0.80839189431E+03  0.10767364756E+04  0.12699999809E+01 0. -1.
       -4    1    3    3    0  502 -0.80277259151E+02 -0.70669507701E+03 -0.44699830972E+03  0.84004254178E+03  0.12699999809E+01 0.  1.
</event>
<event>
 5   0  0.1255141E-04  0.1891512E+04  0.7818609E-02  0.8659093E-01
        1   -1    0    0  501    0  0.00000000000E+00  0.00000000000E+00  0.20891600452E+04  0.20891600452E+04  0.50400001928E-02 0.  1.
       -1   -1    0    0    0  501  0.00000000000E+00  0.00000000000E+00 -0.42814047581E+03  0.42814047584E+03  0.50400001928E-02 0. -1.
    10030    2    1    2    0    0  0.00000000000E+00  0.00000000000E+00  0.16610195694E+04  0.25173005211E+04  0.18915115393E+04 0.  0.
        2    1    3    3  502    0 -0.52224966837E+03 -0.49380797294E+03  0.16485849777E+04  0.17984502937E+04  0.25500000920E-02 0. -1.
       -2    1    3    3    0  502  0.52224966837E+03  0.49380797294E+03  0.12434591683E+02  0.71885022733E+03  0.25500000920E-02 0.  1.
</event>
<event>
 5   0  0.2608744E-04  0.1914384E+04  0.7818609E-02  0.8647729E-01
       -2   -1    0    0    0  501  0.00000000000E+00  0.00000000000E+00  0.44511411252E+03  0.44511411253E+03  0.25500000920E-02 0. -1.
        2   -1    0    0  501    0  0.00000000000E+00  0.00000000000E+00 -0.20583859063E+04  0.20583859063E+04  0.25500000920E-02 0.  1.
    10030    2    1    2    0    0  0.00000000000E+00  0.00000000000E+00 -0.16132717938E+04  0.25035000189E+04  0.19143840951E+04 0.  0.
        2    1    3    3  502    0  0.66433426460E+03 -0.63765295735E+03 -0.46493166956E+03  0.10315535694E+04  0.25500000920E-02 0. -1.
       -2    1    3    3    0  502 -0.66433426460E+03  0.63765295735E+03 -0.11483401243E+04  0.14719464495E+04  0.25500000920E-02 0.  1.
</event>
<event>
 5   0  0.2595012E-04  0.1861843E+04  0.7818609E-02  0.8674086E-01
        2   -1    0    0  501    0  0.00000000000E+00  0.00000000000E+00  0.11672768717E+04  0.11672768717E+04  0.25500000920E-02 0. -1.
       -2   -1    0    0    0  501  0.00000000000E+00  0.00000000000E+00 -0.74242405964E+03  0.74242405964E+03  0.25500000920E-02 0.  1.
    10030    2    1    2    0    0  0.00000000000E+00  0.00000000000E+00  0.42485281203E+03  0.19097009313E+04  0.18618425646E+04 0.  0.
        1    1    3    3  502    0 -0.66079913725E+03 -0.12923066053E+03 -0.44694974420E+03  0.80815848525E+03  0.50400001928E-02 0.  1.
       -1    1    3    3    0  502  0.66079913725E+03  0.12923066053E+03  0.87180255623E+03  0.11015424461E+04  0.50400001928E-02 0. -1.
</event>
<event>
 5   0  0.9266125E-05  0.1867266E+04  0.7818609E-02  0.8671324E-01
       -4   -1    0    0    0  501  0.00000000000E+00  0.00000000000E+00  0.75288774642E+03  0.75288881757E+03  0.12699999809E+01 0.  1.
        4   -1    0    0  501    0  0.00000000000E+00  0.00000000000E+00 -0.11577667847E+04  0.11577674813E+04  0.12699999809E+01 0. -1.
    10030    2    1    2    0    0  0.00000000000E+00  0.00000000000E+00 -0.40487903832E+03  0.19106562989E+04  0.18672655025E+04 0.  0.
        1    1    3    3  502    0 -0.15929199830E+02 -0.14984368942E+03  0.74036344751E+03  0.75554278840E+03  0.50400001928E-02 0.  1.
       -1    1    3    3    0  502  0.15929199830E+02  0.14984368942E+03 -0.11452424858E+04  0.11551135105E+04  0.50400001928E-02 0. -1.
</event>
<event>
 5   0  0.2595012E-04  0.1674041E+04  0.7818609E-02  0.8776310E-01
        2   -1    0    0  501    0  0.00000000000E+00  0.00000000000E+00  0.14187772518E+04  0.14187772518E+04  0.25500000920E-02 0. -1.
       -2   -1    0    0    0  501  0.00000000000E+00  0.00000000000E+00 -0.49380762640E+03  0.49380762640E+03  0.25500000920E-02 0.  1.
    10030    2    1    2    0    0  0.00000000000E+00  0.00000000000E+00  0.92496962545E+03  0.19125848782E+04  0.16740406532E+04 0.  0.
        1    1    3    3  502    0 -0.46702388501E+03  0.13577444038E+03  0.12407729132E+04  0.13326902978E+04  0.50400001928E-02 0. -1.
       -1    1    3    3    0  502  0.46702388501E+03 -0.13577444038E+03 -0.31580328773E+03  0.57989458042E+03  0.50400001928E-02 0.  1.
</event>
<event>
 5   0  0.1317527E-04  0.1893760E+04  0.7818609E-02  0.8657969E-01
       -1   -1    0    0    0  501  0.00000000000E+00  0.00000000000E+00  0.82237392482E+03  0.82237392484E+03  0.50400001928E-02 0. -1.
        1   -1    0    0  501    0  0.00000000000E+00  0.00000000000E+00 -0.10902361326E+04  0.10902361327E+04  0.50400001928E-02 0.  1.
    10030    2    1    2    0    0  0.00000000000E+00  0.00000000000E+00 -0.26786220782E+03  0.19126100575E+04  0.18937600349E+04 0.  0.
        1    1    3    3  502    0 -0.59246640044E+02  0.86213858782E+03  0.25694664956E+03  0.90156236041E+03  0.50400001928E-02 0. -1.
       -1    1    3    3    0  502  0.59246640044E+02 -0.86213858782E+03 -0.52480885739E+03  0.10110476971E+04  0.50400001928E-02 0.  1.
</event>
<event>
 5   0  0.2541124E-04  0.1904292E+04  0.7818609E-02  0.8652723E-01
       -2   -1    0    0    0  501  0.00000000000E+00  0.00000000000E+00  0.36850517805E+03  0.36850517806E+03  0.25500000920E-02 0.  1.
        2   -1    0    0  501    0  0.00000000000E+00  0.00000000000E+00 -0.24601620102E+04  0.24601620102E+04  0.25500000920E-02 0. -1.
    10030    2    1    2    0    0  0.00000000000E+00  0.00000000000E+00 -0.20916568322E+04  0.28286671883E+04  0.19042924561E+04 0.  0.
        5    1    3    3  502    0 -0.79636847389E+03  0.35595291162E+03 -0.47892236107E+03  0.99513513627E+03  0.46999998093E+01 0.  1.
       -5    1    3    3    0  502  0.79636847389E+03 -0.35595291162E+03 -0.16127344711E+04  0.18335320520E+04  0.46999998093E+01 0. -1.
</event>
<event>
 5   0  0.2562925E-04  0.1925509E+04  0.7818609E-02  0.8642262E-01
       -2   -1    0    0    0  501  0.00000000000E+00  0.00000000000E+00  0.62884423354E+03  0.62884423355E+03  0.25500000920E-02 0.  1.
        2   -1    0    0  501    0  0.00000000000E+00  0.00000000000E+00 -0.14739682186E+04  0.14739682186E+04  0.25500000920E-02 0. -1.
    10030    2    1    2    0    0  0.00000000000E+00  0.00000000000E+00 -0.84512398507E+03  0.21028124522E+04  0.19255091947E+04 0.  0.
        4    1    3    3  502    0 -0.18688458188E+03  0.37918616899E+03 -0.13671881457E+04  0.14310531214E+04  0.12699999809E+01 0. -1.
       -4    1    3    3    0  502  0.18688458188E+03 -0.37918616899E+03  0.52206416064E+03  0.67175933073E+03  0.12699999809E+01 0.  1.
</event>
<event>
 5   0  0.2562925E-04  0.1734000E+04  0.7818609E-02  0.8742207E-01
       -2   -1    0    0    0  501  0.00000000000E+00  0.00000000000E+00  0.64654609171E+03  0.64654609172E+03  0.25500000920E-02 0.  1.
        2   -1    0    0  501    0  0.00000000000E+00  0.00000000000E+00 -0.11626225068E+04  0.11626225068E+04  0.25500000920E-02 0. -1.
    10030    2    1    2    0    0  0.00000000000E+00  0.00000000000E+00 -0.51607641507E+03  0.18091685985E+04  0.17340000437E+04 0.  0.
        4    1    3    3  502    0  0.14593890691E+03 -0.82136228657E+03 -0.50439528844E+03  0.97485916432E+03  0.12699999809E+01 0. -1.
       -4    1    3    3    0  502 -0.14593890691E+03  0.82136228657E+03 -0.11681126627E+02  0.83430943419E+03  0.12699999809E+01 0.  1.
</event>
<event>
 5   0  0.1255141E-04  0.1886360E+04  0.7818609E-02  0.8661676E-01
       -1   -1    0    0    0  501  0.00000000000E+00  0.00000000000E+00  0.13973430267E+04  0.13973430267E+04  0.50400001928E-02 0. -1.
        1   -1    0    0  501    0  0.00000000000E+00  0.00000000000E+00 -0.63662827840E+03  0.63662827842E+03  0.50400001928E-02 0.  1.
    10030    2    1    2    0    0  0.00000000000E+00  0.00000000000E+00  0.76071474832E+03  0.20339713051E+04  0.18863595473E+04 0.  0.
        2    1    3    3  502    0  0.57546506647E+03 -0.26348365839E+03  0.11343667265E+04  0.12989886647E+04  0.25500000920E-02 0. -1.
       -2    1    3    3    0  502 -0.57546506647E+03  0.26348365839E+03 -0.37365197814E+03  0.73498264043E+03  0.25500000920E-02 0.  1.
</event>
<event>
 5   0  0.1239615E-04  0.1898374E+04  0.7818609E-02  0.8655666E-01
       -1   -1    0    0    0  501  0.00000000000E+00  0.00000000000E+00  0.72051679155E+03  0.72051679157E+03  0.50400001928E-02 0. -1.
        1   -1    0    0  501    0  0.00000000000E+00  0.00000000000E+00 -0.12504297027E+04  0.12504297027E+04  0.50400001928E-02 0.  1.
    10030    2    1    2    0    0  0.00000000000E+00  0.00000000000E+00 -0.52991291113E+03  0.19709464943E+04  0.18983736170E+04 0.  0.
        3    1    3    3  502    0  0.44634513625E+03 -0.27388961161E+03 -0.10868745971E+04  0.12064559254E+04  0.10100000352E+00 0.  1.
       -3    1    3    3    0  502 -0.44634513625E+03  0.27388961161E+03  0.55696168597E+03  0.76449056883E+03  0.10100000352E+00 0. -1.
</event>
<event>
 5   0  0.1324058E-04  0.1887429E+04  0.7818609E-02  0.8661139E-01
        1   -1    0    0  501    0  0.00000000000E+00  0.00000000000E+00  0.22958933730E+04  0.22958933730E+04  0.50400001928E-02 0. -1.
       -1   -1    0    0    0  501  0.00000000000E+00  0.00000000000E+00 -0.38790864722E+03  0.38790864725E+03  0.50400001928E-02 0.  1.
    10030    2    1    2    0    0  0.00000000000E+00  0.00000000000E+00  0.19079847257E+04  0.26838020202E+04  0.18874288252E+04 0.  0.
        5    1    3    3  502    0 -0.68606955253E+03  0.38085253837E+02  0.18737910736E+04  0.19958098594E+04  0.46999998093E+01 0. -1.
       -5    1    3    3    0  502  0.68606955253E+03 -0.38085253837E+02  0.34193652139E+02  0.68799216080E+03  0.46999998093E+01 0.  1.
</event>
<event>
 5   0  0.2562925E-04  0.1750857E+04  0.7818609E-02  0.8732879E-01
        2   -1    0    0  501    0  0.00000000000E+00  0.00000000000E+00  0.14000439720E+04  0.14000439720E+04  0.25500000920E-02 0.  1.
       -2   -1    0    0    0  501  0.00000000000E+00  0.00000000000E+00 -0.54739369965E+03  0.54739369965E+03  0.25500000920E-02 0. -1.
    10030    2    1    2    0    0  0.00000000000E+00  0.00000000000E+00  0.85265027231E+03  0.19474376716E+04  0.17508572180E+04 0.  0.
        4    1    3    3  502    0  0.70590946878E+03 -0.17996534429E+03 -0.11364817709E+03  0.73730131175E+03  0.12699999809E+01 0. -1.
       -4    1    3    3    0  502 -0.70590946878E+03  0.17996534429E+03  0.96629844940E+03  0.12101363599E+04  0.12699999809E+01 0.  1.
</event>
<event>
 5   0  0.2541124E-04  0.1890620E+04  0.7818609E-02  0.8659539E-01
       -2   -1    0    0    0  501  0.00000000000E+00  0.00000000000E+00  0.61802765810E+03  0.61802765810E+03  0.25500000920E-02 0. -1.
        2   -1    0    0  501    0  0.00000000000E+00  0.00000000000E+00 -0.14459078754E+04  0.14459078754E+04  0.25500000920E-02 0.  1.
    10030    2    1    2    0    0  0.00000000000E+00  0.00000000000E+00 -0.82788021729E+03  0.20639355335E+04  0.18906200655E+04 0.  0.
        5    1    3    3  502    0  0.92469789072E+03  0.19479488467E+03 -0.38770064051E+03  0.10214426625E+04  0.46999998093E+01 0.  1.
       -5    1    3    3    0  502 -0.92469789072E+03 -0.19479488467E+03 -0.44017957678E+03  0.10424928710E+04  0.46999998093E+01 0. -1.
</event>
<event>
 5   0  0.2595012E-04  0.1891909E+04  0.7818609E-02  0.8658894E-01
        2   -1    0    0  501    0  0.00000000000E+00  0.00000000000E+00  0.16502762332E+04  0.16502762332E+04  0.25500000920E-02 0.  1.
       -2   -1    0    0    0  501  0.00000000000E+00  0.00000000000E+00 -0.54223038466E+03  0.54223038467E+03  0.25500000920E-02 0. -1.
    10030    2    1    2    0    0  0.00000000000E+00  0.00000000000E+00  0.11080458486E+04  0.21925066179E+04  0.18919090007E+04 0.  0.
        1    1    3    3  502    0  0.71802975163E+03 -0.12173963693E+03 -0.14558588520E+03  0.74268601268E+03  0.50400001928E-02 0. -1.
       -1    1    3    3    0  502 -0.71802975163E+03  0.12173963693E+03  0.12536317338E+04  0.14498206052E+04  0.50400001928E-02 0.  1.
</event>
<event>
 5   0  0.2595012E-04  0.1900822E+04  0.7818609E-02  0.8654448E-01
        2   -1    0    0  501    0  0.00000000000E+00  0.00000000000E+00  0.23678427784E+04  0.23678427784E+04  0.25500000920E-02 0. -1.
       -2   -1    0    0    0  501  0.00000000000E+00  0.00000000000E+00 -0.38147832503E+03  0.38147832504E+03  0.25500000920E-02 0.  1.
    10030    2    1    2    0    0  0.00000000000E+00  0.00000000000E+00  0.19863644533E+04  0.27493211034E+04  0.19008216087E+04 0.  0.
        1    1    3    3  502    0  0.36030811451E+03  0.61536034129E+03  0.19019803101E+04  0.20312605414E+04  0.50400001928E-02 0. -1.
       -1    1    3    3    0  502 -0.36030811451E+03 -0.61536034129E+03  0.84384143199E+02  0.71806056198E+03  0.50400001928E-02 0.  1.
</event>
<event>
 5   0  0.9266125E-05  0.1876807E+04  0.7818609E-02  0.8666488E-01
       -3   -1    0    0    0  501  0.00000000000E+00  0.00000000000E+00  0.17872769572E+04  0.17872769601E+04  0.10100000352E+00 0. -1.
        3   -1    0    0  501    0  0.00000000000E+00  0.00000000000E+00 -0.49270528666E+03  0.49270529701E+03  0.10100000352E+00 0.  1.
    10030    2    1    2    0    0  0.00000000000E+00  0.00000000000E+00  0.12945716705E+04  0.22799822571E+04  0.18768066715E+04 0.  0.
        1    1    3    3  502    0 -0.46989353533E+03 -0.80822179226E+03  0.54875486821E+03  0.10840453429E+04  0.50400001928E-02 0.  1.
       -1    1    3    3    0  502  0.46989353533E+03  0.80822179226E+03  0.74581680234E+03  0.11959369142E+04  0.50400001928E-02 0. -1.
</event>
<event>
 5   0  0.9266125E-05  0.1884181E+04  0.7818609E-02  0.8662771E-01
        3   -1    0    0  501    0  0.00000000000E+00  0.00000000000E+00  0.69803626858E+03  0.69803627588E+03  0.10100000352E+00 0.  1.
       -3   -1    0    0    0  501  0.00000000000E+00  0.00000000000E+00 -0.12714728461E+04  0.12714728501E+04  0.10100000352E+00 0. -1.
    10030    2    1    2    0    0  0.00000000000E+00  0.00000000000E+00 -0.57343657753E+03  0.19695091260E+04  0.18841806413E+04 0.  0.
        1    1    3    3  502    0 -0.40407375615E+03 -0.48649859660E+03  0.44317164083E+03  0.77224192334E+03  0.50400001928E-02 0.  1.
       -1    1    3    3    0  502  0.40407375615E+03  0.48649859660E+03 -0.10166082184E+04  0.11972672027E+04  0.50400001928E-02 0. -1.
</event>
<event>
 5   0  0.2562925E-04  0.1857494E+04  0.7818609E-02  0.8676308E-01
        2   -1    0    0  501    0  0.00000000000E+00  0.00000000000E+00  0.20218434680E+04  0.20218434680E+04  0.25500000920E-02 0.  1.
       -2   -1    0    0    0  501  0.00000000000E+00  0.00000000000E+00 -0.42662597492E+03  0.42662597492E+03  0.25500000920E-02 0. -1.
    10030    2    1    2    0    0  0.00000000000E+00  0.00000000000E+00  0.15952174931E+04  0.24484694429E+04  0.18574939469E+04 0.  0.
        4    1    3    3  502    0 -0.77233891168E+03  0.19177502024E+03  0.16642702101E+03  0.81300960579E+03  0.12699999809E+01 0. -1.
       -4    1    3    3    0  502  0.77233891168E+03 -0.19177502024E+03  0.14287904721E+04  0.16354598371E+04  0.12699999809E+01 0.  1.
</event>
<event>
 5   0  0.1277709E-04  0.1514097E+04  0.7818609E-02  0.8875133E-01
       -1   -1    0    0    0  501  0.00000000000E+00  0.00000000000E+00  0.96256262879E+03  0.96256262880E+03  0.50400001928E-02 0. -1.
        1   -1    0    0  501    0  0.00000000000E+00  0.00000000000E+00 -0.59541277121E+03  0.59541277123E+03  0.50400001928E-02 0.  1.
    10030    2    1    2    0    0  0.00000000000E+00  0.00000000000E+00  0.36714985758E+03  0.15579754000E+04  0.15140965389E+04 0.  0.
        4    1    3    3  502    0 -0.61651238667E+03  0.16847802135E+03  0.60110272645E+03  0.87738159728E+03  0.12699999809E+01 0. -1.
       -4    1    3    3    0  502  0.61651238667E+03 -0.16847802135E+03 -0.23395286886E+03  0.68059380276E+03  0.12699999809E+01 0.  1.
</event>
<event>
 5   0  0.2562925E-04  0.1901615E+04  0.7818609E-02  0.8654053E-01
        2   -1    0    0  501    0  0.00000000000E+00  0.00000000000E+00  0.19747606945E+04  0.19747606945E+04  0.25500000920E-02 0. -1.
       -2   -1    0    0    0  501  0.00000000000E+00  0.00000000000E+00 -0.45779479008E+03  0.45779479009E+03  0.25500000920E-02 0.  1.
    10030    2    1    2    0    0  0.00000000000E+00  0.00000000000E+00  0.15169659044E+04  0.24325554846E+04  0.19016152688E+04 0.  0.
        4    1    3    3  502    0  0.33368672569E+03  0.23677980251E+03 -0.33941620897E+03  0.53161685601E+03  0.12699999809E+01 0.  1.
       -4    1    3    3    0  502 -0.33368672569E+03 -0.23677980251E+03  0.18563821134E+04  0.19009386286E+04  0.12699999809E+01 0. -1.
</event>
<event>
 5   0  0.1239615E-04  0.1898906E+04  0.7818609E-02  0.8655401E-01
        1   -1    0    0  501    0  0.00000000000E+00  0.00000000000E+00  0.14982085971E+04  0.14982085971E+04  0.50400001928E-02 0.  1.
       -1   -1    0    0    0  501  0.00000000000E+00  0.00000000000E+00 -0.60169247019E+03  0.60169247022E+03  0.50400001928E-02 0. -1.
    10030    2    1    2    0    0  0.00000000000E+00  0.00000000000E+00  0.89651612689E+03  0.20999010673E+04  0.18989058235E+04 0.  0.
        3    1    3    3  502    0  0.23910349217E+03  0.28752871751E+02  0.14638718417E+04  0.14835491184E+04  0.10100000352E+00 0.  1.
       -3    1    3    3    0  502 -0.23910349217E+03 -0.28752871751E+02 -0.56735571480E+03  0.61635194891E+03  0.10100000352E+00 0. -1.
</event>
<event>
 5   0  0.1277709E-04  0.1908370E+04  0.7818609E-02  0.8650701E-01
       -1   -1    0    0    0  501  0.00000000000E+00  0.00000000000E+00  0.99669676872E+03  0.99669676874E+03  0.50400001928E-02 0. -1.
        1   -1    0    0  501    0  0.00000000000E+00  0.00000000000E+00 -0.91348685708E+03  0.91348685709E+03  0.50400001928E-02 0.  1.
    10030    2    1    2    0    0  0.00000000000E+00  0.00000000000E+00  0.83209911644E+02  0.19101836258E+04  0.19083704030E+04 0.  0.
        4    1    3    3  502    0 -0.60809028471E+03  0.55284737986E+03  0.52688904497E+03  0.97623137543E+03  0.12699999809E+01 0. -1.
       -4    1    3    3    0  502  0.60809028471E+03 -0.55284737986E+03 -0.44367913332E+03  0.93395225040E+03  0.12699999809E+01 0.  1.
</event>
<event>
 5   0  0.1255141E-04  0.1895945E+04  0.7818609E-02  0.8656878E-01
        1   -1    0    0  501    0  0.00000000000E+00  0.00000000000E+00  0.27164893373E+04  0.27164893373E+04  0.50400001928E-02 0. -1.
       -1   -1    0    0    0  501  0.00000000000E+00  0.00000000000E+00 -0.33081364342E+03  0.33081364346E+03  0.50400001928E-02 0.  1.
    10030    2    1    2    0    0  0.00000000000E+00  0.00000000000E+00  0.23856756939E+04  0.30473029808E+04  0.18959448674E+04 0.  0.
        2    1    3    3  502    0  0.32996469628E+03 -0.87823759883E+03  0.97438006832E+03  0.13526250398E+04  0.25500000920E-02 0. -1.
       -2    1    3    3    0  502 -0.32996469628E+03  0.87823759883E+03  0.14112956256E+04  0.16946779409E+04  0.25500000920E-02 0.  1.
</event>
<event>
 5   0  0.2595012E-04  0.1861969E+04  0.7818609E-02  0.8674022E-01
       -2   -1    0    0    0  501  0.00000000000E+00  0.00000000000E+00  0.66431213763E+03  0.66431213764E+03  0.25500000920E-02 0.  1.
        2   -1    0    0  501    0  0.00000000000E+00  0.00000000000E+00 -0.13047066796E+04  0.13047066796E+04  0.25500000920E-02 0. -1.
    10030    2    1    2    0    0  0.00000000000E+00  0.00000000000E+00 -0.64039454199E+03  0.19690188173E+04  0.18619693696E+04 0.  0.
        1    1    3    3  502    0  0.80394973267E+03  0.23322866443E+03 -0.75105471727E+03  0.11246394849E+04  0.50400001928E-02 0. -1.
       -1    1    3    3    0  502 -0.80394973267E+03 -0.23322866443E+03  0.11066017528E+03  0.84437933240E+03  0.50400001928E-02 0.  1.
</event>
<event>
 5   0  0.1239615E-04  0.1900028E+04  0.7818609E-02  0.8654842E-01
       -1   -1    0    0    0  501  0.00000000000E+00  0.00000000000E+00  0.54635212108E+03  0.54635212110E+03  0.50400001928E-02 0. -1.
        1   -1    0    0  501    0  0.00000000000E+00  0.00000000000E+00 -0.16519146255E+04  0.16519146255E+04  0.50400001928E-02 0.  1.
    10030    2    1    2    0    0  0.00000000000E+00  0.00000000000E+00 -0.11055625044E+04  0.21982667466E+04  0.19000284835E+04 0.  0.
        3    1    3    3  502    0 -0.49433146378E+02 -0.34483100332E+03  0.46979203813E+03  0.58485607298E+03  0.10100000352E+00 0. -1.
       -3    1    3    3    0  502  0.49433146378E+02  0.34483100332E+03 -0.15753545425E+04  0.16134106736E+04  0.10100000352E+00 0.  1.
</event>
<event>
 5   0  0.2595012E-04  0.1894001E+04  0.7818609E-02  0.8657848E-01
       -2   -1    0    0    0  501  0.00000000000E+00  0.00000000000E+00  0.19470903208E+04  0.19470903208E+04  0.25500000920E-02 0. -1.
        2   -1    0    0  501    0  0.00000000000E+00  0.00000000000E+00 -0.46059003888E+03  0.46059003889E+03  0.25500000920E-02 0.  1.
    10030    2    1    2    0    0  0.00000000000E+00  0.00000000000E+00  0.14865002819E+04  0.24076803596E+04  0.18940014853E+04 0.  0.
        1    1    3    3  502    0 -0.48525775287E+03  0.64042977034E+03  0.10613871979E+03  0.81048800443E+03  0.50400001928E-02 0.  1.
       -1    1    3    3    0  502  0.48525775287E+03 -0.64042977034E+03  0.13803615621E+04  0.15971923552E+04  0.50400001928E-02 0. -1.
</event>
<event>
 5   0  0.2608744E-04  0.1994554E+04  0.7818609E-02  0.8609171E-01
        2   -1    0    0  501    0  0.00000000000E+00  0.00000000000E+00  0.10865093378E+04  0.10865093379E+04  0.25500000920E-02 0.  1.
       -2   -1    0    0    0  501  0.00000000000E+00  0.00000000000E+00 -0.91537294256E+03  0.91537294257E+03  0.25500000920E-02 0. -1.
    10030    2    1    2    0    0  0.00000000000E+00  0.00000000000E+00  0.17113639528E+03  0.20018822804E+04  0.19945538345E+04 0.  0.
        2    1    3    3  502    0 -0.73286773160E+03  0.62923097212E+03 -0.16340476450E+03  0.97965700393E+03  0.25500000920E-02 0. -1.
       -2    1    3    3    0  502  0.73286773160E+03 -0.62923097212E+03  0.33454115979E+03  0.10222252765E+04  0.25500000920E-02 0.  1.
</event>
<event>
 5   0  0.2562925E-04  0.2010794E+04  0.7818609E-02  0.8601591E-01
       -2   -1    0    0    0  501  0.00000000000E+00  0.00000000000E+00  0.57416592160E+03  0.57416592161E+03  0.25500000920E-02 0. -1.
        2   -1    0    0  501    0  0.00000000000E+00  0.00000000000E+00 -0.17605075352E+04  0.17605075352E+04  0.25500000920E-02 0.  1.
    10030    2    1    2    0    0  0.00000000000E+00  0.00000000000E+00 -0.11863416136E+04  0.23346734568E+04  0.20107943022E+04 0.  0.
        4    1    3    3  502    0 -0.87986224651E+03 -0.46957114027E+03 -0.44554041578E+03  0.10923197808E+04  0.12699999809E+01 0. -1.
       -4    1    3    3    0  502  0.87986224651E+03  0.46957114027E+03 -0.74080119782E+03  0.12423536760E+04  0.12699999809E+01 0.  1.
</event>
<event>
 5   0  0.1277709E-04  0.1898799E+04  0.7818609E-02  0.8655454E-01
       -1   -1    0    0    0  501  0.00000000000E+00  0.00000000000E+00  0.72814537238E+03  0.72814537240E+03  0.50400001928E-02 0.  1.
        1   -1    0    0  501    0  0.00000000000E+00  0.00000000000E+00 -0.12378839751E+04  0.12378839751E+04  0.50400001928E-02 0. -1.
    10030    2    1    2    0    0  0.00000000000E+00  0.00000000000E+00 -0.50973860272E+03  0.19660293475E+04  0.18987990816E+04 0.  0.
        4    1    3    3  502    0  0.68430905074E+03  0.62602851905E+03 -0.44788129645E+02  0.92854626866E+03  0.12699999809E+01 0.  1.
       -4    1    3    3    0  502 -0.68430905074E+03 -0.62602851905E+03 -0.46495047307E+03  0.10374830789E+04  0.12699999809E+01 0. -1.
</event>
<event>
 5   0  0.1317527E-04  0.1932161E+04  0.7818609E-02  0.8639011E-01
        1   -1    0    0  501    0  0.00000000000E+00  0.00000000000E+00  0.11302077093E+04  0.11302077093E+04  0.50400001928E-02 0. -1.
       -1   -1    0    0    0  501  0.00000000000E+00  0.00000000000E+00 -0.82578736821E+03  0.82578736822E+03  0.50400001928E-02 0.  1.
    10030    2    1    2    0    0  0.00000000000E+00  0.00000000000E+00  0.30442034107E+03  0.19559950775E+04  0.19321607074E+04 0.  0.
        1    1    3    3  502    0  0.47229345564E+03 -0.12285268050E+03 -0.69183574819E+03  0.84663486335E+03  0.50400001928E-02 0.  1.
       -1    1    3    3    0  502 -0.47229345564E+03  0.12285268050E+03  0.99625608926E+03  0.11093602142E+04  0.50400001928E-02 0. -1.
</event>
<event>
 5   0  0.2562925E-04  0.1880006E+04  0.7818609E-02  0.8664873E-01
        2   -1    0    0  501    0  0.00000000000E+00  0.00000000000E+00  0.15500779134E+04  0.15500779134E+04  0.25500000920E-02 0. -1.
       -2   -1    0    0    0  501  0.00000000000E+00  0.00000000000E+00 -0.57003939722E+03  0.57003939722E+03  0.25500000920E-02 0.  1.
    10030    2    1    2    0    0  0.00000000000E+00  0.00000000000E+00  0.98003851619E+03  0.21201173106E+04  0.18800058292E+04 0.  0.
        4    1    3    3  502    0 -0.69197010042E+03  0.63375299862E+03  0.42684302993E+03  0.10308550180E+04  0.12699999809E+01 0.  1.
       -4    1    3    3    0  502  0.69197010042E+03 -0.63375299862E+03  0.55319548626E+03  0.10892622926E+04  0.12699999809E+01 0. -1.
</event>
<event>
 5   0  0.2541124E-04  0.1900588E+04  0.7818609E-02  0.8654564E-01
       -2   -1    0    0    0  501  0.00000000000E+00  0.00000000000E+00  0.10801562439E+04  0.10801562439E+04  0.25500000920E-02 0. -1.
        2   -1    0    0  501    0  0.00000000000E+00  0.00000000000E+00 -0.83604468664E+03  0.83604468664E+03  0.25500000920E-02 0.  1.
    10030    2    1    2    0    0  0.00000000000E+00  0.00000000000E+00  0.24411155726E+03  0.19162009305E+04  0.19005882126E+04 0.  0.
        5    1    3    3  502    0  0.50647983798E+03 -0.76900005883E+03 -0.11472206274E+03  0.92793650561E+03  0.46999998093E+01 0.  1.
       -5    1    3    3    0  502 -0.50647983798E+03  0.76900005883E+03  0.35883362000E+03  0.98826442494E+03  0.46999998093E+01 0. -1.
</event>
<event>
 5   0  0.1255141E-04  0.1892735E+04  0.7818609E-02  0.8658481E-01
        1   -1    0    0  501    0  0.00000000000E+00  0.00000000000E+00  0.16726106643E+04  0.16726106643E+04  0.50400001928E-02 0.  1.
       -1   -1    0    0    0  501  0.00000000000E+00  0.00000000000E+00 -0.53545740195E+03  0.53545740197E+03  0.50400001928E-02 0. -1.
    10030    2    1    2    0    0  0.00000000000E+00  0.00000000000E+00  0.11371532624E+04  0.22080680663E+04  0.18927353337E+04 0.  0.
        2    1    3    3  502    0 -0.46583115222E+02 -0.34581295764E+03  0.15948248401E+04  0.16325510280E+04  0.25500000920E-02 0.  1.
       -2    1    3    3    0  502  0.46583115222E+02  0.34581295764E+03 -0.45767157775E+03  0.57551703831E+03  0.25500000920E-02 0. -1.
</event>
<event>
 5   0  0.1239615E-04  0.1774599E+04  0.7818609E-02  0.8719925E-01
        1   -1    0    0  501    0  0.00000000000E+00  0.00000000000E+00  0.57705346776E+03  0.57705346778E+03  0.50400001928E-02 0.  1.
       -1   -1    0    0    0  501  0.00000000000E+00  0.00000000000E+00 -0.13643455132E+04  0.13643455132E+04  0.50400001928E-02 0. -1.
    10030    2    1    2    0    0  0.00000000000E+00  0.00000000000E+00 -0.78729204544E+03  0.19413989810E+04  0.17745988951E+04 0.  0.
        3    1    3    3  502    0 -0.40731500258E+03 -0.26360910868E+03 -0.12063769098E+04  0.13002847889E+04  0.10100000352E+00 0. -1.
       -3    1    3    3    0  502  0.40731500258E+03  0.26360910868E+03  0.41908486440E+03  0.64111419207E+03  0.10100000352E+00 0.  1.
</event>
<event>
 5   0  0.2608744E-04  0.1904407E+04  0.7818609E-02  0.8652666E-01
       -2   -1    0    0    0  501  0.00000000000E+00  0.00000000000E+00  0.72425659094E+03  0.72425659094E+03  0.25500000920E-02 0.  1.
        2   -1    0    0  501    0  0.00000000000E+00  0.00000000000E+00 -0.12518924819E+04  0.12518924819E+04  0.25500000920E-02 0. -1.
    10030    2    1    2    0    0  0.00000000000E+00  0.00000000000E+00 -0.52763589094E+03  0.19761490728E+04  0.19044068695E+04 0.  0.
        2    1    3    3  502    0  0.98946602300E+02  0.46592953589E+03  0.59174887812E+03  0.75963642441E+03  0.25500000920E-02 0.  1.
       -2    1    3    3    0  502 -0.98946602300E+02 -0.46592953589E+03 -0.11193847691E+04  0.12165126484E+04  0.25500000920E-02 0. -1.
</event>
<event>
 5   0  0.2562925E-04  0.1931690E+04  0.7818609E-02  0.8639241E-01
        2   -1    0    0  501    0  0.00000000000E+00  0.00000000000E+00  0.10535853008E+04  0.10535853009E+04  0.25500000920E-02 0. -1.
       -2   -1    0    0    0  501  0.00000000000E+00  0.00000000000E+00 -0.88541133312E+03  0.88541133312E+03  0.25500000920E-02 0.  1.
    10030    2    1    2    0    0  0.00000000000E+00  0.00000000000E+00  0.16817396773E+03  0.19389966340E+04  0.19316897947E+04 0.  0.
        4    1    3    3  502    0 -0.71854048636E+03  0.46108865124E+03  0.53740523511E+03  0.10088157287E+04  0.12699999809E+01 0. -1.
       -4    1    3    3    0  502  0.71854048636E+03 -0.46108865124E+03 -0.36923126737E+03  0.93018090528E+03  0.12699999809E+01 0.  1.
</event>
<event>
 5   0  0.1317527E-04  0.1892260E+04  0.7818609E-02  0.8658719E-01
       -1   -1    0    0    0  501  0.00000000000E+00  0.00000000000E+00  0.16727468070E+04  0.16727468070E+04  0.50400001928E-02 0.  1.
        1   -1    0    0  501    0  0.00000000000E+00  0.00000000000E+00 -0.53514509620E+03  0.53514509622E+03  0.50400001928E-02 0. -1.
    10030    2    1    2    0    0  0.00000000000E+00  0.00000000000E+00  0.11376017108E+04  0.22078919032E+04  0.18922602897E+04 0.  0.
        1    1    3    3  502    0 -0.92522513265E+02 -0.45637792147E+03  0.15297813476E+04  0.15990847989E+04  0.50400001928E-02 0.  1.
       -1    1    3    3    0  502  0.92522513265E+02  0.45637792147E+03 -0.39217963682E+03  0.60880710428E+03  0.50400001928E-02 0. -1.
</event>
<event>
 5   0  0.1317527E-04  0.1897395E+04  0.7818609E-02  0.8656154E-01
        1   -1    0    0  501    0  0.00000000000E+00  0.00000000000E+00  0.19068203628E+04  0.19068203628E+04  0.50400001928E-02 0. -1.
       -1   -1    0    0    0  501  0.00000000000E+00  0.00000000000E+00 -0.47200418167E+03  0.47200418169E+03  0.50400001928E-02 0.  1.
    10030    2    1    2    0    0  0.00000000000E+00  0.00000000000E+00  0.14348161811E+04  0.23788245445E+04  0.18973952514E+04 0.  0.
        1    1    3    3  502    0 -0.45811064752E+02 -0.11818710971E+03 -0.46133997024E+03  0.47843642704E+03  0.50400001928E-02 0.  1.
       -1    1    3    3    0  502  0.45811064752E+02  0.11818710971E+03  0.18961561514E+04  0.19003881175E+04  0.50400001928E-02 0. -1.
</event>
<event>
 5   0  0.2651828E-04  0.1897856E+04  0.7818609E-02  0.8655924E-01
       -2   -1    0    0    0  501  0.00000000000E+00  0.00000000000E+00  0.74345047115E+03  0.74345047116E+03  0.25500000920E-02 0. -1.
        2   -1    0    0  501    0  0.00000000000E+00  0.00000000000E+00 -0.12111967465E+04  0.12111967465E+04  0.25500000920E-02 0.  1.
    10030    2    1    2    0    0  0.00000000000E+00  0.00000000000E+00 -0.46774627539E+03  0.19546472177E+04  0.18978564665E+04 0.  0.
        3    1    3    3  502    0  0.94185864613E+02 -0.93180221770E+03 -0.39121375726E+03  0.10149751544E+04  0.10100000352E+00 0.  1.
       -3    1    3    3    0  502 -0.94185864613E+02  0.93180221770E+03 -0.76532518132E+02  0.93967206329E+03  0.10100000352E+00 0. -1.
</event>
<event>
 5   0  0.1277709E-04  0.1919055E+04  0.7818609E-02  0.8645429E-01
       -1   -1    0    0    0  501  0.00000000000E+00  0.00000000000E+00  0.11211751653E+04  0.11211751653E+04  0.50400001928E-02 0.  1.
        1   -1    0    0  501    0  0.00000000000E+00  0.00000000000E+00 -0.82118607454E+03  0.82118607455E+03  0.50400001928E-02 0. -1.
    10030    2    1    2    0    0  0.00000000000E+00  0.00000000000E+00  0.29998909072E+03  0.19423612398E+04  0.19190554269E+04 0.  0.
        4    1    3    3  502    0 -0.55570057693E+03 -0.30392356346E+03 -0.57953564256E+03  0.85850791349E+03  0.12699999809E+01 0. -1.
       -4    1    3    3    0  502  0.55570057693E+03  0.30392356346E+03  0.87952473328E+03  0.10838533263E+04  0.12699999809E+01 0.  1.
</event>
<event>
 5   0  0.1239615E-04  0.1885663E+04  0.7818609E-02  0.8662026E-01
        1   -1    0    0  501    0  0.00000000000E+00  0.00000000000E+00  0.58013438256E+03  0.58013438258E+03  0.50400001928E-02 0.  1.
       -1   -1    0    0    0  501  0.00000000000E+00  0.00000000000E+00 -0.15322845798E+04  0.15322845799E+04  0.50400001928E-02 0. -1.
    10030    2    1    2    0    0  0.00000000000E+00  0.00000000000E+00 -0.95215019729E+03  0.21124189624E+04  0.18856627150E+04 0.  0.
        3    1    3    3  502    0  0.56711343235E+03 -0.45403458785E+03  0.19716413473E+03  0.75275411546E+03  0.10100000352E+00 0. -1.
       -3    1    3    3    0  502 -0.56711343235E+03  0.45403458785E+03 -0.11493143320E+04  0.13596648470E+04  0.10100000352E+00 0.  1.
</event>
<event>
 5   0  0.1317527E-04  0.1902377E+04  0.7818609E-02  0.8653674E-01
       -1   -1    0    0    0  501  0.00000000000E+00  0.00000000000E+00  0.10454472326E+04  0.10454472327E+04  0.50400001928E-02 0. -1.
        1   -1    0    0  501    0  0.00000000000E+00  0.00000000000E+00 -0.86542863772E+03  0.86542863773E+03  0.50400001928E-02 0.  1.
    10030    2    1    2    0    0  0.00000000000E+00  0.00000000000E+00  0.18001859493E+03  0.19108758704E+04  0.19023774330E+04 0.  0.
        1    1    3    3  502    0 -0.93858967454E+03 -0.26762811447E+02  0.24265246550E+03  0.96981804699E+03  0.50400001928E-02 0. -1.
       -1    1    3    3    0  502  0.93858967454E+03  0.26762811447E+02 -0.62633870564E+02  0.94105782341E+03  0.50400001928E-02 0.  1.
</event>
<event>
 5   0  0.1239615E-04  0.1901319E+04  0.7818609E-02  0.8654200E-01
       -1   -1    0    0    0  501  0.00000000000E+00  0.00000000000E+00  0.14522187772E+04  0.14522187772E+04  0.50400001928E-02 0. -1.
        1   -1    0    0  501    0  0.00000000000E+00  0.00000000000E+00 -0.62232604150E+03  0.62232604152E+03  0.50400001928E-02 0.  1.
    10030    2    1    2    0    0  0.00000000000E+00  0.00000000000E+00  0.82989273573E+03  0.20745448188E+04  0.19013190822E+04 0.  0.
        3    1    3    3  502    0  0.46563340949E+02  0.78670447286E+03 -0.16517183582E+03  0.80520420881E+03  0.10100000352E+00 0. -1.
       -3    1    3    3    0  502 -0.46563340949E+02 -0.78670447286E+03  0.99506457155E+03  0.12693406100E+04  0.10100000352E+00 0.  1.
</event>
<event>
 5   0  0.9266125E-05  0.1953479E+04  0.7818609E-02  0.8628685E-01
        4   -1    0    0  501    0  0.00000000000E+00  0.00000000000E+00  0.12218231815E+04  0.12218238415E+04  0.12699999809E+01 0.  1.
       -4   -1    0    0    0  501  0.00000000000E+00  0.00000000000E+00 -0.78081561270E+03  0.78081664553E+03  0.12699999809E+01 0. -1.
    10030    2    1    2    0    0  0.00000000000E+00  0.00000000000E+00  0.44100756879E+03  0.20026404871E+04  0.19534792665E+04 0.  0.
        2    1    3    3  502    0 -0.84735858423E+03 -0.48529067547E+03  0.19765612128E+03  0.99628888996E+03  0.25500000920E-02 0. -1.
       -2    1    3    3    0  502  0.84735858423E+03  0.48529067547E+03  0.24335144751E+03  0.10063515971E+04  0.25500000920E-02 0.  1.
</event>
<event>
 5   0  0.1277709E-04  0.1930611E+04  0.7818609E-02  0.8639768E-01
       -1   -1    0    0    0  501  0.00000000000E+00  0.00000000000E+00  0.77383850002E+03  0.77383850003E+03  0.50400001928E-02 0.  1.
        1   -1    0    0  501    0  0.00000000000E+00  0.00000000000E+00 -0.12041459684E+04  0.12041459684E+04  0.50400001928E-02 0. -1.
    10030    2    1    2    0    0  0.00000000000E+00  0.00000000000E+00 -0.43030746840E+03  0.19779844685E+04  0.19306107946E+04 0.  0.
        4    1    3    3  502    0  0.94104923657E+03 -0.89328401191E+02 -0.41555420928E+03  0.10325890483E+04  0.12699999809E+01 0. -1.
       -4    1    3    3    0  502 -0.94104923657E+03  0.89328401191E+02 -0.14753259116E+02  0.94539542016E+03  0.12699999809E+01 0.  1.
</event>
<event>
 5   0  0.1317527E-04  0.1896337E+04  0.7818609E-02  0.8656682E-01
       -1   -1    0    0    0  501  0.00000000000E+00  0.00000000000E+00  0.77904412328E+03  0.77904412330E+03  0.50400001928E-02 0. -1.
        1   -1    0    0  501    0  0.00000000000E+00  0.00000000000E+00 -0.11540090081E+04  0.11540090081E+04  0.50400001928E-02 0.  1.
    10030    2    1    2    0    0  0.00000000000E+00  0.00000000000E+00 -0.37496488484E+03  0.19330531314E+04  0.18963374552E+04 0.  0.
        1    1    3    3  502    0  0.89143066471E+03  0.18536856734E+03  0.82241807257E+02  0.91420667829E+03  0.50400001928E-02 0.  1.
       -1    1    3    3    0  502 -0.89143066471E+03 -0.18536856734E+03 -0.45720669210E+03  0.10188464531E+04  0.50400001928E-02 0. -1.
</event>
<event>
 5   0  0.1239615E-04  0.1894248E+04  0.7818609E-02  0.8657725E-01
        1   -1    0    0  501    0  0.00000000000E+00  0.00000000000E+00  0.16588884476E+04  0.16588884476E+04  0.50400001928E-02 0.  1.
       -1   -1    0    0    0  501  0.00000000000E+00  0.00000000000E+00 -0.54075001636E+03  0.54075001638E+03  0.50400001928E-02 0. -1.
    10030    2    1    2    0    0  0.00000000000E+00  0.00000000000E+00  0.11181384313E+04  0.21996384640E+04  0.18942480885E+04 0.  0.
        3    1    3    3  502    0  0.31656209082E+03  0.99704199535E+02  0.15891513711E+04  0.16234391197E+04  0.10100000352E+00 0.  1.
       -3    1    3    3    0  502 -0.31656209082E+03 -0.99704199535E+02 -0.47101293983E+03  0.57619934436E+03  0.10100000352E+00 0. -1.
</event>
<event>
 5   0  0.2541124E-04  0.1905963E+04  0.7818609E-02  0.8651894E-01
       -2   -1    0    0    0  501  0.00000000000E+00  0.00000000000E+00  0.52476059404E+03  0.52476059405E+03  0.25500000920E-02 0.  1.
        2   -1    0    0  501    0  0.00000000000E+00  0.00000000000E+00 -0.17306432379E+04  0.17306432379E+04  0.25500000920E-02 0. -1.
    10030    2    1    2    0    0  0.00000000000E+00  0.00000000000E+00 -0.12058826438E+04  0.22554038319E+04  0.19059626162E+04 0.  0.
        5    1    3    3  502    0 -0.71155033580E+03 -0.56987274343E+03 -0.27438041656E+03  0.95203231409E+03  0.46999998093E+01 0.  1.
       -5    1    3    3    0  502  0.71155033580E+03  0.56987274343E+03 -0.93150222728E+03  0.13033715178E+04  0.46999998093E+01 0. -1.
</event>
<event>
 5   0  0.2562925E-04  0.1904661E+04  0.7818609E-02  0.8652540E-01
       -2   -1    0    0    0  501  0.00000000000E+00  0.00000000000E+00  0.11664949907E+04  0.11664949907E+04  0.25500000920E-02 0.  1.
        2   -1    0    0  501    0  0.00000000000E+00  0.00000000000E+00 -0.77748592713E+03  0.77748592713E+03  0.25500000920E-02 0. -1.
    10030    2    1    2    0    0  0.00000000000E+00  0.00000000000E+00  0.38900906360E+03  0.19439809179E+04  0.19046610610E+04 0.  0.
        4    1    3    3  502    0  0.53826215544E+03 -0.76294986140E+03  0.38575804519E+03  0.10102621053E+04  0.12699999809E+01 0. -1.
       -4    1    3    3    0  502 -0.53826215544E+03  0.76294986140E+03  0.32510184105E+01  0.93371881260E+03  0.12699999809E+01 0.  1.
</event>
<event>
 5   0  0.1324058E-04  0.1889941E+04  0.7818609E-02  0.8659879E-01
        1   -1    0    0  501    0  0.00000000000E+00  0.00000000000E+00  0.15793912824E+04  0.15793912824E+04  0.50400001928E-02 0.  1.
       -1   -1    0    0    0  501  0.00000000000E+00  0.00000000000E+00 -0.56538849060E+03  0.56538849062E+03  0.50400001928E-02 0. -1.
    10030    2    1    2    0    0  0.00000000000E+00  0.00000000000E+00  0.10140027918E+04  0.21447797730E+04  0.18899414311E+04 0.  0.
        5    1    3    3  502    0  0.83514174517E+03  0.15799595586E+03  0.38375830211E+02  0.85083444391E+03  0.46999998093E+01 0.  1.
       -5    1    3    3    0  502 -0.83514174517E+03 -0.15799595586E+03  0.97562696161E+03  0.12939453291E+04  0.46999998093E+01 0. -1.
</event>
<event>
 5   0  0.2562925E-04  0.2020587E+04  0.7818609E-02  0.8597056E-01
        2   -1    0    0  501    0  0.00000000000E+00  0.00000000000E+00  0.88969922740E+03  0.88969922740E+03  0.25500000920E-02 0.  1.
       -2   -1    0    0    0  501  0.00000000000E+00  0.00000000000E+00 -0.11472337315E+04  0.11472337315E+04  0.25500000920E-02 0. -1.
    10030    2    1    2    0    0  0.00000000000E+00  0.00000000000E+00 -0.25753450414E+03  0.20369329589E+04  0.20205870084E+04 0.  0.
        4    1    3    3  502    0 -0.60142625134E+03  0.21354126815E+02  0.68929106249E+03  0.91503733053E+03  0.12699999809E+01 0.  1.
       -4    1    3    3    0  502  0.60142625134E+03 -0.21354126815E+02 -0.94682556663E+03  0.11218956284E+04  0.12699999809E+01 0. -1.
</event>
<event>
 5   0  0.1239615E-04  0.1890696E+04  0.7818609E-02  0.8659501E-01
        1   -1    0    0  501    0  0.00000000000E+00  0.00000000000E+00  0.14175917307E+04  0.14175917307E+04  0.50400001928E-02 0. -1.
       -1   -1    0    0    0  501  0.00000000000E+00  0.00000000000E+00 -0.63042360134E+03  0.63042360136E+03  0.50400001928E-02 0.  1.
    10030    2    1    2    0    0  0.00000000000E+00  0.00000000000E+00  0.78716812936E+03  0.20480153321E+04  0.18906964686E+04 0.  0.
        3    1    3    3  502    0  0.29193717389E+03 -0.41111375019E+03  0.12597713035E+04  0.13569324141E+04  0.10100000352E+00 0. -1.
       -3    1    3    3    0  502 -0.29193717389E+03  0.41111375019E+03 -0.47260317415E+03  0.69108291797E+03  0.10100000352E+00 0.  1.
</event>
<event>
 5   0  0.2608744E-04  0.1887909E+04  0.7818609E-02  0.8660898E-01
       -2   -1    0    0    0  501  0.00000000000E+00  0.00000000000E+00  0.75057810771E+03  0.75057810771E+03  0.25500000920E-02 0. -1.
        2   -1    0    0  501    0  0.00000000000E+00  0.00000000000E+00 -0.11871522827E+04  0.11871522827E+04  0.25500000920E-02 0.  1.
    10030    2    1    2    0    0  0.00000000000E+00  0.00000000000E+00 -0.43657417499E+03  0.19377303904E+04  0.18879094405E+04 0.  0.
        2    1    3    3  502    0  0.45460060254E+03 -0.28259022423E+03 -0.10163216221E+04  0.11486638247E+04  0.25500000920E-02 0.  1.
       -2    1    3    3    0  502 -0.45460060254E+03  0.28259022423E+03  0.57974744711E+03  0.78906656569E+03  0.25500000920E-02 0. -1.
</event>
<event>
 5   0  0.2595012E-04  0.1359082E+04  0.7818609E-02  0.8983982E-01
       -2   -1    0    0    0  501  0.00000000000E+00  0.00000000000E+00  0.75882920621E+03  0.75882920622E+03  0.25500000920E-02 0.  1.
        2   -1    0    0  501    0  0.00000000000E+00  0.00000000000E+00 -0.60853719091E+03  0.60853719092E+03  0.25500000920E-02 0. -1.
    10030    2    1    2    0    0  0.00000000000E+00  0.00000000000E+00  0.15029201530E+03  0.13673663971E+04  0.13590817393E+04 0.  0.
        1    1    3    3  502    0 -0.36925781879E+03 -0.16820226918E+03 -0.47327536334E+03  0.62340429070E+03  0.50400001928E-02 0. -1.
       -1    1    3    3    0  502  0.36925781879E+03  0.16820226918E+03  0.62356737864E+03  0.74396210644E+03  0.50400001928E-02 0.  1.
</event>
<event>
 5   0  0.1277709E-04  0.1903171E+04  0.7818609E-02  0.8653279E-01
        1   -1    0    0  501    0  0.00000000000E+00  0.00000000000E+00  0.17508077746E+04  0.17508077746E+04  0.50400001928E-02 0. -1.
       -1   -1    0    0    0  501  0.00000000000E+00  0.00000000000E+00 -0.51719865259E+03  0.51719865261E+03  0.50400001928E-02 0.  1.
    10030    2    1    2    0    0  0.00000000000E+00  0.00000000000E+00  0.12336091221E+04  0.22680064273E+04  0.19031714815E+04 0.  0.
        4    1    3    3  502    0  0.66650196204E+03 -0.47248211342E+03  0.35371015939E+02  0.81775114465E+03  0.12699999809E+01 0. -1.
       -4    1    3    3    0  502 -0.66650196204E+03  0.47248211342E+03  0.11982381061E+04  0.14502552826E+04  0.12699999809E+01 0.  1.
</event>
<event>
 5   0  0.2595012E-04  0.1828571E+04  0.7818609E-02  0.8691251E-01
       -2   -1    0    0    0  501  0.00000000000E+00  0.00000000000E+00  0.10162863103E+04  0.10162863103E+04  0.25500000920E-02 0. -1.
        2   -1    0    0  501    0  0.00000000000E+00  0.00000000000E+00 -0.82252236910E+03  0.82252236910E+03  0.25500000920E-02 0.  1.
    10030    2    1    2    0    0  0.00000000000E+00  0.00000000000E+00  0.19376394122E+03  0.18388086794E+04  0.18285712714E+04 0.  0.
        1    1    3    3  502    0  0.32763510230E+03 -0.49347310683E+03 -0.60347810259E+03  0.84560409634E+03  0.50400001928E-02 0.  1.
       -1    1    3    3    0  502 -0.32763510230E+03  0.49347310683E+03  0.79724204380E+03  0.99320458308E+03  0.50400001928E-02 0. -1.
</event>
<event>
 5   0  0.1255141E-04  0.1910424E+04  0.7818609E-02  0.8649685E-01
        1   -1    0    0  501    0  0.00000000000E+00  0.00000000000E+00  0.96557167038E+03  0.96557167040E+03  0.50400001928E-02 0. -1.
       -1   -1    0    0    0  501  0.00000000000E+00  0.00000000000E+00 -0.94496339457E+03  0.94496339458E+03  0.50400001928E-02 0.  1.
    10030    2    1    2    0    0  0.00000000000E+00  0.00000000000E+00  0.20608275814E+02  0.19105350650E+04  0.19104239146E+04 0.  0.
        2    1    3    3  502    0  0.72179510997E+03 -0.49795395342E+03  0.38911841877E+03  0.95935367010E+03  0.25500000920E-02 0. -1.
       -2    1    3    3    0  502 -0.72179510997E+03  0.49795395342E+03 -0.36851014295E+03  0.95118139488E+03  0.25500000920E-02 0.  1.
</event>
<event>
 5   0  0.2562925E-04  0.1886116E+04  0.7818609E-02  0.8661798E-01
        2   -1    0    0  501    0  0.00000000000E+00  0.00000000000E+00  0.10333190889E+04  0.10333190889E+04  0.25500000920E-02 0.  1.
       -2   -1    0    0    0  501  0.00000000000E+00  0.00000000000E+00 -0.86068118781E+03  0.86068118782E+03  0.25500000920E-02 0. -1.
    10030    2    1    2    0    0  0.00000000000E+00  0.00000000000E+00  0.17263790109E+03  0.18940002767E+04  0.18861159040E+04 0.  0.
        4    1    3    3  502    0  0.92894200231E+03 -0.16074064239E+03  0.62012599519E+02  0.94478461734E+03  0.12699999809E+01 0. -1.
       -4    1    3    3    0  502 -0.92894200231E+03  0.16074064239E+03  0.11062530157E+03  0.94921565938E+03  0.12699999809E+01 0.  1.
</event>
<event>
 5   0  0.2651828E-04  0.1896421E+04  0.7818609E-02  0.8656640E-01
        2   -1    0    0  501    0  0.00000000000E+00  0.00000000000E+00  0.18140923892E+04  0.18140923892E+04  0.25500000920E-02 0.  1.
       -2   -1    0    0    0  501  0.00000000000E+00  0.00000000000E+00 -0.49562169330E+03  0.49562169331E+03  0.25500000920E-02 0. -1.
    10030    2    1    2    0    0  0.00000000000E+00  0.00000000000E+00  0.13184706959E+04  0.23097140825E+04  0.18964214107E+04 0.  0.
        3    1    3    3  502    0  0.36200321095E+03  0.85357267549E+03  0.41726516293E+03  0.10167314608E+04  0.10100000352E+00 0. -1.
       -3    1    3    3    0  502 -0.36200321095E+03 -0.85357267549E+03  0.90120553298E+03  0.12929826217E+04  0.10100000352E+00 0.  1.
</event>
<event>
 5   0  0.1255141E-04  0.1949124E+04  0.7818609E-02  0.8630783E-01
        1   -1    0    0  501    0  0.00000000000E+00  0.00000000000E+00  0.74732666513E+03  0.74732666515E+03  0.50400001928E-02 0.  1.
       -1   -1    0    0    0  501  0.00000000000E+00  0.00000000000E+00 -0.12708914601E+04  0.12708914601E+04  0.50400001928E-02 0. -1.
    10030    2    1    2    0    0  0.00000000000E+00  0.00000000000E+00 -0.52356479492E+03  0.20182181252E+04  0.19491239844E+04 0.  0.
        2    1    3    3  502    0 -0.51408275098E+02 -0.40488561430E+03  0.65457278562E+03  0.77138881448E+03  0.25500000920E-02 0.  1.
       -2    1    3    3    0  502  0.51408275098E+02  0.40488561430E+03 -0.11781375805E+04  0.12468293107E+04  0.25500000920E-02 0. -1.
</event>
<event>
 5   0  0.1277709E-04  0.1911841E+04  0.7818609E-02  0.8648985E-01
       -1   -1    0    0    0  501  0.00000000000E+00  0.00000000000E+00  0.12113135922E+04  0.12113135922E+04  0.50400001928E-02 0.  1.
        1   -1    0    0  501    0  0.00000000000E+00  0.00000000000E+00 -0.75437467074E+03  0.75437467075E+03  0.50400001928E-02 0. -1.
    10030    2    1    2    0    0  0.00000000000E+00  0.00000000000E+00  0.45693892143E+03  0.19656882629E+04  0.19118413033E+04 0.  0.
        4    1    3    3  502    0 -0.11909684325E+03 -0.67222829324E+03 -0.45948565969E+03  0.82292382434E+03  0.12699999809E+01 0. -1.
       -4    1    3    3    0  502  0.11909684325E+03  0.67222829324E+03  0.91642458113E+03  0.11427644386E+04  0.12699999809E+01 0.  1.
</event>
<event>
 5   0  0.1239615E-04  0.1937583E+04  0.7818609E-02  0.8636372E-01
       -1   -1    0    0    0  501  0.00000000000E+00  0.00000000000E+00  0.96229671187E+03  0.96229671188E+03  0.50400001928E-02 0. -1.
        1   -1    0    0  501    0  0.00000000000E+00  0.00000000000E+00 -0.97532988375E+03  0.97532988376E+03  0.50400001928E-02 0.  1.
    10030    2    1    2    0    0  0.00000000000E+00  0.00000000000E+00 -0.13033171881E+02  0.19376265956E+04  0.19375827622E+04 0.  0.
        3    1    3    3  502    0 -0.78690556905E+03 -0.51165164927E+03 -0.24641562510E+03  0.97042694485E+03  0.10100000352E+00 0.  1.
       -3    1    3    3    0  502  0.78690556905E+03  0.51165164927E+03  0.23338245322E+03  0.96719965078E+03  0.10100000352E+00 0. -1.
</event>
<event>
 5   0  0.1239615E-04  0.1906787E+04  0.7818609E-02  0.8651486E-01
        1   -1    0    0  501    0  0.00000000000E+00  0.00000000000E+00  0.14254610912E+04  0.14254610912E+04  0.50400001928E-02 0. -1.
       -1   -1    0    0    0  501  0.00000000000E+00  0.00000000000E+00 -0.63765956432E+03  0.63765956434E+03  0.50400001928E-02 0.  1.
    10030    2    1    2    0    0  0.00000000000E+00  0.00000000000E+00  0.78780152686E+03  0.20631206555E+04  0.19067867195E+04 0.  0.
        3    1    3    3  502    0 -0.28518534769E+03 -0.79094396754E+03 -0.92435578474E+02  0.84585305384E+03  0.10100000352E+00 0.  1.
       -3    1    3    3    0  502  0.28518534769E+03  0.79094396754E+03  0.88023710533E+03  0.12172676017E+04  0.10100000352E+00 0. -1.
</event>
<event>
 5   0  0.2651828E-04  0.1836671E+04  0.7818609E-02  0.8687038E-01
        2   -1    0    0  501    0  0.00000000000E+00  0.00000000000E+00  0.95013515606E+03  0.95013515606E+03  0.25500000920E-02 0. -1.
       -2   -1    0    0    0  501  0.00000000000E+00  0.00000000000E+00 -0.88760019848E+03  0.88760019849E+03  0.25500000920E-02 0.  1.
    10030    2    1    2    0    0  0.00000000000E+00  0.00000000000E+00  0.62534957576E+02  0.18377353546E+04  0.18366710681E+04 0.  0.
        3    1    3    3  502    0 -0.48941168162E+03  0.13510761624E+03 -0.73439635283E+03  0.89281346054E+03  0.10100000352E+00 0.  1.
       -3    1    3    3    0  502  0.48941168162E+03 -0.13510761624E+03  0.79693131040E+03  0.94492189401E+03  0.10100000352E+00 0. -1.
</event>
<event>
 5   0  0.2541124E-04  0.1754918E+04  0.7818609E-02  0.8730648E-01
        2   -1    0    0  501    0  0.00000000000E+00  0.00000000000E+00  0.35745334472E+03  0.35745334473E+03  0.25500000920E-02 0. -1.
       -2   -1    0    0    0  501  0.00000000000E+00  0.00000000000E+00 -0.21539443776E+04  0.21539443776E+04  0.25500000920E-02 0.  1.
    10030    2    1    2    0    0  0.00000000000E+00  0.00000000000E+00 -0.17964910329E+04  0.25113977223E+04  0.17549183709E+04 0.  0.
        5    1    3    3  502    0  0.79211309655E+03 -0.32784200898E+03 -0.11659306722E+04  0.14471834587E+04  0.46999998093E+01 0.  1.
       -5    1    3    3    0  502 -0.79211309655E+03  0.32784200898E+03 -0.63056036067E+03  0.10642142637E+04  0.46999998093E+01 0. -1.
</event>
<event>
 5   0  0.2608744E-04  0.1889171E+04  0.7818609E-02  0.8660266E-01
       -2   -1    0    0    0  501  0.00000000000E+00  0.00000000000E+00  0.88393435267E+03  0.88393435268E+03  0.25500000920E-02 0. -1.
        2   -1    0    0  501    0  0.00000000000E+00  0.00000000000E+00 -0.10093977155E+04  0.10093977155E+04  0.25500000920E-02 0.  1.
    10030    2    1    2    0    0  0.00000000000E+00  0.00000000000E+00 -0.12546336278E+03  0.18933320681E+04  0.18891705230E+04 0.  0.
        2    1    3    3  502    0  0.67372918246E+03 -0.74484070881E+02 -0.72204286076E+03  0.99035588598E+03  0.25500000920E-02 0.  1.
       -2    1    3    3    0  502 -0.67372918246E+03  0.74484070881E+02  0.59657949798E+03  0.90297618215E+03  0.25500000920E-02 0. -1.
</event>
<event>
 5   0  0.1239615E-04  0.1862676E+04  0.7818609E-02  0.8673661E-01
       -1   -1    0    0    0  501  0.00000000000E+00  0.00000000000E+00  0.17282692127E+04  0.17282692127E+04  0.50400001928E-02 0.  1.
        1   -1    0    0  501    0  0.00000000000E+00  0.00000000000E+00 -0.50188385646E+03  0.50188385649E+03  0.50400001928E-02 0. -1.
    10030    2    1    2    0    0  0.00000000000E+00  0.00000000000E+00  0.12263853562E+04  0.22301530692E+04  0.18626759434E+04 0.  0.
        3    1    3    3  502    0  0.67547907428E+03 -0.44038726836E+03  0.11711548587E+04  0.14219059882E+04  0.10100000352E+00 0. -1.
       -3    1    3    3    0  502 -0.67547907428E+03  0.44038726836E+03  0.55230497537E+02  0.80824708103E+03  0.10100000352E+00 0.  1.
</event>
<event>
 5   0  0.2608744E-04  0.1899941E+04  0.7818609E-02  0.8654886E-01
        2   -1    0    0  501    0  0.00000000000E+00  0.00000000000E+00  0.52206367077E+03  0.52206367078E+03  0.25500000920E-02 0.  1.
       -2   -1    0    0    0  501  0.00000000000E+00  0.00000000000E+00 -0.17286082282E+04  0.17286082282E+04  0.25500000920E-02 0. -1.
    10030    2    1    2    0    0  0.00000000000E+00  0.00000000000E+00 -0.12065445574E+04  0.22506718990E+04  0.18999405853E+04 0.  0.
        2    1    3    3  502    0  0.97547849869E+02  0.86364646956E+03 -0.10575212747E+04  0.13688506324E+04  0.25500000920E-02 0. -1.
       -2    1    3    3    0  502 -0.97547849869E+02 -0.86364646956E+03 -0.14902328274E+03  0.88182126659E+03  0.25500000920E-02 0.  1.
</event>
<event>
 5   0  0.1317527E-04  0.1936477E+04  0.7818609E-02  0.8636910E-01
        1   -1    0    0  501    0  0.00000000000E+00  0.00000000000E+00  0.84780328898E+03  0.84780328900E+03  0.50400001928E-02 0. -1.
       -1   -1    0    0    0  501  0.00000000000E+00  0.00000000000E+00 -0.11057817318E+04  0.11057817318E+04  0.50400001928E-02 0.  1.
    10030    2    1    2    0    0  0.00000000000E+00  0.00000000000E+00 -0.25797844279E+03  0.19535850208E+04  0.19364765830E+04 0.  0.
        1    1    3    3  502    0 -0.13979124022E+03 -0.55070656110E+03 -0.91992221316E+03  0.10812382649E+04  0.50400001928E-02 0.  1.
       -1    1    3    3    0  502  0.13979124022E+03  0.55070656110E+03  0.66194377036E+03  0.87234675584E+03  0.50400001928E-02 0. -1.
</event>
<event>
 5   0  0.1324058E-04  0.1868416E+04  0.7818609E-02  0.8670739E-01
        1   -1    0    0  501    0  0.00000000000E+00  0.00000000000E+00  0.23164524886E+04  0.23164524886E+04  0.50400001928E-02 0.  1.
       -1   -1    0    0    0  501  0.00000000000E+00  0.00000000000E+00 -0.37675916866E+03  0.37675916869E+03  0.50400001928E-02 0. -1.
    10030    2    1    2    0    0  0.00000000000E+00  0.00000000000E+00  0.19396933199E+04  0.26932116573E+04  0.18684161355E+04 0.  0.
        5    1    3    3  502    0 -0.58126939741E+02 -0.87627502989E+03  0.51064880855E+03  0.10158843265E+04  0.46999998093E+01 0. -1.
       -5    1    3    3    0  502  0.58126939741E+02  0.87627502989E+03  0.14290445113E+04  0.16773273308E+04  0.46999998093E+01 0.  1.
</event>
<event>
 5   0  0.2562925E-04  0.1427074E+04  0.7818609E-02  0.8934451E-01
        2   -1    0    0  501    0  0.00000000000E+00  0.00000000000E+00  0.19118745800E+04  0.19118745800E+04  0.25500000920E-02 0. -1.
       -2   -1    0    0    0  501  0.00000000000E+00  0.00000000000E+00 -0.26630163852E+03  0.26630163853E+03  0.25500000920E-02 0.  1.
    10030    2    1    2    0    0  0.00000000000E+00  0.00000000000E+00  0.16455729414E+04  0.21781762185E+04  0.14270743965E+04 0.  0.
        4    1    3    3  502    0 -0.14935484104E+03  0.36919547665E+03 -0.80870827707E+02  0.40639127967E+03  0.12699999809E+01 0.  1.
       -4    1    3    3    0  502  0.14935484104E+03 -0.36919547665E+03  0.17264437691E+04  0.17717849388E+04  0.12699999809E+01 0. -1.
</event>
<event>
 5   0  0.1239615E-04  0.1859292E+04  0.7818609E-02  0.8675389E-01
        1   -1    0    0  501    0  0.00000000000E+00  0.00000000000E+00  0.14565677423E+04  0.14565677423E+04  0.50400001928E-02 0. -1.
       -1   -1    0    0    0  501  0.00000000000E+00  0.00000000000E+00 -0.59334144791E+03  0.59334144794E+03  0.50400001928E-02 0.  1.
    10030    2    1    2    0    0  0.00000000000E+00  0.00000000000E+00  0.86322629436E+03  0.20499091902E+04  0.18592923527E+04 0.  0.
        3    1    3    3  502    0  0.41856049849E+03  0.19013326359E+03  0.13224737631E+04  0.14001001440E+04  0.10100000352E+00 0. -1.
       -3    1    3    3    0  502 -0.41856049849E+03 -0.19013326359E+03 -0.45924746876E+03  0.64980904624E+03  0.10100000352E+00 0.  1.
</event>
<event>
 5   0  0.9266125E-05  0.1900568E+04  0.7818609E-02  0.8654574E-01
       -3   -1    0    0    0  501  0.00000000000E+00  0.00000000000E+00  0.12783113779E+04  0.12783113819E+04  0.10100000352E+00 0.  1.
        3   -1    0    0  501    0  0.00000000000E+00  0.00000000000E+00 -0.70643142752E+03  0.70643143474E+03  0.10100000352E+00 0. -1.
    10030    2    1    2    0    0  0.00000000000E+00  0.00000000000E+00  0.57187995041E+03  0.19847428167E+04  0.19005676443E+04 0.  0.
        5    1    3    3  502    0  0.65796255931E+03  0.21064086001E+03  0.96732022328E+03  0.11887029931E+04  0.46999998093E+01 0.  1.
       -5    1    3    3    0  502 -0.65796255931E+03 -0.21064086001E+03 -0.39544027286E+03  0.79603982360E+03  0.46999998093E+01 0. -1.
</event>
<event>
 5   0  0.1317527E-04  0.1916752E+04  0.7818609E-02  0.8646562E-01
       -1   -1    0    0    0  501  0.00000000000E+00  0.00000000000E+00  0.14238615330E+04  0.14238615330E+04  0.50400001928E-02 0. -1.
        1   -1    0    0  501    0  0.00000000000E+00  0.00000000000E+00 -0.64506609375E+03  0.64506609377E+03  0.50400001928E-02 0.  1.
    10030    2    1    2    0    0  0.00000000000E+00  0.00000000000E+00  0.77879543928E+03  0.20689276268E+04  0.19167522502E+04 0.  0.
        1    1    3    3  502    0  0.64998692387E+03 -0.70363480440E+03  0.35701850536E+03  0.10222754777E+04  0.50400001928E-02 0. -1.
       -1    1    3    3    0  502 -0.64998692387E+03  0.70363480440E+03  0.42177693392E+03  0.10466521491E+04  0.50400001928E-02 0.  1.
</event>
<event>
 5   0  0.1255141E-04  0.1803798E+04  0.7818609E-02  0.8704282E-01
        1   -1    0    0  501    0  0.00000000000E+00  0.00000000000E+00  0.95843239474E+03  0.95843239475E+03  0.50400001928E-02 0. -1.
       -1   -1    0    0    0  501  0.00000000000E+00  0.00000000000E+00 -0.84870070037E+03  0.84870070038E+03  0.50400001928E-02 0.  1.
    10030    2    1    2    0    0  0.00000000000E+00  0.00000000000E+00  0.10973169437E+03  0.18071330951E+04  0.18037984862E+04 0.  0.
        2    1    3    3  502    0  0.63676073395E+03  0.23112976636E+03  0.65139672785E+03  0.93978875193E+03  0.25500000920E-02 0.  1.
       -2    1    3    3    0  502 -0.63676073395E+03 -0.23112976636E+03 -0.54166503348E+03  0.86734434321E+03  0.25500000920E-02 0. -1.
</event>
<event>
 5   0  0.1277709E-04  0.1918828E+04  0.7818609E-02  0.8645541E-01
       -1   -1    0    0    0  501  0.00000000000E+00  0.00000000000E+00  0.67178841989E+03  0.67178841991E+03  0.50400001928E-02 0.  1.
        1   -1    0    0  501    0  0.00000000000E+00  0.00000000000E+00 -0.13701858125E+04  0.13701858125E+04  0.50400001928E-02 0. -1.
    10030    2    1    2    0    0  0.00000000000E+00  0.00000000000E+00 -0.69839739257E+03  0.20419742324E+04  0.19188277275E+04 0.  0.
        4    1    3    3  502    0  0.95799415215E+03 -0.34270592704E+02 -0.30735497999E+03  0.10066757004E+04  0.12699999809E+01 0.  1.
       -4    1    3    3    0  502 -0.95799415215E+03  0.34270592704E+02 -0.39104241258E+03  0.10352985320E+04  0.12699999809E+01 0. -1.
</event>
<event>
 5   0  0.9266125E-05  0.1892902E+04  0.7818609E-02  0.8658398E-01
       -3   -1    0    0    0  501  0.00000000000E+00  0.00000000000E+00  0.51395224969E+03  0.51395225961E+03  0.10100000352E+00 0. -1.
        3   -1    0    0  501    0  0.00000000000E+00  0.00000000000E+00 -0.17429031779E+04  0.17429031808E+04  0.10100000352E+00 0.  1.
    10030    2    1    2    0    0  0.00000000000E+00  0.00000000000E+00 -0.12289509282E+04  0.22568554404E+04  0.18929015017E+04 0.  0.
        4    1    3    3  502    0  0.59185402094E+03 -0.44879836604E+03 -0.13138188233E+04  0.15092490413E+04  0.12699999809E+01 0.  1.
       -4    1    3    3    0  502 -0.59185402094E+03  0.44879836604E+03  0.84867895069E+02  0.74760639910E+03  0.12699999809E+01 0. -1.
</event>
<event>
 5   0  0.2595012E-04  0.1919428E+04  0.7818609E-02  0.8645246E-01
       -2   -1    0    0    0  501  0.00000000000E+00  0.00000000000E+00  0.75053597979E+03  0.75053597980E+03  0.25500000920E-02 0. -1.
        2   -1    0    0  501    0  0.00000000000E+00  0.00000000000E+00 -0.12271911732E+04  0.12271911732E+04  0.25500000920E-02 0.  1.
    10030    2    1    2    0    0  0.00000000000E+00  0.00000000000E+00 -0.47665519341E+03  0.19777271530E+04  0.19194281748E+04 0.  0.
        1    1    3    3  502    0 -0.84225876746E+03  0.45040963362E+03 -0.14176640775E+03  0.96559120947E+03  0.50400001928E-02 0. -1.
       -1    1    3    3    0  502  0.84225876746E+03 -0.45040963362E+03 -0.33488878566E+03  0.10121359435E+04  0.50400001928E-02 0.  1.
</event>
<event>
 5   0  0.1255141E-04  0.1729116E+04  0.7818609E-02  0.8744931E-01
        1   -1    0    0  501    0  0.00000000000E+00  0.00000000000E+00  0.11774572855E+04  0.11774572855E+04  0.50400001928E-02 0.  1.
       -1   -1    0    0    0  501  0.00000000000E+00  0.00000000000E+00 -0.63480900780E+03  0.63480900782E+03  0.50400001928E-02 0. -1.
    10030    2    1    2    0    0  0.00000000000E+00  0.00000000000E+00  0.54264827773E+03  0.18122662934E+04  0.17291159489E+04 0.  0.
        2    1    3    3  502    0  0.55440773639E+03  0.32171905292E+03  0.87938649279E+03  0.10882057208E+04  0.25500000920E-02 0.  1.
       -2    1    3    3    0  502 -0.55440773639E+03 -0.32171905292E+03 -0.33673821506E+03  0.72406057251E+03  0.25500000920E-02 0. -1.
</event>
<event>
 5   0  0.2651828E-04  0.1913179E+04  0.7818609E-02  0.8648324E-01
       -2   -1    0    0    0  501  0.00000000000E+00  0.00000000000E+00  0.10864617970E+04  0.10864617970E+04  0.25500000920E-02 0. -1.
        2   -1    0    0  501    0  0.00000000000E+00  0.00000000000E+00 -0.84224211122E+03  0.84224211122E+03  0.25500000920E-02 0.  1.
    10030    2    1    2    0    0  0.00000000000E+00  0.00000000000E+00  0.24421968578E+03  0.19287039082E+04  0.19131794246E+04 0.  0.
        3    1    3    3  502    0  0.31830480695E+03 -0.16316141759E+03  0.10165092661E+04  0.10776041465E+04  0.10100000352E+00 0. -1.
       -3    1    3    3    0  502 -0.31830480695E+03  0.16316141759E+03 -0.77228958032E+03  0.85109976171E+03  0.10100000352E+00 0.  1.
</event>
<event>
 5   0  0.1277709E-04  0.1848001E+04  0.7818609E-02  0.8681182E-01
        1   -1    0    0  501    0  0.00000000000E+00  0.00000000000E+00  0.11646723911E+04  0.11646723911E+04  0.50400001928E-02 0.  1.
       -1   -1    0    0    0  501  0.00000000000E+00  0.00000000000E+00 -0.73306160621E+03  0.73306160623E+03  0.50400001928E-02 0. -1.
    10030    2    1    2    0    0  0.00000000000E+00  0.00000000000E+00  0.43161078489E+03  0.18977339973E+04  0.18480006642E+04 0.  0.
        4    1    3    3  502    0  0.32740373599E+03 -0.83944499470E+03  0.55669029975E+01  0.90105144624E+03  0.12699999809E+01 0. -1.
       -4    1    3    3    0  502 -0.32740373599E+03  0.83944499470E+03  0.42604388189E+03  0.99668255110E+03  0.12699999809E+01 0.  1.
</event>
<event>
 5   0  0.2595012E-04  0.1892795E+04  0.7818609E-02  0.8658451E-01
       -2   -1    0    0    0  501  0.00000000000E+00  0.00000000000E+00  0.98796972723E+03  0.98796972724E+03  0.25500000920E-02 0.  1.
        2   -1    0    0  501    0  0.00000000000E+00  0.00000000000E+00 -0.90657486978E+03  0.90657486978E+03  0.25500000920E-02 0. -1.
    10030    2    1    2    0    0  0.00000000000E+00  0.00000000000E+00  0.81394857455E+02  0.18945445970E+04  0.18927953157E+04 0.  0.
        1    1    3    3  502    0 -0.82620061190E+03  0.11123769580E+03 -0.40769789231E+03  0.92800799969E+03  0.50400001928E-02 0. -1.
       -1    1    3    3    0  502  0.82620061190E+03 -0.11123769580E+03  0.48909274977E+03  0.96653659733E+03  0.50400001928E-02 0.  1.
</event>
<event>
 5   0  0.1239615E-04  0.1873613E+04  0.7818609E-02  0.8668103E-01
       -1   -1    0    0    0  501  0.00000000000E+00  0.00000000000E+00  0.45471440114E+03  0.45471440117E+03  0.50400001928E-02 0. -1.
        1   -1    0    0  501    0  0.00000000000E+00  0.00000000000E+00 -0.19300168365E+04  0.19300168365E+04  0.50400001928E-02 0.  1.
    10030    2    1    2    0    0  0.00000000000E+00  0.00000000000E+00 -0.14753024353E+04  0.23847312376E+04  0.18736130337E+04 0.  0.
        3    1    3    3  502    0  0.24341011383E+03  0.82235561523E+03 -0.25787350038E+03  0.89555345670E+03  0.10100000352E+00 0. -1.
       -3    1    3    3    0  502 -0.24341011383E+03 -0.82235561523E+03 -0.12174289350E+04  0.14891777809E+04  0.10100000352E+00 0.  1.
</event>
<event>
 5   0  0.2562925E-04  0.1899142E+04  0.7818609E-02  0.8655284E-01
       -2   -1    0    0    0  501  0.00000000000E+00  0.00000000000E+00  0.16684156200E+04  0.16684156200E+04  0.25500000920E-02 0. -1.
        2   -1    0    0  501    0  0.00000000000E+00  0.00000000000E+00 -0.54044380670E+03  0.54044380670E+03  0.25500000920E-02 0.  1.
    10030    2    1    2    0    0  0.00000000000E+00  0.00000000000E+00  0.11279718134E+04  0.22088594268E+04  0.18991417945E+04 0.  0.
        4    1    3    3  502    0  0.90119579164E+03 -0.17662153800E+03  0.28307247283E+03  0.96097901138E+03  0.12699999809E+01 0. -1.
       -4    1    3    3    0  502 -0.90119579164E+03  0.17662153800E+03  0.84489934052E+03  0.12478804154E+04  0.12699999809E+01 0.  1.
</event>
<event>
 5   0  0.2562925E-04  0.1844435E+04  0.7818609E-02  0.8683020E-01
       -2   -1    0    0    0  501  0.00000000000E+00  0.00000000000E+00  0.72779435933E+03  0.72779435934E+03  0.25500000920E-02 0.  1.
        2   -1    0    0  501    0  0.00000000000E+00  0.00000000000E+00 -0.11685783422E+04  0.11685783422E+04  0.25500000920E-02 0. -1.
    10030    2    1    2    0    0  0.00000000000E+00  0.00000000000E+00 -0.44078398282E+03  0.18963727015E+04  0.18444345755E+04 0.  0.
        4    1    3    3  502    0  0.89613759558E+03  0.21692186893E+03 -0.20073758726E+03  0.94361797316E+03  0.12699999809E+01 0.  1.
       -4    1    3    3    0  502 -0.89613759558E+03 -0.21692186893E+03 -0.24004639556E+03  0.95275472833E+03  0.12699999809E+01 0. -1.
</event>
<event>
 5   0  0.2541124E-04  0.1907758E+04  0.7818609E-02  0.8651004E-01
       -2   -1    0    0    0  501  0.00000000000E+00  0.00000000000E+00  0.48143561122E+03  0.48143561123E+03  0.25500000920E-02 0.  1.
        2   -1    0    0  501    0  0.00000000000E+00  0.00000000000E+00 -0.18899410426E+04  0.18899410426E+04  0.25500000920E-02 0. -1.
    10030    2    1    2    0    0  0.00000000000E+00  0.00000000000E+00 -0.14085054314E+04  0.23713766538E+04  0.19077577635E+04 0.  0.
        5    1    3    3  502    0  0.82839544449E+03  0.45589984727E+03 -0.86039448029E+03  0.12784304576E+04  0.46999998093E+01 0. -1.
       -5    1    3    3    0  502 -0.82839544449E+03 -0.45589984727E+03 -0.54811095111E+03  0.10929461963E+04  0.46999998093E+01 0.  1.
</event>
<event>
 5   0  0.2608744E-04  0.1771582E+04  0.7818609E-02  0.8721560E-01
       -2   -1    0    0    0  501  0.00000000000E+00  0.00000000000E+00  0.74954618525E+03  0.74954618526E+03  0.25500000920E-02 0.  1.
        2   -1    0    0  501    0  0.00000000000E+00  0.00000000000E+00 -0.10468005020E+04  0.10468005020E+04  0.25500000920E-02 0. -1.
    10030    2    1    2    0    0  0.00000000000E+00  0.00000000000E+00 -0.29725431678E+03  0.17963466873E+04  0.17715815793E+04 0.  0.
        2    1    3    3  502    0  0.16478253537E+03 -0.13456009165E+03  0.72325668088E+03  0.75389649732E+03  0.25500000920E-02 0.  1.
       -2    1    3    3    0  502 -0.16478253537E+03  0.13456009165E+03 -0.10205109977E+04  0.10424501900E+04  0.25500000920E-02 0. -1.
</event>
<event>
 5   0  0.2651828E-04  0.1923831E+04  0.7818609E-02  0.8643084E-01
       -2   -1    0    0    0  501  0.00000000000E+00  0.00000000000E+00  0.10501262032E+04  0.10501262032E+04  0.25500000920E-02 0.  1.
        2   -1    0    0  501    0  0.00000000000E+00  0.00000000000E+00 -0.88111454123E+03  0.88111454124E+03  0.25500000920E-02 0. -1.
    10030    2    1    2    0    0  0.00000000000E+00  0.00000000000E+00  0.16901166199E+03  0.19312407445E+04  0.19238310402E+04 0.  0.
        3    1    3    3  502    0  0.70618844427E+03 -0.96748824169E+01  0.74007986364E+03  0.10229926378E+04  0.10100000352E+00 0.  1.
       -3    1    3    3    0  502 -0.70618844427E+03  0.96748824169E+01 -0.57106820165E+03  0.90824810669E+03  0.10100000352E+00 0. -1.
</event>
<event>
 5   0  0.2651828E-04  0.1884696E+04  0.7818609E-02  0.8662512E-01
       -2   -1    0    0    0  501  0.00000000000E+00  0.00000000000E+00  0.31842717406E+03  0.31842717407E+03  0.25500000920E-02 0.  1.
        2   -1    0    0  501    0  0.00000000000E+00  0.00000000000E+00 -0.27887684679E+04  0.27887684679E+04  0.25500000920E-02 0. -1.
    10030    2    1    2    0    0  0.00000000000E+00  0.00000000000E+00 -0.24703412938E+04  0.31071956420E+04  0.18846959037E+04 0.  0.
        3    1    3    3  502    0 -0.35188872009E+02  0.48360391772E+03  0.96980559370E+02  0.49448583907E+03  0.10100000352E+00 0.  1.
       -3    1    3    3    0  502  0.35188872009E+02 -0.48360391772E+03 -0.25673218532E+04  0.26127098029E+04  0.10100000352E+00 0. -1.
</event>
<event>
 5   0  0.2608744E-04  0.1891350E+04  0.7818609E-02  0.8659174E-01
        2   -1    0    0  501    0  0.00000000000E+00  0.00000000000E+00  0.80150024937E+03  0.80150024937E+03  0.25500000920E-02 0. -1.
       -2   -1    0    0    0  501  0.00000000000E+00  0.00000000000E+00 -0.11157842070E+04  0.11157842070E+04  0.25500000920E-02 0.  1.
    10030    2    1    2    0    0  0.00000000000E+00  0.00000000000E+00 -0.31428395759E+03  0.19172844563E+04  0.18913501211E+04 0.  0.
        2    1    3    3  502    0  0.43131041506E+03  0.19563890109E+03 -0.98689987597E+03  0.10946573066E+04  0.25500000920E-02 0.  1.
       -2    1    3    3    0  502 -0.43131041506E+03 -0.19563890109E+03  0.67261591838E+03  0.82262714970E+03  0.25500000920E-02 0. -1.
</event>
<event>
 5   0  0.9266125E-05  0.1877251E+04  0.7818609E-02  0.8666264E-01
       -4   -1    0    0    0  501  0.00000000000E+00  0.00000000000E+00  0.10495214735E+04  0.10495222419E+04  0.12699999809E+01 0. -1.
        4   -1    0    0  501    0  0.00000000000E+00  0.00000000000E+00 -0.83944543623E+03  0.83944639692E+03  0.12699999809E+01 0.  1.
    10030    2    1    2    0    0  0.00000000000E+00  0.00000000000E+00  0.21007603725E+03  0.18889686388E+04  0.18772508029E+04 0.  0.
        1    1    3    3  502    0 -0.77127975653E+03  0.63934693164E+02  0.63944399105E+03  0.10039166925E+04  0.50400001928E-02 0. -1.
       -1    1    3    3    0  502  0.77127975653E+03 -0.63934693164E+02 -0.42936795380E+03  0.88505194627E+03  0.50400001928E-02 0.  1.
</event>
<event>
 5   0  0.2651828E-04  0.1572871E+04  0.7818609E-02  0.8837390E-01
       -2   -1    0    0    0  501  0.00000000000E+00  0.00000000000E+00  0.58290655171E+03  0.58290655172E+03  0.25500000920E-02 0.  1.
        2   -1    0    0  501    0  0.00000000000E+00  0.00000000000E+00 -0.10610288194E+04  0.10610288194E+04  0.25500000920E-02 0. -1.
    10030    2    1    2    0    0  0.00000000000E+00  0.00000000000E+00 -0.47812226770E+03  0.16439353711E+04  0.15728708153E+04 0.  0.
        3    1    3    3  502    0 -0.74612142447E+03 -0.24471986017E+03 -0.19355491162E+03  0.80873265300E+03  0.10100000352E+00 0. -1.
       -3    1    3    3    0  502  0.74612142447E+03  0.24471986017E+03 -0.28456735608E+03  0.83520271813E+03  0.10100000352E+00 0.  1.
</event>
<event>
 5   0  0.1277709E-04  0.1884917E+04  0.7818609E-02  0.8662401E-01
       -1   -1    0    0    0  501  0.00000000000E+00  0.00000000000E+00  0.14420378844E+04  0.14420378844E+04  0.50400001928E-02 0.  1.
        1   -1    0    0  501    0  0.00000000000E+00  0.00000000000E+00 -0.61595358739E+03  0.61595358742E+03  0.50400001928E-02 0. -1.
    10030    2    1    2    0    0  0.00000000000E+00  0.00000000000E+00  0.82608429700E+03  0.20579914718E+04  0.18849174073E+04 0.  0.
        4    1    3    3  502    0 -0.81761729641E+02 -0.36836218318E+03 -0.52988321469E+03  0.65050250771E+03  0.12699999809E+01 0. -1.
       -4    1    3    3    0  502  0.81761729641E+02  0.36836218318E+03  0.13559675117E+04  0.14074889641E+04  0.12699999809E+01 0.  1.
</event>
<event>
 5   0  0.2595012E-04  0.1902016E+04  0.7818609E-02  0.8653853E-01
       -2   -1    0    0    0  501  0.00000000000E+00  0.00000000000E+00  0.81375764255E+03  0.81375764256E+03  0.25500000920E-02 0. -1.
        2   -1    0    0  501    0  0.00000000000E+00  0.00000000000E+00 -0.11114076352E+04  0.11114076352E+04  0.25500000920E-02 0.  1.
    10030    2    1    2    0    0  0.00000000000E+00  0.00000000000E+00 -0.29764999267E+03  0.19251652778E+04  0.19020162535E+04 0.  0.
        1    1    3    3  502    0  0.34438670504E+03  0.65623366214E+02 -0.10436136382E+04  0.11009259987E+04  0.50400001928E-02 0.  1.
       -1    1    3    3    0  502 -0.34438670504E+03 -0.65623366214E+02  0.74596364549E+03  0.82423927910E+03  0.50400001928E-02 0. -1.
</event>
<event>
 5   0  0.2608744E-04  0.1928210E+04  0.7818609E-02  0.8640941E-01
       -2   -1    0    0    0  501  0.00000000000E+00  0.00000000000E+00  0.47664872704E+03  0.47664872704E+03  0.25500000920E-02 0.  1.
        2   -1    0    0  501    0  0.00000000000E+00  0.00000000000E+00 -0.19500692924E+04  0.19500692924E+04  0.25500000920E-02 0. -1.
    10030    2    1    2    0    0  0.00000000000E+00  0.00000000000E+00 -0.14734205654E+04  0.24267180195E+04  0.19282095798E+04 0.  0.
        2    1    3    3  502    0 -0.45010843059E+03  0.16299330625E+03 -0.17899265764E+04  0.18528360872E+04  0.25500000920E-02 0. -1.
       -2    1    3    3    0  502  0.45010843059E+03 -0.16299330625E+03  0.31650601100E+03  0.57388193226E+03  0.25500000920E-02 0.  1.
</event>
<event>
 5   0  0.1255141E-04  0.1901761E+04  0.7818609E-02  0.8653980E-01
        1   -1    0    0  501    0  0.00000000000E+00  0.00000000000E+00  0.19230761949E+04  0.19230761949E+04  0.50400001928E-02 0. -1.
       -1   -1    0    0    0  501  0.00000000000E+00  0.00000000000E+00 -0.47017046890E+03  0.47017046893E+03  0.50400001928E-02 0.  1.
    10030    2    1    2    0    0  0.00000000000E+00  0.00000000000E+00  0.14529057260E+04  0.23932466638E+04  0.19017609064E+04 0.  0.
        2    1    3    3  502    0 -0.26442594480E+03  0.87502856458E+03  0.39690190093E+03  0.99655766922E+03  0.25500000920E-02 0. -1.
       -2    1    3    3    0  502  0.26442594480E+03 -0.87502856458E+03  0.10560038250E+04  0.13966889946E+04  0.25500000920E-02 0.  1.
</event>
<event>
 5   0  0.2541124E-04  0.1895339E+04  0.7818609E-02  0.8657180E-01
        2   -1    0    0  501    0  0.00000000000E+00  0.00000000000E+00  0.76080495093E+03  0.76080495093E+03  0.25500000920E-02 0. -1.
       -2   -1    0    0    0  501  0.00000000000E+00  0.00000000000E+00 -0.11804305688E+04  0.11804305688E+04  0.25500000920E-02 0.  1.
    10030    2    1    2    0    0  0.00000000000E+00  0.00000000000E+00 -0.41962561786E+03  0.19412355197E+04  0.18953389364E+04 0.  0.
        5    1    3    3  502    0 -0.13754236961E+02 -0.77820248984E+03  0.34389578341E+03  0.85092578647E+03  0.46999998093E+01 0. -1.
       -5    1    3    3    0  502  0.13754236961E+02  0.77820248984E+03 -0.76352140128E+03  0.10903097333E+04  0.46999998093E+01 0.  1.
</event>
<event>
 5   0  0.1239615E-04  0.1904691E+04  0.7818609E-02  0.8652525E-01
        1   -1    0    0  501    0  0.00000000000E+00  0.00000000000E+00  0.22316439989E+04  0.22316439989E+04  0.50400001928E-02 0. -1.
       -1   -1    0    0    0  501  0.00000000000E+00  0.00000000000E+00 -0.40640978286E+03  0.40640978290E+03  0.50400001928E-02 0.  1.
    10030    2    1    2    0    0  0.00000000000E+00  0.00000000000E+00  0.18252342160E+04  0.26380537818E+04  0.19046910018E+04 0.  0.
        3    1    3    3  502    0 -0.73961614636E+03 -0.15796585934E+03  0.17142331617E+04  0.18736543437E+04  0.10100000352E+00 0. -1.
       -3    1    3    3    0  502  0.73961614636E+03  0.15796585934E+03  0.11100105427E+03  0.76439943807E+03  0.10100000352E+00 0.  1.
</event>
<event>
 5   0  0.1239615E-04  0.1724796E+04  0.7818609E-02  0.8747347E-01
        1   -1    0    0  501    0  0.00000000000E+00  0.00000000000E+00  0.65396648537E+03  0.65396648539E+03  0.50400001928E-02 0.  1.
       -1   -1    0    0    0  501  0.00000000000E+00  0.00000000000E+00 -0.11372609167E+04  0.11372609167E+04  0.50400001928E-02 0. -1.
    10030    2    1    2    0    0  0.00000000000E+00  0.00000000000E+00 -0.48329443129E+03  0.17912274021E+04  0.17247962484E+04 0.  0.
        3    1    3    3  502    0  0.40926512384E+03  0.58662708478E+03 -0.74197158011E+03  0.10306071580E+04  0.10100000352E+00 0. -1.
       -3    1    3    3    0  502 -0.40926512384E+03 -0.58662708478E+03  0.25867714882E+03  0.76062024409E+03  0.10100000352E+00 0.  1.
</event>
<event>
 5   0  0.1277709E-04  0.1900052E+04  0.7818609E-02  0.8654831E-01
       -1   -1    0    0    0  501  0.00000000000E+00  0.00000000000E+00  0.16207675318E+04  0.16207675318E+04  0.50400001928E-02 0. -1.
        1   -1    0    0  501    0  0.00000000000E+00  0.00000000000E+00 -0.55686527564E+03  0.55686527566E+03  0.50400001928E-02 0.  1.
    10030    2    1    2    0    0  0.00000000000E+00  0.00000000000E+00  0.10639022562E+04  0.21776328075E+04  0.19000517450E+04 0.  0.
        4    1    3    3  502    0  0.65753887023E+02  0.64277248355E+03  0.13301669168E+04  0.14787919660E+04  0.12699999809E+01 0. -1.
       -4    1    3    3    0  502 -0.65753887023E+02 -0.64277248355E+03 -0.26626466065E+03  0.69884084145E+03  0.12699999809E+01 0.  1.
</event>
<event>
 5   0  0.2562925E-04  0.2014430E+04  0.7818609E-02  0.8599904E-01
       -2   -1    0    0    0  501  0.00000000000E+00  0.00000000000E+00  0.55394265417E+03  0.55394265418E+03  0.25500000920E-02 0. -1.
        2   -1    0    0  501    0  0.00000000000E+00  0.00000000000E+00 -0.18313845780E+04  0.18313845780E+04  0.25500000920E-02 0.  1.
    10030    2    1    2    0    0  0.00000000000E+00  0.00000000000E+00 -0.12774419238E+04  0.23853272321E+04  0.20144299779E+04 0.  0.
        4    1    3    3  502    0  0.50306737714E+03  0.56395301814E+03  0.14972939220E+03  0.77041566469E+03  0.12699999809E+01 0. -1.
       -4    1    3    3    0  502 -0.50306737714E+03 -0.56395301814E+03 -0.14271713160E+04  0.16149115675E+04  0.12699999809E+01 0.  1.
</event>
<event>
 5   0  0.2608744E-04  0.1937128E+04  0.7818609E-02  0.8636593E-01
       -2   -1    0    0    0  501  0.00000000000E+00  0.00000000000E+00  0.81249289419E+03  0.81249289419E+03  0.25500000920E-02 0. -1.
        2   -1    0    0  501    0  0.00000000000E+00  0.00000000000E+00 -0.11546142155E+04  0.11546142155E+04  0.25500000920E-02 0.  1.
    10030    2    1    2    0    0  0.00000000000E+00  0.00000000000E+00 -0.34212132131E+03  0.19671071097E+04  0.19371276113E+04 0.  0.
        2    1    3    3  502    0  0.10251530093E+03  0.37832237064E+03  0.72835477950E+03  0.82712628290E+03  0.25500000920E-02 0. -1.
       -2    1    3    3    0  502 -0.10251530093E+03 -0.37832237064E+03 -0.10704761008E+04  0.11399808268E+04  0.25500000920E-02 0.  1.
</event>
<event>
 5   0  0.2562925E-04  0.1923999E+04  0.7818609E-02  0.8643002E-01
        2   -1    0    0  501    0  0.00000000000E+00  0.00000000000E+00  0.13634177946E+04  0.13634177946E+04  0.25500000920E-02 0.  1.
       -2   -1    0    0    0  501  0.00000000000E+00  0.00000000000E+00 -0.67876700627E+03  0.67876700627E+03  0.25500000920E-02 0. -1.
    10030    2    1    2    0    0  0.00000000000E+00  0.00000000000E+00  0.68465078831E+03  0.20421848009E+04  0.19239989758E+04 0.  0.
        4    1    3    3  502    0 -0.40540267659E+03 -0.27239055163E+03  0.12220260049E+04  0.13160156201E+04  0.12699999809E+01 0.  1.
       -4    1    3    3    0  502  0.40540267659E+03  0.27239055163E+03 -0.53737521657E+03  0.72616918076E+03  0.12699999809E+01 0. -1.
</event>
<event>
 5   0  0.2595012E-04  0.1900905E+04  0.7818609E-02  0.8654406E-01
        2   -1    0    0  501    0  0.00000000000E+00  0.00000000000E+00  0.10944679776E+04  0.10944679776E+04  0.25500000920E-02 0. -1.
       -2   -1    0    0    0  501  0.00000000000E+00  0.00000000000E+00 -0.82538765358E+03  0.82538765359E+03  0.25500000920E-02 0.  1.
    10030    2    1    2    0    0  0.00000000000E+00  0.00000000000E+00  0.26908032397E+03  0.19198556311E+04  0.19009054221E+04 0.  0.
        1    1    3    3  502    0  0.21657827135E+03 -0.78829201930E+03  0.62419279978E+03  0.10285558354E+04  0.50400001928E-02 0. -1.
       -1    1    3    3    0  502 -0.21657827135E+03  0.78829201930E+03 -0.35511247581E+03  0.89129979570E+03  0.50400001928E-02 0.  1.
</event>
<event>
 5   0  0.2651828E-04  0.1898172E+04  0.7818609E-02  0.8655767E-01
        2   -1    0    0  501    0  0.00000000000E+00  0.00000000000E+00  0.12463005391E+04  0.12463005391E+04  0.25500000920E-02 0. -1.
       -2   -1    0    0    0  501  0.00000000000E+00  0.00000000000E+00 -0.72275076854E+03  0.72275076854E+03  0.25500000920E-02 0.  1.
    10030    2    1    2    0    0  0.00000000000E+00  0.00000000000E+00  0.52354977054E+03  0.19690513076E+04  0.18981724605E+04 0.  0.
        3    1    3    3  502    0 -0.94772971949E+02  0.80479206815E+03  0.77428041820E+03  0.11207954164E+04  0.10100000352E+00 0. -1.
       -3    1    3    3    0  502  0.94772971949E+02 -0.80479206815E+03 -0.25073064766E+03  0.84825589125E+03  0.10100000352E+00 0.  1.
</event>
<event>
 5   0  0.1317527E-04  0.1864790E+04  0.7818609E-02  0.8672584E-01
        1   -1    0    0  501    0  0.00000000000E+00  0.00000000000E+00  0.16926859878E+04  0.16926859878E+04  0.50400001928E-02 0.  1.
       -1   -1    0    0    0  501  0.00000000000E+00  0.00000000000E+00 -0.51359828925E+03  0.51359828927E+03  0.50400001928E-02 0. -1.
    10030    2    1    2    0    0  0.00000000000E+00  0.00000000000E+00  0.11790876985E+04  0.22062842771E+04  0.18647902055E+04 0.  0.
        1    1    3    3  502    0 -0.52953138303E+03 -0.91711240933E+02  0.14910109471E+04  0.15849063322E+04  0.50400001928E-02 0.  1.
       -1    1    3    3    0  502  0.52953138303E+03  0.91711240933E+02 -0.31192324860E+03  0.62137794487E+03  0.50400001928E-02 0. -1.
</event>
<event>
 5   0  0.2608744E-04  0.1864579E+04  0.7818609E-02  0.8672691E-01
       -2   -1    0    0    0  501  0.00000000000E+00  0.00000000000E+00  0.60960354637E+03  0.60960354637E+03  0.25500000920E-02 0.  1.
        2   -1    0    0  501    0  0.00000000000E+00  0.00000000000E+00 -0.14257858800E+04  0.14257858801E+04  0.25500000920E-02 0. -1.
    10030    2    1    2    0    0  0.00000000000E+00  0.00000000000E+00 -0.81618233368E+03  0.20353894264E+04  0.18645794473E+04 0.  0.
        2    1    3    3  502    0 -0.91232408919E+03 -0.29414380151E+02 -0.61510467239E+03  0.11007062312E+04  0.25500000920E-02 0. -1.
       -2    1    3    3    0  502  0.91232408919E+03  0.29414380151E+02 -0.20107766129E+03  0.93468319518E+03  0.25500000920E-02 0.  1.
</event>
<event>
 5   0  0.1255141E-04  0.2033386E+04  0.7818609E-02  0.8591169E-01
        1   -1    0    0  501    0  0.00000000000E+00  0.00000000000E+00  0.19617582152E+04  0.19617582152E+04  0.50400001928E-02 0.  1.
       -1   -1    0    0    0  501  0.00000000000E+00  0.00000000000E+00 -0.52690721361E+03  0.52690721363E+03  0.50400001928E-02 0. -1.
    10030    2    1    2    0    0  0.00000000000E+00  0.00000000000E+00  0.14348510016E+04  0.24886654288E+04  0.20333859004E+04 0.  0.
        2    1    3    3  502    0  0.83907638449E+03 -0.56306817172E+03  0.85464240223E+03  0.13234457226E+04  0.25500000920E-02 0.  1.
       -2    1    3    3    0  502 -0.83907638449E+03  0.56306817172E+03  0.58020859936E+03  0.11652197062E+04  0.25500000920E-02 0. -1.
</event>
<event>
 5   0  0.2562925E-04  0.1728951E+04  0.7818609E-02  0.8745023E-01
        2   -1    0    0  501    0  0.00000000000E+00  0.00000000000E+00  0.24391729536E+04  0.24391729536E+04  0.25500000920E-02 0. -1.
       -2   -1    0    0    0  501  0.00000000000E+00  0.00000000000E+00 -0.30638158367E+03  0.30638158368E+03  0.25500000920E-02 0.  1.
    10030    2    1    2    0    0  0.00000000000E+00  0.00000000000E+00  0.21327913699E+04  0.27455545373E+04  0.17289507481E+04 0.  0.
        4    1    3    3  502    0  0.49954563610E+03 -0.44358880626E+03  0.19517111463E+03  0.69599586814E+03  0.12699999809E+01 0.  1.
       -4    1    3    3    0  502 -0.49954563610E+03  0.44358880626E+03  0.19376202553E+04  0.20495586691E+04  0.12699999809E+01 0. -1.
</event>
<event>
 5   0  0.2562925E-04  0.1927987E+04  0.7818609E-02  0.8641049E-01
       -2   -1    0    0    0  501  0.00000000000E+00  0.00000000000E+00  0.31413814989E+03  0.31413814990E+03  0.25500000920E-02 0. -1.
        2   -1    0    0  501    0  0.00000000000E+00  0.00000000000E+00 -0.29582002607E+04  0.29582002607E+04  0.25500000920E-02 0.  1.
    10030    2    1    2    0    0  0.00000000000E+00  0.00000000000E+00 -0.26440621108E+04  0.32723384106E+04  0.19279870922E+04 0.  0.
        4    1    3    3  502    0 -0.52273960874E+03 -0.53309593904E+03 -0.28705901608E+03  0.79990778867E+03  0.12699999809E+01 0. -1.
       -4    1    3    3    0  502  0.52273960874E+03  0.53309593904E+03 -0.23570030948E+04  0.24724306219E+04  0.12699999809E+01 0.  1.
</event>
<event>
 5   0  0.1317527E-04  0.1987083E+04  0.7818609E-02  0.8612684E-01
       -1   -1    0    0    0  501  0.00000000000E+00  0.00000000000E+00  0.79997091464E+03  0.79997091466E+03  0.50400001928E-02 0.  1.
        1   -1    0    0  501    0  0.00000000000E+00  0.00000000000E+00 -0.12339509414E+04  0.12339509414E+04  0.50400001928E-02 0. -1.
    10030    2    1    2    0    0  0.00000000000E+00  0.00000000000E+00 -0.43398002671E+03  0.20339218560E+04  0.19870831520E+04 0.  0.
        1    1    3    3  502    0  0.88486332255E+03  0.42293320432E+03 -0.54279897197E+02  0.98224330091E+03  0.50400001928E-02 0.  1.
       -1    1    3    3    0  502 -0.88486332255E+03 -0.42293320432E+03 -0.37970012951E+03  0.10516785551E+04  0.50400001928E-02 0. -1.
</event>
<event>
 5   0  0.1239615E-04  0.1910123E+04  0.7818609E-02  0.8649834E-01
       -1   -1    0    0    0  501  0.00000000000E+00  0.00000000000E+00  0.10362206551E+04  0.10362206551E+04  0.50400001928E-02 0. -1.
        1   -1    0    0  501    0  0.00000000000E+00  0.00000000000E+00 -0.88025901599E+03  0.88025901600E+03  0.50400001928E-02 0.  1.
    10030    2    1    2    0    0  0.00000000000E+00  0.00000000000E+00  0.15596163908E+03  0.19164796711E+04  0.19101231104E+04 0.  0.
        3    1    3    3  502    0 -0.44763117123E+03  0.32003286758E+03 -0.70522427483E+03  0.89450320838E+03  0.10100000352E+00 0.  1.
       -3    1    3    3    0  502  0.44763117123E+03 -0.32003286758E+03  0.86118591391E+03  0.10219764627E+04  0.10100000352E+00 0. -1.
</event>
<event>
 5   0  0.2651828E-04  0.1930072E+04  0.7818609E-02  0.8640031E-01
        2   -1    0    0  501    0  0.00000000000E+00  0.00000000000E+00  0.12627255136E+04  0.12627255136E+04  0.25500000920E-02 0. -1.
       -2   -1    0    0    0  501  0.00000000000E+00  0.00000000000E+00 -0.73752721419E+03  0.73752721419E+03  0.25500000920E-02 0.  1.
    10030    2    1    2    0    0  0.00000000000E+00  0.00000000000E+00  0.52519829942E+03  0.20002527278E+04  0.19300719472E+04 0.  0.
        3    1    3    3  502    0 -0.43326322967E+03 -0.53033472506E+03 -0.44206775554E+03  0.81510481380E+03  0.10100000352E+00 0.  1.
       -3    1    3    3    0  502  0.43326322967E+03  0.53033472506E+03  0.96726605497E+03  0.11851479140E+04  0.10100000352E+00 0. -1.
</event>
<event>
 5   0  0.1324058E-04  0.1869128E+04  0.7818609E-02  0.8670378E-01
        1   -1    0    0  501    0  0.00000000000E+00  0.00000000000E+00  0.11487086037E+04  0.11487086037E+04  0.50400001928E-02 0. -1.
       -1   -1    0    0    0  501  0.00000000000E+00  0.00000000000E+00 -0.76034051980E+03  0.76034051981E+03  0.50400001928E-02 0.  1.
    10030    2    1    2    0    0  0.00000000000E+00  0.00000000000E+00  0.38836808389E+03  0.19090491235E+04  0.18691278146E+04 0.  0.
        5    1    3    3  502    0  0.41608235949E+03 -0.10860450793E+03  0.10416456377E+04  0.11269282113E+04  0.46999998093E+01 0. -1.
       -5    1    3    3    0  502 -0.41608235949E+03  0.10860450793E+03 -0.65327755377E+03  0.78212091219E+03  0.46999998093E+01 0.  1.
</event>
<event>
 5   0  0.1277709E-04  0.1912367E+04  0.7818609E-02  0.8648725E-01
       -1   -1    0    0    0  501  0.00000000000E+00  0.00000000000E+00  0.62179857559E+03  0.62179857561E+03  0.50400001928E-02 0. -1.
        1   -1    0    0  501    0  0.00000000000E+00  0.00000000000E+00 -0.14703906887E+04  0.14703906887E+04  0.50400001928E-02 0.  1.
    10030    2    1    2    0    0  0.00000000000E+00  0.00000000000E+00 -0.84859211311E+03  0.20921892643E+04  0.19123669479E+04 0.  0.
        4    1    3    3  502    0  0.17009382269E+03 -0.63489807936E+03  0.33545155770E+03  0.73794094626E+03  0.12699999809E+01 0.  1.
       -4    1    3    3    0  502 -0.17009382269E+03  0.63489807936E+03 -0.11840436708E+04  0.13542483181E+04  0.12699999809E+01 0. -1.
</event>
<event>
 5   0  0.2562925E-04  0.1914995E+04  0.7818609E-02  0.8647428E-01
       -2   -1    0    0    0  501  0.00000000000E+00  0.00000000000E+00  0.12482620887E+04  0.12482620887E+04  0.25500000920E-02 0. -1.
        2   -1    0    0  501    0  0.00000000000E+00  0.00000000000E+00 -0.73446230915E+03  0.73446230915E+03  0.25500000920E-02 0.  1.
    10030    2    1    2    0    0  0.00000000000E+00  0.00000000000E+00  0.51379977957E+03  0.19827243979E+04  0.19149949933E+04 0.  0.
        4    1    3    3  502    0  0.93896819663E+03 -0.16898366526E+03  0.34090575272E+03  0.10131313333E+04  0.12699999809E+01 0. -1.
       -4    1    3    3    0  502 -0.93896819663E+03  0.16898366526E+03  0.17289402685E+03  0.96959306456E+03  0.12699999809E+01 0.  1.
</event>
<event>
 5   0  0.2595012E-04  0.1935602E+04  0.7818609E-02  0.8637335E-01
        2   -1    0    0  501    0  0.00000000000E+00  0.00000000000E+00  0.89591102073E+03  0.89591102074E+03  0.25500000920E-02 0. -1.
       -2   -1    0    0    0  501  0.00000000000E+00  0.00000000000E+00 -0.10454594698E+04  0.10454594698E+04  0.25500000920E-02 0.  1.
    10030    2    1    2    0    0  0.00000000000E+00  0.00000000000E+00 -0.14954844907E+03  0.19413704905E+04  0.19356018813E+04 0.  0.
        1    1    3    3  502    0  0.85256100916E+03  0.45798337247E+03 -0.69315864271E+02  0.97026477462E+03  0.50400001928E-02 0.  1.
       -1    1    3    3    0  502 -0.85256100916E+03 -0.45798337247E+03 -0.80232584795E+02  0.97110571592E+03  0.50400001928E-02 0. -1.
</event>
<event>
 5   0  0.1255141E-04  0.1854443E+04  0.7818609E-02  0.8677871E-01
       -1   -1    0    0    0  501  0.00000000000E+00  0.00000000000E+00  0.77930772565E+03  0.77930772567E+03  0.50400001928E-02 0.  1.
        1   -1    0    0  501    0  0.00000000000E+00  0.00000000000E+00 -0.11032093936E+04  0.11032093936E+04  0.50400001928E-02 0. -1.
    10030    2    1    2    0    0  0.00000000000E+00  0.00000000000E+00 -0.32390166795E+03  0.18825171193E+04  0.18544428850E+04 0.  0.
        2    1    3    3  502    0  0.33406788854E+03  0.58670602204E+03 -0.80711477029E+03  0.10522640177E+04  0.25500000920E-02 0. -1.
       -2    1    3    3    0  502 -0.33406788854E+03 -0.58670602204E+03  0.48321310234E+03  0.83025310161E+03  0.25500000920E-02 0.  1.
</event>
<event>
 5   0  0.2608744E-04  0.1874705E+04  0.7818609E-02  0.8667551E-01
        2   -1    0    0  501    0  0.00000000000E+00  0.00000000000E+00  0.23920123446E+04  0.23920123446E+04  0.25500000920E-02 0.  1.
       -2   -1    0    0    0  501  0.00000000000E+00  0.00000000000E+00 -0.36731806407E+03  0.36731806408E+03  0.25500000920E-02 0. -1.
    10030    2    1    2    0    0  0.00000000000E+00  0.00000000000E+00  0.20246942806E+04  0.27593304087E+04  0.18747046100E+04 0.  0.
        2    1    3    3  502    0 -0.52107724962E+03  0.67558205485E+03  0.15837241674E+04  0.17989204683E+04  0.25500000920E-02 0.  1.
       -2    1    3    3    0  502  0.52107724962E+03 -0.67558205485E+03  0.44097011316E+03  0.96040994040E+03  0.25500000920E-02 0. -1.
</event>
<event>
 5   0  0.2595012E-04  0.1885704E+04  0.7818609E-02  0.8662005E-01
       -2   -1    0    0    0  501  0.00000000000E+00  0.00000000000E+00  0.63540754387E+03  0.63540754387E+03  0.25500000920E-02 0.  1.
        2   -1    0    0  501    0  0.00000000000E+00  0.00000000000E+00 -0.13990543405E+04  0.13990543405E+04  0.25500000920E-02 0. -1.
    10030    2    1    2    0    0  0.00000000000E+00  0.00000000000E+00 -0.76364679663E+03  0.20344618844E+04  0.18857037755E+04 0.  0.
        1    1    3    3  502    0  0.70982921317E+03  0.45290559392E+03  0.75895347449E+02  0.84542361729E+03  0.50400001928E-02 0.  1.
       -1    1    3    3    0  502 -0.70982921317E+03 -0.45290559392E+03 -0.83954214408E+03  0.11890382671E+04  0.50400001928E-02 0. -1.
</event>
<event>
 5   0  0.2651828E-04  0.1896121E+04  0.7818609E-02  0.8656790E-01
        2   -1    0    0  501    0  0.00000000000E+00  0.00000000000E+00  0.74800608158E+03  0.74800608159E+03  0.25500000920E-02 0.  1.
       -2   -1    0    0    0  501  0.00000000000E+00  0.00000000000E+00 -0.12016190424E+04  0.12016190424E+04  0.25500000920E-02 0. -1.
    10030    2    1    2    0    0  0.00000000000E+00  0.00000000000E+00 -0.45361296080E+03  0.19496251240E+04  0.18961206201E+04 0.  0.
        3    1    3    3  502    0 -0.59387337473E+01  0.41999651286E+03 -0.11007227256E+04  0.11781438233E+04  0.10100000352E+00 0. -1.
       -3    1    3    3    0  502  0.59387337473E+01 -0.41999651286E+03  0.64710976484E+03  0.77148130070E+03  0.10100000352E+00 0.  1.
</event>
<event>
 5   0  0.2608744E-04  0.1874483E+04  0.7818609E-02  0.8667663E-01
        2   -1    0    0  501    0  0.00000000000E+00  0.00000000000E+00  0.75768705245E+03  0.75768705245E+03  0.25500000920E-02 0. -1.
       -2   -1    0    0    0  501  0.00000000000E+00  0.00000000000E+00 -0.11593458099E+04  0.11593458099E+04  0.25500000920E-02 0.  1.
    10030    2    1    2    0    0  0.00000000000E+00  0.00000000000E+00 -0.40165875747E+03  0.19170328624E+04  0.18744826588E+04 0.  0.
        2    1    3    3  502    0 -0.32376276405E+01 -0.69996161339E+03  0.43658790687E+03  0.82496408581E+03  0.25500000920E-02 0. -1.
       -2    1    3    3    0  502  0.32376276405E+01  0.69996161339E+03 -0.83824666434E+03  0.10920687766E+04  0.25500000920E-02 0.  1.
</event>
<event>
 5   0  0.1324058E-04  0.1911942E+04  0.7818609E-02  0.8648935E-01
       -1   -1    0    0    0  501  0.00000000000E+00  0.00000000000E+00  0.56493397039E+03  0.56493397041E+03  0.50400001928E-02 0.  1.
        1   -1    0    0  501    0  0.00000000000E+00  0.00000000000E+00 -0.16176773045E+04  0.16176773045E+04  0.50400001928E-02 0. -1.
    10030    2    1    2    0    0  0.00000000000E+00  0.00000000000E+00 -0.10527433341E+04  0.21826112749E+04  0.19119423239E+04 0.  0.
        5    1    3    3  502    0  0.14001196805E+03  0.73147270585E+03  0.15781033636E+03  0.76130274061E+03  0.46999998093E+01 0.  1.
       -5    1    3    3    0  502 -0.14001196805E+03 -0.73147270585E+03 -0.12105536704E+04  0.14213085343E+04  0.46999998093E+01 0. -1.
</event>
<event>
 5   0  0.2562925E-04  0.1881823E+04  0.7818609E-02  0.8663958E-01
       -2   -1    0    0    0  501  0.00000000000E+00  0.00000000000E+00  0.10407546386E+04  0.10407546386E+04  0.25500000920E-02 0.  1.
        2   -1    0    0  501    0  0.00000000000E+00  0.00000000000E+00 -0.85064632608E+03  0.85064632608E+03  0.25500000920E-02 0. -1.
    10030    2    1    2    0    0  0.00000000000E+00  0.00000000000E+00  0.19010831253E+03  0.18914009647E+04  0.18818226374E+04 0.  0.
        4    1    3    3  502    0 -0.35895151828E+03  0.40352237139E+03  0.86945360066E+03  0.10235368451E+04  0.12699999809E+01 0.  1.
       -4    1    3    3    0  502  0.35895151828E+03 -0.40352237139E+03 -0.67934528813E+03  0.86786411960E+03  0.12699999809E+01 0. -1.
</event>
<event>
 5   0  0.1239615E-04  0.1901234E+04  0.7818609E-02  0.8654242E-01
       -1   -1    0    0    0  501  0.00000000000E+00  0.00000000000E+00  0.65470086386E+03  0.65470086388E+03  0.50400001928E-02 0. -1.
        1   -1    0    0  501    0  0.00000000000E+00  0.00000000000E+00 -0.13802833197E+04  0.13802833197E+04  0.50400001928E-02 0.  1.
    10030    2    1    2    0    0  0.00000000000E+00  0.00000000000E+00 -0.72558245587E+03  0.20349841836E+04  0.19012340012E+04 0.  0.
        3    1    3    3  502    0 -0.55861589759E+03 -0.76392056979E+03 -0.26677957556E+03  0.98325871983E+03  0.10100000352E+00 0. -1.
       -3    1    3    3    0  502  0.55861589759E+03  0.76392056979E+03 -0.45880288030E+03  0.10517254638E+04  0.10100000352E+00 0.  1.
</event>
<event>
 5   0  0.1239615E-04  0.1908069E+04  0.7818609E-02  0.8650850E-01
       -1   -1    0    0    0  501  0.00000000000E+00  0.00000000000E+00  0.93679845284E+03  0.93679845285E+03  0.50400001928E-02 0. -1.
        1   -1    0    0  501    0  0.00000000000E+00  0.00000000000E+00 -0.97158791852E+03  0.97158791853E+03  0.50400001928E-02 0.  1.
    10030    2    1    2    0    0  0.00000000000E+00  0.00000000000E+00 -0.34789465685E+02  0.19083863714E+04  0.19080692429E+04 0.  0.
        3    1    3    3  502    0  0.75033979898E+02  0.94980005343E+03  0.31926839242E+02  0.95329406423E+03  0.10100000352E+00 0.  1.
       -3    1    3    3    0  502 -0.75033979898E+02 -0.94980005343E+03 -0.66716304927E+02  0.95509230715E+03  0.10100000352E+00 0. -1.
</event>
<event>
 5   0  0.2651828E-04  0.1892659E+04  0.7818609E-02  0.8658519E-01
        2   -1    0    0  501    0  0.00000000000E+00  0.00000000000E+00  0.13266907594E+04  0.13266907594E+04  0.25500000920E-02 0.  1.
       -2   -1    0    0    0  501  0.00000000000E+00  0.00000000000E+00 -0.67501760271E+03  0.67501760271E+03  0.25500000920E-02 0. -1.
    10030    2    1    2    0    0  0.00000000000E+00  0.00000000000E+00  0.65167315665E+03  0.20017083621E+04  0.18926590986E+04 0.  0.
        3    1    3    3  502    0  0.56246778247E+03 -0.45640084337E+03  0.96991390537E+03  0.12105390246E+04  0.10100000352E+00 0.  1.
       -3    1    3    3    0  502 -0.56246778247E+03  0.45640084337E+03 -0.31824074872E+03  0.79116933743E+03  0.10100000352E+00 0. -1.
</event>
<event>
 5   0  0.9266125E-05  0.1889232E+04  0.7818609E-02  0.8660235E-01
       -3   -1    0    0    0  501  0.00000000000E+00  0.00000000000E+00  0.98895405202E+03  0.98895405717E+03  0.10100000352E+00 0. -1.
        3   -1    0    0  501    0  0.00000000000E+00  0.00000000000E+00 -0.90226556168E+03  0.90226556734E+03  0.10100000352E+00 0.  1.
    10030    2    1    2    0    0  0.00000000000E+00  0.00000000000E+00  0.86688490333E+02  0.18912196245E+04  0.18892317946E+04 0.  0.
        5    1    3    3  502    0 -0.66366373638E+03 -0.15206270880E+03 -0.61209996482E+03  0.91556598851E+03  0.46999998093E+01 0.  1.
       -5    1    3    3    0  502  0.66366373638E+03  0.15206270880E+03  0.69878845515E+03  0.97565363600E+03  0.46999998093E+01 0. -1.
</event>
<event>
 5   0  0.1239615E-04  0.1867867E+04  0.7818609E-02  0.8671018E-01
        1   -1    0    0  501    0  0.00000000000E+00  0.00000000000E+00  0.12306526405E+04  0.12306526405E+04  0.50400001928E-02 0.  1.
       -1   -1    0    0    0  501  0.00000000000E+00  0.00000000000E+00 -0.70875566045E+03  0.70875566047E+03  0.50400001928E-02 0. -1.
    10030    2    1    2    0    0  0.00000000000E+00  0.00000000000E+00  0.52189698007E+03  0.19394083010E+04  0.18678672598E+04 0.  0.
        3    1    3    3  502    0  0.74154703799E+03 -0.91308166335E+01 -0.32847056693E+03  0.81109081174E+03  0.10100000352E+00 0. -1.
       -3    1    3    3    0  502 -0.74154703799E+03  0.91308166335E+01  0.85036754700E+03  0.11283174892E+04  0.10100000352E+00 0.  1.
</event>
<event>
 5   0  0.1277709E-04  0.1922842E+04  0.7818609E-02  0.8643569E-01
        1   -1    0    0  501    0  0.00000000000E+00  0.00000000000E+00  0.11106188712E+04  0.11106188712E+04  0.50400001928E-02 0. -1.
       -1   -1    0    0    0  501  0.00000000000E+00  0.00000000000E+00 -0.83226626245E+03  0.83226626246E+03  0.50400001928E-02 0.  1.
    10030    2    1    2    0    0  0.00000000000E+00  0.00000000000E+00  0.27835260873E+03  0.19428851336E+04  0.19228422888E+04 0.  0.
        4    1    3    3  502    0 -0.24291853018E+03 -0.35585271127E+03 -0.72925228325E+03  0.84702483431E+03  0.12699999809E+01 0.  1.
       -4    1    3    3    0  502  0.24291853018E+03  0.35585271127E+03  0.10076048920E+04  0.10958602993E+04  0.12699999809E+01 0. -1.
</event>
<event>
 5   0  0.1324058E-04  0.2190822E+04  0.7818609E-02  0.8522258E-01
        1   -1    0    0  501    0  0.00000000000E+00  0.00000000000E+00  0.64380957754E+03  0.64380957756E+03  0.50400001928E-02 0. -1.
       -1   -1    0    0    0  501  0.00000000000E+00  0.00000000000E+00 -0.18637886723E+04  0.18637886723E+04  0.50400001928E-02 0.  1.
    10030    2    1    2    0    0  0.00000000000E+00  0.00000000000E+00 -0.12199790947E+04  0.25075982498E+04  0.21908217616E+04 0.  0.
        5    1    3    3  502    0 -0.75569148117E+03  0.12438643733E+03  0.28642542108E+03  0.81768160817E+03  0.46999998093E+01 0. -1.
       -5    1    3    3    0  502  0.75569148117E+03 -0.12438643733E+03 -0.15064045158E+04  0.16899166416E+04  0.46999998093E+01 0.  1.
</event>
<event>
 5   0  0.1277709E-04  0.1905489E+04  0.7818609E-02  0.8652129E-01
       -1   -1    0    0    0  501  0.00000000000E+00  0.00000000000E+00  0.55943931768E+03  0.55943931770E+03  0.50400001928E-02 0. -1.
        1   -1    0    0  501    0  0.00000000000E+00  0.00000000000E+00 -0.16225563350E+04  0.16225563350E+04  0.50400001928E-02 0.  1.
    10030    2    1    2    0    0  0.00000000000E+00  0.00000000000E+00 -0.10631170173E+04  0.21819956527E+04  0.19054887131E+04 0.  0.
        4    1    3    3  502    0 -0.53284242594E+03  0.37319656079E+03  0.26552699487E+03  0.70263996597E+03  0.12699999809E+01 0. -1.
       -4    1    3    3    0  502  0.53284242594E+03 -0.37319656079E+03 -0.13286440122E+04  0.14793556867E+04  0.12699999809E+01 0.  1.
</event>
<event>
 5   0  0.2651828E-04  0.1917415E+04  0.7818609E-02  0.8646236E-01
        2   -1    0    0  501    0  0.00000000000E+00  0.00000000000E+00  0.12278006844E+04  0.12278006844E+04  0.25500000920E-02 0. -1.
       -2   -1    0    0    0  501  0.00000000000E+00  0.00000000000E+00 -0.74859070570E+03  0.74859070571E+03  0.25500000920E-02 0.  1.
    10030    2    1    2    0    0  0.00000000000E+00  0.00000000000E+00  0.47920997873E+03  0.19763913901E+04  0.19174151150E+04 0.  0.
        3    1    3    3  502    0  0.30734280366E+03 -0.84557126150E+03 -0.10174536569E+03  0.90542944887E+03  0.10100000352E+00 0.  1.
       -3    1    3    3    0  502 -0.30734280366E+03  0.84557126150E+03  0.58095534442E+03  0.10709619413E+04  0.10100000352E+00 0. -1.
</event>
<event>
 5   0  0.1317527E-04  0.1895094E+04  0.7818609E-02  0.8657302E-01
        1   -1    0    0  501    0  0.00000000000E+00  0.00000000000E+00  0.81074929144E+03  0.81074929146E+03  0.50400001928E-02 0.  1.
       -1   -1    0    0    0  501  0.00000000000E+00  0.00000000000E+00 -0.11074264950E+04  0.11074264950E+04  0.50400001928E-02 0. -1.
    10030    2    1    2    0    0  0.00000000000E+00  0.00000000000E+00 -0.29667720354E+03  0.19181757865E+04  0.18950939250E+04 0.  0.
        1    1    3    3  502    0  0.74415093981E+02 -0.94454325333E+03 -0.16055551183E+03  0.96097743783E+03  0.50400001928E-02 0. -1.
       -1    1    3    3    0  502 -0.74415093981E+02  0.94454325333E+03 -0.13612169171E+03  0.95719834862E+03  0.50400001928E-02 0.  1.
</event>
<event>
 5   0  0.2651828E-04  0.1863236E+04  0.7818609E-02  0.8673376E-01
        2   -1    0    0  501    0  0.00000000000E+00  0.00000000000E+00  0.92095504237E+03  0.92095504238E+03  0.25500000920E-02 0.  1.
       -2   -1    0    0    0  501  0.00000000000E+00  0.00000000000E+00 -0.94240424285E+03  0.94240424286E+03  0.25500000920E-02 0. -1.
    10030    2    1    2    0    0  0.00000000000E+00  0.00000000000E+00 -0.21449200481E+02  0.18633592852E+04  0.18632358299E+04 0.  0.
        3    1    3    3  502    0 -0.46372680194E+03  0.80598019420E+03  0.46422067670E+02  0.93102182512E+03  0.10100000352E+00 0.  1.
       -3    1    3    3    0  502  0.46372680194E+03 -0.80598019420E+03 -0.67871268151E+02  0.93233746011E+03  0.10100000352E+00 0. -1.
</event>
<event>
 5   0  0.2562925E-04  0.1956674E+04  0.7818609E-02  0.8627149E-01
        2   -1    0    0  501    0  0.00000000000E+00  0.00000000000E+00  0.22555072688E+04  0.22555072688E+04  0.25500000920E-02 0. -1.
       -2   -1    0    0    0  501  0.00000000000E+00  0.00000000000E+00 -0.42435835332E+03  0.42435835333E+03  0.25500000920E-02 0.  1.
    10030    2    1    2    0    0  0.00000000000E+00  0.00000000000E+00  0.18311489155E+04  0.26798656222E+04  0.19566740664E+04 0.  0.
        4    1    3    3  502    0 -0.96082170025E+01  0.92196863148E+03  0.46751709198E+03  0.10337757588E+04  0.12699999809E+01 0.  1.
       -4    1    3    3    0  502  0.96082170025E+01 -0.92196863148E+03  0.13636318235E+04  0.16460898634E+04  0.12699999809E+01 0. -1.
</event>
<event>
 5   0  0.1277709E-04  0.1895264E+04  0.7818609E-02  0.8657217E-01
        1   -1    0    0  501    0  0.00000000000E+00  0.00000000000E+00  0.78503940799E+03  0.78503940801E+03  0.50400001928E-02 0.  1.
       -1   -1    0    0    0  501  0.00000000000E+00  0.00000000000E+00 -0.11438995052E+04  0.11438995052E+04  0.50400001928E-02 0. -1.
    10030    2    1    2    0    0  0.00000000000E+00  0.00000000000E+00 -0.35886009722E+03  0.19289389132E+04  0.18952637710E+04 0.  0.
        4    1    3    3  502    0  0.48227681513E+03 -0.38462888358E+03  0.55270836690E+03  0.82826231125E+03  0.12699999809E+01 0.  1.
       -4    1    3    3    0  502 -0.48227681513E+03  0.38462888358E+03 -0.91156846412E+03  0.11006766020E+04  0.12699999809E+01 0. -1.
</event>
<event>
 5   0  0.1317527E-04  0.1915878E+04  0.7818609E-02  0.8646993E-01
        1   -1    0    0  501    0  0.00000000000E+00  0.00000000000E+00  0.13903282774E+04  0.13903282774E+04  0.50400001928E-02 0. -1.
       -1   -1    0    0    0  501  0.00000000000E+00  0.00000000000E+00 -0.66002176085E+03  0.66002176087E+03  0.50400001928E-02 0.  1.
    10030    2    1    2    0    0  0.00000000000E+00  0.00000000000E+00  0.73030651657E+03  0.20503500383E+04  0.19158777809E+04 0.  0.
        1    1    3    3  502    0  0.78313351590E+03  0.47267628835E+03  0.60711593853E+02  0.91673708060E+03  0.50400001928E-02 0.  1.
       -1    1    3    3    0  502 -0.78313351590E+03 -0.47267628835E+03  0.66959492271E+03  0.11336129577E+04  0.50400001928E-02 0. -1.
</event>
<event>
 5   0  0.2608744E-04  0.1946889E+04  0.7818609E-02  0.8631862E-01
        2   -1    0    0  501    0  0.00000000000E+00  0.00000000000E+00  0.12478709689E+04  0.12478709689E+04  0.25500000920E-02 0.  1.
       -2   -1    0    0    0  501  0.00000000000E+00  0.00000000000E+00 -0.75936907735E+03  0.75936907735E+03  0.25500000920E-02 0. -1.
    10030    2    1    2    0    0  0.00000000000E+00  0.00000000000E+00  0.48850189159E+03  0.20072400463E+04  0.19468894435E+04 0.  0.
        2    1    3    3  502    0 -0.83657917442E+03  0.14030502640E+03  0.73659391329E+03  0.11234415021E+04  0.25500000920E-02 0.  1.
       -2    1    3    3    0  502  0.83657917442E+03 -0.14030502640E+03 -0.24809202171E+03  0.88379854421E+03  0.25500000920E-02 0. -1.
</event>
<event>
 5   0  0.2651828E-04  0.1913183E+04  0.7818609E-02  0.8648322E-01
       -2   -1    0    0    0  501  0.00000000000E+00  0.00000000000E+00  0.13294741289E+04  0.13294741289E+04  0.25500000920E-02 0.  1.
        2   -1    0    0  501    0  0.00000000000E+00  0.00000000000E+00 -0.68829293156E+03  0.68829293157E+03  0.25500000920E-02 0. -1.
    10030    2    1    2    0    0  0.00000000000E+00  0.00000000000E+00  0.64118119736E+03  0.20177670605E+04  0.19131833635E+04 0.  0.
        3    1    3    3  502    0  0.85615451809E+01  0.45165667356E+02 -0.68712730561E+03  0.68866332985E+03  0.10100000352E+00 0. -1.
       -3    1    3    3    0  502 -0.85615451809E+01 -0.45165667356E+02  0.13283085030E+04  0.13291037306E+04  0.10100000352E+00 0.  1.
</event>
<event>
 5   0  0.1277709E-04  0.1877549E+04  0.7818609E-02  0.8666113E-01
        1   -1    0    0  501    0  0.00000000000E+00  0.00000000000E+00  0.10417338557E+04  0.10417338557E+04  0.50400001928E-02 0. -1.
       -1   -1    0    0    0  501  0.00000000000E+00  0.00000000000E+00 -0.84599131701E+03  0.84599131703E+03  0.50400001928E-02 0.  1.
    10030    2    1    2    0    0  0.00000000000E+00  0.00000000000E+00  0.19574253869E+03  0.18877251727E+04  0.18775492501E+04 0.  0.
        4    1    3    3  502    0  0.31365816206E+03  0.40243095378E+03  0.89015486662E+03  0.10260162838E+04  0.12699999809E+01 0. -1.
       -4    1    3    3    0  502 -0.31365816206E+03 -0.40243095378E+03 -0.69441232793E+03  0.86170888893E+03  0.12699999809E+01 0.  1.
</event>
<event>
 5   0  0.1255141E-04  0.1867260E+04  0.7818609E-02  0.8671327E-01
        1   -1    0    0  501    0  0.00000000000E+00  0.00000000000E+00  0.12290880994E+04  0.12290880994E+04  0.50400001928E-02 0. -1.
       -1   -1    0    0    0  501  0.00000000000E+00  0.00000000000E+00 -0.70919660099E+03  0.70919660101E+03  0.50400001928E-02 0.  1.
    10030    2    1    2    0    0  0.00000000000E+00  0.00000000000E+00  0.51989149839E+03  0.19382847004E+04  0.18672601345E+04 0.  0.
        2    1    3    3  502    0  0.25940306112E+03 -0.84469466019E+03  0.57285157689E+03  0.10530707223E+04  0.25500000920E-02 0. -1.
       -2    1    3    3    0  502 -0.25940306112E+03  0.84469466019E+03 -0.52960078497E+02  0.88521397808E+03  0.25500000920E-02 0.  1.
</event>
<event>
 5   0  0.1317527E-04  0.1720383E+04  0.7818609E-02  0.8749824E-01
        1   -1    0    0  501    0  0.00000000000E+00  0.00000000000E+00  0.10706530784E+04  0.10706530785E+04  0.50400001928E-02 0.  1.
       -1   -1    0    0    0  501  0.00000000000E+00  0.00000000000E+00 -0.69110098143E+03  0.69110098145E+03  0.50400001928E-02 0. -1.
    10030    2    1    2    0    0  0.00000000000E+00  0.00000000000E+00  0.37955209701E+03  0.17617540599E+04  0.17203829728E+04 0.  0.
        1    1    3    3  502    0 -0.11067998251E+03 -0.49013834434E+03  0.90473711586E+03  0.10349081621E+04  0.50400001928E-02 0.  1.
       -1    1    3    3    0  502  0.11067998251E+03  0.49013834434E+03 -0.52518501885E+03  0.72684589782E+03  0.50400001928E-02 0. -1.
</event>
<event>
 5   0  0.2608744E-04  0.1900955E+04  0.7818609E-02  0.8654381E-01
        2   -1    0    0  501    0  0.00000000000E+00  0.00000000000E+00  0.13482476979E+04  0.13482476979E+04  0.25500000920E-02 0. -1.
       -2   -1    0    0    0  501  0.00000000000E+00  0.00000000000E+00 -0.67006059583E+03  0.67006059584E+03  0.25500000920E-02 0.  1.
    10030    2    1    2    0    0  0.00000000000E+00  0.00000000000E+00  0.67818710206E+03  0.20183082937E+04  0.19009551870E+04 0.  0.
        2    1    3    3  502    0  0.68449511987E+03 -0.39733132215E+03  0.89789433330E+03  0.11969210427E+04  0.25500000920E-02 0. -1.
       -2    1    3    3    0  502 -0.68449511987E+03  0.39733132215E+03 -0.21970723124E+03  0.82138725103E+03  0.25500000920E-02 0.  1.
</event>
<event>
 5   0  0.1324058E-04  0.1861745E+04  0.7818609E-02  0.8674136E-01
       -1   -1    0    0    0  501  0.00000000000E+00  0.00000000000E+00  0.13086939048E+04  0.13086939048E+04  0.50400001928E-02 0. -1.
        1   -1    0    0  501    0  0.00000000000E+00  0.00000000000E+00 -0.66212859467E+03  0.66212859469E+03  0.50400001928E-02 0.  1.
    10030    2    1    2    0    0  0.00000000000E+00  0.00000000000E+00  0.64656531016E+03  0.19708224995E+04  0.18617450482E+04 0.  0.
        5    1    3    3  502    0 -0.63161238214E+03 -0.21804089258E+03  0.10093474757E+04  0.12104876905E+04  0.46999998093E+01 0. -1.
       -5    1    3    3    0  502  0.63161238214E+03  0.21804089258E+03 -0.36278216559E+03  0.76033480900E+03  0.46999998093E+01 0.  1.
</event>
<event>
 5   0  0.1239615E-04  0.1541923E+04  0.7818609E-02  0.8857044E-01
        1   -1    0    0  501    0  0.00000000000E+00  0.00000000000E+00  0.34836179438E+03  0.34836179441E+03  0.50400001928E-02 0. -1.
       -1   -1    0    0    0  501  0.00000000000E+00  0.00000000000E+00 -0.17062183711E+04  0.17062183712E+04  0.50400001928E-02 0.  1.
    10030    2    1    2    0    0  0.00000000000E+00  0.00000000000E+00 -0.13578565768E+04  0.20545801656E+04  0.15419225576E+04 0.  0.
        3    1    3    3  502    0 -0.39963576694E+03 -0.20064243055E+03 -0.15157584492E+04  0.15803448414E+04  0.10100000352E+00 0.  1.
       -3    1    3    3    0  502  0.39963576694E+03  0.20064243055E+03  0.15790187246E+03  0.47423532416E+03  0.10100000352E+00 0. -1.
</event>
<event>
 5   0  0.2651828E-04  0.1897812E+04  0.7818609E-02  0.8655946E-01
        2   -1    0    0  501    0  0.00000000000E+00  0.00000000000E+00  0.12846766998E+04  0.12846766998E+04  0.25500000920E-02 0. -1.
       -2   -1    0    0    0  501  0.00000000000E+00  0.00000000000E+00 -0.70089458293E+03  0.70089458294E+03  0.25500000920E-02 0.  1.
    10030    2    1    2    0    0  0.00000000000E+00  0.00000000000E+00  0.58378211687E+03  0.19855712827E+04  0.18978123613E+04 0.  0.
        3    1    3    3  502    0 -0.31386756616E+03 -0.15667544076E+03  0.12143437729E+04  0.12639979635E+04  0.10100000352E+00 0. -1.
       -3    1    3    3    0  502  0.31386756616E+03  0.15667544076E+03 -0.63056165600E+03  0.72157331924E+03  0.10100000352E+00 0.  1.
</event>
<event>
 5   0  0.2651828E-04  0.1858343E+04  0.7818609E-02  0.8675874E-01
        2   -1    0    0  501    0  0.00000000000E+00  0.00000000000E+00  0.16654063134E+04  0.16654063134E+04  0.25500000920E-02 0.  1.
       -2   -1    0    0    0  501  0.00000000000E+00  0.00000000000E+00 -0.51840782181E+03  0.51840782181E+03  0.25500000920E-02 0. -1.
    10030    2    1    2    0    0  0.00000000000E+00  0.00000000000E+00  0.11469984916E+04  0.21838141352E+04  0.18583429816E+04 0.  0.
        3    1    3    3  502    0  0.29996631425E+03 -0.67905621447E+03  0.12301731060E+04  0.14368100129E+04  0.10100000352E+00 0.  1.
       -3    1    3    3    0  502 -0.29996631425E+03  0.67905621447E+03 -0.83174614444E+02  0.74700412233E+03  0.10100000352E+00 0. -1.
</event>
<event>
 5   0  0.1317527E-04  0.1891566E+04  0.7818609E-02  0.8659066E-01
        1   -1    0    0  501    0  0.00000000000E+00  0.00000000000E+00  0.10740354443E+04  0.10740354443E+04  0.50400001928E-02 0. -1.
       -1   -1    0    0    0  501  0.00000000000E+00  0.00000000000E+00 -0.83284513508E+03  0.83284513510E+03  0.50400001928E-02 0.  1.
    10030    2    1    2    0    0  0.00000000000E+00  0.00000000000E+00  0.24119030922E+03  0.19068805794E+04  0.18915656951E+04 0.  0.
        1    1    3    3  502    0 -0.39346763860E+03 -0.58454696937E+03  0.75656997484E+03  0.10338810710E+04  0.50400001928E-02 0. -1.
       -1    1    3    3    0  502  0.39346763860E+03  0.58454696937E+03 -0.51537966562E+03  0.87299950847E+03  0.50400001928E-02 0.  1.
</event>
<event>
 5   0  0.2595012E-04  0.1837217E+04  0.7818609E-02  0.8686754E-01
       -2   -1    0    0    0  501  0.00000000000E+00  0.00000000000E+00  0.49888933484E+03  0.49888933485E+03  0.25500000920E-02 0. -1.
        2   -1    0    0  501    0  0.00000000000E+00  0.00000000000E+00 -0.16914408085E+04  0.16914408085E+04  0.25500000920E-02 0.  1.
    10030    2    1    2    0    0  0.00000000000E+00  0.00000000000E+00 -0.11925514736E+04  0.21903301433E+04  0.18372172216E+04 0.  0.
        1    1    3    3  502    0  0.13325722776E+03  0.44485166227E+03  0.34864423292E+03  0.58069207963E+03  0.50400001928E-02 0. -1.
       -1    1    3    3    0  502 -0.13325722776E+03 -0.44485166227E+03 -0.15411957065E+04  0.16096380637E+04  0.50400001928E-02 0.  1.
</event>
<event>
 5   0  0.1255141E-04  0.1917769E+04  0.7818609E-02  0.8646062E-01
        1   -1    0    0  501    0  0.00000000000E+00  0.00000000000E+00  0.23037738604E+04  0.23037738604E+04  0.50400001928E-02 0. -1.
       -1   -1    0    0    0  501  0.00000000000E+00  0.00000000000E+00 -0.39911011007E+03  0.39911011010E+03  0.50400001928E-02 0.  1.
    10030    2    1    2    0    0  0.00000000000E+00  0.00000000000E+00  0.19046637503E+04  0.27028839705E+04  0.19177689528E+04 0.  0.
        2    1    3    3  502    0  0.13819280967E+03  0.51672599297E+03 -0.16931257755E+03  0.56104345052E+03  0.25500000920E-02 0.  1.
       -2    1    3    3    0  502 -0.13819280967E+03 -0.51672599297E+03  0.20739763279E+04  0.21418405200E+04  0.25500000920E-02 0. -1.
</event>
<event>
 5   0  0.1317527E-04  0.1901329E+04  0.7818609E-02  0.8654195E-01
        1   -1    0    0  501    0  0.00000000000E+00  0.00000000000E+00  0.10256260764E+04  0.10256260764E+04  0.50400001928E-02 0. -1.
       -1   -1    0    0    0  501  0.00000000000E+00  0.00000000000E+00 -0.88118189466E+03  0.88118189467E+03  0.50400001928E-02 0.  1.
    10030    2    1    2    0    0  0.00000000000E+00  0.00000000000E+00  0.14444418174E+03  0.19068079711E+04  0.19013291448E+04 0.  0.
        1    1    3    3  502    0 -0.65087551547E+03  0.65671609041E+03  0.29387518538E+03  0.97019461174E+03  0.50400001928E-02 0. -1.
       -1    1    3    3    0  502  0.65087551547E+03 -0.65671609041E+03 -0.14943100364E+03  0.93661335935E+03  0.50400001928E-02 0.  1.
</event>
<event>
 5   0  0.9266125E-05  0.1889530E+04  0.7818609E-02  0.8660086E-01
       -4   -1    0    0    0  501  0.00000000000E+00  0.00000000000E+00  0.16057279383E+04  0.16057284405E+04  0.12699999809E+01 0. -1.
        4   -1    0    0  501    0  0.00000000000E+00  0.00000000000E+00 -0.55587183522E+03  0.55587328600E+03  0.12699999809E+01 0.  1.
    10030    2    1    2    0    0  0.00000000000E+00  0.00000000000E+00  0.10498561030E+04  0.21616017265E+04  0.18895301498E+04 0.  0.
        5    1    3    3  502    0 -0.35550317453E+03  0.21605331237E+02 -0.47611767366E+03  0.59460863314E+03  0.46999998093E+01 0.  1.
       -5    1    3    3    0  502  0.35550317453E+03 -0.21605331237E+02  0.15259737767E+04  0.15669930933E+04  0.46999998093E+01 0. -1.
</event>
<event>
 5   0  0.2595012E-04  0.1895803E+04  0.7818609E-02  0.8656948E-01
       -2   -1    0    0    0  501  0.00000000000E+00  0.00000000000E+00  0.42671946226E+03  0.42671946226E+03  0.25500000920E-02 0. -1.
        2   -1    0    0  501    0  0.00000000000E+00  0.00000000000E+00 -0.21056394880E+04  0.21056394880E+04  0.25500000920E-02 0.  1.
    10030    2    1    2    0    0  0.00000000000E+00  0.00000000000E+00 -0.16789200258E+04  0.25323589503E+04  0.18958031016E+04 0.  0.
        1    1    3    3  502    0  0.42112769053E+03 -0.53178556892E+03  0.44950503528E+02  0.67982716248E+03  0.50400001928E-02 0. -1.
       -1    1    3    3    0  502 -0.42112769053E+03  0.53178556892E+03 -0.17238705293E+04  0.18525317878E+04  0.50400001928E-02 0.  1.
</event>
<event>
 5   0  0.1277709E-04  0.1362626E+04  0.7818609E-02  0.8981325E-01
        1   -1    0    0  501    0  0.00000000000E+00  0.00000000000E+00  0.22402336731E+04  0.22402336731E+04  0.50400001928E-02 0.  1.
       -1   -1    0    0    0  501  0.00000000000E+00  0.00000000000E+00 -0.20720478859E+03  0.20720478866E+03  0.50400001928E-02 0. -1.
    10030    2    1    2    0    0  0.00000000000E+00  0.00000000000E+00  0.20330288845E+04  0.24474384618E+04  0.13626256195E+04 0.  0.
        4    1    3    3  502    0 -0.64484976110E+03 -0.79779243291E+02  0.64846509955E+03  0.91798940097E+03  0.12699999809E+01 0. -1.
       -4    1    3    3    0  502  0.64484976110E+03  0.79779243291E+02  0.13845637850E+04  0.15294490608E+04  0.12699999809E+01 0.  1.
</event>
<event>
 5   0  0.1255141E-04  0.1818378E+04  0.7818609E-02  0.8696587E-01
       -1   -1    0    0    0  501  0.00000000000E+00  0.00000000000E+00  0.94184978628E+03  0.94184978629E+03  0.50400001928E-02 0. -1.
        1   -1    0    0  501    0  0.00000000000E+00  0.00000000000E+00 -0.87766056832E+03  0.87766056833E+03  0.50400001928E-02 0.  1.
    10030    2    1    2    0    0  0.00000000000E+00  0.00000000000E+00  0.64189217957E+02  0.18195103546E+04  0.18183777591E+04 0.  0.
        2    1    3    3  502    0  0.45188437599E+03 -0.60017589830E+03  0.54448173556E+03  0.92783132008E+03  0.25500000920E-02 0. -1.
       -2    1    3    3    0  502 -0.45188437599E+03  0.60017589830E+03 -0.48029251761E+03  0.89167903454E+03  0.25500000920E-02 0.  1.
</event>
<event>
 5   0  0.2608744E-04  0.1876466E+04  0.7818609E-02  0.8666660E-01
       -2   -1    0    0    0  501  0.00000000000E+00  0.00000000000E+00  0.10904987569E+04  0.10904987569E+04  0.25500000920E-02 0. -1.
        2   -1    0    0  501    0  0.00000000000E+00  0.00000000000E+00 -0.80722766243E+03  0.80722766244E+03  0.25500000920E-02 0.  1.
    10030    2    1    2    0    0  0.00000000000E+00  0.00000000000E+00  0.28327109450E+03  0.18977264194E+04  0.18764655738E+04 0.  0.
        2    1    3    3  502    0  0.94528406063E+00  0.74392075965E+03  0.71983152764E+03  0.10351697534E+04  0.25500000920E-02 0. -1.
       -2    1    3    3    0  502 -0.94528406063E+00 -0.74392075965E+03 -0.43656043314E+03  0.86255666596E+03  0.25500000920E-02 0.  1.
</event>
<event>
 5   0  0.1239615E-04  0.1798506E+04  0.7818609E-02  0.8707095E-01
       -1   -1    0    0    0  501  0.00000000000E+00  0.00000000000E+00  0.52082053039E+03  0.52082053042E+03  0.50400001928E-02 0. -1.
        1   -1    0    0  501    0  0.00000000000E+00  0.00000000000E+00 -0.15526570954E+04  0.15526570955E+04  0.50400001928E-02 0.  1.
    10030    2    1    2    0    0  0.00000000000E+00  0.00000000000E+00 -0.10318365651E+04  0.20734776259E+04  0.17985057042E+04 0.  0.
        3    1    3    3  502    0 -0.43360283984E+03 -0.17032415314E+03  0.37085801119E+03  0.59544723908E+03  0.10100000352E+00 0. -1.
       -3    1    3    3    0  502  0.43360283984E+03  0.17032415314E+03 -0.14026945762E+04  0.14780303868E+04  0.10100000352E+00 0.  1.
</event>
<event>
 5   0  0.2541124E-04  0.1652597E+04  0.7818609E-02  0.8788872E-01
       -2   -1    0    0    0  501  0.00000000000E+00  0.00000000000E+00  0.46148553263E+03  0.46148553263E+03  0.25500000920E-02 0. -1.
        2   -1    0    0  501    0  0.00000000000E+00  0.00000000000E+00 -0.14795030377E+04  0.14795030377E+04  0.25500000920E-02 0.  1.
    10030    2    1    2    0    0  0.00000000000E+00  0.00000000000E+00 -0.10180175050E+04  0.19409885703E+04  0.16525970439E+04 0.  0.
        5    1    3    3  502    0 -0.27458516278E+03 -0.22959341831E+03  0.36569387004E+03  0.51172672974E+03  0.46999998093E+01 0. -1.
       -5    1    3    3    0  502  0.27458516278E+03  0.22959341831E+03 -0.13837113751E+04  0.14292618405E+04  0.46999998093E+01 0.  1.
</event>
<event>
 5   0  0.1239615E-04  0.1896461E+04  0.7818609E-02  0.8656620E-01
        1   -1    0    0  501    0  0.00000000000E+00  0.00000000000E+00  0.70619468786E+03  0.70619468788E+03  0.50400001928E-02 0. -1.
       -1   -1    0    0    0  501  0.00000000000E+00  0.00000000000E+00 -0.12732201921E+04  0.12732201921E+04  0.50400001928E-02 0.  1.
    10030    2    1    2    0    0  0.00000000000E+00  0.00000000000E+00 -0.56702550421E+03  0.19794148800E+04  0.18964612689E+04 0.  0.
        3    1    3    3  502    0  0.55374903656E+03  0.10747275471E+03 -0.10790551482E+04  0.12175994463E+04  0.10100000352E+00 0.  1.
       -3    1    3    3    0  502 -0.55374903656E+03 -0.10747275471E+03  0.51202964399E+03  0.76181543370E+03  0.10100000352E+00 0. -1.
</event>
<event>
 5   0  0.2608744E-04  0.1900197E+04  0.7818609E-02  0.8654758E-01
       -2   -1    0    0    0  501  0.00000000000E+00  0.00000000000E+00  0.59990084461E+03  0.59990084462E+03  0.25500000920E-02 0. -1.
        2   -1    0    0  501    0  0.00000000000E+00  0.00000000000E+00 -0.15047267963E+04  0.15047267963E+04  0.25500000920E-02 0.  1.
    10030    2    1    2    0    0  0.00000000000E+00  0.00000000000E+00 -0.90482595170E+03  0.21046276409E+04  0.19001967014E+04 0.  0.
        2    1    3    3  502    0  0.94226400018E+03  0.84608450339E+02 -0.35543236550E+03  0.10106197120E+04  0.25500000920E-02 0. -1.
       -2    1    3    3    0  502 -0.94226400018E+03 -0.84608450339E+02 -0.54939358620E+03  0.10940079289E+04  0.25500000920E-02 0.  1.
</event>
<event>
 5   0  0.2608744E-04  0.1951220E+04  0.7818609E-02  0.8629773E-01
       -2   -1    0    0    0  501  0.00000000000E+00  0.00000000000E+00  0.68328841024E+03  0.68328841024E+03  0.25500000920E-02 0.  1.
        2   -1    0    0  501    0  0.00000000000E+00  0.00000000000E+00 -0.13929912948E+04  0.13929912948E+04  0.25500000920E-02 0. -1.
    10030    2    1    2    0    0  0.00000000000E+00  0.00000000000E+00 -0.70970288454E+03  0.20762797050E+04  0.19512199336E+04 0.  0.
        2    1    3    3  502    0 -0.31716178601E+03 -0.61889025011E+03 -0.10829571625E+04  0.12870170768E+04  0.25500000920E-02 0. -1.
       -2    1    3    3    0  502  0.31716178601E+03  0.61889025011E+03  0.37325427800E+03  0.78926262818E+03  0.25500000920E-02 0.  1.
</event>
<event>
 5   0  0.1317527E-04  0.1884181E+04  0.7818609E-02  0.8662771E-01
        1   -1    0    0  501    0  0.00000000000E+00  0.00000000000E+00  0.86926135166E+03  0.86926135168E+03  0.50400001928E-02 0.  1.
       -1   -1    0    0    0  501  0.00000000000E+00  0.00000000000E+00 -0.10210211030E+04  0.10210211030E+04  0.50400001928E-02 0. -1.
    10030    2    1    2    0    0  0.00000000000E+00  0.00000000000E+00 -0.15175975131E+03  0.18902824547E+04  0.18841806538E+04 0.  0.
        1    1    3    3  502    0  0.18099954043E+03  0.12523125718E+03 -0.99486516735E+03  0.10189211955E+04  0.50400001928E-02 0. -1.
       -1    1    3    3    0  502 -0.18099954043E+03 -0.12523125718E+03  0.84310541603E+03  0.87136125917E+03  0.50400001928E-02 0.  1.
</event>
<event>
 5   0  0.2651828E-04  0.1909882E+04  0.7818609E-02  0.8649953E-01
       -2   -1    0    0    0  501  0.00000000000E+00  0.00000000000E+00  0.49811398238E+03  0.49811398239E+03  0.25500000920E-02 0. -1.
        2   -1    0    0  501    0  0.00000000000E+00  0.00000000000E+00 -0.18307303646E+04  0.18307303646E+04  0.25500000920E-02 0.  1.
    10030    2    1    2    0    0  0.00000000000E+00  0.00000000000E+00 -0.13326163822E+04  0.23288443470E+04  0.19098820828E+04 0.  0.
        3    1    3    3  502    0 -0.66357026610E+03 -0.21613210554E+03  0.12850283296E+03  0.70961367897E+03  0.10100000352E+00 0. -1.
       -3    1    3    3    0  502  0.66357026610E+03  0.21613210554E+03 -0.14611192152E+04  0.16192306680E+04  0.10100000352E+00 0.  1.
</event>
<event>
 5   0  0.2608744E-04  0.1913689E+04  0.7818609E-02  0.8648073E-01
        2   -1    0    0  501    0  0.00000000000E+00  0.00000000000E+00  0.10232835794E+04  0.10232835794E+04  0.25500000920E-02 0.  1.
       -2   -1    0    0    0  501  0.00000000000E+00  0.00000000000E+00 -0.89471876310E+03  0.89471876311E+03  0.25500000920E-02 0. -1.
    10030    2    1    2    0    0  0.00000000000E+00  0.00000000000E+00  0.12856481632E+03  0.19180023425E+04  0.19136886042E+04 0.  0.
        2    1    3    3  502    0  0.59927027159E+03  0.57490604493E+03 -0.41208804981E+03  0.92706978147E+03  0.25500000920E-02 0. -1.
       -2    1    3    3    0  502 -0.59927027159E+03 -0.57490604493E+03  0.54065286613E+03  0.99093256106E+03  0.25500000920E-02 0.  1.
</event>
<event>
 5   0  0.1239615E-04  0.1946663E+04  0.7818609E-02  0.8631972E-01
       -1   -1    0    0    0  501  0.00000000000E+00  0.00000000000E+00  0.61946656425E+03  0.61946656427E+03  0.50400001928E-02 0.  1.
        1   -1    0    0  501    0  0.00000000000E+00  0.00000000000E+00 -0.15293385646E+04  0.15293385646E+04  0.50400001928E-02 0. -1.
    10030    2    1    2    0    0  0.00000000000E+00  0.00000000000E+00 -0.90987200033E+03  0.21488051289E+04  0.19466628945E+04 0.  0.
        3    1    3    3  502    0 -0.26366674753E+03  0.92506715709E+03 -0.29082089116E+03  0.10049110407E+04  0.10100000352E+00 0.  1.
       -3    1    3    3    0  502  0.26366674753E+03 -0.92506715709E+03 -0.61905110917E+03  0.11438940881E+04  0.10100000352E+00 0. -1.
</event>
<event>
 5   0  0.1239615E-04  0.2018571E+04  0.7818609E-02  0.8597987E-01
        1   -1    0    0  501    0  0.00000000000E+00  0.00000000000E+00  0.13417755698E+04  0.13417755698E+04  0.50400001928E-02 0. -1.
       -1   -1    0    0    0  501  0.00000000000E+00  0.00000000000E+00 -0.75918608977E+03  0.75918608979E+03  0.50400001928E-02 0.  1.
    10030    2    1    2    0    0  0.00000000000E+00  0.00000000000E+00  0.58258948004E+03  0.21009616596E+04  0.20185711265E+04 0.  0.
        3    1    3    3  502    0 -0.19529313367E+03 -0.70098547998E+03  0.10192244670E+04  0.12523332526E+04  0.10100000352E+00 0. -1.
       -3    1    3    3    0  502  0.19529313367E+03  0.70098547998E+03 -0.43663498694E+03  0.84862840703E+03  0.10100000352E+00 0.  1.
</event>
<event>
 5   0  0.1277709E-04  0.1927934E+04  0.7818609E-02  0.8641076E-01
       -1   -1    0    0    0  501  0.00000000000E+00  0.00000000000E+00  0.51712441992E+03  0.51712441995E+03  0.50400001928E-02 0. -1.
        1   -1    0    0  501    0  0.00000000000E+00  0.00000000000E+00 -0.17969214123E+04  0.17969214123E+04  0.50400001928E-02 0.  1.
    10030    2    1    2    0    0  0.00000000000E+00  0.00000000000E+00 -0.12797969923E+04  0.23140458322E+04  0.19279335497E+04 0.  0.
        4    1    3    3  502    0  0.21811950774E+03 -0.72672408943E+03 -0.13535575248E+04  0.15517163425E+04  0.12699999809E+01 0.  1.
       -4    1    3    3    0  502 -0.21811950774E+03  0.72672408943E+03  0.73760532455E+02  0.76232948970E+03  0.12699999809E+01 0. -1.
</event>
<event>
 5   0  0.2651828E-04  0.1930564E+04  0.7818609E-02  0.8639791E-01
        2   -1    0    0  501    0  0.00000000000E+00  0.00000000000E+00  0.19261348074E+04  0.19261348074E+04  0.25500000920E-02 0. -1.
       -2   -1    0    0    0  501  0.00000000000E+00  0.00000000000E+00 -0.48375076342E+03  0.48375076342E+03  0.25500000920E-02 0.  1.
    10030    2    1    2    0    0  0.00000000000E+00  0.00000000000E+00  0.14423840440E+04  0.24098855708E+04  0.19305638384E+04 0.  0.
        3    1    3    3  502    0  0.56776953333E+03 -0.14538453761E+03 -0.23622402712E+03  0.63190245129E+03  0.10100000352E+00 0.  1.
       -3    1    3    3    0  502 -0.56776953333E+03  0.14538453761E+03  0.16786080711E+04  0.17779831195E+04  0.10100000352E+00 0. -1.
</event>
<event>
 5   0  0.2608744E-04  0.1869773E+04  0.7818609E-02  0.8670050E-01
       -2   -1    0    0    0  501  0.00000000000E+00  0.00000000000E+00  0.81133376118E+03  0.81133376119E+03  0.25500000920E-02 0.  1.
        2   -1    0    0  501    0  0.00000000000E+00  0.00000000000E+00 -0.10772546948E+04  0.10772546948E+04  0.25500000920E-02 0. -1.
    10030    2    1    2    0    0  0.00000000000E+00  0.00000000000E+00 -0.26592093360E+03  0.18885884560E+04  0.18697733588E+04 0.  0.
        2    1    3    3  502    0 -0.46407063648E+03  0.48312883691E+02 -0.95124685436E+03  0.10595122785E+04  0.25500000920E-02 0. -1.
       -2    1    3    3    0  502  0.46407063648E+03 -0.48312883691E+02  0.68532592076E+03  0.82907617747E+03  0.25500000920E-02 0.  1.
</event>
<event>
 5   0  0.2562925E-04  0.1893107E+04  0.7818609E-02  0.8658295E-01
       -2   -1    0    0    0  501  0.00000000000E+00  0.00000000000E+00  0.86501974454E+03  0.86501974454E+03  0.25500000920E-02 0. -1.
        2   -1    0    0  501    0  0.00000000000E+00  0.00000000000E+00 -0.10357724196E+04  0.10357724196E+04  0.25500000920E-02 0.  1.
    10030    2    1    2    0    0  0.00000000000E+00  0.00000000000E+00 -0.17075267503E+03  0.19007921641E+04  0.18931070691E+04 0.  0.
        4    1    3    3  502    0 -0.61632790348E+03  0.42648477229E+03  0.49508177886E+03  0.89825215071E+03  0.12699999809E+01 0. -1.
       -4    1    3    3    0  502  0.61632790348E+03 -0.42648477229E+03 -0.66583445389E+03  0.10025400134E+04  0.12699999809E+01 0.  1.
</event>
<event>
 5   0  0.1255141E-04  0.1905186E+04  0.7818609E-02  0.8652279E-01
        1   -1    0    0  501    0  0.00000000000E+00  0.00000000000E+00  0.15556512127E+04  0.15556512127E+04  0.50400001928E-02 0.  1.
       -1   -1    0    0    0  501  0.00000000000E+00  0.00000000000E+00 -0.58331402076E+03  0.58331402078E+03  0.50400001928E-02 0. -1.
    10030    2    1    2    0    0  0.00000000000E+00  0.00000000000E+00  0.97233719196E+03  0.21389652335E+04  0.19051857273E+04 0.  0.
        2    1    3    3  502    0 -0.50508896059E+03 -0.72489596719E+03  0.88602275233E+03  0.12512495111E+04  0.25500000920E-02 0.  1.
       -2    1    3    3    0  502  0.50508896059E+03  0.72489596719E+03  0.86314439637E+02  0.88771572243E+03  0.25500000920E-02 0. -1.
</event>
<event>
 5   0  0.2651828E-04  0.1893624E+04  0.7818609E-02  0.8658036E-01
       -2   -1    0    0    0  501  0.00000000000E+00  0.00000000000E+00  0.41469166173E+03  0.41469166173E+03  0.25500000920E-02 0. -1.
        2   -1    0    0  501    0  0.00000000000E+00  0.00000000000E+00 -0.21617346212E+04  0.21617346212E+04  0.25500000920E-02 0.  1.
    10030    2    1    2    0    0  0.00000000000E+00  0.00000000000E+00 -0.17470429595E+04  0.25764262829E+04  0.18936243791E+04 0.  0.
        3    1    3    3  502    0  0.45215982021E+03  0.88491109718E+02 -0.19989222545E+04  0.20513335587E+04  0.10100000352E+00 0.  1.
       -3    1    3    3    0  502 -0.45215982021E+03 -0.88491109718E+02  0.25187929504E+03  0.52509272418E+03  0.10100000352E+00 0. -1.
</event>
<event>
 5   0  0.2608744E-04  0.1877820E+04  0.7818609E-02  0.8665976E-01
        2   -1    0    0  501    0  0.00000000000E+00  0.00000000000E+00  0.88824609470E+03  0.88824609470E+03  0.25500000920E-02 0.  1.
       -2   -1    0    0    0  501  0.00000000000E+00  0.00000000000E+00 -0.99246365434E+03  0.99246365434E+03  0.25500000920E-02 0. -1.
    10030    2    1    2    0    0  0.00000000000E+00  0.00000000000E+00 -0.10421755964E+03  0.18807097490E+04  0.18778199755E+04 0.  0.
        2    1    3    3  502    0 -0.56665128171E+03 -0.86628876225E+02 -0.79686170274E+03  0.98162457720E+03  0.25500000920E-02 0. -1.
       -2    1    3    3    0  502  0.56665128171E+03  0.86628876225E+02  0.69264414310E+03  0.89908517185E+03  0.25500000920E-02 0.  1.
</event>
<event>
 5   0  0.1317527E-04  0.1903443E+04  0.7818609E-02  0.8653145E-01
        1   -1    0    0  501    0  0.00000000000E+00  0.00000000000E+00  0.17511807767E+04  0.17511807767E+04  0.50400001928E-02 0. -1.
       -1   -1    0    0    0  501  0.00000000000E+00  0.00000000000E+00 -0.51723594584E+03  0.51723594586E+03  0.50400001928E-02 0.  1.
    10030    2    1    2    0    0  0.00000000000E+00  0.00000000000E+00  0.12339448309E+04  0.22684167226E+04  0.19034428233E+04 0.  0.
        1    1    3    3  502    0 -0.83142233866E+03  0.19832563102E+03  0.11157674792E+04  0.14055366338E+04  0.50400001928E-02 0. -1.
       -1    1    3    3    0  502  0.83142233866E+03 -0.19832563102E+03  0.11817735162E+03  0.86288008878E+03  0.50400001928E-02 0.  1.
</event>
<event>
 5   0  0.1324058E-04  0.1908690E+04  0.7818609E-02  0.8650543E-01
       -1   -1    0    0    0  501  0.00000000000E+00  0.00000000000E+00  0.90354881416E+03  0.90354881418E+03  0.50400001928E-02 0.  1.
        1   -1    0    0  501    0  0.00000000000E+00  0.00000000000E+00 -0.10079971796E+04  0.10079971797E+04  0.50400001928E-02 0. -1.
    10030    2    1    2    0    0  0.00000000000E+00  0.00000000000E+00 -0.10444836548E+03  0.19115459938E+04  0.19086902906E+04 0.  0.
        5    1    3    3  502    0 -0.45006109012E+03 -0.26300107433E+03 -0.85281247974E+03  0.99951776650E+03  0.46999998093E+01 0. -1.
       -5    1    3    3    0  502  0.45006109012E+03  0.26300107433E+03  0.74836411426E+03  0.91202822734E+03  0.46999998093E+01 0.  1.
</event>
<event>
 5   0  0.1277709E-04  0.1895202E+04  0.7818609E-02  0.8657248E-01
       -1   -1    0    0    0  501  0.00000000000E+00  0.00000000000E+00  0.55246945824E+03  0.55246945827E+03  0.50400001928E-02 0. -1.
        1   -1    0    0  501    0  0.00000000000E+00  0.00000000000E+00 -0.16253341643E+04  0.16253341643E+04  0.50400001928E-02 0.  1.
    10030    2    1    2    0    0  0.00000000000E+00  0.00000000000E+00 -0.10728647061E+04  0.21778036226E+04  0.18952018207E+04 0.  0.
        4    1    3    3  502    0  0.35245234977E+02  0.15370072862E+03  0.53728557372E+03  0.55994958808E+03  0.12699999809E+01 0. -1.
       -4    1    3    3    0  502 -0.35245234977E+02 -0.15370072862E+03 -0.16101502798E+04  0.16178540345E+04  0.12699999809E+01 0.  1.
</event>
<event>
 5   0  0.1239615E-04  0.1805483E+04  0.7818609E-02  0.8703389E-01
       -1   -1    0    0    0  501  0.00000000000E+00  0.00000000000E+00  0.44835996224E+03  0.44835996227E+03  0.50400001928E-02 0. -1.
        1   -1    0    0  501    0  0.00000000000E+00  0.00000000000E+00 -0.18176076927E+04  0.18176076927E+04  0.50400001928E-02 0.  1.
    10030    2    1    2    0    0  0.00000000000E+00  0.00000000000E+00 -0.13692477305E+04  0.22659676550E+04  0.18054833331E+04 0.  0.
        3    1    3    3  502    0  0.13926328026E+03 -0.60606571883E+03 -0.15059205697E+04  0.16292656902E+04  0.10100000352E+00 0.  1.
       -3    1    3    3    0  502 -0.13926328026E+03  0.60606571883E+03  0.13667283924E+03  0.63670196478E+03  0.10100000352E+00 0. -1.
</event>
<event>
 5   0  0.2651828E-04  0.1849049E+04  0.7818609E-02  0.8680642E-01
       -2   -1    0    0    0  501  0.00000000000E+00  0.00000000000E+00  0.52700885728E+03  0.52700885728E+03  0.25500000920E-02 0. -1.
        2   -1    0    0  501    0  0.00000000000E+00  0.00000000000E+00 -0.16218808275E+04  0.16218808275E+04  0.25500000920E-02 0.  1.
    10030    2    1    2    0    0  0.00000000000E+00  0.00000000000E+00 -0.10948719702E+04  0.21488896848E+04  0.18490490113E+04 0.  0.
        3    1    3    3  502    0  0.26138750834E+03  0.76223553429E+03 -0.20708328558E+02  0.80607399432E+03  0.10100000352E+00 0. -1.
       -3    1    3    3    0  502 -0.26138750834E+03 -0.76223553429E+03 -0.10741636416E+04  0.13428156904E+04  0.10100000352E+00 0.  1.
</event>
<event>
 5   0  0.1255141E-04  0.1884590E+04  0.7818609E-02  0.8662565E-01
       -1   -1    0    0    0  501  0.00000000000E+00  0.00000000000E+00  0.83120562731E+03  0.83120562733E+03  0.50400001928E-02 0.  1.
        1   -1    0    0  501    0  0.00000000000E+00  0.00000000000E+00 -0.10682310529E+04  0.10682310530E+04  0.50400001928E-02 0. -1.
    10030    2    1    2    0    0  0.00000000000E+00  0.00000000000E+00 -0.23702542563E+03  0.18994366803E+04  0.18845897829E+04 0.  0.
        2    1    3    3  502    0 -0.15441571216E+03 -0.82157580103E+03 -0.55678168243E+03  0.10044087071E+04  0.25500000920E-02 0. -1.
       -2    1    3    3    0  502  0.15441571216E+03  0.82157580103E+03  0.31975625681E+03  0.89502797318E+03  0.25500000920E-02 0.  1.
</event>
<event>
 5   0  0.2595012E-04  0.1931307E+04  0.7818609E-02  0.8639428E-01
        2   -1    0    0  501    0  0.00000000000E+00  0.00000000000E+00  0.18098574046E+04  0.18098574046E+04  0.25500000920E-02 0. -1.
       -2   -1    0    0    0  501  0.00000000000E+00  0.00000000000E+00 -0.51522673920E+03  0.51522673921E+03  0.25500000920E-02 0.  1.
    10030    2    1    2    0    0  0.00000000000E+00  0.00000000000E+00  0.12946306654E+04  0.23250841439E+04  0.19313072557E+04 0.  0.
        1    1    3    3  502    0  0.16919689926E+03  0.93757623512E+03  0.45768756876E+03  0.10569553907E+04  0.50400001928E-02 0. -1.
       -1    1    3    3    0  502 -0.16919689926E+03 -0.93757623512E+03  0.83694309668E+03  0.12681287531E+04  0.50400001928E-02 0.  1.
</event>
<event>
 5   0  0.1255141E-04  0.1874608E+04  0.7818609E-02  0.8667600E-01
       -1   -1    0    0    0  501  0.00000000000E+00  0.00000000000E+00  0.85781875307E+03  0.85781875308E+03  0.50400001928E-02 0. -1.
        1   -1    0    0  501    0  0.00000000000E+00  0.00000000000E+00 -0.10241544414E+04  0.10241544414E+04  0.50400001928E-02 0.  1.
    10030    2    1    2    0    0  0.00000000000E+00  0.00000000000E+00 -0.16633568833E+03  0.18819731945E+04  0.18746081040E+04 0.  0.
        2    1    3    3  502    0  0.62787080366E+03 -0.43663932049E+03  0.46086828118E+03  0.89290269061E+03  0.25500000920E-02 0. -1.
       -2    1    3    3    0  502 -0.62787080366E+03  0.43663932049E+03 -0.62720396951E+03  0.98907050389E+03  0.25500000920E-02 0.  1.
</event>
<event>
 5   0  0.1239615E-04  0.1687569E+04  0.7818609E-02  0.8768486E-01
        1   -1    0    0  501    0  0.00000000000E+00  0.00000000000E+00  0.11911002665E+04  0.11911002666E+04  0.50400001928E-02 0.  1.
       -1   -1    0    0    0  501  0.00000000000E+00  0.00000000000E+00 -0.59774363395E+03  0.59774363397E+03  0.50400001928E-02 0. -1.
    10030    2    1    2    0    0  0.00000000000E+00  0.00000000000E+00  0.59335663259E+03  0.17888439005E+04  0.16875693784E+04 0.  0.
        3    1    3    3  502    0 -0.34608512394E+03  0.66797400117E+03  0.70172002581E+03  0.10287736311E+04  0.10100000352E+00 0.  1.
       -3    1    3    3    0  502  0.34608512394E+03 -0.66797400117E+03 -0.10836339322E+03  0.76007026941E+03  0.10100000352E+00 0. -1.
</event>
<event>
 5   0  0.2595012E-04  0.1872857E+04  0.7818609E-02  0.8668486E-01
        2   -1    0    0  501    0  0.00000000000E+00  0.00000000000E+00  0.19560318374E+04  0.19560318374E+04  0.25500000920E-02 0. -1.
       -2   -1    0    0    0  501  0.00000000000E+00  0.00000000000E+00 -0.44830495806E+03  0.44830495807E+03  0.25500000920E-02 0.  1.
    10030    2    1    2    0    0  0.00000000000E+00  0.00000000000E+00  0.15077268793E+04  0.24043367955E+04  0.18728574648E+04 0.  0.
        1    1    3    3  502    0  0.42181393321E+03 -0.74700295547E+03  0.27187569325E+03  0.89992044223E+03  0.50400001928E-02 0. -1.
       -1    1    3    3    0  502 -0.42181393321E+03  0.74700295547E+03  0.12358511861E+04  0.15044163532E+04  0.50400001928E-02 0.  1.
</event>
<event>
 5   0  0.1277709E-04  0.1902262E+04  0.7818609E-02  0.8653731E-01
        1   -1    0    0  501    0  0.00000000000E+00  0.00000000000E+00  0.14304055067E+04  0.14304055067E+04  0.50400001928E-02 0. -1.
       -1   -1    0    0    0  501  0.00000000000E+00  0.00000000000E+00 -0.63244321483E+03  0.63244321485E+03  0.50400001928E-02 0.  1.
    10030    2    1    2    0    0  0.00000000000E+00  0.00000000000E+00  0.79796229186E+03  0.20628487216E+04  0.19022620820E+04 0.  0.
        4    1    3    3  502    0 -0.45136893217E+03 -0.97545725791E+02 -0.50271783611E+03  0.68262428699E+03  0.12699999809E+01 0.  1.
       -4    1    3    3    0  502  0.45136893217E+03  0.97545725791E+02  0.13006801280E+04  0.13802244346E+04  0.12699999809E+01 0. -1.
</event>
<event>
 5   0  0.2608744E-04  0.1892911E+04  0.7818609E-02  0.8658393E-01
       -2   -1    0    0    0  501  0.00000000000E+00  0.00000000000E+00  0.12071560232E+04  0.12071560232E+04  0.25500000920E-02 0. -1.
        2   -1    0    0  501    0  0.00000000000E+00  0.00000000000E+00 -0.74205629376E+03  0.74205629377E+03  0.25500000920E-02 0.  1.
    10030    2    1    2    0    0  0.00000000000E+00  0.00000000000E+00  0.46509972941E+03  0.19492123169E+04  0.18929106947E+04 0.  0.
        2    1    3    3  502    0 -0.78827713133E+03 -0.12867194746E+03  0.75543286310E+03  0.10993707821E+04  0.25500000920E-02 0. -1.
       -2    1    3    3    0  502  0.78827713133E+03  0.12867194746E+03 -0.29033313368E+03  0.84984153486E+03  0.25500000920E-02 0.  1.
</event>
<event>
 5   0  0.1324058E-04  0.1830504E+04  0.7818609E-02  0.8690244E-01
        1   -1    0    0  501    0  0.00000000000E+00  0.00000000000E+00  0.15741399270E+04  0.15741399271E+04  0.50400001928E-02 0.  1.
       -1   -1    0    0    0  501  0.00000000000E+00  0.00000000000E+00 -0.53215467142E+03  0.53215467144E+03  0.50400001928E-02 0. -1.
    10030    2    1    2    0    0  0.00000000000E+00  0.00000000000E+00  0.10419852556E+04  0.21062945985E+04  0.18305036637E+04 0.  0.
        5    1    3    3  502    0 -0.59904612889E+03  0.32589556844E+03 -0.18138347473E+03  0.70568140189E+03  0.46999998093E+01 0. -1.
       -5    1    3    3    0  502  0.59904612889E+03 -0.32589556844E+03  0.12233687304E+04  0.14006131966E+04  0.46999998093E+01 0.  1.
</event>
<event>
 5   0  0.2651828E-04  0.1661835E+04  0.7818609E-02  0.8783435E-01
       -2   -1    0    0    0  501  0.00000000000E+00  0.00000000000E+00  0.52337347536E+03  0.52337347537E+03  0.25500000920E-02 0. -1.
        2   -1    0    0  501    0  0.00000000000E+00  0.00000000000E+00 -0.13191806694E+04  0.13191806694E+04  0.25500000920E-02 0.  1.
    10030    2    1    2    0    0  0.00000000000E+00  0.00000000000E+00 -0.79580719406E+03  0.18425541448E+04  0.16618353367E+04 0.  0.
        3    1    3    3  502    0  0.42241362407E+03 -0.26356661072E+03  0.33966166663E+03  0.60271940907E+03  0.10100000352E+00 0. -1.
       -3    1    3    3    0  502 -0.42241362407E+03  0.26356661072E+03 -0.11354688607E+04  0.12398347357E+04  0.10100000352E+00 0.  1.
</event>
<event>
 5   0  0.1255141E-04  0.2089057E+04  0.7818609E-02  0.8566079E-01
       -1   -1    0    0    0  501  0.00000000000E+00  0.00000000000E+00  0.11103888677E+04  0.11103888677E+04  0.50400001928E-02 0. -1.
        1   -1    0    0  501    0  0.00000000000E+00  0.00000000000E+00 -0.98257491269E+03  0.98257491270E+03  0.50400001928E-02 0.  1.
    10030    2    1    2    0    0  0.00000000000E+00  0.00000000000E+00  0.12781395500E+03  0.20929637804E+04  0.20890574379E+04 0.  0.
        2    1    3    3  502    0 -0.10424064423E+02  0.57136612958E+03 -0.81206904183E+03  0.99298743389E+03  0.25500000920E-02 0.  1.
       -2    1    3    3    0  502  0.10424064423E+02 -0.57136612958E+03  0.93988299683E+03  0.10999763465E+04  0.25500000920E-02 0. -1.
</event>
<event>
 5   0  0.2608744E-04  0.1890365E+04  0.7818609E-02  0.8659667E-01
        2   -1    0    0  501    0  0.00000000000E+00  0.00000000000E+00  0.50318305794E+03  0.50318305795E+03  0.25500000920E-02 0. -1.
       -2   -1    0    0    0  501  0.00000000000E+00  0.00000000000E+00 -0.17754376816E+04  0.17754376816E+04  0.25500000920E-02 0.  1.
    10030    2    1    2    0    0  0.00000000000E+00  0.00000000000E+00 -0.12722546237E+04  0.22786207396E+04  0.18903652153E+04 0.  0.
        2    1    3    3  502    0 -0.56611163421E+03  0.71218609695E+03 -0.94504213203E+03  0.13117911611E+04  0.25500000920E-02 0.  1.
       -2    1    3    3    0  502  0.56611163421E+03 -0.71218609695E+03 -0.32721249164E+03  0.96682957845E+03  0.25500000920E-02 0. -1.
</event>
<event>
 5   0  0.2595012E-04  0.1883324E+04  0.7818609E-02  0.8663202E-01
       -2   -1    0    0    0  501  0.00000000000E+00  0.00000000000E+00  0.19087989120E+04  0.19087989120E+04  0.25500000920E-02 0. -1.
        2   -1    0    0  501    0  0.00000000000E+00  0.00000000000E+00 -0.46454719982E+03  0.46454719983E+03  0.25500000920E-02 0.  1.
    10030    2    1    2    0    0  0.00000000000E+00  0.00000000000E+00  0.14442517122E+04  0.23733461119E+04  0.18833238591E+04 0.  0.
        1    1    3    3  502    0  0.57098276188E+03  0.70581247724E+03  0.10372606340E+04  0.13784419430E+04  0.50400001928E-02 0. -1.
       -1    1    3    3    0  502 -0.57098276188E+03 -0.70581247724E+03  0.40699107817E+03  0.99490416881E+03  0.50400001928E-02 0.  1.
</event>
<event>
 5   0  0.1239615E-04  0.1622632E+04  0.7818609E-02  0.8806764E-01
        1   -1    0    0  501    0  0.00000000000E+00  0.00000000000E+00  0.14459068093E+04  0.14459068093E+04  0.50400001928E-02 0.  1.
       -1   -1    0    0    0  501  0.00000000000E+00  0.00000000000E+00 -0.45523925413E+03  0.45523925415E+03  0.50400001928E-02 0. -1.
    10030    2    1    2    0    0  0.00000000000E+00  0.00000000000E+00  0.99066755517E+03  0.19011460635E+04  0.16226318590E+04 0.  0.
        3    1    3    3  502    0 -0.80671676648E+03  0.42169992565E+01  0.59628433009E+03  0.10031773208E+04  0.10100000352E+00 0. -1.
       -3    1    3    3    0  502  0.80671676648E+03 -0.42169992565E+01  0.39438322508E+03  0.89796874268E+03  0.10100000352E+00 0.  1.
</event>
<event>
 5   0  0.1277709E-04  0.1900236E+04  0.7818609E-02  0.8654739E-01
        1   -1    0    0  501    0  0.00000000000E+00  0.00000000000E+00  0.52293609161E+03  0.52293609163E+03  0.50400001928E-02 0.  1.
       -1   -1    0    0    0  501  0.00000000000E+00  0.00000000000E+00 -0.17262608972E+04  0.17262608972E+04  0.50400001928E-02 0. -1.
    10030    2    1    2    0    0  0.00000000000E+00  0.00000000000E+00 -0.12033248056E+04  0.22491969888E+04  0.19002359082E+04 0.  0.
        4    1    3    3  502    0  0.11617250390E+03 -0.77101274935E+03  0.40963936684E+02  0.78079214092E+03  0.12699999809E+01 0.  1.
       -4    1    3    3    0  502 -0.11617250390E+03  0.77101274935E+03 -0.12442887423E+04  0.14684048479E+04  0.12699999809E+01 0. -1.
</event>
<event>
 5   0  0.2608744E-04  0.1882416E+04  0.7818609E-02  0.8663659E-01
        2   -1    0    0  501    0  0.00000000000E+00  0.00000000000E+00  0.17168686107E+04  0.17168686107E+04  0.25500000920E-02 0.  1.
       -2   -1    0    0    0  501  0.00000000000E+00  0.00000000000E+00 -0.51598162602E+03  0.51598162602E+03  0.25500000920E-02 0. -1.
    10030    2    1    2    0    0  0.00000000000E+00  0.00000000000E+00  0.12008869847E+04  0.22328502367E+04  0.18824161680E+04 0.  0.
        2    1    3    3  502    0  0.29048678820E+03 -0.64459734207E+03 -0.13649085452E+03  0.72008198206E+03  0.25500000920E-02 0. -1.
       -2    1    3    3    0  502 -0.29048678820E+03  0.64459734207E+03  0.13373778392E+04  0.15127682547E+04  0.25500000920E-02 0.  1.
</event>
<event>
 5   0  0.2562925E-04  0.1904863E+04  0.7818609E-02  0.8652439E-01
        2   -1    0    0  501    0  0.00000000000E+00  0.00000000000E+00  0.11637297894E+04  0.11637297894E+04  0.25500000920E-02 0.  1.
       -2   -1    0    0    0  501  0.00000000000E+00  0.00000000000E+00 -0.77949893389E+03  0.77949893390E+03  0.25500000920E-02 0. -1.
    10030    2    1    2    0    0  0.00000000000E+00  0.00000000000E+00  0.38423085549E+03  0.19432287233E+04  0.19048633864E+04 0.  0.
        4    1    3    3  502    0  0.64818757732E+03  0.16356625467E+03  0.88417656904E+03  0.11084542720E+04  0.12699999809E+01 0.  1.
       -4    1    3    3    0  502 -0.64818757732E+03 -0.16356625467E+03 -0.49994571355E+03  0.83477445125E+03  0.12699999809E+01 0. -1.
</event>
<event>
 5   0  0.2651828E-04  0.1973019E+04  0.7818609E-02  0.8619340E-01
       -2   -1    0    0    0  501  0.00000000000E+00  0.00000000000E+00  0.10868355850E+04  0.10868355850E+04  0.25500000920E-02 0.  1.
        2   -1    0    0  501    0  0.00000000000E+00  0.00000000000E+00 -0.89544473900E+03  0.89544473901E+03  0.25500000920E-02 0. -1.
    10030    2    1    2    0    0  0.00000000000E+00  0.00000000000E+00  0.19139084604E+03  0.19822803241E+04  0.19730192161E+04 0.  0.
        3    1    3    3  502    0  0.50195325847E+02 -0.37664476900E+03 -0.81897356901E+03  0.90282809531E+03  0.10100000352E+00 0. -1.
       -3    1    3    3    0  502 -0.50195325847E+02  0.37664476900E+03  0.10103644150E+04  0.10794522287E+04  0.10100000352E+00 0.  1.
</event>
<event>
 5   0  0.2541124E-04  0.1887785E+04  0.7818609E-02  0.8660961E-01
       -2   -1    0    0    0  501  0.00000000000E+00  0.00000000000E+00  0.29043589162E+04  0.29043589162E+04  0.25500000920E-02 0. -1.
        2   -1    0    0  501    0  0.00000000000E+00  0.00000000000E+00 -0.30675715424E+03  0.30675715425E+03  0.25500000920E-02 0.  1.
    10030    2    1    2    0    0  0.00000000000E+00  0.00000000000E+00  0.25976017620E+04  0.32111160705E+04  0.18877848141E+04 0.  0.
        5    1    3    3  502    0  0.57741737533E+03  0.51595186650E+03  0.22168565385E+04  0.23482104157E+04  0.46999998093E+01 0. -1.
       -5    1    3    3    0  502 -0.57741737533E+03 -0.51595186650E+03  0.38074522344E+03  0.86290565478E+03  0.46999998093E+01 0.  1.
</event>
<event>
 5   0  0.1277709E-04  0.1930804E+04  0.7818609E-02  0.8639674E-01
        1   -1    0    0  501    0  0.00000000000E+00  0.00000000000E+00  0.43581146547E+03  0.43581146550E+03  0.50400001928E-02 0.  1.
       -1   -1    0    0    0  501  0.00000000000E+00  0.00000000000E+00 -0.21385408827E+04  0.21385408827E+04  0.50400001928E-02 0. -1.
    10030    2    1    2    0    0  0.00000000000E+00  0.00000000000E+00 -0.17027294173E+04  0.25743523482E+04  0.19308036007E+04 0.  0.
        4    1    3    3  502    0  0.42803851893E+03 -0.71921264983E+03 -0.14928986756E+04  0.17114998913E+04  0.12699999809E+01 0. -1.
       -4    1    3    3    0  502 -0.42803851893E+03  0.71921264983E+03 -0.20983074162E+03  0.86285245691E+03  0.12699999809E+01 0.  1.
</event>
<event>
 5   0  0.1324058E-04  0.1898695E+04  0.7818609E-02  0.8655506E-01
       -1   -1    0    0    0  501  0.00000000000E+00  0.00000000000E+00  0.91332479570E+03  0.91332479571E+03  0.50400001928E-02 0. -1.
        1   -1    0    0  501    0  0.00000000000E+00  0.00000000000E+00 -0.98679109465E+03  0.98679109466E+03  0.50400001928E-02 0.  1.
    10030    2    1    2    0    0  0.00000000000E+00  0.00000000000E+00 -0.73466298951E+02  0.19001158904E+04  0.18986951045E+04 0.  0.
        5    1    3    3  502    0 -0.17681630970E+02 -0.13834077165E+03 -0.97647143546E+03  0.98639209417E+03  0.46999998093E+01 0.  1.
       -5    1    3    3    0  502  0.17681630970E+02  0.13834077165E+03  0.90300513651E+03  0.91372379620E+03  0.46999998093E+01 0. -1.
</event>
<event>
 5   0  0.1317527E-04  0.1914680E+04  0.7818609E-02  0.8647584E-01
        1   -1    0    0  501    0  0.00000000000E+00  0.00000000000E+00  0.10651274407E+04  0.10651274407E+04  0.50400001928E-02 0.  1.
       -1   -1    0    0    0  501  0.00000000000E+00  0.00000000000E+00 -0.86046029836E+03  0.86046029837E+03  0.50400001928E-02 0. -1.
    10030    2    1    2    0    0  0.00000000000E+00  0.00000000000E+00  0.20466714234E+03  0.19255877391E+04  0.19146799998E+04 0.  0.
        1    1    3    3  502    0  0.90775489056E+03  0.70096797831E+02 -0.19527009144E+03  0.93116212930E+03  0.50400001928E-02 0. -1.
       -1    1    3    3    0  502 -0.90775489056E+03 -0.70096797831E+02  0.39993723379E+03  0.99442560979E+03  0.50400001928E-02 0.  1.
</event>
<event>
 5   0  0.2562925E-04  0.1910770E+04  0.7818609E-02  0.8649514E-01
       -2   -1    0    0    0  501  0.00000000000E+00  0.00000000000E+00  0.58745499057E+03  0.58745499058E+03  0.25500000920E-02 0. -1.
        2   -1    0    0  501    0  0.00000000000E+00  0.00000000000E+00 -0.15537532309E+04  0.15537532309E+04  0.25500000920E-02 0.  1.
    10030    2    1    2    0    0  0.00000000000E+00  0.00000000000E+00 -0.96629824031E+03  0.21412082215E+04  0.19107695723E+04 0.  0.
        4    1    3    3  502    0 -0.62737090179E+03  0.21227705138E+03 -0.12547394771E+04  0.14188123778E+04  0.12699999809E+01 0.  1.
       -4    1    3    3    0  502  0.62737090179E+03 -0.21227705138E+03  0.28844123684E+03  0.72239584368E+03  0.12699999809E+01 0. -1.
</event>
<event>
 5   0  0.2562925E-04  0.1868402E+04  0.7818609E-02  0.8670747E-01
       -2   -1    0    0    0  501  0.00000000000E+00  0.00000000000E+00  0.13269969978E+04  0.13269969978E+04  0.25500000920E-02 0. -1.
        2   -1    0    0  501    0  0.00000000000E+00  0.00000000000E+00 -0.65767401829E+03  0.65767401829E+03  0.25500000920E-02 0.  1.
    10030    2    1    2    0    0  0.00000000000E+00  0.00000000000E+00  0.66932297947E+03  0.19846710161E+04  0.18684019351E+04 0.  0.
        4    1    3    3  502    0  0.89056028789E+03  0.45571547492E+02  0.38843651406E+02  0.89257203321E+03  0.12699999809E+01 0.  1.
       -4    1    3    3    0  502 -0.89056028789E+03 -0.45571547492E+02  0.63047932807E+03  0.10920989828E+04  0.12699999809E+01 0. -1.
</event>
<event>
 5   0  0.9266125E-05  0.1813401E+04  0.7818609E-02  0.8699205E-01
        3   -1    0    0  501    0  0.00000000000E+00  0.00000000000E+00  0.11142133881E+04  0.11142133927E+04  0.10100000352E+00 0.  1.
       -3   -1    0    0    0  501  0.00000000000E+00  0.00000000000E+00 -0.73783503598E+03  0.73783504289E+03  0.10100000352E+00 0. -1.
    10030    2    1    2    0    0  0.00000000000E+00  0.00000000000E+00  0.37637835213E+03  0.18520484356E+04  0.18134008778E+04 0.  0.
        3    1    3    3  502    0  0.32937760163E+03 -0.56835365610E+03 -0.45010250762E+03  0.79630883483E+03  0.10100000352E+00 0. -1.
       -3    1    3    3    0  502 -0.32937760163E+03  0.56835365610E+03  0.82648085975E+03  0.10557396007E+04  0.10100000352E+00 0.  1.
</event>
<event>
 5   0  0.2608744E-04  0.1877483E+04  0.7818609E-02  0.8666147E-01
       -2   -1    0    0    0  501  0.00000000000E+00  0.00000000000E+00  0.56625714134E+03  0.56625714134E+03  0.25500000920E-02 0. -1.
        2   -1    0    0  501    0  0.00000000000E+00  0.00000000000E+00 -0.15562459151E+04  0.15562459151E+04  0.25500000920E-02 0.  1.
    10030    2    1    2    0    0  0.00000000000E+00  0.00000000000E+00 -0.98998877379E+03  0.21225030565E+04  0.18774827436E+04 0.  0.
        2    1    3    3  502    0  0.38636315469E+03  0.38900548426E+03 -0.13564312564E+04  0.14630473361E+04  0.25500000920E-02 0.  1.
       -2    1    3    3    0  502 -0.38636315469E+03 -0.38900548426E+03  0.36644248265E+03  0.65945572041E+03  0.25500000920E-02 0. -1.
</event>
<event>
 5   0  0.1255141E-04  0.1876742E+04  0.7818609E-02  0.8666521E-01
       -1   -1    0    0    0  501  0.00000000000E+00  0.00000000000E+00  0.58162507667E+03  0.58162507670E+03  0.50400001928E-02 0.  1.
        1   -1    0    0  501    0  0.00000000000E+00  0.00000000000E+00 -0.15139301171E+04  0.15139301172E+04  0.50400001928E-02 0. -1.
    10030    2    1    2    0    0  0.00000000000E+00  0.00000000000E+00 -0.93230504047E+03  0.20955551939E+04  0.18767415597E+04 0.  0.
        2    1    3    3  502    0  0.67439642999E+03 -0.34474557288E+03 -0.10847080429E+04  0.13229707454E+04  0.25500000920E-02 0. -1.
       -2    1    3    3    0  502 -0.67439642999E+03  0.34474557288E+03  0.15240300246E+03  0.77258444844E+03  0.25500000920E-02 0.  1.
</event>
<event>
 5   0  0.1239615E-04  0.1989417E+04  0.7818609E-02  0.8611585E-01
       -1   -1    0    0    0  501  0.00000000000E+00  0.00000000000E+00  0.82851191472E+03  0.82851191473E+03  0.50400001928E-02 0.  1.
        1   -1    0    0  501    0  0.00000000000E+00  0.00000000000E+00 -0.11942435366E+04  0.11942435366E+04  0.50400001928E-02 0. -1.
    10030    2    1    2    0    0  0.00000000000E+00  0.00000000000E+00 -0.36573162192E+03  0.20227554514E+04  0.19894169992E+04 0.  0.
        3    1    3    3  502    0 -0.58748236084E+03  0.53975951008E+03 -0.78693393846E+03  0.11205984503E+04  0.10100000352E+00 0. -1.
       -3    1    3    3    0  502  0.58748236084E+03 -0.53975951008E+03  0.42120231654E+03  0.90215700112E+03  0.10100000352E+00 0.  1.
</event>
<event>
 5   0  0.2541124E-04  0.1934237E+04  0.7818609E-02  0.8638000E-01
       -2   -1    0    0    0  501  0.00000000000E+00  0.00000000000E+00  0.11611526367E+04  0.11611526367E+04  0.25500000920E-02 0. -1.
        2   -1    0    0  501    0  0.00000000000E+00  0.00000000000E+00 -0.80550858977E+03  0.80550858977E+03  0.25500000920E-02 0.  1.
    10030    2    1    2    0    0  0.00000000000E+00  0.00000000000E+00  0.35564404693E+03  0.19666612265E+04  0.19342372377E+04 0.  0.
        5    1    3    3  502    0 -0.48325425360E+03 -0.83407142098E+03  0.98498045669E+02  0.96898594619E+03  0.46999998093E+01 0.  1.
       -5    1    3    3    0  502  0.48325425360E+03  0.83407142098E+03  0.25714600126E+03  0.99767528028E+03  0.46999998093E+01 0. -1.
</event>
<event>
 5   0  0.2595012E-04  0.1909638E+04  0.7818609E-02  0.8650074E-01
        2   -1    0    0  501    0  0.00000000000E+00  0.00000000000E+00  0.14826373416E+04  0.14826373416E+04  0.25500000920E-02 0.  1.
       -2   -1    0    0    0  501  0.00000000000E+00  0.00000000000E+00 -0.61490405308E+03  0.61490405309E+03  0.25500000920E-02 0. -1.
    10030    2    1    2    0    0  0.00000000000E+00  0.00000000000E+00  0.86773328854E+03  0.20975413947E+04  0.19096384062E+04 0.  0.
        1    1    3    3  502    0  0.77951086423E+03  0.48580745493E+03  0.14736886944E+03  0.93024924317E+03  0.50400001928E-02 0. -1.
       -1    1    3    3    0  502 -0.77951086423E+03 -0.48580745493E+03  0.72036441910E+03  0.11672921515E+04  0.50400001928E-02 0.  1.
</event>
<event>
 5   0  0.1277709E-04  0.1893267E+04  0.7818609E-02  0.8658215E-01
       -1   -1    0    0    0  501  0.00000000000E+00  0.00000000000E+00  0.87666999596E+03  0.87666999597E+03  0.50400001928E-02 0.  1.
        1   -1    0    0  501    0  0.00000000000E+00  0.00000000000E+00 -0.10221800773E+04  0.10221800773E+04  0.50400001928E-02 0. -1.
    10030    2    1    2    0    0  0.00000000000E+00  0.00000000000E+00 -0.14551008130E+03  0.18988500732E+04  0.18932665995E+04 0.  0.
        4    1    3    3  502    0  0.48857794150E+03 -0.15211555556E+03 -0.87151158216E+03  0.10106342553E+04  0.12699999809E+01 0. -1.
       -4    1    3    3    0  502 -0.48857794150E+03  0.15211555556E+03  0.72600150086E+03  0.88821581798E+03  0.12699999809E+01 0.  1.
</event>
<event>
 5   0  0.1277709E-04  0.1859289E+04  0.7818609E-02  0.8675390E-01
       -1   -1    0    0    0  501  0.00000000000E+00  0.00000000000E+00  0.82050329137E+03  0.82050329139E+03  0.50400001928E-02 0.  1.
        1   -1    0    0  501    0  0.00000000000E+00  0.00000000000E+00 -0.10533034490E+04  0.10533034490E+04  0.50400001928E-02 0. -1.
    10030    2    1    2    0    0  0.00000000000E+00  0.00000000000E+00 -0.23280015762E+03  0.18738067404E+04  0.18592890542E+04 0.  0.
        4    1    3    3  502    0 -0.66167790966E+03  0.31623794402E+03 -0.69218696282E+03  0.10084386435E+04  0.12699999809E+01 0. -1.
       -4    1    3    3    0  502  0.66167790966E+03 -0.31623794402E+03  0.45938680520E+03  0.86536809686E+03  0.12699999809E+01 0.  1.
</event>
<event>
 5   0  0.1324058E-04  0.1914486E+04  0.7818609E-02  0.8647679E-01
        1   -1    0    0  501    0  0.00000000000E+00  0.00000000000E+00  0.81092170533E+03  0.81092170534E+03  0.50400001928E-02 0. -1.
       -1   -1    0    0    0  501  0.00000000000E+00  0.00000000000E+00 -0.11299663786E+04  0.11299663786E+04  0.50400001928E-02 0.  1.
    10030    2    1    2    0    0  0.00000000000E+00  0.00000000000E+00 -0.31904467330E+03  0.19408880840E+04  0.19144861062E+04 0.  0.
        5    1    3    3  502    0  0.66788380445E+03 -0.49590297396E+03 -0.63966072731E+03  0.10493695593E+04  0.46999998093E+01 0.  1.
       -5    1    3    3    0  502 -0.66788380445E+03  0.49590297396E+03  0.32061605401E+03  0.89151852472E+03  0.46999998093E+01 0. -1.
</event>
<event>
 5   0  0.2562925E-04  0.1896641E+04  0.7818609E-02  0.8656530E-01
        2   -1    0    0  501    0  0.00000000000E+00  0.00000000000E+00  0.63657391822E+03  0.63657391823E+03  0.25500000920E-02 0. -1.
       -2   -1    0    0    0  501  0.00000000000E+00  0.00000000000E+00 -0.14127371094E+04  0.14127371094E+04  0.25500000920E-02 0.  1.
    10030    2    1    2    0    0  0.00000000000E+00  0.00000000000E+00 -0.77616319121E+03  0.20493110277E+04  0.18966408170E+04 0.  0.
        4    1    3    3  502    0  0.33276082053E+03  0.85969095312E+03 -0.14765824742E+03  0.93359673815E+03  0.12699999809E+01 0.  1.
       -4    1    3    3    0  502 -0.33276082053E+03 -0.85969095312E+03 -0.62850494378E+03  0.11157142895E+04  0.12699999809E+01 0. -1.
</event>
<event>
 5   0  0.1324058E-04  0.1873325E+04  0.7818609E-02  0.8668249E-01
        1   -1    0    0  501    0  0.00000000000E+00  0.00000000000E+00  0.13945122230E+04  0.13945122231E+04  0.50400001928E-02 0.  1.
       -1   -1    0    0    0  501  0.00000000000E+00  0.00000000000E+00 -0.62913516967E+03  0.62913516969E+03  0.50400001928E-02 0. -1.
    10030    2    1    2    0    0  0.00000000000E+00  0.00000000000E+00  0.76537705338E+03  0.20236473927E+04  0.18733250482E+04 0.  0.
        5    1    3    3  502    0  0.30466995686E+03 -0.88530313074E+03  0.35351838539E+03  0.10007910645E+04  0.46999998093E+01 0.  1.
       -5    1    3    3    0  502 -0.30466995686E+03  0.88530313074E+03  0.41185866798E+03  0.10228563283E+04  0.46999998093E+01 0. -1.
</event>
<event>
 5   0  0.2651828E-04  0.1580744E+04  0.7818609E-02  0.8832466E-01
        2   -1    0    0  501    0  0.00000000000E+00  0.00000000000E+00  0.90167295527E+03  0.90167295528E+03  0.25500000920E-02 0.  1.
       -2   -1    0    0    0  501  0.00000000000E+00  0.00000000000E+00 -0.69280984587E+03  0.69280984588E+03  0.25500000920E-02 0. -1.
    10030    2    1    2    0    0  0.00000000000E+00  0.00000000000E+00  0.20886310940E+03  0.15944828012E+04  0.15807440035E+04 0.  0.
        3    1    3    3  502    0  0.78013344104E+03 -0.10746822278E+03  0.36539161541E+02  0.78834809904E+03  0.10100000352E+00 0. -1.
       -3    1    3    3    0  502 -0.78013344104E+03  0.10746822278E+03  0.17232394786E+03  0.80613470211E+03  0.10100000352E+00 0.  1.
</event>
<event>
 5   0  0.2651828E-04  0.1920834E+04  0.7818609E-02  0.8644555E-01
        2   -1    0    0  501    0  0.00000000000E+00  0.00000000000E+00  0.12581975446E+04  0.12581975446E+04  0.25500000920E-02 0. -1.
       -2   -1    0    0    0  501  0.00000000000E+00  0.00000000000E+00 -0.73311285365E+03  0.73311285366E+03  0.25500000920E-02 0.  1.
    10030    2    1    2    0    0  0.00000000000E+00  0.00000000000E+00  0.52508469097E+03  0.19913103983E+04  0.19208339776E+04 0.  0.
        3    1    3    3  502    0  0.16792175815E+03  0.71375263630E+03 -0.38050688878E+03  0.82609082146E+03  0.10100000352E+00 0.  1.
       -3    1    3    3    0  502 -0.16792175815E+03 -0.71375263630E+03  0.90559157975E+03  0.11652195768E+04  0.10100000352E+00 0. -1.
</event>
<event>
 5   0  0.9266125E-05  0.1917023E+04  0.7818609E-02  0.8646429E-01
       -3   -1    0    0    0  501  0.00000000000E+00  0.00000000000E+00  0.53605433120E+03  0.53605434071E+03  0.10100000352E+00 0. -1.
        3   -1    0    0  501    0  0.00000000000E+00  0.00000000000E+00 -0.17139013298E+04  0.17139013328E+04  0.10100000352E+00 0.  1.
    10030    2    1    2    0    0  0.00000000000E+00  0.00000000000E+00 -0.11778469986E+04  0.22499556735E+04  0.19170229473E+04 0.  0.
        5    1    3    3  502    0  0.58793832110E+03 -0.15388821263E+03  0.28099540013E+03  0.66957714739E+03  0.46999998093E+01 0. -1.
       -5    1    3    3    0  502 -0.58793832110E+03  0.15388821263E+03 -0.14588423988E+04  0.15803785261E+04  0.46999998093E+01 0.  1.
</event>
<event>
 5   0  0.1324058E-04  0.1803275E+04  0.7818609E-02  0.8704560E-01
        1   -1    0    0  501    0  0.00000000000E+00  0.00000000000E+00  0.13784357664E+04  0.13784357664E+04  0.50400001928E-02 0. -1.
       -1   -1    0    0    0  501  0.00000000000E+00  0.00000000000E+00 -0.58976287378E+03  0.58976287380E+03  0.50400001928E-02 0.  1.
    10030    2    1    2    0    0  0.00000000000E+00  0.00000000000E+00  0.78867289259E+03  0.19681986402E+04  0.18032750638E+04 0.  0.
        5    1    3    3  502    0  0.90681464014E+02 -0.52339862081E+03  0.11894984050E+04  0.13027270588E+04  0.46999998093E+01 0. -1.
       -5    1    3    3    0  502 -0.90681464014E+02  0.52339862081E+03 -0.40082551244E+03  0.66547158137E+03  0.46999998093E+01 0.  1.
</event>
<event>
 5   0  0.2651828E-04  0.1888522E+04  0.7818609E-02  0.8660591E-01
       -2   -1    0    0    0  501  0.00000000000E+00  0.00000000000E+00  0.16674785413E+04  0.16674785413E+04  0.25500000920E-02 0.  1.
        2   -1    0    0  501    0  0.00000000000E+00  0.00000000000E+00 -0.53471690333E+03  0.53471690334E+03  0.25500000920E-02 0. -1.
    10030    2    1    2    0    0  0.00000000000E+00  0.00000000000E+00  0.11327616380E+04  0.22021954446E+04  0.18885221333E+04 0.  0.
        3    1    3    3  502    0 -0.17700818811E+03 -0.67216540435E+02 -0.51235373641E+03  0.54622003202E+03  0.10100000352E+00 0. -1.
       -3    1    3    3    0  502  0.17700818811E+03  0.67216540435E+02  0.16451153744E+04  0.16559754126E+04  0.10100000352E+00 0.  1.
</event>
<event>
 5   0  0.2608744E-04  0.1895550E+04  0.7818609E-02  0.8657074E-01
       -2   -1    0    0    0  501  0.00000000000E+00  0.00000000000E+00  0.33809982678E+03  0.33809982679E+03  0.25500000920E-02 0. -1.
        2   -1    0    0  501    0  0.00000000000E+00  0.00000000000E+00 -0.26568420496E+04  0.26568420496E+04  0.25500000920E-02 0.  1.
    10030    2    1    2    0    0  0.00000000000E+00  0.00000000000E+00 -0.23187422229E+04  0.29949418764E+04  0.18955504074E+04 0.  0.
        2    1    3    3  502    0  0.22569358607E+02 -0.89784406894E+03 -0.16376775607E+04  0.18677850896E+04  0.25500000920E-02 0.  1.
       -2    1    3    3    0  502 -0.22569358607E+02  0.89784406894E+03 -0.68106466218E+03  0.11271567869E+04  0.25500000920E-02 0. -1.
</event>
<event>
 5   0  0.2595012E-04  0.1895225E+04  0.7818609E-02  0.8657237E-01
        2   -1    0    0  501    0  0.00000000000E+00  0.00000000000E+00  0.14281177290E+04  0.14281177290E+04  0.25500000920E-02 0.  1.
       -2   -1    0    0    0  501  0.00000000000E+00  0.00000000000E+00 -0.62877842514E+03  0.62877842515E+03  0.25500000920E-02 0. -1.
    10030    2    1    2    0    0  0.00000000000E+00  0.00000000000E+00  0.79933930390E+03  0.20568961542E+04  0.18952251756E+04 0.  0.
        1    1    3    3  502    0 -0.80266131854E+03  0.42498244096E+03  0.69309217768E+03  0.11424762729E+04  0.50400001928E-02 0.  1.
       -1    1    3    3    0  502  0.80266131854E+03 -0.42498244096E+03  0.10624712622E+03  0.91441988127E+03  0.50400001928E-02 0. -1.
</event>
<event>
 5   0  0.1317527E-04  0.1902997E+04  0.7818609E-02  0.8653366E-01
        1   -1    0    0  501    0  0.00000000000E+00  0.00000000000E+00  0.13197991028E+04  0.13197991028E+04  0.50400001928E-02 0. -1.
       -1   -1    0    0    0  501  0.00000000000E+00  0.00000000000E+00 -0.68597545046E+03  0.68597545048E+03  0.50400001928E-02 0.  1.
    10030    2    1    2    0    0  0.00000000000E+00  0.00000000000E+00  0.63382365234E+03  0.20057745533E+04  0.19029974084E+04 0.  0.
        1    1    3    3  502    0  0.53927977284E+03  0.75941206654E+03  0.11193388992E+03  0.93811436186E+03  0.50400001928E-02 0.  1.
       -1    1    3    3    0  502 -0.53927977284E+03 -0.75941206654E+03  0.52188976242E+03  0.10676601914E+04  0.50400001928E-02 0. -1.
</event>
<event>
 5   0  0.2562925E-04  0.1906901E+04  0.7818609E-02  0.8651429E-01
        2   -1    0    0  501    0  0.00000000000E+00  0.00000000000E+00  0.18987422495E+04  0.18987422495E+04  0.25500000920E-02 0.  1.
       -2   -1    0    0    0  501  0.00000000000E+00  0.00000000000E+00 -0.47877385420E+03  0.47877385421E+03  0.25500000920E-02 0. -1.
    10030    2    1    2    0    0  0.00000000000E+00  0.00000000000E+00  0.14199683953E+04  0.23775161037E+04  0.19069013031E+04 0.  0.
        4    1    3    3  502    0 -0.69214913453E+02 -0.83534154033E+03  0.12765294491E+04  0.15271264651E+04  0.12699999809E+01 0.  1.
       -4    1    3    3    0  502  0.69214913453E+02  0.83534154033E+03  0.14343894624E+03  0.85038963860E+03  0.12699999809E+01 0. -1.
</event>
<event>
 5   0  0.2562925E-04  0.1911505E+04  0.7818609E-02  0.8649151E-01
       -2   -1    0    0    0  501  0.00000000000E+00  0.00000000000E+00  0.64867593322E+03  0.64867593323E+03  0.25500000920E-02 0.  1.
        2   -1    0    0  501    0  0.00000000000E+00  0.00000000000E+00 -0.14081956839E+04  0.14081956839E+04  0.25500000920E-02 0. -1.
    10030    2    1    2    0    0  0.00000000000E+00  0.00000000000E+00 -0.75951975072E+03  0.20568716172E+04  0.19115047993E+04 0.  0.
        4    1    3    3  502    0  0.24957121555E+03 -0.36200775167E+03 -0.12928968478E+04  0.13656204729E+04  0.12699999809E+01 0. -1.
       -4    1    3    3    0  502 -0.24957121555E+03  0.36200775167E+03  0.53337709710E+03  0.69125114431E+03  0.12699999809E+01 0.  1.
</event>
<event>
 5   0  0.2541124E-04  0.1977314E+04  0.7818609E-02  0.8617301E-01
        2   -1    0    0  501    0  0.00000000000E+00  0.00000000000E+00  0.12383318252E+04  0.12383318252E+04  0.25500000920E-02 0.  1.
       -2   -1    0    0    0  501  0.00000000000E+00  0.00000000000E+00 -0.78932172483E+03  0.78932172483E+03  0.25500000920E-02 0. -1.
    10030    2    1    2    0    0  0.00000000000E+00  0.00000000000E+00  0.44901010033E+03  0.20276535500E+04  0.19773135433E+04 0.  0.
        5    1    3    3  502    0  0.90136832348E+02  0.32389704360E+03  0.11778984002E+04  0.12249492539E+04  0.46999998093E+01 0.  1.
       -5    1    3    3    0  502 -0.90136832348E+02 -0.32389704360E+03 -0.72888829984E+03  0.80270429614E+03  0.46999998093E+01 0. -1.
</event>
<event>
 5   0  0.1277709E-04  0.1896315E+04  0.7818609E-02  0.8656693E-01
       -1   -1    0    0    0  501  0.00000000000E+00  0.00000000000E+00  0.67409388915E+03  0.67409388916E+03  0.50400001928E-02 0.  1.
        1   -1    0    0  501    0  0.00000000000E+00  0.00000000000E+00 -0.13336464782E+04  0.13336464782E+04  0.50400001928E-02 0. -1.
    10030    2    1    2    0    0  0.00000000000E+00  0.00000000000E+00 -0.65955258905E+03  0.20077403674E+04  0.18963153127E+04 0.  0.
        4    1    3    3  502    0  0.98870606227E+02  0.31262366269E+03 -0.12717100642E+04  0.13133000615E+04  0.12699999809E+01 0. -1.
       -4    1    3    3    0  502 -0.98870606227E+02 -0.31262366269E+03  0.61215747511E+03  0.69444030591E+03  0.12699999809E+01 0.  1.
</event>
<event>
 5   0  0.1255141E-04  0.1960105E+04  0.7818609E-02  0.8625503E-01
       -1   -1    0    0    0  501  0.00000000000E+00  0.00000000000E+00  0.69202109705E+03  0.69202109707E+03  0.50400001928E-02 0. -1.
        1   -1    0    0  501    0  0.00000000000E+00  0.00000000000E+00 -0.13879674977E+04  0.13879674977E+04  0.50400001928E-02 0.  1.
    10030    2    1    2    0    0  0.00000000000E+00  0.00000000000E+00 -0.69594640067E+03  0.20799885948E+04  0.19601048854E+04 0.  0.
        2    1    3    3  502    0 -0.85514454342E+02 -0.54386403703E+03  0.51242034893E+03  0.75211397187E+03  0.25500000920E-02 0. -1.
       -2    1    3    3    0  502  0.85514454342E+02  0.54386403703E+03 -0.12083667496E+04  0.13278746229E+04  0.25500000920E-02 0.  1.
</event>
<event>
 5   0  0.2651828E-04  0.1904882E+04  0.7818609E-02  0.8652430E-01
        2   -1    0    0  501    0  0.00000000000E+00  0.00000000000E+00  0.19651330501E+04  0.19651330501E+04  0.25500000920E-02 0. -1.
       -2   -1    0    0    0  501  0.00000000000E+00  0.00000000000E+00 -0.46161935605E+03  0.46161935606E+03  0.25500000920E-02 0.  1.
    10030    2    1    2    0    0  0.00000000000E+00  0.00000000000E+00  0.15035136940E+04  0.24267524061E+04  0.19048815744E+04 0.  0.
        3    1    3    3  502    0  0.37674638564E+03  0.83624892314E+03  0.10787798156E+04  0.14159858761E+04  0.10100000352E+00 0. -1.
       -3    1    3    3    0  502 -0.37674638564E+03 -0.83624892314E+03  0.42473387839E+03  0.10107665300E+04  0.10100000352E+00 0.  1.
</event>
<event>
 5   0  0.2562925E-04  0.1856558E+04  0.7818609E-02  0.8676788E-01
        2   -1    0    0  501    0  0.00000000000E+00  0.00000000000E+00  0.11465883052E+04  0.11465883052E+04  0.25500000920E-02 0. -1.
       -2   -1    0    0    0  501  0.00000000000E+00  0.00000000000E+00 -0.75153550816E+03  0.75153550816E+03  0.25500000920E-02 0.  1.
    10030    2    1    2    0    0  0.00000000000E+00  0.00000000000E+00  0.39505279707E+03  0.18981238134E+04  0.18565579168E+04 0.  0.
        4    1    3    3  502    0 -0.69720342760E+03  0.21399460029E+03 -0.38962556223E+03  0.82685911741E+03  0.12699999809E+01 0.  1.
       -4    1    3    3    0  502  0.69720342760E+03 -0.21399460029E+03  0.78467835929E+03  0.10712646960E+04  0.12699999809E+01 0. -1.
</event>
<event>
 5   0  0.2562925E-04  0.1903756E+04  0.7818609E-02  0.8652989E-01
       -2   -1    0    0    0  501  0.00000000000E+00  0.00000000000E+00  0.75625653931E+03  0.75625653932E+03  0.25500000920E-02 0.  1.
        2   -1    0    0  501    0  0.00000000000E+00  0.00000000000E+00 -0.11981007767E+04  0.11981007767E+04  0.25500000920E-02 0. -1.
    10030    2    1    2    0    0  0.00000000000E+00  0.00000000000E+00 -0.44184423734E+03  0.19543573160E+04  0.19037558111E+04 0.  0.
        4    1    3    3  502    0  0.21077002500E+02 -0.94736870054E+03 -0.12842596917E+03  0.95626698012E+03  0.12699999809E+01 0. -1.
       -4    1    3    3    0  502 -0.21077002500E+02  0.94736870054E+03 -0.31341826817E+03  0.99809033585E+03  0.12699999809E+01 0.  1.
</event>
<event>
 5   0  0.1239615E-04  0.1658487E+04  0.7818609E-02  0.8785402E-01
        1   -1    0    0  501    0  0.00000000000E+00  0.00000000000E+00  0.10667921380E+04  0.10667921380E+04  0.50400001928E-02 0.  1.
       -1   -1    0    0    0  501  0.00000000000E+00  0.00000000000E+00 -0.64459086234E+03  0.64459086236E+03  0.50400001928E-02 0. -1.
    10030    2    1    2    0    0  0.00000000000E+00  0.00000000000E+00  0.42220127564E+03  0.17113830004E+04  0.16584866164E+04 0.  0.
        3    1    3    3  502    0  0.69584377760E+02 -0.39547570599E+03  0.95977640186E+03  0.10403911627E+04  0.10100000352E+00 0.  1.
       -3    1    3    3    0  502 -0.69584377760E+02  0.39547570599E+03 -0.53757512622E+03  0.67099183765E+03  0.10100000352E+00 0. -1.
</event>
<event>
 5   0  0.1317527E-04  0.1921423E+04  0.7818609E-02  0.8644266E-01
       -1   -1    0    0    0  501  0.00000000000E+00  0.00000000000E+00  0.12988879478E+04  0.12988879478E+04  0.50400001928E-02 0.  1.
        1   -1    0    0  501    0  0.00000000000E+00  0.00000000000E+00 -0.71058235870E+03  0.71058235872E+03  0.50400001928E-02 0. -1.
    10030    2    1    2    0    0  0.00000000000E+00  0.00000000000E+00  0.58830558909E+03  0.20094703065E+04  0.19214232867E+04 0.  0.
        1    1    3    3  502    0  0.42326922865E+03  0.28552775012E+03 -0.55694732292E+03  0.75556155047E+03  0.50400001928E-02 0. -1.
       -1    1    3    3    0  502 -0.42326922865E+03 -0.28552775012E+03  0.11452529120E+04  0.12539087560E+04  0.50400001928E-02 0.  1.
</event>
<event>
 5   0  0.1277709E-04  0.1862483E+04  0.7818609E-02  0.8673760E-01
       -1   -1    0    0    0  501  0.00000000000E+00  0.00000000000E+00  0.83961866304E+03  0.83961866306E+03  0.50400001928E-02 0.  1.
        1   -1    0    0  501    0  0.00000000000E+00  0.00000000000E+00 -0.10328625006E+04  0.10328625006E+04  0.50400001928E-02 0. -1.
    10030    2    1    2    0    0  0.00000000000E+00  0.00000000000E+00 -0.19324383754E+03  0.18724811637E+04  0.18624828932E+04 0.  0.
        4    1    3    3  502    0 -0.44128443898E+03  0.38518203726E+03  0.63122015893E+03  0.86112580954E+03  0.12699999809E+01 0.  1.
       -4    1    3    3    0  502  0.44128443898E+03 -0.38518203726E+03 -0.82446399647E+03  0.10113553541E+04  0.12699999809E+01 0. -1.
</event>
<event>
 5   0  0.2595012E-04  0.1910434E+04  0.7818609E-02  0.8649680E-01
       -2   -1    0    0    0  501  0.00000000000E+00  0.00000000000E+00  0.71793170332E+03  0.71793170333E+03  0.25500000920E-02 0.  1.
        2   -1    0    0  501    0  0.00000000000E+00  0.00000000000E+00 -0.12709277031E+04  0.12709277031E+04  0.25500000920E-02 0. -1.
    10030    2    1    2    0    0  0.00000000000E+00  0.00000000000E+00 -0.55299599979E+03  0.19888594064E+04  0.19104337630E+04 0.  0.
        1    1    3    3  502    0  0.49246125129E+03 -0.49970526559E+02  0.57399953360E+03  0.75795158298E+03  0.50400001928E-02 0.  1.
       -1    1    3    3    0  502 -0.49246125129E+03  0.49970526559E+02 -0.11269955334E+04  0.12309078235E+04  0.50400001928E-02 0. -1.
</event>
<event>
 5   0  0.2562925E-04  0.1908235E+04  0.7818609E-02  0.8650768E-01
       -2   -1    0    0    0  501  0.00000000000E+00  0.00000000000E+00  0.36958217866E+03  0.36958217867E+03  0.25500000920E-02 0. -1.
        2   -1    0    0  501    0  0.00000000000E+00  0.00000000000E+00 -0.24631615593E+04  0.24631615593E+04  0.25500000920E-02 0.  1.
    10030    2    1    2    0    0  0.00000000000E+00  0.00000000000E+00 -0.20935793806E+04  0.28327437379E+04  0.19082354315E+04 0.  0.
        4    1    3    3  502    0 -0.27904409228E+02 -0.43415035322E+03 -0.23073545489E+04  0.23480101815E+04  0.12699999809E+01 0.  1.
       -4    1    3    3    0  502  0.27904409228E+02  0.43415035322E+03  0.21377516829E+03  0.48473355643E+03  0.12699999809E+01 0. -1.
</event>
<event>
 5   0  0.1324058E-04  0.1877014E+04  0.7818609E-02  0.8666383E-01
       -1   -1    0    0    0  501  0.00000000000E+00  0.00000000000E+00  0.65643403613E+03  0.65643403615E+03  0.50400001928E-02 0. -1.
        1   -1    0    0  501    0  0.00000000000E+00  0.00000000000E+00 -0.13417884273E+04  0.13417884273E+04  0.50400001928E-02 0.  1.
    10030    2    1    2    0    0  0.00000000000E+00  0.00000000000E+00 -0.68535439117E+03  0.19982224635E+04  0.18770142173E+04 0.  0.
        5    1    3    3  502    0  0.53631717108E+03  0.25166198337E+03 -0.11175559330E+04  0.12648807119E+04  0.46999998093E+01 0.  1.
       -5    1    3    3    0  502 -0.53631717108E+03 -0.25166198337E+03  0.43220154182E+03  0.73334175159E+03  0.46999998093E+01 0. -1.
</event>
<event>
 5   0  0.2595012E-04  0.1840459E+04  0.7818609E-02  0.8685075E-01
       -2   -1    0    0    0  501  0.00000000000E+00  0.00000000000E+00  0.39451258789E+03  0.39451258790E+03  0.25500000920E-02 0.  1.
        2   -1    0    0  501    0  0.00000000000E+00  0.00000000000E+00 -0.21465020747E+04  0.21465020747E+04  0.25500000920E-02 0. -1.
    10030    2    1    2    0    0  0.00000000000E+00  0.00000000000E+00 -0.17519894868E+04  0.25410146626E+04  0.18404587346E+04 0.  0.
        1    1    3    3  502    0 -0.59816752182E+03 -0.39446398513E+03 -0.16732074635E+04  0.18201729137E+04  0.50400001928E-02 0. -1.
       -1    1    3    3    0  502  0.59816752182E+03  0.39446398513E+03 -0.78782023270E+02  0.72084174889E+03  0.50400001928E-02 0.  1.
</event>
<event>
 5   0  0.1239615E-04  0.1887557E+04  0.7818609E-02  0.8661075E-01
        1   -1    0    0  501    0  0.00000000000E+00  0.00000000000E+00  0.31933660238E+03  0.31933660242E+03  0.50400001928E-02 0.  1.
       -1   -1    0    0    0  501  0.00000000000E+00  0.00000000000E+00 -0.27892753816E+04  0.27892753816E+04  0.50400001928E-02 0. -1.
    10030    2    1    2    0    0  0.00000000000E+00  0.00000000000E+00 -0.24699387792E+04  0.31086119840E+04  0.18875568585E+04 0.  0.
        3    1    3    3  502    0  0.79199629723E+03 -0.26732860302E+02 -0.39079213050E+03  0.88356736025E+03  0.10100000352E+00 0.  1.
       -3    1    3    3    0  502 -0.79199629723E+03  0.26732860302E+02 -0.20791466487E+04  0.22250446238E+04  0.10100000352E+00 0. -1.
</event>
<event>
 5   0  0.9266125E-05  0.1911612E+04  0.7818609E-02  0.8649098E-01
       -3   -1    0    0    0  501  0.00000000000E+00  0.00000000000E+00  0.12009621081E+04  0.12009621123E+04  0.10100000352E+00 0.  1.
        3   -1    0    0  501    0  0.00000000000E+00  0.00000000000E+00 -0.76069443134E+03  0.76069443804E+03  0.10100000352E+00 0. -1.
    10030    2    1    2    0    0  0.00000000000E+00  0.00000000000E+00  0.44026767675E+03  0.19616565504E+04  0.19116120931E+04 0.  0.
        4    1    3    3  502    0 -0.74896728850E+03  0.56377011903E+03  0.28771808228E+02  0.93787961712E+03  0.12699999809E+01 0.  1.
       -4    1    3    3    0  502  0.74896728850E+03 -0.56377011903E+03  0.41149586852E+03  0.10237769333E+04  0.12699999809E+01 0. -1.
</event>
<event>
 5   0  0.1324058E-04  0.1930168E+04  0.7818609E-02  0.8639984E-01
        1   -1    0    0  501    0  0.00000000000E+00  0.00000000000E+00  0.84763533105E+03  0.84763533106E+03  0.50400001928E-02 0.  1.
       -1   -1    0    0    0  501  0.00000000000E+00  0.00000000000E+00 -0.10988066944E+04  0.10988066944E+04  0.50400001928E-02 0. -1.
    10030    2    1    2    0    0  0.00000000000E+00  0.00000000000E+00 -0.25117136333E+03  0.19464420255E+04  0.19301682581E+04 0.  0.
        5    1    3    3  502    0  0.75381088735E+02  0.42587169863E+03 -0.99559731706E+03  0.10854884246E+04  0.46999998093E+01 0. -1.
       -5    1    3    3    0  502 -0.75381088735E+02 -0.42587169863E+03  0.74442595372E+03  0.86095360085E+03  0.46999998093E+01 0.  1.
</event>
<event>
 5   0  0.9266125E-05  0.1728404E+04  0.7818609E-02  0.8745328E-01
        4   -1    0    0  501    0  0.00000000000E+00  0.00000000000E+00  0.11158143054E+04  0.11158150282E+04  0.12699999809E+01 0.  1.
       -4   -1    0    0    0  501  0.00000000000E+00  0.00000000000E+00 -0.66932613010E+03  0.66932733497E+03  0.12699999809E+01 0. -1.
    10030    2    1    2    0    0  0.00000000000E+00  0.00000000000E+00  0.44648817532E+03  0.17851423631E+04  0.17284043410E+04 0.  0.
        1    1    3    3  502    0 -0.56662761485E+03  0.63287664087E+03  0.59139329524E+02  0.85152636882E+03  0.50400001928E-02 0. -1.
       -1    1    3    3    0  502  0.56662761485E+03 -0.63287664087E+03  0.38734884579E+03  0.93361599432E+03  0.50400001928E-02 0.  1.
</event>
<event>
 5   0  0.2541124E-04  0.1901051E+04  0.7818609E-02  0.8654333E-01
        2   -1    0    0  501    0  0.00000000000E+00  0.00000000000E+00  0.18370137677E+04  0.18370137677E+04  0.25500000920E-02 0. -1.
       -2   -1    0    0    0  501  0.00000000000E+00  0.00000000000E+00 -0.49183023997E+03  0.49183023997E+03  0.25500000920E-02 0.  1.
    10030    2    1    2    0    0  0.00000000000E+00  0.00000000000E+00  0.13451835278E+04  0.23288440077E+04  0.19010512063E+04 0.  0.
        5    1    3    3  502    0  0.14445254911E+03  0.16552468776E+03  0.18054705502E+04  0.18187938198E+04  0.46999998093E+01 0. -1.
       -5    1    3    3    0  502 -0.14445254911E+03 -0.16552468776E+03 -0.46028702243E+03  0.51005018794E+03  0.46999998093E+01 0.  1.
</event>
<event>
 5   0  0.2562925E-04  0.1888762E+04  0.7818609E-02  0.8660471E-01
       -2   -1    0    0    0  501  0.00000000000E+00  0.00000000000E+00  0.60146539655E+03  0.60146539656E+03  0.25500000920E-02 0.  1.
        2   -1    0    0  501    0  0.00000000000E+00  0.00000000000E+00 -0.14828038895E+04  0.14828038895E+04  0.25500000920E-02 0. -1.
    10030    2    1    2    0    0  0.00000000000E+00  0.00000000000E+00 -0.88133849293E+03  0.20842692860E+04  0.18887617419E+04 0.  0.
        4    1    3    3  502    0 -0.29441619835E+03 -0.15175118361E+03 -0.14166024479E+04  0.14548104439E+04  0.12699999809E+01 0. -1.
       -4    1    3    3    0  502  0.29441619835E+03  0.15175118361E+03  0.53526395493E+03  0.62945884212E+03  0.12699999809E+01 0.  1.
</event>
<event>
 5   0  0.1317527E-04  0.1924228E+04  0.7818609E-02  0.8642890E-01
        1   -1    0    0  501    0  0.00000000000E+00  0.00000000000E+00  0.13706483339E+04  0.13706483339E+04  0.50400001928E-02 0.  1.
       -1   -1    0    0    0  501  0.00000000000E+00  0.00000000000E+00 -0.67534698956E+03  0.67534698958E+03  0.50400001928E-02 0. -1.
    10030    2    1    2    0    0  0.00000000000E+00  0.00000000000E+00  0.69530134434E+03  0.20459953235E+04  0.19242278722E+04 0.  0.
        1    1    3    3  502    0  0.61398698200E+03 -0.64775252777E+03  0.72969261603E+03  0.11528289835E+04  0.50400001928E-02 0.  1.
       -1    1    3    3    0  502 -0.61398698200E+03  0.64775252777E+03 -0.34391271692E+02  0.89316633999E+03  0.50400001928E-02 0. -1.
</event>
<event>
 5   0  0.2541124E-04  0.1902579E+04  0.7818609E-02  0.8653574E-01
       -2   -1    0    0    0  501  0.00000000000E+00  0.00000000000E+00  0.93623435569E+03  0.93623435569E+03  0.25500000920E-02 0.  1.
        2   -1    0    0  501    0  0.00000000000E+00  0.00000000000E+00 -0.96658697370E+03  0.96658697371E+03  0.25500000920E-02 0. -1.
    10030    2    1    2    0    0  0.00000000000E+00  0.00000000000E+00 -0.30352618017E+02  0.19028213294E+04  0.19025792310E+04 0.  0.
        5    1    3    3  502    0  0.87130889085E+03 -0.24316015909E+03 -0.30953296855E+03  0.95610605838E+03  0.46999998093E+01 0. -1.
       -5    1    3    3    0  502 -0.87130889085E+03  0.24316015909E+03  0.27918035054E+03  0.94671527102E+03  0.46999998093E+01 0.  1.
</event>
<event>
 5   0  0.1324058E-04  0.1932619E+04  0.7818609E-02  0.8638788E-01
        1   -1    0    0  501    0  0.00000000000E+00  0.00000000000E+00  0.11700228639E+04  0.11700228640E+04  0.50400001928E-02 0. -1.
       -1   -1    0    0    0  501  0.00000000000E+00  0.00000000000E+00 -0.79806505987E+03  0.79806505988E+03  0.50400001928E-02 0.  1.
    10030    2    1    2    0    0  0.00000000000E+00  0.00000000000E+00  0.37195780407E+03  0.19680879238E+04  0.19326193283E+04 0.  0.
        5    1    3    3  502    0 -0.45585873869E+03 -0.47413634151E+03 -0.53491104065E+03  0.84779972363E+03  0.46999998093E+01 0.  1.
       -5    1    3    3    0  502  0.45585873869E+03  0.47413634151E+03  0.90686884472E+03  0.11202882002E+04  0.46999998093E+01 0. -1.
</event>
<event>
 5   0  0.2651828E-04  0.1842771E+04  0.7818609E-02  0.8683879E-01
        2   -1    0    0  501    0  0.00000000000E+00  0.00000000000E+00  0.68121621271E+03  0.68121621272E+03  0.25500000920E-02 0. -1.
       -2   -1    0    0    0  501  0.00000000000E+00  0.00000000000E+00 -0.12462294381E+04  0.12462294381E+04  0.25500000920E-02 0.  1.
    10030    2    1    2    0    0  0.00000000000E+00  0.00000000000E+00 -0.56501322539E+03  0.19274456508E+04  0.18427714975E+04 0.  0.
        3    1    3    3  502    0  0.34243927463E+03  0.75009932775E+03  0.14752745810E+03  0.83766223467E+03  0.10100000352E+00 0. -1.
       -3    1    3    3    0  502 -0.34243927463E+03 -0.75009932775E+03 -0.71254068349E+03  0.10897834162E+04  0.10100000352E+00 0.  1.
</event>
<event>
 5   0  0.2541124E-04  0.1918940E+04  0.7818609E-02  0.8645486E-01
       -2   -1    0    0    0  501  0.00000000000E+00  0.00000000000E+00  0.56358453625E+03  0.56358453626E+03  0.25500000920E-02 0.  1.
        2   -1    0    0  501    0  0.00000000000E+00  0.00000000000E+00 -0.16334425486E+04  0.16334425486E+04  0.25500000920E-02 0. -1.
    10030    2    1    2    0    0  0.00000000000E+00  0.00000000000E+00 -0.10698580124E+04  0.21970270849E+04  0.19189402922E+04 0.  0.
        5    1    3    3  502    0 -0.80479622341E+03  0.36796456088E+03 -0.11043497866E+03  0.89180314744E+03  0.46999998093E+01 0.  1.
       -5    1    3    3    0  502  0.80479622341E+03 -0.36796456088E+03 -0.95942303373E+03  0.13052239375E+04  0.46999998093E+01 0. -1.
</event>
<event>
 5   0  0.1277709E-04  0.1909532E+04  0.7818609E-02  0.8650126E-01
        1   -1    0    0  501    0  0.00000000000E+00  0.00000000000E+00  0.23031959758E+04  0.23031959758E+04  0.50400001928E-02 0.  1.
       -1   -1    0    0    0  501  0.00000000000E+00  0.00000000000E+00 -0.39578829528E+03  0.39578829531E+03  0.50400001928E-02 0. -1.
    10030    2    1    2    0    0  0.00000000000E+00  0.00000000000E+00  0.19074076805E+04  0.26989842711E+04  0.19095318892E+04 0.  0.
        4    1    3    3  502    0 -0.54399078244E+03 -0.46310122801E+02 -0.15338576624E+03  0.56709735058E+03  0.12699999809E+01 0. -1.
       -4    1    3    3    0  502  0.54399078244E+03  0.46310122801E+02  0.20607934467E+04  0.21318869205E+04  0.12699999809E+01 0.  1.
</event>
<event>
 5   0  0.2651828E-04  0.1872294E+04  0.7818609E-02  0.8668772E-01
       -2   -1    0    0    0  501  0.00000000000E+00  0.00000000000E+00  0.40623644915E+03  0.40623644916E+03  0.25500000920E-02 0. -1.
        2   -1    0    0  501    0  0.00000000000E+00  0.00000000000E+00 -0.21572926329E+04  0.21572926330E+04  0.25500000920E-02 0.  1.
    10030    2    1    2    0    0  0.00000000000E+00  0.00000000000E+00 -0.17510561838E+04  0.25635290821E+04  0.18722936725E+04 0.  0.
        3    1    3    3  502    0  0.55319067329E+03 -0.69067285450E+03 -0.12937976348E+04  0.15674696944E+04  0.10100000352E+00 0.  1.
       -3    1    3    3    0  502 -0.55319067329E+03  0.69067285450E+03 -0.45725854903E+03  0.99605938770E+03  0.10100000352E+00 0. -1.
</event>
<event>
 5   0  0.2608744E-04  0.1843232E+04  0.7818609E-02  0.8683641E-01
        2   -1    0    0  501    0  0.00000000000E+00  0.00000000000E+00  0.12358115673E+04  0.12358115673E+04  0.25500000920E-02 0. -1.
       -2   -1    0    0    0  501  0.00000000000E+00  0.00000000000E+00 -0.68730236912E+03  0.68730236913E+03  0.25500000920E-02 0.  1.
    10030    2    1    2    0    0  0.00000000000E+00  0.00000000000E+00  0.54850919818E+03  0.19231139364E+04  0.18432321807E+04 0.  0.
        2    1    3    3  502    0 -0.16913635948E+02 -0.28978274755E+03 -0.63836258730E+03  0.70126093912E+03  0.25500000920E-02 0.  1.
       -2    1    3    3    0  502  0.16913635948E+02  0.28978274755E+03  0.11868717855E+04  0.12218529973E+04  0.25500000920E-02 0. -1.
</event>
<event>
 5   0  0.2562925E-04  0.1952874E+04  0.7818609E-02  0.8628976E-01
        2   -1    0    0  501    0  0.00000000000E+00  0.00000000000E+00  0.24872075699E+04  0.24872075699E+04  0.25500000920E-02 0. -1.
       -2   -1    0    0    0  501  0.00000000000E+00  0.00000000000E+00 -0.38333315132E+03  0.38333315133E+03  0.25500000920E-02 0.  1.
    10030    2    1    2    0    0  0.00000000000E+00  0.00000000000E+00  0.21038744186E+04  0.28705407213E+04  0.19528738984E+04 0.  0.
        4    1    3    3  502    0  0.50836057630E+02  0.90697697716E+03  0.15783112062E+04  0.18210599711E+04  0.12699999809E+01 0. -1.
       -4    1    3    3    0  502 -0.50836057630E+02 -0.90697697716E+03  0.52556321245E+03  0.10494807502E+04  0.12699999809E+01 0.  1.
</event>
<event>
 5   0  0.2541124E-04  0.1857290E+04  0.7818609E-02  0.8676413E-01
       -2   -1    0    0    0  501  0.00000000000E+00  0.00000000000E+00  0.37801594569E+03  0.37801594569E+03  0.25500000920E-02 0. -1.
        2   -1    0    0  501    0  0.00000000000E+00  0.00000000000E+00 -0.22813357867E+04  0.22813357867E+04  0.25500000920E-02 0.  1.
    10030    2    1    2    0    0  0.00000000000E+00  0.00000000000E+00 -0.19033198411E+04  0.26593517324E+04  0.18572897511E+04 0.  0.
        5    1    3    3  502    0 -0.30738216694E+03 -0.12165793861E+03 -0.21942136209E+04  0.22189817383E+04  0.46999998093E+01 0.  1.
       -5    1    3    3    0  502  0.30738216694E+03  0.12165793861E+03  0.29089377988E+03  0.44036999415E+03  0.46999998093E+01 0. -1.
</event>
<event>
 5   0  0.2595012E-04  0.1883693E+04  0.7818609E-02  0.8663016E-01
       -2   -1    0    0    0  501  0.00000000000E+00  0.00000000000E+00  0.10992285394E+04  0.10992285395E+04  0.25500000920E-02 0. -1.
        2   -1    0    0  501    0  0.00000000000E+00  0.00000000000E+00 -0.80699721242E+03  0.80699721243E+03  0.25500000920E-02 0.  1.
    10030    2    1    2    0    0  0.00000000000E+00  0.00000000000E+00  0.29223132703E+03  0.19062257519E+04  0.18836925090E+04 0.  0.
        1    1    3    3  502    0 -0.55273349299E+03 -0.63096756420E+03 -0.28730670952E+03  0.88666765291E+03  0.50400001928E-02 0.  1.
       -1    1    3    3    0  502  0.55273349299E+03  0.63096756420E+03  0.57953803655E+03  0.10195580990E+04  0.50400001928E-02 0. -1.
</event>
<event>
 5   0  0.2595012E-04  0.1879939E+04  0.7818609E-02  0.8664907E-01
        2   -1    0    0  501    0  0.00000000000E+00  0.00000000000E+00  0.15502108894E+04  0.15502108894E+04  0.25500000920E-02 0.  1.
       -2   -1    0    0    0  501  0.00000000000E+00  0.00000000000E+00 -0.56995015125E+03  0.56995015125E+03  0.25500000920E-02 0. -1.
    10030    2    1    2    0    0  0.00000000000E+00  0.00000000000E+00  0.98026073819E+03  0.21201610407E+04  0.18799392872E+04 0.  0.
        1    1    3    3  502    0  0.14391570251E+03 -0.16335061667E+03 -0.54112576721E+03  0.58327716341E+03  0.50400001928E-02 0. -1.
       -1    1    3    3    0  502 -0.14391570251E+03  0.16335061667E+03  0.15213865054E+04  0.15368838773E+04  0.50400001928E-02 0.  1.
</event>
<event>
 5   0  0.1317527E-04  0.1947051E+04  0.7818609E-02  0.8631784E-01
        1   -1    0    0  501    0  0.00000000000E+00  0.00000000000E+00  0.11792712431E+04  0.11792712431E+04  0.50400001928E-02 0. -1.
       -1   -1    0    0    0  501  0.00000000000E+00  0.00000000000E+00 -0.80367562131E+03  0.80367562132E+03  0.50400001928E-02 0.  1.
    10030    2    1    2    0    0  0.00000000000E+00  0.00000000000E+00  0.37559562181E+03  0.19829468644E+04  0.19470506404E+04 0.  0.
        1    1    3    3  502    0 -0.49804563371E+03  0.37632808230E+03  0.94861755638E+03  0.11355824704E+04  0.50400001928E-02 0. -1.
       -1    1    3    3    0  502  0.49804563371E+03 -0.37632808230E+03 -0.57302193456E+03  0.84736439405E+03  0.50400001928E-02 0.  1.
</event>
<event>
 5   0  0.1255141E-04  0.1834881E+04  0.7818609E-02  0.8687967E-01
        1   -1    0    0  501    0  0.00000000000E+00  0.00000000000E+00  0.13643982247E+04  0.13643982247E+04  0.50400001928E-02 0. -1.
       -1   -1    0    0    0  501  0.00000000000E+00  0.00000000000E+00 -0.61689975518E+03  0.61689975520E+03  0.50400001928E-02 0.  1.
    10030    2    1    2    0    0  0.00000000000E+00  0.00000000000E+00  0.74749846954E+03  0.19812979799E+04  0.18348808472E+04 0.  0.
        2    1    3    3  502    0 -0.29971549183E+03 -0.49256247397E+03  0.11443108079E+04  0.12813642697E+04  0.25500000920E-02 0. -1.
       -2    1    3    3    0  502  0.29971549183E+03  0.49256247397E+03 -0.39681233832E+03  0.69993371018E+03  0.25500000920E-02 0.  1.
</event>
<event>
 5   0  0.2595012E-04  0.1651089E+04  0.7818609E-02  0.8789762E-01
       -2   -1    0    0    0  501  0.00000000000E+00  0.00000000000E+00  0.64021342595E+03  0.64021342595E+03  0.25500000920E-02 0. -1.
        2   -1    0    0  501    0  0.00000000000E+00  0.00000000000E+00 -0.10645262742E+04  0.10645262742E+04  0.25500000920E-02 0.  1.
    10030    2    1    2    0    0  0.00000000000E+00  0.00000000000E+00 -0.42431284823E+03  0.17047397001E+04  0.16510893531E+04 0.  0.
        1    1    3    3  502    0 -0.67400449348E+03 -0.30026338198E+02 -0.70336791035E+03  0.97463329286E+03  0.50400001928E-02 0.  1.
       -1    1    3    3    0  502  0.67400449348E+03  0.30026338198E+02  0.27905506212E+03  0.73010640727E+03  0.50400001928E-02 0. -1.
</event>
<event>
 5   0  0.1324058E-04  0.1913576E+04  0.7818609E-02  0.8648128E-01
        1   -1    0    0  501    0  0.00000000000E+00  0.00000000000E+00  0.11146812734E+04  0.11146812734E+04  0.50400001928E-02 0. -1.
       -1   -1    0    0    0  501  0.00000000000E+00  0.00000000000E+00 -0.82125997924E+03  0.82125997926E+03  0.50400001928E-02 0.  1.
    10030    2    1    2    0    0  0.00000000000E+00  0.00000000000E+00  0.29342129415E+03  0.19359412527E+04  0.19135758354E+04 0.  0.
        5    1    3    3  502    0  0.25843025008E+03  0.18142273282E+03 -0.76701795240E+03  0.82948118209E+03  0.46999998093E+01 0.  1.
       -5    1    3    3    0  502 -0.25843025008E+03 -0.18142273282E+03  0.10604392466E+04  0.11064600706E+04  0.46999998093E+01 0. -1.
</event>
<event>
 5   0  0.2541124E-04  0.1898226E+04  0.7818609E-02  0.8655740E-01
        2   -1    0    0  501    0  0.00000000000E+00  0.00000000000E+00  0.80269139980E+03  0.80269139981E+03  0.25500000920E-02 0. -1.
       -2   -1    0    0    0  501  0.00000000000E+00  0.00000000000E+00 -0.11222437897E+04  0.11222437897E+04  0.25500000920E-02 0.  1.
    10030    2    1    2    0    0  0.00000000000E+00  0.00000000000E+00 -0.31955238990E+03  0.19249351895E+04  0.18982259491E+04 0.  0.
        5    1    3    3  502    0  0.65510134928E+03  0.24143474716E+03 -0.81174146659E+03  0.10706982832E+04  0.46999998093E+01 0.  1.
       -5    1    3    3    0  502 -0.65510134928E+03 -0.24143474716E+03  0.49218907669E+03  0.85423690636E+03  0.46999998093E+01 0. -1.
</event>
<event>
 5   0  0.1239615E-04  0.1946690E+04  0.7818609E-02  0.8631958E-01
       -1   -1    0    0    0  501  0.00000000000E+00  0.00000000000E+00  0.96332523149E+03  0.96332523150E+03  0.50400001928E-02 0.  1.
        1   -1    0    0  501    0  0.00000000000E+00  0.00000000000E+00 -0.98346927761E+03  0.98346927763E+03  0.50400001928E-02 0. -1.
    10030    2    1    2    0    0  0.00000000000E+00  0.00000000000E+00 -0.20144046124E+02  0.19467945091E+04  0.19466902882E+04 0.  0.
        3    1    3    3  502    0 -0.34312543384E+03 -0.65015503034E+02  0.89851317744E+03  0.96399586058E+03  0.10100000352E+00 0.  1.
       -3    1    3    3    0  502  0.34312543384E+03  0.65015503034E+02 -0.91865722356E+03  0.98279864855E+03  0.10100000352E+00 0. -1.
</event>
<event>
 5   0  0.2608744E-04  0.1902477E+04  0.7818609E-02  0.8653624E-01
       -2   -1    0    0    0  501  0.00000000000E+00  0.00000000000E+00  0.43574677122E+03  0.43574677123E+03  0.25500000920E-02 0.  1.
        2   -1    0    0  501    0  0.00000000000E+00  0.00000000000E+00 -0.20765610055E+04  0.20765610055E+04  0.25500000920E-02 0. -1.
    10030    2    1    2    0    0  0.00000000000E+00  0.00000000000E+00 -0.16408142343E+04  0.25123077767E+04  0.19024770731E+04 0.  0.
        2    1    3    3  502    0  0.96619573212E+01 -0.91967372595E+03 -0.11410622381E+04  0.14655770696E+04  0.25500000920E-02 0.  1.
       -2    1    3    3    0  502 -0.96619573212E+01  0.91967372595E+03 -0.49975199618E+03  0.10467307072E+04  0.25500000920E-02 0. -1.
</event>
<event>
 5   0  0.1277709E-04  0.1927012E+04  0.7818609E-02  0.8641527E-01
        1   -1    0    0  501    0  0.00000000000E+00  0.00000000000E+00  0.73614536784E+03  0.73614536786E+03  0.50400001928E-02 0. -1.
       -1   -1    0    0    0  501  0.00000000000E+00  0.00000000000E+00 -0.12610871775E+04  0.12610871775E+04  0.50400001928E-02 0.  1.
    10030    2    1    2    0    0  0.00000000000E+00  0.00000000000E+00 -0.52494180967E+03  0.19972325454E+04  0.19270116597E+04 0.  0.
        4    1    3    3  502    0  0.13614057251E+03  0.58752637207E+03 -0.10412648495E+04  0.12033102647E+04  0.12699999809E+01 0.  1.
       -4    1    3    3    0  502 -0.13614057251E+03 -0.58752637207E+03  0.51632303986E+03  0.79392228067E+03  0.12699999809E+01 0. -1.
</event>
<event>
 5   0  0.1324058E-04  0.1955975E+04  0.7818609E-02  0.8627485E-01
       -1   -1    0    0    0  501  0.00000000000E+00  0.00000000000E+00  0.69232065399E+03  0.69232065401E+03  0.50400001928E-02 0. -1.
        1   -1    0    0  501    0  0.00000000000E+00  0.00000000000E+00 -0.13815268850E+04  0.13815268850E+04  0.50400001928E-02 0.  1.
    10030    2    1    2    0    0  0.00000000000E+00  0.00000000000E+00 -0.68920623100E+03  0.20738475390E+04  0.19559750474E+04 0.  0.
        5    1    3    3  502    0  0.81654026650E+03  0.48504676891E+02  0.22374797159E+03  0.84804242540E+03  0.46999998093E+01 0. -1.
       -5    1    3    3    0  502 -0.81654026650E+03 -0.48504676891E+02 -0.91295420259E+03  0.12258051136E+04  0.46999998093E+01 0.  1.
</event>
<event>
 5   0  0.1317527E-04  0.2016916E+04  0.7818609E-02  0.8598752E-01
       -1   -1    0    0    0  501  0.00000000000E+00  0.00000000000E+00  0.93314475289E+03  0.93314475291E+03  0.50400001928E-02 0. -1.
        1   -1    0    0  501    0  0.00000000000E+00  0.00000000000E+00 -0.10898500820E+04  0.10898500820E+04  0.50400001928E-02 0.  1.
    10030    2    1    2    0    0  0.00000000000E+00  0.00000000000E+00 -0.15670532910E+03  0.20229948349E+04  0.20169163448E+04 0.  0.
        1    1    3    3  502    0 -0.75525530768E+03 -0.65493064553E+03 -0.21158051349E+03  0.10218175199E+04  0.50400001928E-02 0.  1.
       -1    1    3    3    0  502  0.75525530768E+03  0.65493064553E+03  0.54875184385E+02  0.10011773150E+04  0.50400001928E-02 0. -1.
</event>
<event>
 5   0  0.1255141E-04  0.1836394E+04  0.7818609E-02  0.8687181E-01
       -1   -1    0    0    0  501  0.00000000000E+00  0.00000000000E+00  0.44905297339E+03  0.44905297342E+03  0.50400001928E-02 0. -1.
        1   -1    0    0  501    0  0.00000000000E+00  0.00000000000E+00 -0.18774749608E+04  0.18774749608E+04  0.50400001928E-02 0.  1.
    10030    2    1    2    0    0  0.00000000000E+00  0.00000000000E+00 -0.14284219874E+04  0.23265279342E+04  0.18363939813E+04 0.  0.
        2    1    3    3  502    0 -0.74002377920E+03  0.87417795327E+02 -0.13938750938E+04  0.15805583956E+04  0.25500000920E-02 0.  1.
       -2    1    3    3    0  502  0.74002377920E+03 -0.87417795327E+02 -0.34546893616E+02  0.74596953865E+03  0.25500000920E-02 0. -1.
</event>
<event>
 5   0  0.2651828E-04  0.1403871E+04  0.7818609E-02  0.8951022E-01
        2   -1    0    0  501    0  0.00000000000E+00  0.00000000000E+00  0.73952796995E+03  0.73952796995E+03  0.25500000920E-02 0.  1.
       -2   -1    0    0    0  501  0.00000000000E+00  0.00000000000E+00 -0.66625362433E+03  0.66625362434E+03  0.25500000920E-02 0. -1.
    10030    2    1    2    0    0  0.00000000000E+00  0.00000000000E+00  0.73274345615E+02  0.14057815943E+04  0.14038706355E+04 0.  0.
        3    1    3    3  502    0  0.34659096575E+03 -0.91075408461E+02 -0.56775143102E+03  0.67138790962E+03  0.10100000352E+00 0. -1.
       -3    1    3    3    0  502 -0.34659096575E+03  0.91075408461E+02  0.64102577664E+03  0.73439368466E+03  0.10100000352E+00 0.  1.
</event>
<event>
 5   0  0.2595012E-04  0.1885145E+04  0.7818609E-02  0.8662286E-01
       -2   -1    0    0    0  501  0.00000000000E+00  0.00000000000E+00  0.10924673440E+04  0.10924673440E+04  0.25500000920E-02 0. -1.
        2   -1    0    0  501    0  0.00000000000E+00  0.00000000000E+00 -0.81324413598E+03  0.81324413598E+03  0.25500000920E-02 0.  1.
    10030    2    1    2    0    0  0.00000000000E+00  0.00000000000E+00  0.27922320805E+03  0.19057114800E+04  0.18851447279E+04 0.  0.
        1    1    3    3  502    0  0.81033718360E+03 -0.33173373689E+03  0.49234389686E+03  0.10045377724E+04  0.50400001928E-02 0. -1.
       -1    1    3    3    0  502 -0.81033718360E+03  0.33173373689E+03 -0.21312068880E+03  0.90117370764E+03  0.50400001928E-02 0.  1.
</event>
<event>
 5   0  0.1255141E-04  0.1757822E+04  0.7818609E-02  0.8729056E-01
       -1   -1    0    0    0  501  0.00000000000E+00  0.00000000000E+00  0.12666382857E+04  0.12666382857E+04  0.50400001928E-02 0. -1.
        1   -1    0    0  501    0  0.00000000000E+00  0.00000000000E+00 -0.60986994415E+03  0.60986994417E+03  0.50400001928E-02 0.  1.
    10030    2    1    2    0    0  0.00000000000E+00  0.00000000000E+00  0.65676834153E+03  0.18765082299E+04  0.17578220849E+04 0.  0.
        2    1    3    3  502    0  0.71191032136E+02  0.31639097521E+03  0.12004322250E+04  0.12434665010E+04  0.25500000920E-02 0. -1.
       -2    1    3    3    0  502 -0.71191032136E+02 -0.31639097521E+03 -0.54366388349E+03  0.63304172885E+03  0.25500000920E-02 0.  1.
</event>
<event>
 5   0  0.1277709E-04  0.1874154E+04  0.7818609E-02  0.8667830E-01
       -1   -1    0    0    0  501  0.00000000000E+00  0.00000000000E+00  0.66416256463E+03  0.66416256465E+03  0.50400001928E-02 0. -1.
        1   -1    0    0  501    0  0.00000000000E+00  0.00000000000E+00 -0.13221360996E+04  0.13221360996E+04  0.50400001928E-02 0.  1.
    10030    2    1    2    0    0  0.00000000000E+00  0.00000000000E+00 -0.65797353497E+03  0.19862986643E+04  0.18741539987E+04 0.  0.
        4    1    3    3  502    0  0.59983859048E+03 -0.71982676270E+02 -0.10881765893E+04  0.12446355863E+04  0.12699999809E+01 0.  1.
       -4    1    3    3    0  502 -0.59983859048E+03  0.71982676270E+02  0.43020305434E+03  0.74166307794E+03  0.12699999809E+01 0. -1.
</event>
<event>
 5   0  0.1239615E-04  0.1887152E+04  0.7818609E-02  0.8661278E-01
       -1   -1    0    0    0  501  0.00000000000E+00  0.00000000000E+00  0.65432072670E+03  0.65432072672E+03  0.50400001928E-02 0. -1.
        1   -1    0    0  501    0  0.00000000000E+00  0.00000000000E+00 -0.13607023721E+04  0.13607023721E+04  0.50400001928E-02 0.  1.
    10030    2    1    2    0    0  0.00000000000E+00  0.00000000000E+00 -0.70638164536E+03  0.20150230988E+04  0.18871521030E+04 0.  0.
        3    1    3    3  502    0 -0.60952713309E+03  0.32871023023E+03  0.33114340229E+03  0.76761299136E+03  0.10100000352E+00 0. -1.
       -3    1    3    3    0  502  0.60952713309E+03 -0.32871023023E+03 -0.10375250476E+04  0.12474101074E+04  0.10100000352E+00 0.  1.
</event>
<event>
 5   0  0.1277709E-04  0.1903097E+04  0.7818609E-02  0.8653317E-01
       -1   -1    0    0    0  501  0.00000000000E+00  0.00000000000E+00  0.47399131649E+03  0.47399131652E+03  0.50400001928E-02 0. -1.
        1   -1    0    0  501    0  0.00000000000E+00  0.00000000000E+00 -0.19102548335E+04  0.19102548335E+04  0.50400001928E-02 0.  1.
    10030    2    1    2    0    0  0.00000000000E+00  0.00000000000E+00 -0.14362635170E+04  0.23842461500E+04  0.19030966380E+04 0.  0.
        4    1    3    3  502    0  0.12371160794E+03  0.58323388577E+03 -0.16472312467E+04  0.17518101269E+04  0.12699999809E+01 0.  1.
       -4    1    3    3    0  502 -0.12371160794E+03 -0.58323388577E+03  0.21096772976E+03  0.63243602313E+03  0.12699999809E+01 0. -1.
</event>
<event>
 5   0  0.2608744E-04  0.1903966E+04  0.7818609E-02  0.8652885E-01
        2   -1    0    0  501    0  0.00000000000E+00  0.00000000000E+00  0.12080724947E+04  0.12080724947E+04  0.25500000920E-02 0.  1.
       -2   -1    0    0    0  501  0.00000000000E+00  0.00000000000E+00 -0.75018019021E+03  0.75018019022E+03  0.25500000920E-02 0. -1.
    10030    2    1    2    0    0  0.00000000000E+00  0.00000000000E+00  0.45789230444E+03  0.19582526849E+04  0.19039664428E+04 0.  0.
        2    1    3    3  502    0 -0.88770930723E+03 -0.72220363609E+01  0.58253913056E+03  0.10618059195E+04  0.25500000920E-02 0.  1.
       -2    1    3    3    0  502  0.88770930723E+03  0.72220363609E+01 -0.12464682612E+03  0.89644676542E+03  0.25500000920E-02 0. -1.
</event>
<event>
 5   0  0.2595012E-04  0.1881442E+04  0.7818609E-02  0.8664149E-01
       -2   -1    0    0    0  501  0.00000000000E+00  0.00000000000E+00  0.37343514307E+03  0.37343514308E+03  0.25500000920E-02 0.  1.
        2   -1    0    0  501    0  0.00000000000E+00  0.00000000000E+00 -0.23697718218E+04  0.23697718218E+04  0.25500000920E-02 0. -1.
    10030    2    1    2    0    0  0.00000000000E+00  0.00000000000E+00 -0.19963366787E+04  0.27432069648E+04  0.18814420845E+04 0.  0.
        1    1    3    3  502    0  0.14755814011E+03  0.28307572734E+02  0.35582771869E+03  0.38624873955E+03  0.50400001928E-02 0.  1.
       -1    1    3    3    0  502 -0.14755814011E+03 -0.28307572734E+02 -0.23521643974E+04  0.23569582253E+04  0.50400001928E-02 0. -1.
</event>
<event>
 5   0  0.1317527E-04  0.1774891E+04  0.7818609E-02  0.8719768E-01
       -1   -1    0    0    0  501  0.00000000000E+00  0.00000000000E+00  0.11280443375E+04  0.11280443375E+04  0.50400001928E-02 0. -1.
        1   -1    0    0  501    0  0.00000000000E+00  0.00000000000E+00 -0.69816327584E+03  0.69816327586E+03  0.50400001928E-02 0.  1.
    10030    2    1    2    0    0  0.00000000000E+00  0.00000000000E+00  0.42988106166E+03  0.18262076134E+04  0.17748905656E+04 0.  0.
        1    1    3    3  502    0  0.29845916177E+03  0.79458437689E+03  0.48150029720E+03  0.97585077726E+03  0.50400001928E-02 0.  1.
       -1    1    3    3    0  502 -0.29845916177E+03 -0.79458437689E+03 -0.51619235538E+02  0.85035683612E+03  0.50400001928E-02 0. -1.
</event>
<event>
 5   0  0.2608744E-04  0.1780005E+04  0.7818609E-02  0.8717006E-01
       -2   -1    0    0    0  501  0.00000000000E+00  0.00000000000E+00  0.71042582262E+03  0.71042582262E+03  0.25500000920E-02 0. -1.
        2   -1    0    0  501    0  0.00000000000E+00  0.00000000000E+00 -0.11149710780E+04  0.11149710780E+04  0.25500000920E-02 0.  1.
    10030    2    1    2    0    0  0.00000000000E+00  0.00000000000E+00 -0.40454525538E+03  0.18253969006E+04  0.17800047700E+04 0.  0.
        2    1    3    3  502    0  0.23468390861E+03  0.84833878419E+03 -0.67198067827E+02  0.88276316758E+03  0.25500000920E-02 0. -1.
       -2    1    3    3    0  502 -0.23468390861E+03 -0.84833878419E+03 -0.33734718755E+03  0.94263373304E+03  0.25500000920E-02 0.  1.
</event>
<event>
 5   0  0.1239615E-04  0.1699112E+04  0.7818609E-02  0.8761871E-01
        1   -1    0    0  501    0  0.00000000000E+00  0.00000000000E+00  0.19315006261E+04  0.19315006261E+04  0.50400001928E-02 0. -1.
       -1   -1    0    0    0  501  0.00000000000E+00  0.00000000000E+00 -0.37367066313E+03  0.37367066316E+03  0.50400001928E-02 0.  1.
    10030    2    1    2    0    0  0.00000000000E+00  0.00000000000E+00  0.15578299630E+04  0.23051712893E+04  0.16991116736E+04 0.  0.
        3    1    3    3  502    0  0.50672218853E+03  0.27464565489E+03  0.16256772301E+04  0.17248258112E+04  0.10100000352E+00 0. -1.
       -3    1    3    3    0  502 -0.50672218853E+03 -0.27464565489E+03 -0.67847267162E+02  0.58034547810E+03  0.10100000352E+00 0.  1.
</event>
<event>
 5   0  0.2595012E-04  0.1899237E+04  0.7818609E-02  0.8655236E-01
       -2   -1    0    0    0  501  0.00000000000E+00  0.00000000000E+00  0.41845760346E+03  0.41845760347E+03  0.25500000920E-02 0. -1.
        2   -1    0    0  501    0  0.00000000000E+00  0.00000000000E+00 -0.21549971240E+04  0.21549971240E+04  0.25500000920E-02 0.  1.
    10030    2    1    2    0    0  0.00000000000E+00  0.00000000000E+00 -0.17365395205E+04  0.25734547275E+04  0.18992366172E+04 0.  0.
        1    1    3    3  502    0  0.27543893982E+03 -0.72059307192E+03 -0.11792347439E+03  0.78040177518E+03  0.50400001928E-02 0. -1.
       -1    1    3    3    0  502 -0.27543893982E+03  0.72059307192E+03 -0.16186160462E+04  0.17930529523E+04  0.50400001928E-02 0.  1.
</event>
<event>
 5   0  0.1239615E-04  0.1938873E+04  0.7818609E-02  0.8635745E-01
        1   -1    0    0  501    0  0.00000000000E+00  0.00000000000E+00  0.11847787106E+04  0.11847787106E+04  0.50400001928E-02 0.  1.
       -1   -1    0    0    0  501  0.00000000000E+00  0.00000000000E+00 -0.79323405658E+03  0.79323405659E+03  0.50400001928E-02 0. -1.
    10030    2    1    2    0    0  0.00000000000E+00  0.00000000000E+00  0.39154465398E+03  0.19780127672E+04  0.19388726856E+04 0.  0.
        3    1    3    3  502    0  0.37110555286E+03  0.79568238536E+02 -0.71428732836E+03  0.80886144278E+03  0.10100000352E+00 0. -1.
       -3    1    3    3    0  502 -0.37110555286E+03 -0.79568238536E+02  0.11058319823E+04  0.11691513244E+04  0.10100000352E+00 0.  1.
</event>
<event>
 5   0  0.2541124E-04  0.1860562E+04  0.7818609E-02  0.8674740E-01
        2   -1    0    0  501    0  0.00000000000E+00  0.00000000000E+00  0.15999776665E+04  0.15999776665E+04  0.25500000920E-02 0.  1.
       -2   -1    0    0    0  501  0.00000000000E+00  0.00000000000E+00 -0.54089658113E+03  0.54089658114E+03  0.25500000920E-02 0. -1.
    10030    2    1    2    0    0  0.00000000000E+00  0.00000000000E+00  0.10590810853E+04  0.21408742476E+04  0.18605616890E+04 0.  0.
        5    1    3    3  502    0  0.69162854946E+03  0.61041421807E+03  0.66783434733E+03  0.11388504614E+04  0.46999998093E+01 0. -1.
       -5    1    3    3    0  502 -0.69162854946E+03 -0.61041421807E+03  0.39124673800E+03  0.10020237862E+04  0.46999998093E+01 0.  1.
</event>
<event>
 5   0  0.2595012E-04  0.1913264E+04  0.7818609E-02  0.8648282E-01
        2   -1    0    0  501    0  0.00000000000E+00  0.00000000000E+00  0.10359172622E+04  0.10359172622E+04  0.25500000920E-02 0. -1.
       -2   -1    0    0    0  501  0.00000000000E+00  0.00000000000E+00 -0.88341504376E+03  0.88341504377E+03  0.25500000920E-02 0.  1.
    10030    2    1    2    0    0  0.00000000000E+00  0.00000000000E+00  0.15250221843E+03  0.19193323060E+04  0.19132641151E+04 0.  0.
        1    1    3    3  502    0  0.87884509087E+03  0.60508889396E+02  0.45041513595E+03  0.98939568130E+03  0.50400001928E-02 0. -1.
       -1    1    3    3    0  502 -0.87884509087E+03 -0.60508889396E+02 -0.29791291752E+03  0.92993662467E+03  0.50400001928E-02 0.  1.
</event>
<event>
 5   0  0.1255141E-04  0.1506705E+04  0.7818609E-02  0.8880006E-01
        1   -1    0    0  501    0  0.00000000000E+00  0.00000000000E+00  0.79389514535E+03  0.79389514536E+03  0.50400001928E-02 0.  1.
       -1   -1    0    0    0  501  0.00000000000E+00  0.00000000000E+00 -0.71488061072E+03  0.71488061074E+03  0.50400001928E-02 0. -1.
    10030    2    1    2    0    0  0.00000000000E+00  0.00000000000E+00  0.79014534624E+02  0.15087757561E+04  0.15067053413E+04 0.  0.
        2    1    3    3  502    0  0.51016835168E+03 -0.41765349639E+03 -0.32545762228E+03  0.73527467930E+03  0.25500000920E-02 0. -1.
       -2    1    3    3    0  502 -0.51016835168E+03  0.41765349639E+03  0.40447215690E+03  0.77350107681E+03  0.25500000920E-02 0.  1.
</event>
<event>
 5   0  0.2608744E-04  0.1900554E+04  0.7818609E-02  0.8654581E-01
       -2   -1    0    0    0  501  0.00000000000E+00  0.00000000000E+00  0.11796582689E+04  0.11796582689E+04  0.25500000920E-02 0.  1.
        2   -1    0    0  501    0  0.00000000000E+00  0.00000000000E+00 -0.76549836372E+03  0.76549836373E+03  0.25500000920E-02 0. -1.
    10030    2    1    2    0    0  0.00000000000E+00  0.00000000000E+00  0.41415990516E+03  0.19451566326E+04  0.19005541030E+04 0.  0.
        2    1    3    3  502    0 -0.10654281224E+03 -0.83801617693E+03 -0.23833921725E+03  0.87774031815E+03  0.25500000920E-02 0. -1.
       -2    1    3    3    0  502  0.10654281224E+03  0.83801617693E+03  0.65249912241E+03  0.10674163145E+04  0.25500000920E-02 0.  1.
</event>
<event>
 5   0  0.2595012E-04  0.1893351E+04  0.7818609E-02  0.8658173E-01
       -2   -1    0    0    0  501  0.00000000000E+00  0.00000000000E+00  0.63948974770E+03  0.63948974771E+03  0.25500000920E-02 0.  1.
        2   -1    0    0  501    0  0.00000000000E+00  0.00000000000E+00 -0.14014205654E+04  0.14014205654E+04  0.25500000920E-02 0. -1.
    10030    2    1    2    0    0  0.00000000000E+00  0.00000000000E+00 -0.76193081773E+03  0.20409103131E+04  0.18933505579E+04 0.  0.
        1    1    3    3  502    0 -0.41153583634E+03  0.73031277724E+03 -0.85510473086E+03  0.11974650717E+04  0.50400001928E-02 0.  1.
       -1    1    3    3    0  502  0.41153583634E+03 -0.73031277724E+03  0.93173913130E+02  0.84344524144E+03  0.50400001928E-02 0. -1.
</event>
<event>
 5   0  0.1255141E-04  0.1908064E+04  0.7818609E-02  0.8650853E-01
       -1   -1    0    0    0  501  0.00000000000E+00  0.00000000000E+00  0.56875755475E+03  0.56875755477E+03  0.50400001928E-02 0. -1.
        1   -1    0    0  501    0  0.00000000000E+00  0.00000000000E+00 -0.16002900242E+04  0.16002900242E+04  0.50400001928E-02 0.  1.
    10030    2    1    2    0    0  0.00000000000E+00  0.00000000000E+00 -0.10315324694E+04  0.21690475790E+04  0.19080639833E+04 0.  0.
        2    1    3    3  502    0 -0.51483358056E+03 -0.73235832113E+02 -0.14250190727E+04  0.15169365380E+04  0.25500000920E-02 0.  1.
       -2    1    3    3    0  502  0.51483358056E+03  0.73235832113E+02  0.39348660326E+03  0.65211104095E+03  0.25500000920E-02 0. -1.
</event>
<event>
 5   0  0.1277709E-04  0.1881654E+04  0.7818609E-02  0.8664042E-01
       -1   -1    0    0    0  501  0.00000000000E+00  0.00000000000E+00  0.68733831194E+03  0.68733831196E+03  0.50400001928E-02 0.  1.
        1   -1    0    0  501    0  0.00000000000E+00  0.00000000000E+00 -0.12878022229E+04  0.12878022229E+04  0.50400001928E-02 0. -1.
    10030    2    1    2    0    0  0.00000000000E+00  0.00000000000E+00 -0.60046391095E+03  0.19751405349E+04  0.18816543849E+04 0.  0.
        4    1    3    3  502    0 -0.13924047976E+01  0.14945888140E+03 -0.12752593357E+04  0.12839890506E+04  0.12699999809E+01 0. -1.
       -4    1    3    3    0  502  0.13924047976E+01 -0.14945888140E+03  0.67479542472E+03  0.69115148423E+03  0.12699999809E+01 0.  1.
</event>
<event>
 5   0  0.2541124E-04  0.1873191E+04  0.7818609E-02  0.8668317E-01
       -2   -1    0    0    0  501  0.00000000000E+00  0.00000000000E+00  0.60258004895E+03  0.60258004895E+03  0.25500000920E-02 0. -1.
        2   -1    0    0  501    0  0.00000000000E+00  0.00000000000E+00 -0.14557583502E+04  0.14557583502E+04  0.25500000920E-02 0.  1.
    10030    2    1    2    0    0  0.00000000000E+00  0.00000000000E+00 -0.85317830130E+03  0.20583383992E+04  0.18731907943E+04 0.  0.
        5    1    3    3  502    0 -0.34390351373E+03 -0.56324363550E+03 -0.11568643927E+04  0.13318672354E+04  0.46999998093E+01 0.  1.
       -5    1    3    3    0  502  0.34390351373E+03  0.56324363550E+03  0.30368609141E+03  0.72647116378E+03  0.46999998093E+01 0. -1.
</event>
<event>
 5   0  0.1324058E-04  0.1825986E+04  0.7818609E-02  0.8692601E-01
        1   -1    0    0  501    0  0.00000000000E+00  0.00000000000E+00  0.10249018601E+04  0.10249018601E+04  0.50400001928E-02 0. -1.
       -1   -1    0    0    0  501  0.00000000000E+00  0.00000000000E+00 -0.81330344782E+03  0.81330344784E+03  0.50400001928E-02 0.  1.
    10030    2    1    2    0    0  0.00000000000E+00  0.00000000000E+00  0.21159841227E+03  0.18382053080E+04  0.18259859983E+04 0.  0.
        5    1    3    3  502    0  0.31100644400E+03  0.61956976120E+03 -0.49226596017E+03  0.85025852700E+03  0.46999998093E+01 0.  1.
       -5    1    3    3    0  502 -0.31100644400E+03 -0.61956976120E+03  0.70386437244E+03  0.98794678095E+03  0.46999998093E+01 0. -1.
</event>
<event>
 5   0  0.1239615E-04  0.1874551E+04  0.7818609E-02  0.8667629E-01
        1   -1    0    0  501    0  0.00000000000E+00  0.00000000000E+00  0.19514064834E+04  0.19514064834E+04  0.50400001928E-02 0. -1.
       -1   -1    0    0    0  501  0.00000000000E+00  0.00000000000E+00 -0.45018060658E+03  0.45018060661E+03  0.50400001928E-02 0.  1.
    10030    2    1    2    0    0  0.00000000000E+00  0.00000000000E+00  0.15012258768E+04  0.24015870900E+04  0.18745509909E+04 0.  0.
        3    1    3    3  502    0 -0.30955510083E+03  0.32708085102E+01  0.18840174991E+04  0.19092818036E+04  0.10100000352E+00 0. -1.
       -3    1    3    3    0  502  0.30955510083E+03 -0.32708085102E+01 -0.38279162231E+03  0.49230528633E+03  0.10100000352E+00 0.  1.
</event>
<event>
 5   0  0.2651828E-04  0.2144592E+04  0.7818609E-02  0.8541851E-01
       -2   -1    0    0    0  501  0.00000000000E+00  0.00000000000E+00  0.86587424952E+03  0.86587424952E+03  0.25500000920E-02 0.  1.
        2   -1    0    0  501    0  0.00000000000E+00  0.00000000000E+00 -0.13279285042E+04  0.13279285042E+04  0.25500000920E-02 0. -1.
    10030    2    1    2    0    0  0.00000000000E+00  0.00000000000E+00 -0.46205425467E+03  0.21938027537E+04  0.21445923594E+04 0.  0.
        3    1    3    3  502    0  0.78113840083E+03 -0.48623600275E+03  0.33225917661E+03  0.97826316616E+03  0.10100000352E+00 0.  1.
       -3    1    3    3    0  502 -0.78113840083E+03  0.48623600275E+03 -0.79431343128E+03  0.12155395876E+04  0.10100000352E+00 0. -1.
</event>
<event>
 5   0  0.2541124E-04  0.1899110E+04  0.7818609E-02  0.8655300E-01
       -2   -1    0    0    0  501  0.00000000000E+00  0.00000000000E+00  0.61130692310E+03  0.61130692310E+03  0.25500000920E-02 0.  1.
        2   -1    0    0  501    0  0.00000000000E+00  0.00000000000E+00 -0.14749623117E+04  0.14749623117E+04  0.25500000920E-02 0. -1.
    10030    2    1    2    0    0  0.00000000000E+00  0.00000000000E+00 -0.86365538862E+03  0.20862692348E+04  0.18991099731E+04 0.  0.
        5    1    3    3  502    0  0.99184830065E+01  0.28995337124E+03 -0.14250668372E+04  0.14543070220E+04  0.46999998093E+01 0. -1.
       -5    1    3    3    0  502 -0.99184830065E+01 -0.28995337124E+03  0.56141144859E+03  0.63196221280E+03  0.46999998093E+01 0.  1.
</event>
<event>
 5   0  0.1324058E-04  0.1868128E+04  0.7818609E-02  0.8670886E-01
       -1   -1    0    0    0  501  0.00000000000E+00  0.00000000000E+00  0.36172639377E+03  0.36172639381E+03  0.50400001928E-02 0. -1.
        1   -1    0    0  501    0  0.00000000000E+00  0.00000000000E+00 -0.24119775819E+04  0.24119775819E+04  0.50400001928E-02 0.  1.
    10030    2    1    2    0    0  0.00000000000E+00  0.00000000000E+00 -0.20502511881E+04  0.27737039757E+04  0.18681284245E+04 0.  0.
        5    1    3    3  502    0  0.16627819183E+03 -0.39496832298E+03 -0.22573836546E+04  0.22977056964E+04  0.46999998093E+01 0.  1.
       -5    1    3    3    0  502 -0.16627819183E+03  0.39496832298E+03  0.20713246647E+03  0.47599827931E+03  0.46999998093E+01 0. -1.
</event>
<event>
 5   0  0.1255141E-04  0.1923995E+04  0.7818609E-02  0.8643004E-01
        1   -1    0    0  501    0  0.00000000000E+00  0.00000000000E+00  0.11979995030E+04  0.11979995030E+04  0.50400001928E-02 0.  1.
       -1   -1    0    0    0  501  0.00000000000E+00  0.00000000000E+00 -0.77248730863E+03  0.77248730865E+03  0.50400001928E-02 0. -1.
    10030    2    1    2    0    0  0.00000000000E+00  0.00000000000E+00  0.42551219432E+03  0.19704868116E+04  0.19239952306E+04 0.  0.
        2    1    3    3  502    0  0.71391709437E+03 -0.34522072169E+03 -0.34499923146E+03  0.86480022782E+03  0.25500000920E-02 0. -1.
       -2    1    3    3    0  502 -0.71391709437E+03  0.34522072169E+03  0.77051142579E+03  0.11056865838E+04  0.25500000920E-02 0.  1.
</event>
<event>
 5   0  0.2562925E-04  0.1916531E+04  0.7818609E-02  0.8646671E-01
       -2   -1    0    0    0  501  0.00000000000E+00  0.00000000000E+00  0.83445690921E+03  0.83445690921E+03  0.25500000920E-02 0. -1.
        2   -1    0    0  501    0  0.00000000000E+00  0.00000000000E+00 -0.11004433146E+04  0.11004433146E+04  0.25500000920E-02 0.  1.
    10030    2    1    2    0    0  0.00000000000E+00  0.00000000000E+00 -0.26598640541E+03  0.19349002238E+04  0.19165307481E+04 0.  0.
        4    1    3    3  502    0  0.48618472968E+03  0.14347707460E+03 -0.95399709150E+03  0.10803116799E+04  0.12699999809E+01 0.  1.
       -4    1    3    3    0  502 -0.48618472968E+03 -0.14347707460E+03  0.68801068608E+03  0.85458854391E+03  0.12699999809E+01 0. -1.
</event>
<event>
 5   0  0.2541124E-04  0.1886149E+04  0.7818609E-02  0.8661782E-01
       -2   -1    0    0    0  501  0.00000000000E+00  0.00000000000E+00  0.58695007705E+03  0.58695007705E+03  0.25500000920E-02 0. -1.
        2   -1    0    0  501    0  0.00000000000E+00  0.00000000000E+00 -0.15152723098E+04  0.15152723098E+04  0.25500000920E-02 0.  1.
    10030    2    1    2    0    0  0.00000000000E+00  0.00000000000E+00 -0.92832223277E+03  0.21022223869E+04  0.18861486675E+04 0.  0.
        5    1    3    3  502    0 -0.93284288153E+03  0.63131166812E+01 -0.30999950292E+03  0.98303483096E+03  0.46999998093E+01 0.  1.
       -5    1    3    3    0  502  0.93284288153E+03 -0.63131166812E+01 -0.61832272985E+03  0.11191875559E+04  0.46999998093E+01 0. -1.
</event>
<event>
 5   0  0.1317527E-04  0.1891730E+04  0.7818609E-02  0.8658984E-01
       -1   -1    0    0    0  501  0.00000000000E+00  0.00000000000E+00  0.60128963795E+03  0.60128963797E+03  0.50400001928E-02 0. -1.
        1   -1    0    0  501    0  0.00000000000E+00  0.00000000000E+00 -0.14879035030E+04  0.14879035030E+04  0.50400001928E-02 0.  1.
    10030    2    1    2    0    0  0.00000000000E+00  0.00000000000E+00 -0.88661386504E+03  0.20891931410E+04  0.18917303811E+04 0.  0.
        1    1    3    3  502    0 -0.74590442264E+03  0.22651735302E+03  0.14831359047E+03  0.79352406395E+03  0.50400001928E-02 0. -1.
       -1    1    3    3    0  502  0.74590442264E+03 -0.22651735302E+03 -0.10349274555E+04  0.12956690770E+04  0.50400001928E-02 0.  1.
</event>
<event>
 5   0  0.2608744E-04  0.1896229E+04  0.7818609E-02  0.8656736E-01
       -2   -1    0    0    0  501  0.00000000000E+00  0.00000000000E+00  0.68734114968E+03  0.68734114968E+03  0.25500000920E-02 0.  1.
        2   -1    0    0  501    0  0.00000000000E+00  0.00000000000E+00 -0.13078235347E+04  0.13078235347E+04  0.25500000920E-02 0. -1.
    10030    2    1    2    0    0  0.00000000000E+00  0.00000000000E+00 -0.62048238503E+03  0.19951646844E+04  0.18962288173E+04 0.  0.
        2    1    3    3  502    0 -0.85067309317E+02 -0.45053775542E+03  0.56293747323E+03  0.72602983061E+03  0.25500000920E-02 0.  1.
       -2    1    3    3    0  502  0.85067309317E+02  0.45053775542E+03 -0.11834198583E+04  0.12691348538E+04  0.25500000920E-02 0. -1.
</event>
<event>
 5   0  0.1255141E-04  0.2150077E+04  0.7818609E-02  0.8539499E-01
        1   -1    0    0  501    0  0.00000000000E+00  0.00000000000E+00  0.87663107785E+03  0.87663107787E+03  0.50400001928E-02 0.  1.
       -1   -1    0    0    0  501  0.00000000000E+00  0.00000000000E+00 -0.13183516411E+04  0.13183516412E+04  0.50400001928E-02 0. -1.
    10030    2    1    2    0    0  0.00000000000E+00  0.00000000000E+00 -0.44172056329E+03  0.21949827190E+04  0.21500772267E+04 0.  0.
        2    1    3    3  502    0 -0.32117706538E+03  0.96528616403E+03  0.13392635163E+03  0.10260937352E+04  0.25500000920E-02 0. -1.
       -2    1    3    3    0  502  0.32117706538E+03 -0.96528616403E+03 -0.57564691493E+03  0.11688889838E+04  0.25500000920E-02 0.  1.
</event>
<event>
 5   0  0.2595012E-04  0.1949121E+04  0.7818609E-02  0.8630785E-01
        2   -1    0    0  501    0  0.00000000000E+00  0.00000000000E+00  0.71874607166E+03  0.71874607166E+03  0.25500000920E-02 0. -1.
       -2   -1    0    0    0  501  0.00000000000E+00  0.00000000000E+00 -0.13214233709E+04  0.13214233709E+04  0.25500000920E-02 0.  1.
    10030    2    1    2    0    0  0.00000000000E+00  0.00000000000E+00 -0.60267729928E+03  0.20401694426E+04  0.19491206806E+04 0.  0.
        1    1    3    3  502    0 -0.74203738900E+03 -0.57249897792E+03 -0.21662000043E+02  0.93746669736E+03  0.50400001928E-02 0. -1.
       -1    1    3    3    0  502  0.74203738900E+03  0.57249897792E+03 -0.58101529924E+03  0.11027027452E+04  0.50400001928E-02 0.  1.
</event>
<event>
 5   0  0.1239615E-04  0.1898800E+04  0.7818609E-02  0.8655454E-01
        1   -1    0    0  501    0  0.00000000000E+00  0.00000000000E+00  0.22939876307E+04  0.22939876307E+04  0.50400001928E-02 0.  1.
       -1   -1    0    0    0  501  0.00000000000E+00  0.00000000000E+00 -0.39292306251E+03  0.39292306255E+03  0.50400001928E-02 0. -1.
    10030    2    1    2    0    0  0.00000000000E+00  0.00000000000E+00  0.19010645682E+04  0.26869106933E+04  0.18988003005E+04 0.  0.
        3    1    3    3  502    0  0.40222860661E+03  0.62198291401E+03  0.11013846488E+03  0.74885318250E+03  0.10100000352E+00 0. -1.
       -3    1    3    3    0  502 -0.40222860661E+03 -0.62198291401E+03  0.17909261033E+04  0.19380575108E+04  0.10100000352E+00 0.  1.
</event>
<event>
 5   0  0.1239615E-04  0.1890325E+04  0.7818609E-02  0.8659687E-01
        1   -1    0    0  501    0  0.00000000000E+00  0.00000000000E+00  0.63870319156E+03  0.63870319158E+03  0.50400001928E-02 0. -1.
       -1   -1    0    0    0  501  0.00000000000E+00  0.00000000000E+00 -0.13986651001E+04  0.13986651001E+04  0.50400001928E-02 0.  1.
    10030    2    1    2    0    0  0.00000000000E+00  0.00000000000E+00 -0.75996190855E+03  0.20373682917E+04  0.18903246953E+04 0.  0.
        3    1    3    3  502    0 -0.54545605725E+03  0.16323662462E+03  0.43313334237E+03  0.71538312007E+03  0.10100000352E+00 0. -1.
       -3    1    3    3    0  502  0.54545605725E+03 -0.16323662462E+03 -0.11930952509E+04  0.13219851716E+04  0.10100000352E+00 0.  1.
</event>
<event>
 5   0  0.2562925E-04  0.1855374E+04  0.7818609E-02  0.8677394E-01
        2   -1    0    0  501    0  0.00000000000E+00  0.00000000000E+00  0.24294643993E+04  0.24294643993E+04  0.25500000920E-02 0.  1.
       -2   -1    0    0    0  501  0.00000000000E+00  0.00000000000E+00 -0.35423559119E+03  0.35423559120E+03  0.25500000920E-02 0. -1.
    10030    2    1    2    0    0  0.00000000000E+00  0.00000000000E+00  0.20752288081E+04  0.27836999905E+04  0.18553735557E+04 0.  0.
        4    1    3    3  502    0 -0.42258355446E+03  0.49897159932E+03  0.20249411528E+04  0.21278951578E+04  0.12699999809E+01 0.  1.
       -4    1    3    3    0  502  0.42258355446E+03 -0.49897159932E+03  0.50287655327E+02  0.65580483271E+03  0.12699999809E+01 0. -1.
</event>
<event>
 5   0  0.2595012E-04  0.1869680E+04  0.7818609E-02  0.8670097E-01
        2   -1    0    0  501    0  0.00000000000E+00  0.00000000000E+00  0.17186219335E+04  0.17186219335E+04  0.25500000920E-02 0. -1.
       -2   -1    0    0    0  501  0.00000000000E+00  0.00000000000E+00 -0.50850396847E+03  0.50850396847E+03  0.25500000920E-02 0.  1.
    10030    2    1    2    0    0  0.00000000000E+00  0.00000000000E+00  0.12101179650E+04  0.22271259020E+04  0.18696802652E+04 0.  0.
        1    1    3    3  502    0 -0.97670651647E+02 -0.86235057964E+03  0.19115519092E+03  0.88866663347E+03  0.50400001928E-02 0.  1.
       -1    1    3    3    0  502  0.97670651647E+02  0.86235057964E+03  0.10189627741E+04  0.13384592685E+04  0.50400001928E-02 0. -1.
</event>
<event>
 5   0  0.9266125E-05  0.1938818E+04  0.7818609E-02  0.8635772E-01
        4   -1    0    0  501    0  0.00000000000E+00  0.00000000000E+00  0.14949205004E+04  0.14949210399E+04  0.12699999809E+01 0.  1.
       -4   -1    0    0    0  501  0.00000000000E+00  0.00000000000E+00 -0.62863027706E+03  0.62863155992E+03  0.12699999809E+01 0. -1.
    10030    2    1    2    0    0  0.00000000000E+00  0.00000000000E+00  0.86629022335E+03  0.21235525998E+04  0.19388184270E+04 0.  0.
        5    1    3    3  502    0  0.82756465963E+01 -0.51979323965E+03 -0.46303281964E+03  0.69618602426E+03  0.46999998093E+01 0. -1.
       -5    1    3    3    0  502 -0.82756465963E+01  0.51979323965E+03  0.13293230430E+04  0.14273665755E+04  0.46999998093E+01 0.  1.
</event>
<event>
 5   0  0.1277709E-04  0.1865171E+04  0.7818609E-02  0.8672390E-01
       -1   -1    0    0    0  501  0.00000000000E+00  0.00000000000E+00  0.22032219726E+04  0.22032219726E+04  0.50400001928E-02 0. -1.
        1   -1    0    0  501    0  0.00000000000E+00  0.00000000000E+00 -0.39474738010E+03  0.39474738013E+03  0.50400001928E-02 0.  1.
    10030    2    1    2    0    0  0.00000000000E+00  0.00000000000E+00  0.18084745925E+04  0.25979693527E+04  0.18651714146E+04 0.  0.
        4    1    3    3  502    0 -0.83875701611E+03  0.85109899560E+02  0.34890141874E+03  0.91240935987E+03  0.12699999809E+01 0.  1.
       -4    1    3    3    0  502  0.83875701611E+03 -0.85109899560E+02  0.14595731737E+04  0.16855599928E+04  0.12699999809E+01 0. -1.
</event>
<event>
 5   0  0.1324058E-04  0.1909526E+04  0.7818609E-02  0.8650129E-01
       -1   -1    0    0    0  501  0.00000000000E+00  0.00000000000E+00  0.55585762126E+03  0.55585762128E+03  0.50400001928E-02 0. -1.
        1   -1    0    0  501    0  0.00000000000E+00  0.00000000000E+00 -0.16399383663E+04  0.16399383663E+04  0.50400001928E-02 0.  1.
    10030    2    1    2    0    0  0.00000000000E+00  0.00000000000E+00 -0.10840807450E+04  0.21957959876E+04  0.19095258462E+04 0.  0.
        5    1    3    3  502    0  0.80341918966E+02  0.36792120715E+01 -0.16360228334E+04  0.16380052387E+04  0.46999998093E+01 0.  1.
       -5    1    3    3    0  502 -0.80341918966E+02 -0.36792120715E+01  0.55194208841E+03  0.55779074885E+03  0.46999998093E+01 0. -1.
</event>
<event>
 5   0  0.2608744E-04  0.1868676E+04  0.7818609E-02  0.8670608E-01
        2   -1    0    0  501    0  0.00000000000E+00  0.00000000000E+00  0.17185667778E+04  0.17185667778E+04  0.25500000920E-02 0.  1.
       -2   -1    0    0    0  501  0.00000000000E+00  0.00000000000E+00 -0.50797395728E+03  0.50797395729E+03  0.25500000920E-02 0. -1.
    10030    2    1    2    0    0  0.00000000000E+00  0.00000000000E+00  0.12105928205E+04  0.22265407351E+04  0.18686756455E+04 0.  0.
        2    1    3    3  502    0  0.88786420838E+03 -0.17811318649E+03  0.33109433488E+03  0.96418391312E+03  0.25500000920E-02 0. -1.
       -2    1    3    3    0  502 -0.88786420838E+03  0.17811318649E+03  0.87949848565E+03  0.12623568220E+04  0.25500000920E-02 0.  1.
</event>
<event>
 5   0  0.1277709E-04  0.1914933E+04  0.7818609E-02  0.8647459E-01
        1   -1    0    0  501    0  0.00000000000E+00  0.00000000000E+00  0.10060189965E+04  0.10060189965E+04  0.50400001928E-02 0. -1.
       -1   -1    0    0    0  501  0.00000000000E+00  0.00000000000E+00 -0.91125680566E+03  0.91125680568E+03  0.50400001928E-02 0.  1.
    10030    2    1    2    0    0  0.00000000000E+00  0.00000000000E+00  0.94762190853E+02  0.19172758022E+04  0.19149325390E+04 0.  0.
        4    1    3    3  502    0 -0.85944472373E+03  0.38489855150E+03 -0.12588533050E+03  0.95007413260E+03  0.12699999809E+01 0.  1.
       -4    1    3    3    0  502  0.85944472373E+03 -0.38489855150E+03  0.22064752135E+03  0.96720166960E+03  0.12699999809E+01 0. -1.
</event>
<event>
 5   0  0.2541124E-04  0.1851591E+04  0.7818609E-02  0.8679335E-01
        2   -1    0    0  501    0  0.00000000000E+00  0.00000000000E+00  0.76413722583E+03  0.76413722583E+03  0.25500000920E-02 0. -1.
       -2   -1    0    0    0  501  0.00000000000E+00  0.00000000000E+00 -0.11216531064E+04  0.11216531064E+04  0.25500000920E-02 0.  1.
    10030    2    1    2    0    0  0.00000000000E+00  0.00000000000E+00 -0.35751588054E+03  0.18857903322E+04  0.18515905520E+04 0.  0.
        5    1    3    3  502    0 -0.53231276845E+03  0.84716153206E+01  0.59262581897E+03  0.79665306315E+03  0.46999998093E+01 0. -1.
       -5    1    3    3    0  502  0.53231276845E+03 -0.84716153206E+01 -0.95014169951E+03  0.10891372691E+04  0.46999998093E+01 0.  1.
</event>
<event>
 5   0  0.1324058E-04  0.1854408E+04  0.7818609E-02  0.8677890E-01
       -1   -1    0    0    0  501  0.00000000000E+00  0.00000000000E+00  0.82517241633E+03  0.82517241635E+03  0.50400001928E-02 0. -1.
        1   -1    0    0  501    0  0.00000000000E+00  0.00000000000E+00 -0.10418511300E+04  0.10418511300E+04  0.50400001928E-02 0.  1.
    10030    2    1    2    0    0  0.00000000000E+00  0.00000000000E+00 -0.21667871369E+03  0.18670235464E+04  0.18544075220E+04 0.  0.
        5    1    3    3  502    0  0.14787616387E+03 -0.63845011982E+03 -0.76869701216E+03  0.10101500393E+04  0.46999998093E+01 0.  1.
       -5    1    3    3    0  502 -0.14787616387E+03  0.63845011982E+03  0.55201829847E+03  0.85687350711E+03  0.46999998093E+01 0. -1.
</event>
<event>
 5   0  0.1317527E-04  0.1904857E+04  0.7818609E-02  0.8652443E-01
       -1   -1    0    0    0  501  0.00000000000E+00  0.00000000000E+00  0.57994123999E+03  0.57994124001E+03  0.50400001928E-02 0.  1.
        1   -1    0    0  501    0  0.00000000000E+00  0.00000000000E+00 -0.15641583761E+04  0.15641583761E+04  0.50400001928E-02 0. -1.
    10030    2    1    2    0    0  0.00000000000E+00  0.00000000000E+00 -0.98421713614E+03  0.21440996162E+04  0.19048568957E+04 0.  0.
        1    1    3    3  502    0 -0.84378277429E+02 -0.23109349938E+03  0.54355982703E+03  0.59664158817E+03  0.50400001928E-02 0.  1.
       -1    1    3    3    0  502  0.84378277429E+02  0.23109349938E+03 -0.15277769632E+04  0.15474580280E+04  0.50400001928E-02 0. -1.
</event>
<event>
 5   0  0.2608744E-04  0.1881894E+04  0.7818609E-02  0.8663922E-01
       -2   -1    0    0    0  501  0.00000000000E+00  0.00000000000E+00  0.70513987242E+03  0.70513987243E+03  0.25500000920E-02 0. -1.
        2   -1    0    0  501    0  0.00000000000E+00  0.00000000000E+00 -0.12556101882E+04  0.12556101882E+04  0.25500000920E-02 0.  1.
    10030    2    1    2    0    0  0.00000000000E+00  0.00000000000E+00 -0.55047031579E+03  0.19607500606E+04  0.18818935230E+04 0.  0.
        2    1    3    3  502    0 -0.68408234830E+03 -0.11280080571E+03 -0.93804266857E+03  0.11664547694E+04  0.25500000920E-02 0.  1.
       -2    1    3    3    0  502  0.68408234830E+03  0.11280080571E+03  0.38757235278E+03  0.79429529123E+03  0.25500000920E-02 0. -1.
</event>
<event>
 5   0  0.1324058E-04  0.1901432E+04  0.7818609E-02  0.8654144E-01
       -1   -1    0    0    0  501  0.00000000000E+00  0.00000000000E+00  0.75730367518E+03  0.75730367519E+03  0.50400001928E-02 0.  1.
        1   -1    0    0  501    0  0.00000000000E+00  0.00000000000E+00 -0.11935249192E+04  0.11935249192E+04  0.50400001928E-02 0. -1.
    10030    2    1    2    0    0  0.00000000000E+00  0.00000000000E+00 -0.43622124406E+03  0.19508285944E+04  0.19014318897E+04 0.  0.
        5    1    3    3  502    0 -0.39196014918E+03  0.84317474869E+03 -0.42140539914E+03  0.10208726736E+04  0.46999998093E+01 0.  1.
       -5    1    3    3    0  502  0.39196014918E+03 -0.84317474869E+03 -0.14815844920E+02  0.92995592080E+03  0.46999998093E+01 0. -1.
</event>
<event>
 5   0  0.2595012E-04  0.1682300E+04  0.7818609E-02  0.8771524E-01
        2   -1    0    0  501    0  0.00000000000E+00  0.00000000000E+00  0.93509592667E+03  0.93509592668E+03  0.25500000920E-02 0.  1.
       -2   -1    0    0    0  501  0.00000000000E+00  0.00000000000E+00 -0.75664231067E+03  0.75664231067E+03  0.25500000920E-02 0. -1.
    10030    2    1    2    0    0  0.00000000000E+00  0.00000000000E+00  0.17845361601E+03  0.16917382373E+04  0.16822997862E+04 0.  0.
        1    1    3    3  502    0 -0.38571663255E+03  0.66877337932E+03 -0.24655973956E+03  0.81044855402E+03  0.50400001928E-02 0. -1.
       -1    1    3    3    0  502  0.38571663255E+03 -0.66877337932E+03  0.42501335557E+03  0.88128968333E+03  0.50400001928E-02 0.  1.
</event>
<event>
 5   0  0.1317527E-04  0.1896552E+04  0.7818609E-02  0.8656575E-01
       -1   -1    0    0    0  501  0.00000000000E+00  0.00000000000E+00  0.50107366277E+03  0.50107366280E+03  0.50400001928E-02 0. -1.
        1   -1    0    0  501    0  0.00000000000E+00  0.00000000000E+00 -0.17946011937E+04  0.17946011937E+04  0.50400001928E-02 0.  1.
    10030    2    1    2    0    0  0.00000000000E+00  0.00000000000E+00 -0.12935275309E+04  0.22956748565E+04  0.18965520224E+04 0.  0.
        1    1    3    3  502    0 -0.16744509060E+03 -0.78586367829E+02  0.47902553063E+03  0.51349696649E+03  0.50400001928E-02 0. -1.
       -1    1    3    3    0  502  0.16744509060E+03  0.78586367829E+02 -0.17725530616E+04  0.17821778900E+04  0.50400001928E-02 0.  1.
</event>
<event>
 5   0  0.1255141E-04  0.1923526E+04  0.7818609E-02  0.8643234E-01
        1   -1    0    0  501    0  0.00000000000E+00  0.00000000000E+00  0.13268904685E+04  0.13268904685E+04  0.50400001928E-02 0.  1.
       -1   -1    0    0    0  501  0.00000000000E+00  0.00000000000E+00 -0.69710940530E+03  0.69710940532E+03  0.50400001928E-02 0. -1.
    10030    2    1    2    0    0  0.00000000000E+00  0.00000000000E+00  0.62978106317E+03  0.20239998738E+04  0.19235257476E+04 0.  0.
        2    1    3    3  502    0 -0.43165615967E+03  0.79941299453E+03  0.64696950813E+03  0.11153285258E+04  0.25500000920E-02 0.  1.
       -2    1    3    3    0  502  0.43165615967E+03 -0.79941299453E+03 -0.17188444967E+02  0.90867134799E+03  0.25500000920E-02 0. -1.
</event>
<event>
 5   0  0.2562925E-04  0.1902336E+04  0.7818609E-02  0.8653695E-01
        2   -1    0    0  501    0  0.00000000000E+00  0.00000000000E+00  0.13855306199E+04  0.13855306199E+04  0.25500000920E-02 0.  1.
       -2   -1    0    0    0  501  0.00000000000E+00  0.00000000000E+00 -0.65297752943E+03  0.65297752944E+03  0.25500000920E-02 0. -1.
    10030    2    1    2    0    0  0.00000000000E+00  0.00000000000E+00  0.73255309042E+03  0.20385081493E+04  0.19023357865E+04 0.  0.
        4    1    3    3  502    0  0.71853602859E+03 -0.29229751488E+03  0.95612057820E+03  0.12312189223E+04  0.12699999809E+01 0.  1.
       -4    1    3    3    0  502 -0.71853602859E+03  0.29229751488E+03 -0.22356748777E+03  0.80728922703E+03  0.12699999809E+01 0. -1.
</event>
<event>
 5   0  0.2608744E-04  0.1929961E+04  0.7818609E-02  0.8640085E-01
       -2   -1    0    0    0  501  0.00000000000E+00  0.00000000000E+00  0.60688449110E+03  0.60688449110E+03  0.25500000920E-02 0.  1.
        2   -1    0    0  501    0  0.00000000000E+00  0.00000000000E+00 -0.15343726478E+04  0.15343726478E+04  0.25500000920E-02 0. -1.
    10030    2    1    2    0    0  0.00000000000E+00  0.00000000000E+00 -0.92748815665E+03  0.21412571389E+04  0.19299605835E+04 0.  0.
        2    1    3    3  502    0 -0.54636689945E+03  0.45830459439E+03 -0.11850160264E+04  0.13830483986E+04  0.25500000920E-02 0. -1.
       -2    1    3    3    0  502  0.54636689945E+03 -0.45830459439E+03  0.25752786977E+03  0.75820874023E+03  0.25500000920E-02 0.  1.
</event>
<event>
 5   0  0.2562925E-04  0.1896087E+04  0.7818609E-02  0.8656806E-01
       -2   -1    0    0    0  501  0.00000000000E+00  0.00000000000E+00  0.56395059268E+03  0.56395059269E+03  0.25500000920E-02 0. -1.
        2   -1    0    0  501    0  0.00000000000E+00  0.00000000000E+00 -0.15937330810E+04  0.15937330810E+04  0.25500000920E-02 0.  1.
    10030    2    1    2    0    0  0.00000000000E+00  0.00000000000E+00 -0.10297824883E+04  0.21576836737E+04  0.18960872508E+04 0.  0.
        4    1    3    3  502    0  0.69393606016E+02 -0.86169167128E+03 -0.72023278720E+02  0.86747736252E+03  0.12699999809E+01 0. -1.
       -4    1    3    3    0  502 -0.69393606016E+02  0.86169167128E+03 -0.95775920960E+03  0.12902063112E+04  0.12699999809E+01 0.  1.
</event>
<event>
 5   0  0.1255141E-04  0.1902959E+04  0.7818609E-02  0.8653385E-01
       -1   -1    0    0    0  501  0.00000000000E+00  0.00000000000E+00  0.27371050556E+04  0.27371050556E+04  0.50400001928E-02 0.  1.
        1   -1    0    0  501    0  0.00000000000E+00  0.00000000000E+00 -0.33075583658E+03  0.33075583662E+03  0.50400001928E-02 0. -1.
    10030    2    1    2    0    0  0.00000000000E+00  0.00000000000E+00  0.24063492191E+04  0.30678608923E+04  0.19029592455E+04 0.  0.
        2    1    3    3  502    0  0.33744216460E+03 -0.82066891861E+03  0.17568470543E+04  0.19682165177E+04  0.25500000920E-02 0. -1.
       -2    1    3    3    0  502 -0.33744216460E+03  0.82066891861E+03  0.64950216476E+03  0.10996443745E+04  0.25500000920E-02 0.  1.
</event>
<event>
 5   0  0.2595012E-04  0.1917171E+04  0.7818609E-02  0.8646356E-01
       -2   -1    0    0    0  501  0.00000000000E+00  0.00000000000E+00  0.34279748449E+03  0.34279748450E+03  0.25500000920E-02 0. -1.
        2   -1    0    0  501    0  0.00000000000E+00  0.00000000000E+00 -0.26805520520E+04  0.26805520520E+04  0.25500000920E-02 0.  1.
    10030    2    1    2    0    0  0.00000000000E+00  0.00000000000E+00 -0.23377545675E+04  0.30233495365E+04  0.19171713544E+04 0.  0.
        1    1    3    3  502    0  0.58431212328E+02 -0.93772488754E+03 -0.86906631826E+03  0.12798509432E+04  0.50400001928E-02 0.  1.
       -1    1    3    3    0  502 -0.58431212328E+02  0.93772488754E+03 -0.14686882492E+04  0.17434985933E+04  0.50400001928E-02 0. -1.
</event>
<event>
 5   0  0.1277709E-04  0.1879317E+04  0.7818609E-02  0.8665220E-01
       -1   -1    0    0    0  501  0.00000000000E+00  0.00000000000E+00  0.12724929475E+04  0.12724929475E+04  0.50400001928E-02 0.  1.
        1   -1    0    0  501    0  0.00000000000E+00  0.00000000000E+00 -0.69388077422E+03  0.69388077424E+03  0.50400001928E-02 0. -1.
    10030    2    1    2    0    0  0.00000000000E+00  0.00000000000E+00  0.57861217331E+03  0.19663737218E+04  0.18793173140E+04 0.  0.
        4    1    3    3  502    0  0.34551993136E+02 -0.40592387684E+03 -0.59667023651E+03  0.72248530647E+03  0.12699999809E+01 0. -1.
       -4    1    3    3    0  502 -0.34551993136E+02  0.40592387684E+03  0.11752824098E+04  0.12438884153E+04  0.12699999809E+01 0.  1.
</event>
<event>
 5   0  0.1255141E-04  0.1867302E+04  0.7818609E-02  0.8671306E-01
       -1   -1    0    0    0  501  0.00000000000E+00  0.00000000000E+00  0.81226882888E+03  0.81226882890E+03  0.50400001928E-02 0.  1.
        1   -1    0    0  501    0  0.00000000000E+00  0.00000000000E+00 -0.10731717187E+04  0.10731717187E+04  0.50400001928E-02 0. -1.
    10030    2    1    2    0    0  0.00000000000E+00  0.00000000000E+00 -0.26090288982E+03  0.18854405476E+04  0.18673017273E+04 0.  0.
        2    1    3    3  502    0  0.13987152793E+02  0.11712834492E+03  0.80471441185E+03  0.81331419160E+03  0.25500000920E-02 0.  1.
       -2    1    3    3    0  502 -0.13987152793E+02 -0.11712834492E+03 -0.10656173017E+04  0.10721263560E+04  0.25500000920E-02 0. -1.
</event>
<event>
 5   0  0.1317527E-04  0.1896864E+04  0.7818609E-02  0.8656419E-01
       -1   -1    0    0    0  501  0.00000000000E+00  0.00000000000E+00  0.11446316964E+04  0.11446316964E+04  0.50400001928E-02 0.  1.
        1   -1    0    0  501    0  0.00000000000E+00  0.00000000000E+00 -0.78586288210E+03  0.78586288212E+03  0.50400001928E-02 0. -1.
    10030    2    1    2    0    0  0.00000000000E+00  0.00000000000E+00  0.35876881431E+03  0.19304945785E+04  0.18968643219E+04 0.  0.
        1    1    3    3  502    0  0.59618334447E+03 -0.63714503253E+03  0.55763923943E+03  0.10355432845E+04  0.50400001928E-02 0.  1.
       -1    1    3    3    0  502 -0.59618334447E+03  0.63714503253E+03 -0.19887042512E+03  0.89495129404E+03  0.50400001928E-02 0. -1.
</event>
<event>
 5   0  0.2595012E-04  0.1886663E+04  0.7818609E-02  0.8661524E-01
       -2   -1    0    0    0  501  0.00000000000E+00  0.00000000000E+00  0.13060848179E+04  0.13060848179E+04  0.25500000920E-02 0. -1.
        2   -1    0    0  501    0  0.00000000000E+00  0.00000000000E+00 -0.68132948167E+03  0.68132948168E+03  0.25500000920E-02 0.  1.
    10030    2    1    2    0    0  0.00000000000E+00  0.00000000000E+00  0.62475533625E+03  0.19874142996E+04  0.18866627595E+04 0.  0.
        1    1    3    3  502    0 -0.85951508607E+03  0.19722924106E+03  0.66524144632E+03  0.11046319471E+04  0.50400001928E-02 0. -1.
       -1    1    3    3    0  502  0.85951508607E+03 -0.19722924106E+03 -0.40486110064E+02  0.88278235248E+03  0.50400001928E-02 0.  1.
</event>
<event>
 5   0  0.1239615E-04  0.1734026E+04  0.7818609E-02  0.8742192E-01
       -1   -1    0    0    0  501  0.00000000000E+00  0.00000000000E+00  0.54008644527E+03  0.54008644529E+03  0.50400001928E-02 0.  1.
        1   -1    0    0  501    0  0.00000000000E+00  0.00000000000E+00 -0.13918359466E+04  0.13918359466E+04  0.50400001928E-02 0. -1.
    10030    2    1    2    0    0  0.00000000000E+00  0.00000000000E+00 -0.85174950132E+03  0.19319223919E+04  0.17340262153E+04 0.  0.
        3    1    3    3  502    0 -0.33126937543E+03  0.74533777434E+03 -0.75344258377E+03  0.11103799053E+04  0.10100000352E+00 0.  1.
       -3    1    3    3    0  502  0.33126937543E+03 -0.74533777434E+03 -0.98306917555E+02  0.82154248655E+03  0.10100000352E+00 0. -1.
</event>
<event>
 5   0  0.1324058E-04  0.1870644E+04  0.7818609E-02  0.8669608E-01
       -1   -1    0    0    0  501  0.00000000000E+00  0.00000000000E+00  0.48830098657E+03  0.48830098660E+03  0.50400001928E-02 0. -1.
        1   -1    0    0  501    0  0.00000000000E+00  0.00000000000E+00 -0.17915744727E+04  0.17915744727E+04  0.50400001928E-02 0.  1.
    10030    2    1    2    0    0  0.00000000000E+00  0.00000000000E+00 -0.13032734862E+04  0.22798754593E+04  0.18706443623E+04 0.  0.
        5    1    3    3  502    0 -0.54644480866E+03  0.27219606793E+03 -0.15152525219E+04  0.16336171287E+04  0.46999998093E+01 0.  1.
       -5    1    3    3    0  502  0.54644480866E+03 -0.27219606793E+03  0.21197903570E+03  0.64625833060E+03  0.46999998093E+01 0. -1.
</event>
<event>
 5   0  0.1239615E-04  0.1949064E+04  0.7818609E-02  0.8630812E-01
       -1   -1    0    0    0  501  0.00000000000E+00  0.00000000000E+00  0.73271517910E+03  0.73271517911E+03  0.50400001928E-02 0. -1.
        1   -1    0    0  501    0  0.00000000000E+00  0.00000000000E+00 -0.12961558595E+04  0.12961558595E+04  0.50400001928E-02 0.  1.
    10030    2    1    2    0    0  0.00000000000E+00  0.00000000000E+00 -0.56344068037E+03  0.20288710386E+04  0.19490644656E+04 0.  0.
        3    1    3    3  502    0  0.13123585265E+03 -0.58599249691E+03  0.51723749272E+03  0.79255579585E+03  0.10100000352E+00 0. -1.
       -3    1    3    3    0  502 -0.13123585265E+03  0.58599249691E+03 -0.10806781731E+04  0.12363152427E+04  0.10100000352E+00 0.  1.
</event>
<event>
 5   0  0.2608744E-04  0.1902945E+04  0.7818609E-02  0.8653392E-01
        2   -1    0    0  501    0  0.00000000000E+00  0.00000000000E+00  0.15383932225E+04  0.15383932225E+04  0.25500000920E-02 0. -1.
       -2   -1    0    0    0  501  0.00000000000E+00  0.00000000000E+00 -0.58847111245E+03  0.58847111246E+03  0.25500000920E-02 0.  1.
    10030    2    1    2    0    0  0.00000000000E+00  0.00000000000E+00  0.94992211004E+03  0.21268643349E+04  0.19029450555E+04 0.  0.
        2    1    3    3  502    0  0.59183027312E+03 -0.64831530418E+03  0.64722673204E+02  0.88020726551E+03  0.25500000920E-02 0.  1.
       -2    1    3    3    0  502 -0.59183027312E+03  0.64831530418E+03  0.88519943683E+03  0.12466570694E+04  0.25500000920E-02 0. -1.
</event>
<event>
 5   0  0.2608744E-04  0.1852341E+04  0.7818609E-02  0.8678950E-01
        2   -1    0    0  501    0  0.00000000000E+00  0.00000000000E+00  0.16219529492E+04  0.16219529492E+04  0.25500000920E-02 0. -1.
       -2   -1    0    0    0  501  0.00000000000E+00  0.00000000000E+00 -0.52886352050E+03  0.52886352051E+03  0.25500000920E-02 0.  1.
    10030    2    1    2    0    0  0.00000000000E+00  0.00000000000E+00  0.10930894287E+04  0.21508164697E+04  0.18523409479E+04 0.  0.
        2    1    3    3  502    0  0.25694867105E+03  0.79629241952E+03  0.85459629887E+02  0.84107525542E+03  0.25500000920E-02 0.  1.
       -2    1    3    3    0  502 -0.25694867105E+03 -0.79629241952E+03  0.10076297988E+04  0.13097412143E+04  0.25500000920E-02 0. -1.
</event>
<event>
 5   0  0.2562925E-04  0.1946815E+04  0.7818609E-02  0.8631898E-01
        2   -1    0    0  501    0  0.00000000000E+00  0.00000000000E+00  0.90906494401E+03  0.90906494402E+03  0.25500000920E-02 0.  1.
       -2   -1    0    0    0  501  0.00000000000E+00  0.00000000000E+00 -0.10423045654E+04  0.10423045654E+04  0.25500000920E-02 0. -1.
    10030    2    1    2    0    0  0.00000000000E+00  0.00000000000E+00 -0.13323962140E+03  0.19513695094E+04  0.19468153908E+04 0.  0.
        4    1    3    3  502    0  0.70530415714E+03  0.18191742407E+03  0.58062521901E+03  0.93149082718E+03  0.12699999809E+01 0.  1.
       -4    1    3    3    0  502 -0.70530415714E+03 -0.18191742407E+03 -0.71386484041E+03  0.10198786823E+04  0.12699999809E+01 0. -1.
</event>
<event>
 5   0  0.9266125E-05  0.1922998E+04  0.7818609E-02  0.8643493E-01
        3   -1    0    0  501    0  0.00000000000E+00  0.00000000000E+00  0.15717882370E+04  0.15717882403E+04  0.10100000352E+00 0.  1.
       -3   -1    0    0    0  501  0.00000000000E+00  0.00000000000E+00 -0.58817118481E+03  0.58817119348E+03  0.10100000352E+00 0. -1.
    10030    2    1    2    0    0  0.00000000000E+00  0.00000000000E+00  0.98361705224E+03  0.21599594338E+04  0.19229982450E+04 0.  0.
        5    1    3    3  502    0 -0.15496778891E+03  0.71309015888E+03  0.11950099799E+04  0.14002083889E+04  0.46999998093E+01 0.  1.
       -5    1    3    3    0  502  0.15496778891E+03 -0.71309015888E+03 -0.21139292768E+03  0.75975104486E+03  0.46999998093E+01 0. -1.
</event>
<event>
 5   0  0.1239615E-04  0.1890997E+04  0.7818609E-02  0.8659351E-01
        1   -1    0    0  501    0  0.00000000000E+00  0.00000000000E+00  0.14325612587E+04  0.14325612588E+04  0.50400001928E-02 0.  1.
       -1   -1    0    0    0  501  0.00000000000E+00  0.00000000000E+00 -0.62403426473E+03  0.62403426475E+03  0.50400001928E-02 0. -1.
    10030    2    1    2    0    0  0.00000000000E+00  0.00000000000E+00  0.80852699402E+03  0.20565955235E+04  0.18909968924E+04 0.  0.
        3    1    3    3  502    0  0.63466491735E+03 -0.61915108978E+03  0.47149333719E+02  0.88790241533E+03  0.10100000352E+00 0. -1.
       -3    1    3    3    0  502 -0.63466491735E+03  0.61915108978E+03  0.76137766030E+03  0.11686931082E+04  0.10100000352E+00 0.  1.
</event>
<event>
 5   0  0.1277709E-04  0.1910290E+04  0.7818609E-02  0.8649751E-01
        1   -1    0    0  501    0  0.00000000000E+00  0.00000000000E+00  0.49361672107E+03  0.49361672110E+03  0.50400001928E-02 0.  1.
       -1   -1    0    0    0  501  0.00000000000E+00  0.00000000000E+00 -0.18481987823E+04  0.18481987823E+04  0.50400001928E-02 0. -1.
    10030    2    1    2    0    0  0.00000000000E+00  0.00000000000E+00 -0.13545820612E+04  0.23418155034E+04  0.19102898448E+04 0.  0.
        4    1    3    3  502    0  0.42034842671E+03 -0.52700471401E+03 -0.15068096460E+04  0.16507282304E+04  0.12699999809E+01 0. -1.
       -4    1    3    3    0  502 -0.42034842671E+03  0.52700471401E+03  0.15222758480E+03  0.69108727299E+03  0.12699999809E+01 0.  1.
</event>
<event>
 5   0  0.2541124E-04  0.1888308E+04  0.7818609E-02  0.8660698E-01
       -2   -1    0    0    0  501  0.00000000000E+00  0.00000000000E+00  0.50796389093E+03  0.50796389093E+03  0.25500000920E-02 0. -1.
        2   -1    0    0  501    0  0.00000000000E+00  0.00000000000E+00 -0.17549011989E+04  0.17549011989E+04  0.25500000920E-02 0.  1.
    10030    2    1    2    0    0  0.00000000000E+00  0.00000000000E+00 -0.12469373080E+04  0.22628650899E+04  0.18883076457E+04 0.  0.
        5    1    3    3  502    0 -0.36039142069E+03  0.51892378516E+03  0.21729624829E+03  0.66813443290E+03  0.46999998093E+01 0. -1.
       -5    1    3    3    0  502  0.36039142069E+03 -0.51892378516E+03 -0.14642335563E+04  0.15947306570E+04  0.46999998093E+01 0.  1.
</event>
<event>
 5   0  0.1324058E-04  0.1893625E+04  0.7818609E-02  0.8658036E-01
        1   -1    0    0  501    0  0.00000000000E+00  0.00000000000E+00  0.10625337207E+04  0.10625337207E+04  0.50400001928E-02 0. -1.
       -1   -1    0    0    0  501  0.00000000000E+00  0.00000000000E+00 -0.84369433709E+03  0.84369433710E+03  0.50400001928E-02 0.  1.
    10030    2    1    2    0    0  0.00000000000E+00  0.00000000000E+00  0.21883938356E+03  0.19062280578E+04  0.18936247602E+04 0.  0.
        5    1    3    3  502    0 -0.20931638193E+03 -0.38809392048E+03  0.95285137092E+03  0.10499419336E+04  0.46999998093E+01 0. -1.
       -5    1    3    3    0  502  0.20931638193E+03  0.38809392048E+03 -0.73401198736E+03  0.85628612417E+03  0.46999998093E+01 0.  1.
</event>
<event>
 5   0  0.1255141E-04  0.1908856E+04  0.7818609E-02  0.8650461E-01
        1   -1    0    0  501    0  0.00000000000E+00  0.00000000000E+00  0.11153441096E+04  0.11153441096E+04  0.50400001928E-02 0. -1.
       -1   -1    0    0    0  501  0.00000000000E+00  0.00000000000E+00 -0.81672829808E+03  0.81672829809E+03  0.50400001928E-02 0.  1.
    10030    2    1    2    0    0  0.00000000000E+00  0.00000000000E+00  0.29861581152E+03  0.19320724077E+04  0.19088563031E+04 0.  0.
        2    1    3    3  502    0 -0.45015448567E+02  0.90345702849E+03  0.45743129933E+03  0.10136589104E+04  0.25500000920E-02 0. -1.
       -2    1    3    3    0  502  0.45015448567E+02 -0.90345702849E+03 -0.15881548781E+03  0.91841349735E+03  0.25500000920E-02 0.  1.
</event>
<event>
 5   0  0.2541124E-04  0.1897665E+04  0.7818609E-02  0.8656020E-01
        2   -1    0    0  501    0  0.00000000000E+00  0.00000000000E+00  0.82268074725E+03  0.82268074725E+03  0.25500000920E-02 0.  1.
       -2   -1    0    0    0  501  0.00000000000E+00  0.00000000000E+00 -0.10943284357E+04  0.10943284357E+04  0.25500000920E-02 0. -1.
    10030    2    1    2    0    0  0.00000000000E+00  0.00000000000E+00 -0.27164768841E+03  0.19170091829E+04  0.18976648125E+04 0.  0.
        5    1    3    3  502    0  0.73651105464E+03 -0.50110127620E+03  0.19417079700E+03  0.91174306195E+03  0.46999998093E+01 0.  1.
       -5    1    3    3    0  502 -0.73651105464E+03  0.50110127620E+03 -0.46581848541E+03  0.10052661210E+04  0.46999998093E+01 0. -1.
</event>
<event>
 5   0  0.1239615E-04  0.1898187E+04  0.7818609E-02  0.8655759E-01
        1   -1    0    0  501    0  0.00000000000E+00  0.00000000000E+00  0.13191301206E+04  0.13191301206E+04  0.50400001928E-02 0.  1.
       -1   -1    0    0    0  501  0.00000000000E+00  0.00000000000E+00 -0.68285773478E+03  0.68285773480E+03  0.50400001928E-02 0. -1.
    10030    2    1    2    0    0  0.00000000000E+00  0.00000000000E+00  0.63627238578E+03  0.20019878554E+04  0.18981867200E+04 0.  0.
        3    1    3    3  502    0  0.73376861540E+03  0.60036333766E+03  0.27185395961E+03  0.98628449430E+03  0.10100000352E+00 0.  1.
       -3    1    3    3    0  502 -0.73376861540E+03 -0.60036333766E+03  0.36441842617E+03  0.10157033611E+04  0.10100000352E+00 0. -1.
</event>
<event>
 5   0  0.1239615E-04  0.1908494E+04  0.7818609E-02  0.8650640E-01
        1   -1    0    0  501    0  0.00000000000E+00  0.00000000000E+00  0.14199189612E+04  0.14199189612E+04  0.50400001928E-02 0. -1.
       -1   -1    0    0    0  501  0.00000000000E+00  0.00000000000E+00 -0.64129542383E+03  0.64129542385E+03  0.50400001928E-02 0.  1.
    10030    2    1    2    0    0  0.00000000000E+00  0.00000000000E+00  0.77862353733E+03  0.20612143850E+04  0.19084942044E+04 0.  0.
        3    1    3    3  502    0  0.37210430915E+03  0.67183870154E+02 -0.55693250155E+03  0.67316350969E+03  0.10100000352E+00 0.  1.
       -3    1    3    3    0  502 -0.37210430915E+03 -0.67183870154E+02  0.13355560389E+04  0.13880508753E+04  0.10100000352E+00 0. -1.
</event>
<event>
 5   0  0.1239615E-04  0.1897672E+04  0.7818609E-02  0.8656016E-01
        1   -1    0    0  501    0  0.00000000000E+00  0.00000000000E+00  0.22747065225E+04  0.22747065225E+04  0.50400001928E-02 0. -1.
       -1   -1    0    0    0  501  0.00000000000E+00  0.00000000000E+00 -0.39578286775E+03  0.39578286778E+03  0.50400001928E-02 0.  1.
    10030    2    1    2    0    0  0.00000000000E+00  0.00000000000E+00  0.18789236547E+04  0.26704893902E+04  0.18976721221E+04 0.  0.
        3    1    3    3  502    0 -0.14176572288E+03 -0.89808931703E+03  0.55761345627E+03  0.10665808541E+04  0.10100000352E+00 0.  1.
       -3    1    3    3    0  502  0.14176572288E+03  0.89808931703E+03  0.13213101984E+04  0.16039085361E+04  0.10100000352E+00 0. -1.
</event>
<event>
 5   0  0.1255141E-04  0.1881408E+04  0.7818609E-02  0.8664166E-01
        1   -1    0    0  501    0  0.00000000000E+00  0.00000000000E+00  0.18860124122E+04  0.18860124122E+04  0.50400001928E-02 0.  1.
       -1   -1    0    0    0  501  0.00000000000E+00  0.00000000000E+00 -0.46920376587E+03  0.46920376590E+03  0.50400001928E-02 0. -1.
    10030    2    1    2    0    0  0.00000000000E+00  0.00000000000E+00  0.14168086463E+04  0.23552161781E+04  0.18814081177E+04 0.  0.
        2    1    3    3  502    0 -0.24811177557E+03 -0.43879375958E+03 -0.28586058269E+03  0.57949606501E+03  0.25500000920E-02 0. -1.
       -2    1    3    3    0  502  0.24811177557E+03  0.43879375958E+03  0.17026692290E+04  0.17757201131E+04  0.25500000920E-02 0.  1.
</event>
<event>
 5   0  0.1277709E-04  0.1892100E+04  0.7818609E-02  0.8658799E-01
       -1   -1    0    0    0  501  0.00000000000E+00  0.00000000000E+00  0.40304605486E+03  0.40304605489E+03  0.50400001928E-02 0. -1.
        1   -1    0    0  501    0  0.00000000000E+00  0.00000000000E+00 -0.22206170468E+04  0.22206170468E+04  0.50400001928E-02 0.  1.
    10030    2    1    2    0    0  0.00000000000E+00  0.00000000000E+00 -0.18175709919E+04  0.26236631017E+04  0.18921003569E+04 0.  0.
        4    1    3    3  502    0  0.32756132010E+03 -0.24079328694E+03  0.27574282101E+03  0.49123674709E+03  0.12699999809E+01 0. -1.
       -4    1    3    3    0  502 -0.32756132010E+03  0.24079328694E+03 -0.20933138129E+04  0.21324263546E+04  0.12699999809E+01 0.  1.
</event>
<event>
 5   0  0.1277709E-04  0.1860816E+04  0.7818609E-02  0.8674611E-01
       -1   -1    0    0    0  501  0.00000000000E+00  0.00000000000E+00  0.74340241034E+03  0.74340241036E+03  0.50400001928E-02 0.  1.
        1   -1    0    0  501    0  0.00000000000E+00  0.00000000000E+00 -0.11644550804E+04  0.11644550804E+04  0.50400001928E-02 0. -1.
    10030    2    1    2    0    0  0.00000000000E+00  0.00000000000E+00 -0.42105267010E+03  0.19078574908E+04  0.18608156422E+04 0.  0.
        4    1    3    3  502    0 -0.39677982067E+03  0.49538511962E+03  0.48697811140E+03  0.79999371043E+03  0.12699999809E+01 0.  1.
       -4    1    3    3    0  502  0.39677982067E+03 -0.49538511962E+03 -0.90803078150E+03  0.11078637804E+04  0.12699999809E+01 0. -1.
</event>
<event>
 5   0  0.2651828E-04  0.1926850E+04  0.7818609E-02  0.8641606E-01
       -2   -1    0    0    0  501  0.00000000000E+00  0.00000000000E+00  0.93216424025E+03  0.93216424025E+03  0.25500000920E-02 0.  1.
        2   -1    0    0  501    0  0.00000000000E+00  0.00000000000E+00 -0.99573439507E+03  0.99573439508E+03  0.25500000920E-02 0. -1.
    10030    2    1    2    0    0  0.00000000000E+00  0.00000000000E+00 -0.63570154821E+02  0.19278986353E+04  0.19268502753E+04 0.  0.
        3    1    3    3  502    0 -0.77560202543E+03  0.54162319093E+03  0.15072525087E+03  0.95793125758E+03  0.10100000352E+00 0.  1.
       -3    1    3    3    0  502  0.77560202543E+03 -0.54162319093E+03 -0.21429540569E+03  0.96996737775E+03  0.10100000352E+00 0. -1.
</event>
<event>
 5   0  0.2562925E-04  0.1897541E+04  0.7818609E-02  0.8656082E-01
       -2   -1    0    0    0  501  0.00000000000E+00  0.00000000000E+00  0.11616273286E+04  0.11616273286E+04  0.25500000920E-02 0.  1.
        2   -1    0    0  501    0  0.00000000000E+00  0.00000000000E+00 -0.77491722814E+03  0.77491722814E+03  0.25500000920E-02 0. -1.
    10030    2    1    2    0    0  0.00000000000E+00  0.00000000000E+00  0.38671010050E+03  0.19365445568E+04  0.18975405447E+04 0.  0.
        4    1    3    3  502    0  0.11398721639E+03 -0.84643871414E+03 -0.22831061974E+03  0.88406953023E+03  0.12699999809E+01 0. -1.
       -4    1    3    3    0  502 -0.11398721639E+03  0.84643871414E+03  0.61502072024E+03  0.10524750266E+04  0.12699999809E+01 0.  1.
</event>
<event>
 5   0  0.2562925E-04  0.1738313E+04  0.7818609E-02  0.8739810E-01
        2   -1    0    0  501    0  0.00000000000E+00  0.00000000000E+00  0.16608363731E+04  0.16608363731E+04  0.25500000920E-02 0.  1.
       -2   -1    0    0    0  501  0.00000000000E+00  0.00000000000E+00 -0.45485080782E+03  0.45485080783E+03  0.25500000920E-02 0. -1.
    10030    2    1    2    0    0  0.00000000000E+00  0.00000000000E+00  0.12059855652E+04  0.21156871809E+04  0.17383127060E+04 0.  0.
        4    1    3    3  502    0 -0.15593761844E+02 -0.55576591256E+03 -0.21010532034E+03  0.59436081088E+03  0.12699999809E+01 0. -1.
       -4    1    3    3    0  502  0.15593761844E+02  0.55576591256E+03  0.14160908856E+04  0.15213263700E+04  0.12699999809E+01 0.  1.
</event>
<event>
 5   0  0.1324058E-04  0.1928110E+04  0.7818609E-02  0.8640989E-01
       -1   -1    0    0    0  501  0.00000000000E+00  0.00000000000E+00  0.88960183458E+03  0.88960183460E+03  0.50400001928E-02 0. -1.
        1   -1    0    0  501    0  0.00000000000E+00  0.00000000000E+00 -0.10447394844E+04  0.10447394844E+04  0.50400001928E-02 0.  1.
    10030    2    1    2    0    0  0.00000000000E+00  0.00000000000E+00 -0.15513764977E+03  0.19343413190E+04  0.19281101234E+04 0.  0.
        5    1    3    3  502    0 -0.38202150367E+03 -0.68416489066E+03  0.48581351768E+03  0.92198638321E+03  0.46999998093E+01 0. -1.
       -5    1    3    3    0  502  0.38202150367E+03  0.68416489066E+03 -0.64095116745E+03  0.10123549357E+04  0.46999998093E+01 0.  1.
</event>
<event>
 5   0  0.1239615E-04  0.1915954E+04  0.7818609E-02  0.8646955E-01
        1   -1    0    0  501    0  0.00000000000E+00  0.00000000000E+00  0.11248919790E+04  0.11248919790E+04  0.50400001928E-02 0. -1.
       -1   -1    0    0    0  501  0.00000000000E+00  0.00000000000E+00 -0.81582952212E+03  0.81582952214E+03  0.50400001928E-02 0.  1.
    10030    2    1    2    0    0  0.00000000000E+00  0.00000000000E+00  0.30906245686E+03  0.19407215011E+04  0.19159541599E+04 0.  0.
        3    1    3    3  502    0  0.42309487651E+03  0.72730826750E+03  0.61841800185E+03  0.10442353306E+04  0.10100000352E+00 0. -1.
       -3    1    3    3    0  502 -0.42309487651E+03 -0.72730826750E+03 -0.30935554499E+03  0.89648617051E+03  0.10100000352E+00 0.  1.
</event>
<event>
 5   0  0.2562925E-04  0.1853824E+04  0.7818609E-02  0.8678189E-01
       -2   -1    0    0    0  501  0.00000000000E+00  0.00000000000E+00  0.14194142638E+04  0.14194142638E+04  0.25500000920E-02 0.  1.
        2   -1    0    0  501    0  0.00000000000E+00  0.00000000000E+00 -0.60529627635E+03  0.60529627635E+03  0.25500000920E-02 0. -1.
    10030    2    1    2    0    0  0.00000000000E+00  0.00000000000E+00  0.81411798742E+03  0.20247105401E+04  0.18538243374E+04 0.  0.
        4    1    3    3  502    0  0.61401079943E+03  0.29051575659E+03  0.10958741166E+04  0.12893216662E+04  0.12699999809E+01 0.  1.
       -4    1    3    3    0  502 -0.61401079943E+03 -0.29051575659E+03 -0.28175612917E+03  0.73538887391E+03  0.12699999809E+01 0. -1.
</event>
<event>
 5   0  0.2541124E-04  0.1910370E+04  0.7818609E-02  0.8649711E-01
        2   -1    0    0  501    0  0.00000000000E+00  0.00000000000E+00  0.25110956643E+04  0.25110956643E+04  0.25500000920E-02 0.  1.
       -2   -1    0    0    0  501  0.00000000000E+00  0.00000000000E+00 -0.36333893800E+03  0.36333893800E+03  0.25500000920E-02 0. -1.
    10030    2    1    2    0    0  0.00000000000E+00  0.00000000000E+00  0.21477567263E+04  0.28744346023E+04  0.19103704687E+04 0.  0.
        5    1    3    3  502    0  0.24635300847E+03 -0.92153089737E+03  0.11483203030E+04  0.14928397797E+04  0.46999998093E+01 0.  1.
       -5    1    3    3    0  502 -0.24635300847E+03  0.92153089737E+03  0.99943642328E+03  0.13815948226E+04  0.46999998093E+01 0. -1.
</event>
<event>
 5   0  0.1324058E-04  0.1967880E+04  0.7818609E-02  0.8621787E-01
        1   -1    0    0  501    0  0.00000000000E+00  0.00000000000E+00  0.10854245280E+04  0.10854245280E+04  0.50400001928E-02 0.  1.
       -1   -1    0    0    0  501  0.00000000000E+00  0.00000000000E+00 -0.89194439639E+03  0.89194439640E+03  0.50400001928E-02 0. -1.
    10030    2    1    2    0    0  0.00000000000E+00  0.00000000000E+00  0.19348013164E+03  0.19773689244E+04  0.19678804085E+04 0.  0.
        5    1    3    3  502    0  0.58854728000E+03 -0.63867256198E+03 -0.36790245088E+03  0.94322046499E+03  0.46999998093E+01 0. -1.
       -5    1    3    3    0  502 -0.58854728000E+03  0.63867256198E+03  0.56138258252E+03  0.10341484594E+04  0.46999998093E+01 0.  1.
</event>
<event>
 5   0  0.1239615E-04  0.1879660E+04  0.7818609E-02  0.8665048E-01
        1   -1    0    0  501    0  0.00000000000E+00  0.00000000000E+00  0.11425337149E+04  0.11425337149E+04  0.50400001928E-02 0.  1.
       -1   -1    0    0    0  501  0.00000000000E+00  0.00000000000E+00 -0.77308902021E+03  0.77308902023E+03  0.50400001928E-02 0. -1.
    10030    2    1    2    0    0  0.00000000000E+00  0.00000000000E+00  0.36944469471E+03  0.19156227352E+04  0.18796598312E+04 0.  0.
        3    1    3    3  502    0 -0.72426972874E+03 -0.21351721098E+03  0.75500336336E+03  0.10677950778E+04  0.10100000352E+00 0.  1.
       -3    1    3    3    0  502  0.72426972874E+03  0.21351721098E+03 -0.38555866866E+03  0.84782765733E+03  0.10100000352E+00 0. -1.
</event>
<event>
 5   0  0.2608744E-04  0.1908969E+04  0.7818609E-02  0.8650405E-01
       -2   -1    0    0    0  501  0.00000000000E+00  0.00000000000E+00  0.56000890776E+03  0.56000890776E+03  0.25500000920E-02 0. -1.
        2   -1    0    0  501    0  0.00000000000E+00  0.00000000000E+00 -0.16268322763E+04  0.16268322763E+04  0.25500000920E-02 0.  1.
    10030    2    1    2    0    0  0.00000000000E+00  0.00000000000E+00 -0.10668233685E+04  0.21868411841E+04  0.19089689009E+04 0.  0.
        2    1    3    3  502    0  0.19002679253E+03  0.87210364659E+03 -0.14600587964E+03  0.90442947164E+03  0.25500000920E-02 0. -1.
       -2    1    3    3    0  502 -0.19002679253E+03 -0.87210364659E+03 -0.92081748889E+03  0.12824117124E+04  0.25500000920E-02 0.  1.
</event>
<event>
 5   0  0.2541124E-04  0.1899981E+04  0.7818609E-02  0.8654866E-01
       -2   -1    0    0    0  501  0.00000000000E+00  0.00000000000E+00  0.53723882930E+03  0.53723882930E+03  0.25500000920E-02 0. -1.
        2   -1    0    0  501    0  0.00000000000E+00  0.00000000000E+00 -0.16798520723E+04  0.16798520723E+04  0.25500000920E-02 0.  1.
    10030    2    1    2    0    0  0.00000000000E+00  0.00000000000E+00 -0.11426132430E+04  0.22170909016E+04  0.18999808007E+04 0.  0.
        5    1    3    3  502    0 -0.58593339543E+03  0.30106140623E+03  0.22740651255E+03  0.69691586734E+03  0.46999998093E+01 0. -1.
       -5    1    3    3    0  502  0.58593339543E+03 -0.30106140623E+03 -0.13700197556E+04  0.15201750343E+04  0.46999998093E+01 0.  1.
</event>
<event>
 5   0  0.2595012E-04  0.1834999E+04  0.7818609E-02  0.8687906E-01
        2   -1    0    0  501    0  0.00000000000E+00  0.00000000000E+00  0.95585687817E+03  0.95585687817E+03  0.25500000920E-02 0.  1.
       -2   -1    0    0    0  501  0.00000000000E+00  0.00000000000E+00 -0.88068091443E+03  0.88068091443E+03  0.25500000920E-02 0. -1.
    10030    2    1    2    0    0  0.00000000000E+00  0.00000000000E+00  0.75175963741E+02  0.18365377926E+04  0.18349985390E+04 0.  0.
        1    1    3    3  502    0  0.62949352883E+03  0.63887144432E+03 -0.15592902467E+03  0.91034756328E+03  0.50400001928E-02 0.  1.
       -1    1    3    3    0  502 -0.62949352883E+03 -0.63887144432E+03  0.23110498841E+03  0.92619022932E+03  0.50400001928E-02 0. -1.
</event>
<event>
 5   0  0.2562925E-04  0.1873076E+04  0.7818609E-02  0.8668376E-01
       -2   -1    0    0    0  501  0.00000000000E+00  0.00000000000E+00  0.29169834366E+03  0.29169834367E+03  0.25500000920E-02 0. -1.
        2   -1    0    0  501    0  0.00000000000E+00  0.00000000000E+00 -0.30068837785E+04  0.30068837785E+04  0.25500000920E-02 0.  1.
    10030    2    1    2    0    0  0.00000000000E+00  0.00000000000E+00 -0.27151854348E+04  0.32985821222E+04  0.18730755647E+04 0.  0.
        4    1    3    3  502    0  0.48233881796E+03  0.36203959300E+03 -0.26193930297E+04  0.26879257540E+04  0.12699999809E+01 0.  1.
       -4    1    3    3    0  502 -0.48233881796E+03 -0.36203959300E+03 -0.95792405176E+02  0.61065636818E+03  0.12699999809E+01 0. -1.
</event>
<event>
 5   0  0.2541124E-04  0.1972269E+04  0.7818609E-02  0.8619697E-01
       -2   -1    0    0    0  501  0.00000000000E+00  0.00000000000E+00  0.37806666129E+03  0.37806666130E+03  0.25500000920E-02 0.  1.
        2   -1    0    0  501    0  0.00000000000E+00  0.00000000000E+00 -0.25721958013E+04  0.25721958013E+04  0.25500000920E-02 0. -1.
    10030    2    1    2    0    0  0.00000000000E+00  0.00000000000E+00 -0.21941291400E+04  0.29502624626E+04  0.19722692299E+04 0.  0.
        5    1    3    3  502    0  0.16383092484E+03 -0.94921520304E+03 -0.78119349705E+03  0.12402158858E+04  0.46999998093E+01 0. -1.
       -5    1    3    3    0  502 -0.16383092484E+03  0.94921520304E+03 -0.14129356430E+04  0.17100465768E+04  0.46999998093E+01 0.  1.
</event>
<event>
 5   0  0.2651828E-04  0.1912911E+04  0.7818609E-02  0.8648456E-01
        2   -1    0    0  501    0  0.00000000000E+00  0.00000000000E+00  0.92990129638E+03  0.92990129638E+03  0.25500000920E-02 0.  1.
       -2   -1    0    0    0  501  0.00000000000E+00  0.00000000000E+00 -0.98376759925E+03  0.98376759926E+03  0.25500000920E-02 0. -1.
    10030    2    1    2    0    0  0.00000000000E+00  0.00000000000E+00 -0.53866302879E+02  0.19136688956E+04  0.19129106261E+04 0.  0.
        3    1    3    3  502    0 -0.46606151340E+03  0.25992345692E+03  0.76712780456E+03  0.93448307447E+03  0.10100000352E+00 0.  1.
       -3    1    3    3    0  502  0.46606151340E+03 -0.25992345692E+03 -0.82099410744E+03  0.97918582117E+03  0.10100000352E+00 0. -1.
</event>
<event>
 5   0  0.1277709E-04  0.1906994E+04  0.7818609E-02  0.8651383E-01
       -1   -1    0    0    0  501  0.00000000000E+00  0.00000000000E+00  0.69566265226E+03  0.69566265228E+03  0.50400001928E-02 0. -1.
        1   -1    0    0  501    0  0.00000000000E+00  0.00000000000E+00 -0.13068922107E+04  0.13068922108E+04  0.50400001928E-02 0.  1.
    10030    2    1    2    0    0  0.00000000000E+00  0.00000000000E+00 -0.61122955848E+03  0.20025548630E+04  0.19069935517E+04 0.  0.
        4    1    3    3  502    0 -0.41329470853E+03  0.75978001854E+03  0.11584003170E+03  0.87263893937E+03  0.12699999809E+01 0.  1.
       -4    1    3    3    0  502  0.41329470853E+03 -0.75978001854E+03 -0.72706959019E+03  0.11299159237E+04  0.12699999809E+01 0. -1.
</event>
<event>
 5   0  0.2541124E-04  0.1881142E+04  0.7818609E-02  0.8664301E-01
        2   -1    0    0  501    0  0.00000000000E+00  0.00000000000E+00  0.11270100545E+04  0.11270100545E+04  0.25500000920E-02 0. -1.
       -2   -1    0    0    0  501  0.00000000000E+00  0.00000000000E+00 -0.78497378343E+03  0.78497378344E+03  0.25500000920E-02 0.  1.
    10030    2    1    2    0    0  0.00000000000E+00  0.00000000000E+00  0.34203627111E+03  0.19119838380E+04  0.18811415114E+04 0.  0.
        5    1    3    3  502    0  0.73342852103E+03 -0.30343328799E+02  0.76871846815E+03  0.10629149949E+04  0.46999998093E+01 0. -1.
       -5    1    3    3    0  502 -0.73342852103E+03  0.30343328799E+02 -0.42668219704E+03  0.84906884311E+03  0.46999998093E+01 0.  1.
</event>
<event>
 5   0  0.1324058E-04  0.1785064E+04  0.7818609E-02  0.8714283E-01
        1   -1    0    0  501    0  0.00000000000E+00  0.00000000000E+00  0.14445067106E+04  0.14445067106E+04  0.50400001928E-02 0.  1.
       -1   -1    0    0    0  501  0.00000000000E+00  0.00000000000E+00 -0.55147758457E+03  0.55147758459E+03  0.50400001928E-02 0. -1.
    10030    2    1    2    0    0  0.00000000000E+00  0.00000000000E+00  0.89302912604E+03  0.19959842952E+04  0.17850636646E+04 0.  0.
        5    1    3    3  502    0  0.28356840691E+03  0.84149944678E+03  0.54689146451E+03  0.10429020684E+04  0.46999998093E+01 0.  1.
       -5    1    3    3    0  502 -0.28356840691E+03 -0.84149944678E+03  0.34613766153E+03  0.95308222681E+03  0.46999998093E+01 0. -1.
</event>
<event>
 5   0  0.1324058E-04  0.1911435E+04  0.7818609E-02  0.8649185E-01
        1   -1    0    0  501    0  0.00000000000E+00  0.00000000000E+00  0.98868425728E+03  0.98868425729E+03  0.50400001928E-02 0. -1.
       -1   -1    0    0    0  501  0.00000000000E+00  0.00000000000E+00 -0.92385008902E+03  0.92385008904E+03  0.50400001928E-02 0.  1.
    10030    2    1    2    0    0  0.00000000000E+00  0.00000000000E+00  0.64834168256E+02  0.19125343463E+04  0.19114351039E+04 0.  0.
        5    1    3    3  502    0  0.89664030835E+03  0.32827517699E+03 -0.81711891790E+01  0.95489124653E+03  0.46999998093E+01 0. -1.
       -5    1    3    3    0  502 -0.89664030835E+03 -0.32827517699E+03  0.73005357435E+02  0.95764309980E+03  0.46999998093E+01 0.  1.
</event>
<event>
 5   0  0.1324058E-04  0.1871649E+04  0.7818609E-02  0.8669098E-01
       -1   -1    0    0    0  501  0.00000000000E+00  0.00000000000E+00  0.10089243601E+04  0.10089243601E+04  0.50400001928E-02 0. -1.
        1   -1    0    0  501    0  0.00000000000E+00  0.00000000000E+00 -0.86802141900E+03  0.86802141901E+03  0.50400001928E-02 0.  1.
    10030    2    1    2    0    0  0.00000000000E+00  0.00000000000E+00  0.14090294109E+03  0.18769457791E+04  0.18716494915E+04 0.  0.
        5    1    3    3  502    0  0.58513898039E+03  0.64811143296E+03  0.40801922892E+03  0.96381421294E+03  0.46999998093E+01 0. -1.
       -5    1    3    3    0  502 -0.58513898039E+03 -0.64811143296E+03 -0.26711628783E+03  0.91313156617E+03  0.46999998093E+01 0.  1.
</event>
<event>
 5   0  0.1317527E-04  0.1863172E+04  0.7818609E-02  0.8673408E-01
       -1   -1    0    0    0  501  0.00000000000E+00  0.00000000000E+00  0.48331280198E+03  0.48331280201E+03  0.50400001928E-02 0.  1.
        1   -1    0    0  501    0  0.00000000000E+00  0.00000000000E+00 -0.17956334573E+04  0.17956334573E+04  0.50400001928E-02 0. -1.
    10030    2    1    2    0    0  0.00000000000E+00  0.00000000000E+00 -0.13123206553E+04  0.22789462593E+04  0.18631721741E+04 0.  0.
        1    1    3    3  502    0 -0.72285672743E+03  0.58299947991E+03 -0.74639556155E+03  0.11914346714E+04  0.50400001928E-02 0. -1.
       -1    1    3    3    0  502  0.72285672743E+03 -0.58299947991E+03 -0.56592509374E+03  0.10875115879E+04  0.50400001928E-02 0.  1.
</event>
<event>
 5   0  0.2651828E-04  0.1854765E+04  0.7818609E-02  0.8677706E-01
        2   -1    0    0  501    0  0.00000000000E+00  0.00000000000E+00  0.83693741871E+03  0.83693741871E+03  0.25500000920E-02 0. -1.
       -2   -1    0    0    0  501  0.00000000000E+00  0.00000000000E+00 -0.10276018516E+04  0.10276018516E+04  0.25500000920E-02 0.  1.
    10030    2    1    2    0    0  0.00000000000E+00  0.00000000000E+00 -0.19066443293E+03  0.18645392704E+04  0.18547651508E+04 0.  0.
        3    1    3    3  502    0 -0.86004524858E+02  0.80388818493E+03 -0.55204500843E+03  0.97897226401E+03  0.10100000352E+00 0.  1.
       -3    1    3    3    0  502  0.86004524858E+02 -0.80388818493E+03  0.36138057550E+03  0.88556700634E+03  0.10100000352E+00 0. -1.
</event>
<event>
 5   0  0.9266125E-05  0.1884914E+04  0.7818609E-02  0.8662402E-01
        4   -1    0    0  501    0  0.00000000000E+00  0.00000000000E+00  0.81851140303E+03  0.81851238829E+03  0.12699999809E+01 0. -1.
       -4   -1    0    0    0  501  0.00000000000E+00  0.00000000000E+00 -0.10851690540E+04  0.10851697972E+04  0.12699999809E+01 0.  1.
    10030    2    1    2    0    0  0.00000000000E+00  0.00000000000E+00 -0.26665765097E+03  0.19036821854E+04  0.18849136745E+04 0.  0.
        3    1    3    3  502    0 -0.73345156723E+03  0.57986632636E+03 -0.25295109420E+03  0.96859714235E+03  0.10100000352E+00 0. -1.
       -3    1    3    3    0  502  0.73345156723E+03 -0.57986632636E+03 -0.13706556775E+02  0.93508504309E+03  0.10100000352E+00 0.  1.
</event>
<event>
 5   0  0.1277709E-04  0.1917163E+04  0.7818609E-02  0.8646360E-01
       -1   -1    0    0    0  501  0.00000000000E+00  0.00000000000E+00  0.80505323351E+03  0.80505323353E+03  0.50400001928E-02 0.  1.
        1   -1    0    0  501    0  0.00000000000E+00  0.00000000000E+00 -0.11413887924E+04  0.11413887924E+04  0.50400001928E-02 0. -1.
    10030    2    1    2    0    0  0.00000000000E+00  0.00000000000E+00 -0.33633555889E+03  0.19464420259E+04  0.19171632565E+04 0.  0.
        4    1    3    3  502    0  0.87864108669E+01 -0.31828957443E+03  0.74979282721E+03  0.81460195853E+03  0.12699999809E+01 0.  1.
       -4    1    3    3    0  502 -0.87864108669E+01  0.31828957443E+03 -0.10861283861E+04  0.11318400674E+04  0.12699999809E+01 0. -1.
</event>
<event>
 5   0  0.2562925E-04  0.1916025E+04  0.7818609E-02  0.8646920E-01
        2   -1    0    0  501    0  0.00000000000E+00  0.00000000000E+00  0.92420921930E+03  0.92420921931E+03  0.25500000920E-02 0.  1.
       -2   -1    0    0    0  501  0.00000000000E+00  0.00000000000E+00 -0.99305236451E+03  0.99305236452E+03  0.25500000920E-02 0. -1.
    10030    2    1    2    0    0  0.00000000000E+00  0.00000000000E+00 -0.68843145210E+02  0.19172615838E+04  0.19160252092E+04 0.  0.
        4    1    3    3  502    0 -0.69468117203E+03  0.31311864737E+02  0.62496052300E+03  0.93495434748E+03  0.12699999809E+01 0.  1.
       -4    1    3    3    0  502  0.69468117203E+03 -0.31311864737E+02 -0.69380366821E+03  0.98230723635E+03  0.12699999809E+01 0. -1.
</event>
<event>
 5   0  0.2608744E-04  0.1896607E+04  0.7818609E-02  0.8656547E-01
        2   -1    0    0  501    0  0.00000000000E+00  0.00000000000E+00  0.21087670464E+04  0.21087670464E+04  0.25500000920E-02 0. -1.
       -2   -1    0    0    0  501  0.00000000000E+00  0.00000000000E+00 -0.42644798142E+03  0.42644798143E+03  0.25500000920E-02 0.  1.
    10030    2    1    2    0    0  0.00000000000E+00  0.00000000000E+00  0.16823190650E+04  0.25352150278E+04  0.18966069179E+04 0.  0.
        2    1    3    3  502    0 -0.51430519331E+03  0.63775975529E+03  0.20284390682E+03  0.84403375991E+03  0.25500000920E-02 0.  1.
       -2    1    3    3    0  502  0.51430519331E+03 -0.63775975529E+03  0.14794751582E+04  0.16911812679E+04  0.25500000920E-02 0. -1.
</event>
<event>
 5   0  0.1317527E-04  0.1851846E+04  0.7818609E-02  0.8679204E-01
       -1   -1    0    0    0  501  0.00000000000E+00  0.00000000000E+00  0.15409344530E+04  0.15409344531E+04  0.50400001928E-02 0. -1.
        1   -1    0    0  501    0  0.00000000000E+00  0.00000000000E+00 -0.55637262261E+03  0.55637262263E+03  0.50400001928E-02 0.  1.
    10030    2    1    2    0    0  0.00000000000E+00  0.00000000000E+00  0.98456183044E+03  0.20973070757E+04  0.18518463683E+04 0.  0.
        1    1    3    3  502    0 -0.17758041975E+03 -0.53640043905E+03  0.13230453046E+04  0.14386483638E+04  0.50400001928E-02 0. -1.
       -1    1    3    3    0  502  0.17758041975E+03  0.53640043905E+03 -0.33848347416E+03  0.65865871193E+03  0.50400001928E-02 0.  1.
</event>
<event>
 5   0  0.2541124E-04  0.1875281E+04  0.7818609E-02  0.8667260E-01
       -2   -1    0    0    0  501  0.00000000000E+00  0.00000000000E+00  0.13768545641E+04  0.13768545641E+04  0.25500000920E-02 0. -1.
        2   -1    0    0  501    0  0.00000000000E+00  0.00000000000E+00 -0.63853471414E+03  0.63853471415E+03  0.25500000920E-02 0.  1.
    10030    2    1    2    0    0  0.00000000000E+00  0.00000000000E+00  0.73831984999E+03  0.20153892783E+04  0.18752807102E+04 0.  0.
        5    1    3    3  502    0  0.25992788186E+03  0.49114429985E+03  0.11808084321E+04  0.13050348158E+04  0.46999998093E+01 0. -1.
       -5    1    3    3    0  502 -0.25992788186E+03 -0.49114429985E+03 -0.44248858214E+03  0.71035446248E+03  0.46999998093E+01 0.  1.
</event>
<event>
 5   0  0.1239615E-04  0.1891381E+04  0.7818609E-02  0.8659159E-01
       -1   -1    0    0    0  501  0.00000000000E+00  0.00000000000E+00  0.41326189695E+03  0.41326189698E+03  0.50400001928E-02 0.  1.
        1   -1    0    0  501    0  0.00000000000E+00  0.00000000000E+00 -0.21640760427E+04  0.21640760427E+04  0.50400001928E-02 0. -1.
    10030    2    1    2    0    0  0.00000000000E+00  0.00000000000E+00 -0.17508141458E+04  0.25773379397E+04  0.18913806286E+04 0.  0.
        3    1    3    3  502    0 -0.69247388460E+03 -0.43036878111E+03 -0.15283444866E+04  0.17322165709E+04  0.10100000352E+00 0. -1.
       -3    1    3    3    0  502  0.69247388460E+03  0.43036878111E+03 -0.22246965923E+03  0.84512136885E+03  0.10100000352E+00 0.  1.
</event>
<event>
 5   0  0.2562925E-04  0.1911179E+04  0.7818609E-02  0.8649312E-01
       -2   -1    0    0    0  501  0.00000000000E+00  0.00000000000E+00  0.73903834466E+03  0.73903834467E+03  0.25500000920E-02 0.  1.
        2   -1    0    0  501    0  0.00000000000E+00  0.00000000000E+00 -0.12355941256E+04  0.12355941256E+04  0.25500000920E-02 0. -1.
    10030    2    1    2    0    0  0.00000000000E+00  0.00000000000E+00 -0.49655578095E+03  0.19746324703E+04  0.19111791515E+04 0.  0.
        4    1    3    3  502    0  0.58142793148E+03 -0.23494937479E+03  0.49669536269E+03  0.79997971501E+03  0.12699999809E+01 0.  1.
       -4    1    3    3    0  502 -0.58142793148E+03  0.23494937479E+03 -0.99325114364E+03  0.11746527553E+04  0.12699999809E+01 0. -1.
</event>
<event>
 5   0  0.9266125E-05  0.1920001E+04  0.7818609E-02  0.8644964E-01
       -4   -1    0    0    0  501  0.00000000000E+00  0.00000000000E+00  0.10936856898E+04  0.10936864271E+04  0.12699999809E+01 0.  1.
        4   -1    0    0  501    0  0.00000000000E+00  0.00000000000E+00 -0.84265461138E+03  0.84265556842E+03  0.12699999809E+01 0. -1.
    10030    2    1    2    0    0  0.00000000000E+00  0.00000000000E+00  0.25103107838E+03  0.19363419955E+04  0.19200009691E+04 0.  0.
        5    1    3    3  502    0  0.43700051602E+03 -0.43811449578E+03 -0.61466903011E+03  0.87221205506E+03  0.46999998093E+01 0. -1.
       -5    1    3    3    0  502 -0.43700051602E+03  0.43811449578E+03  0.86570010849E+03  0.10641299405E+04  0.46999998093E+01 0.  1.
</event>
<event>
 5   0  0.1239615E-04  0.1878208E+04  0.7818609E-02  0.8665781E-01
        1   -1    0    0  501    0  0.00000000000E+00  0.00000000000E+00  0.63336491895E+03  0.63336491897E+03  0.50400001928E-02 0.  1.
       -1   -1    0    0    0  501  0.00000000000E+00  0.00000000000E+00 -0.13924293561E+04  0.13924293562E+04  0.50400001928E-02 0. -1.
    10030    2    1    2    0    0  0.00000000000E+00  0.00000000000E+00 -0.75906443720E+03  0.20257942751E+04  0.18782075565E+04 0.  0.
        3    1    3    3  502    0  0.77579434269E+03  0.37235469080E+03  0.26063517430E+02  0.86092055096E+03  0.10100000352E+00 0.  1.
       -3    1    3    3    0  502 -0.77579434269E+03 -0.37235469080E+03 -0.78512795463E+03  0.11648737242E+04  0.10100000352E+00 0. -1.
</event>
<event>
 5   0  0.1317527E-04  0.1878747E+04  0.7818609E-02  0.8665508E-01
       -1   -1    0    0    0  501  0.00000000000E+00  0.00000000000E+00  0.59869218623E+03  0.59869218625E+03  0.50400001928E-02 0.  1.
        1   -1    0    0  501    0  0.00000000000E+00  0.00000000000E+00 -0.14739177386E+04  0.14739177386E+04  0.50400001928E-02 0. -1.
    10030    2    1    2    0    0  0.00000000000E+00  0.00000000000E+00 -0.87522555237E+03  0.20726099249E+04  0.18787474905E+04 0.  0.
        1    1    3    3  502    0 -0.69781702779E+03 -0.38667079955E+03  0.10950586189E+03  0.80526669204E+03  0.50400001928E-02 0.  1.
       -1    1    3    3    0  502  0.69781702779E+03  0.38667079955E+03 -0.98473141426E+03  0.12673432328E+04  0.50400001928E-02 0. -1.
</event>
<event>
 5   0  0.1239615E-04  0.1886687E+04  0.7818609E-02  0.8661511E-01
       -1   -1    0    0    0  501  0.00000000000E+00  0.00000000000E+00  0.83971529187E+03  0.83971529188E+03  0.50400001928E-02 0. -1.
        1   -1    0    0  501    0  0.00000000000E+00  0.00000000000E+00 -0.10597606351E+04  0.10597606351E+04  0.50400001928E-02 0.  1.
    10030    2    1    2    0    0  0.00000000000E+00  0.00000000000E+00 -0.22004534326E+03  0.18994759270E+04  0.18866872672E+04 0.  0.
        3    1    3    3  502    0  0.49732297155E+03 -0.74828163124E+03  0.17940056758E+03  0.91620964388E+03  0.10100000352E+00 0. -1.
       -3    1    3    3    0  502 -0.49732297155E+03  0.74828163124E+03 -0.39944591084E+03  0.98326628315E+03  0.10100000352E+00 0.  1.
</event>
<event>
 5   0  0.2562925E-04  0.1903320E+04  0.7818609E-02  0.8653206E-01
       -2   -1    0    0    0  501  0.00000000000E+00  0.00000000000E+00  0.73567682068E+03  0.73567682068E+03  0.25500000920E-02 0.  1.
        2   -1    0    0  501    0  0.00000000000E+00  0.00000000000E+00 -0.12310523343E+04  0.12310523343E+04  0.25500000920E-02 0. -1.
    10030    2    1    2    0    0  0.00000000000E+00  0.00000000000E+00 -0.49537551361E+03  0.19667291550E+04  0.19033199073E+04 0.  0.
        4    1    3    3  502    0 -0.68432535098E+03 -0.32879103564E+03 -0.84060744414E+03  0.11327079143E+04  0.12699999809E+01 0.  1.
       -4    1    3    3    0  502  0.68432535098E+03  0.32879103564E+03  0.34523193053E+03  0.83402124066E+03  0.12699999809E+01 0. -1.
</event>
<event>
 5   0  0.2595012E-04  0.1917135E+04  0.7818609E-02  0.8646374E-01
       -2   -1    0    0    0  501  0.00000000000E+00  0.00000000000E+00  0.11757479356E+04  0.11757479356E+04  0.25500000920E-02 0. -1.
        2   -1    0    0  501    0  0.00000000000E+00  0.00000000000E+00 -0.78150416340E+03  0.78150416341E+03  0.25500000920E-02 0.  1.
    10030    2    1    2    0    0  0.00000000000E+00  0.00000000000E+00  0.39424377220E+03  0.19572520990E+04  0.19171352658E+04 0.  0.
        1    1    3    3  502    0  0.20711074743E+03  0.53124837655E+03 -0.58954218529E+03  0.82017052346E+03  0.50400001928E-02 0.  1.
       -1    1    3    3    0  502 -0.20711074743E+03 -0.53124837655E+03  0.98378595749E+03  0.11370815756E+04  0.50400001928E-02 0. -1.
</event>
<event>
 5   0  0.9266125E-05  0.1900738E+04  0.7818609E-02  0.8654489E-01
        4   -1    0    0  501    0  0.00000000000E+00  0.00000000000E+00  0.91740060246E+03  0.91740148152E+03  0.12699999809E+01 0. -1.
       -4   -1    0    0    0  501  0.00000000000E+00  0.00000000000E+00 -0.98452043538E+03  0.98452125451E+03  0.12699999809E+01 0.  1.
    10030    2    1    2    0    0  0.00000000000E+00  0.00000000000E+00 -0.67119832917E+02  0.19019227360E+04  0.19007380203E+04 0.  0.
        5    1    3    3  502    0  0.59115948653E+03  0.60884230084E+03 -0.46163572936E+03  0.96606838393E+03  0.46999998093E+01 0.  1.
       -5    1    3    3    0  502 -0.59115948653E+03 -0.60884230084E+03  0.39451589645E+03  0.93585435210E+03  0.46999998093E+01 0. -1.
</event>
<event>
 5   0  0.1255141E-04  0.1716539E+04  0.7818609E-02  0.8751987E-01
       -1   -1    0    0    0  501  0.00000000000E+00  0.00000000000E+00  0.66663977207E+03  0.66663977209E+03  0.50400001928E-02 0. -1.
        1   -1    0    0  501    0  0.00000000000E+00  0.00000000000E+00 -0.11049849761E+04  0.11049849761E+04  0.50400001928E-02 0.  1.
    10030    2    1    2    0    0  0.00000000000E+00  0.00000000000E+00 -0.43834520404E+03  0.17716247482E+04  0.17165394637E+04 0.  0.
        2    1    3    3  502    0 -0.29976615220E+02  0.25952370559E+03  0.62460559355E+03  0.67704010126E+03  0.25500000920E-02 0. -1.
       -2    1    3    3    0  502  0.29976615220E+02 -0.25952370559E+03 -0.10629507976E+04  0.10945846469E+04  0.25500000920E-02 0.  1.
</event>
<event>
 5   0  0.9266125E-05  0.1902790E+04  0.7818609E-02  0.8653469E-01
       -3   -1    0    0    0  501  0.00000000000E+00  0.00000000000E+00  0.12599377560E+04  0.12599377600E+04  0.10100000352E+00 0.  1.
        3   -1    0    0  501    0  0.00000000000E+00  0.00000000000E+00 -0.71841058221E+03  0.71841058931E+03  0.10100000352E+00 0. -1.
    10030    2    1    2    0    0  0.00000000000E+00  0.00000000000E+00  0.54152717378E+03  0.19783483494E+04  0.19027901911E+04 0.  0.
        1    1    3    3  502    0 -0.27502366924E+03  0.31141708398E+03  0.11606319300E+04  0.12327550835E+04  0.50400001928E-02 0.  1.
       -1    1    3    3    0  502  0.27502366924E+03 -0.31141708398E+03 -0.61910475626E+03  0.74559326586E+03  0.50400001928E-02 0. -1.
</event>
<event>
 5   0  0.2562925E-04  0.1770081E+04  0.7818609E-02  0.8722374E-01
       -2   -1    0    0    0  501  0.00000000000E+00  0.00000000000E+00  0.32015634249E+03  0.32015634250E+03  0.25500000920E-02 0.  1.
        2   -1    0    0  501    0  0.00000000000E+00  0.00000000000E+00 -0.24466074268E+04  0.24466074268E+04  0.25500000920E-02 0. -1.
    10030    2    1    2    0    0  0.00000000000E+00  0.00000000000E+00 -0.21264510843E+04  0.27667637693E+04  0.17700812245E+04 0.  0.
        4    1    3    3  502    0  0.88398109246E+03  0.10145444143E+01 -0.11308484236E+04  0.14353547893E+04  0.12699999809E+01 0. -1.
       -4    1    3    3    0  502 -0.88398109246E+03 -0.10145444143E+01 -0.99560266074E+03  0.13314089800E+04  0.12699999809E+01 0.  1.
</event>
<event>
 5   0  0.1239615E-04  0.1836816E+04  0.7818609E-02  0.8686962E-01
        1   -1    0    0  501    0  0.00000000000E+00  0.00000000000E+00  0.13185142475E+04  0.13185142475E+04  0.50400001928E-02 0.  1.
       -1   -1    0    0    0  501  0.00000000000E+00  0.00000000000E+00 -0.63971518146E+03  0.63971518148E+03  0.50400001928E-02 0. -1.
    10030    2    1    2    0    0  0.00000000000E+00  0.00000000000E+00  0.67879906600E+03  0.19582294290E+04  0.18368163557E+04 0.  0.
        3    1    3    3  502    0 -0.33664210603E+03  0.19896051451E+03 -0.54652894669E+03  0.67201718256E+03  0.10100000352E+00 0. -1.
       -3    1    3    3    0  502  0.33664210603E+03 -0.19896051451E+03  0.12253280127E+04  0.12862122464E+04  0.10100000352E+00 0.  1.
</event>
<event>
 5   0  0.2562925E-04  0.1906799E+04  0.7818609E-02  0.8651479E-01
       -2   -1    0    0    0  501  0.00000000000E+00  0.00000000000E+00  0.40729286465E+03  0.40729286466E+03  0.25500000920E-02 0. -1.
        2   -1    0    0  501    0  0.00000000000E+00  0.00000000000E+00 -0.22317370816E+04  0.22317370816E+04  0.25500000920E-02 0.  1.
    10030    2    1    2    0    0  0.00000000000E+00  0.00000000000E+00 -0.18244442169E+04  0.26390299462E+04  0.19067989817E+04 0.  0.
        4    1    3    3  502    0  0.71247456253E+03  0.63324698435E+03 -0.93801193992E+03  0.13373442929E+04  0.12699999809E+01 0.  1.
       -4    1    3    3    0  502 -0.71247456253E+03 -0.63324698435E+03 -0.88643227699E+03  0.13016856533E+04  0.12699999809E+01 0. -1.
</event>
<event>
 5   0  0.1239615E-04  0.1901817E+04  0.7818609E-02  0.8653953E-01
       -1   -1    0    0    0  501  0.00000000000E+00  0.00000000000E+00  0.77577572168E+03  0.77577572170E+03  0.50400001928E-02 0. -1.
        1   -1    0    0  501    0  0.00000000000E+00  0.00000000000E+00 -0.11655773014E+04  0.11655773014E+04  0.50400001928E-02 0.  1.
    10030    2    1    2    0    0  0.00000000000E+00  0.00000000000E+00 -0.38980157970E+03  0.19413530231E+04  0.19018165760E+04 0.  0.
        3    1    3    3  502    0  0.35749907164E+03  0.78122673646E+03 -0.61093422708E+03  0.10542112881E+04  0.10100000352E+00 0.  1.
       -3    1    3    3    0  502 -0.35749907164E+03 -0.78122673646E+03  0.22113264739E+03  0.88714173496E+03  0.10100000352E+00 0. -1.
</event>
<event>
 5   0  0.1239615E-04  0.1916481E+04  0.7818609E-02  0.8646696E-01
       -1   -1    0    0    0  501  0.00000000000E+00  0.00000000000E+00  0.64018489091E+03  0.64018489093E+03  0.50400001928E-02 0. -1.
        1   -1    0    0  501    0  0.00000000000E+00  0.00000000000E+00 -0.14343120540E+04  0.14343120540E+04  0.50400001928E-02 0.  1.
    10030    2    1    2    0    0  0.00000000000E+00  0.00000000000E+00 -0.79412716311E+03  0.20744969450E+04  0.19164810522E+04 0.  0.
        3    1    3    3  502    0 -0.17109667162E+03 -0.54304284473E+03 -0.12313625465E+04  0.13566220304E+04  0.10100000352E+00 0.  1.
       -3    1    3    3    0  502  0.17109667162E+03  0.54304284473E+03  0.43723538339E+03  0.71787491455E+03  0.10100000352E+00 0. -1.
</event>
<event>
 5   0  0.2562925E-04  0.1896017E+04  0.7818609E-02  0.8656842E-01
       -2   -1    0    0    0  501  0.00000000000E+00  0.00000000000E+00  0.84108021282E+03  0.84108021282E+03  0.25500000920E-02 0. -1.
        2   -1    0    0  501    0  0.00000000000E+00  0.00000000000E+00 -0.10685302447E+04  0.10685302447E+04  0.25500000920E-02 0.  1.
    10030    2    1    2    0    0  0.00000000000E+00  0.00000000000E+00 -0.22745003190E+03  0.19096104575E+04  0.18960165038E+04 0.  0.
        4    1    3    3  502    0  0.55032695294E+03  0.12694386563E+03  0.65314300423E+03  0.86346505258E+03  0.12699999809E+01 0. -1.
       -4    1    3    3    0  502 -0.55032695294E+03 -0.12694386563E+03 -0.88059303613E+03  0.10461454050E+04  0.12699999809E+01 0.  1.
</event>
<event>
 5   0  0.2595012E-04  0.2152324E+04  0.7818609E-02  0.8538538E-01
       -2   -1    0    0    0  501  0.00000000000E+00  0.00000000000E+00  0.55184943501E+03  0.55184943502E+03  0.25500000920E-02 0.  1.
        2   -1    0    0  501    0  0.00000000000E+00  0.00000000000E+00 -0.20986235205E+04  0.20986235205E+04  0.25500000920E-02 0. -1.
    10030    2    1    2    0    0  0.00000000000E+00  0.00000000000E+00 -0.15467740855E+04  0.26504729556E+04  0.21523235855E+04 0.  0.
        1    1    3    3  502    0 -0.21416020658E+01  0.28230929873E+03 -0.20522087400E+04  0.20715365889E+04  0.50400001928E-02 0. -1.
       -1    1    3    3    0  502  0.21416020658E+01 -0.28230929873E+03  0.50543465450E+03  0.57893636663E+03  0.50400001928E-02 0.  1.
</event>
<event>
 5   0  0.2562925E-04  0.1818835E+04  0.7818609E-02  0.8696347E-01
        2   -1    0    0  501    0  0.00000000000E+00  0.00000000000E+00  0.10926966428E+04  0.10926966428E+04  0.25500000920E-02 0. -1.
       -2   -1    0    0    0  501  0.00000000000E+00  0.00000000000E+00 -0.75688031554E+03  0.75688031555E+03  0.25500000920E-02 0.  1.
    10030    2    1    2    0    0  0.00000000000E+00  0.00000000000E+00  0.33581632723E+03  0.18495769583E+04  0.18188354294E+04 0.  0.
        4    1    3    3  502    0 -0.47702072481E+03  0.22046303368E+03  0.92267005783E+03  0.10618259601E+04  0.12699999809E+01 0. -1.
       -4    1    3    3    0  502  0.47702072481E+03 -0.22046303368E+03 -0.58685373060E+03  0.78775099818E+03  0.12699999809E+01 0.  1.
</event>
<event>
 5   0  0.2562925E-04  0.2019027E+04  0.7818609E-02  0.8597776E-01
        2   -1    0    0  501    0  0.00000000000E+00  0.00000000000E+00  0.98173814056E+03  0.98173814057E+03  0.25500000920E-02 0.  1.
       -2   -1    0    0    0  501  0.00000000000E+00  0.00000000000E+00 -0.10380750950E+04  0.10380750950E+04  0.25500000920E-02 0. -1.
    10030    2    1    2    0    0  0.00000000000E+00  0.00000000000E+00 -0.56336954426E+02  0.20198132356E+04  0.20190274030E+04 0.  0.
        4    1    3    3  502    0  0.51107120202E+03 -0.84905299231E+03  0.16434223757E+03  0.10045370781E+04  0.12699999809E+01 0. -1.
       -4    1    3    3    0  502 -0.51107120202E+03  0.84905299231E+03 -0.22067919199E+03  0.10152761575E+04  0.12699999809E+01 0.  1.
</event>
<event>
 5   0  0.1317527E-04  0.1871535E+04  0.7818609E-02  0.8669156E-01
       -1   -1    0    0    0  501  0.00000000000E+00  0.00000000000E+00  0.67432395604E+03  0.67432395606E+03  0.50400001928E-02 0.  1.
        1   -1    0    0  501    0  0.00000000000E+00  0.00000000000E+00 -0.12985757919E+04  0.12985757920E+04  0.50400001928E-02 0. -1.
    10030    2    1    2    0    0  0.00000000000E+00  0.00000000000E+00 -0.62425183590E+03  0.19728997480E+04  0.18715349479E+04 0.  0.
        1    1    3    3  502    0 -0.30455015682E+03  0.64887471009E+03  0.32201286254E+03  0.78579989251E+03  0.50400001928E-02 0.  1.
       -1    1    3    3    0  502  0.30455015682E+03 -0.64887471009E+03 -0.94626469844E+03  0.11870998555E+04  0.50400001928E-02 0. -1.
</event>
<event>
 5   0  0.1239615E-04  0.1894082E+04  0.7818609E-02  0.8657808E-01
        1   -1    0    0  501    0  0.00000000000E+00  0.00000000000E+00  0.19856302543E+04  0.19856302543E+04  0.50400001928E-02 0. -1.
       -1   -1    0    0    0  501  0.00000000000E+00  0.00000000000E+00 -0.45168881566E+03  0.45168881569E+03  0.50400001928E-02 0.  1.
    10030    2    1    2    0    0  0.00000000000E+00  0.00000000000E+00  0.15339414387E+04  0.24373190700E+04  0.18940823403E+04 0.  0.
        3    1    3    3  502    0  0.39477470174E+03  0.86081271344E+03  0.75869353598E+03  0.12134502398E+04  0.10100000352E+00 0.  1.
       -3    1    3    3    0  502 -0.39477470174E+03 -0.86081271344E+03  0.77524790269E+03  0.12238688302E+04  0.10100000352E+00 0. -1.
</event>
<event>
 5   0  0.2608744E-04  0.1931945E+04  0.7818609E-02  0.8639117E-01
       -2   -1    0    0    0  501  0.00000000000E+00  0.00000000000E+00  0.91524609697E+03  0.91524609697E+03  0.25500000920E-02 0.  1.
        2   -1    0    0  501    0  0.00000000000E+00  0.00000000000E+00 -0.10195104133E+04  0.10195104133E+04  0.25500000920E-02 0. -1.
    10030    2    1    2    0    0  0.00000000000E+00  0.00000000000E+00 -0.10426431635E+03  0.19347565103E+04  0.19319450578E+04 0.  0.
        2    1    3    3  502    0  0.66965581415E+03  0.40696497119E+01 -0.74931150569E+03  0.10049493540E+04  0.25500000920E-02 0. -1.
       -2    1    3    3    0  502 -0.66965581415E+03 -0.40696497119E+01  0.64504718934E+03  0.92980715633E+03  0.25500000920E-02 0.  1.
</event>
<event>
 5   0  0.1255141E-04  0.1971497E+04  0.7818609E-02  0.8620064E-01
        1   -1    0    0  501    0  0.00000000000E+00  0.00000000000E+00  0.18878243649E+04  0.18878243649E+04  0.50400001928E-02 0.  1.
       -1   -1    0    0    0  501  0.00000000000E+00  0.00000000000E+00 -0.51471955360E+03  0.51471955363E+03  0.50400001928E-02 0. -1.
    10030    2    1    2    0    0  0.00000000000E+00  0.00000000000E+00  0.13731048113E+04  0.24025439185E+04  0.19714970093E+04 0.  0.
        2    1    3    3  502    0 -0.23026770624E+03  0.26052576470E+03 -0.43750832565E+03  0.55884740818E+03  0.25500000920E-02 0. -1.
       -2    1    3    3    0  502  0.23026770624E+03 -0.26052576470E+03  0.18106131369E+04  0.18436965103E+04  0.25500000920E-02 0.  1.
</event>
<event>
 5   0  0.1277709E-04  0.1915793E+04  0.7818609E-02  0.8647035E-01
        1   -1    0    0  501    0  0.00000000000E+00  0.00000000000E+00  0.22751957363E+04  0.22751957363E+04  0.50400001928E-02 0.  1.
       -1   -1    0    0    0  501  0.00000000000E+00  0.00000000000E+00 -0.40329069364E+03  0.40329069367E+03  0.50400001928E-02 0. -1.
    10030    2    1    2    0    0  0.00000000000E+00  0.00000000000E+00  0.18719050426E+04  0.26784864299E+04  0.19157925427E+04 0.  0.
        4    1    3    3  502    0 -0.16177723115E+03 -0.94210347064E+03  0.10225092544E+04  0.13997348357E+04  0.12699999809E+01 0. -1.
       -4    1    3    3    0  502  0.16177723115E+03  0.94210347064E+03  0.84939578821E+03  0.12787515943E+04  0.12699999809E+01 0.  1.
</event>
<event>
 5   0  0.1277709E-04  0.1871237E+04  0.7818609E-02  0.8669308E-01
       -1   -1    0    0    0  501  0.00000000000E+00  0.00000000000E+00  0.92859931611E+03  0.92859931612E+03  0.50400001928E-02 0. -1.
        1   -1    0    0  501    0  0.00000000000E+00  0.00000000000E+00 -0.94269042741E+03  0.94269042742E+03  0.50400001928E-02 0.  1.
    10030    2    1    2    0    0  0.00000000000E+00  0.00000000000E+00 -0.14091111300E+02  0.18712897435E+04  0.18712366886E+04 0.  0.
        4    1    3    3  502    0  0.23346897022E+03  0.90583469295E+03  0.11280418947E+02  0.93550687425E+03  0.12699999809E+01 0.  1.
       -4    1    3    3    0  502 -0.23346897022E+03 -0.90583469295E+03 -0.25371530247E+02  0.93578286929E+03  0.12699999809E+01 0. -1.
</event>
<event>
 5   0  0.2608744E-04  0.1904408E+04  0.7818609E-02  0.8652665E-01
       -2   -1    0    0    0  501  0.00000000000E+00  0.00000000000E+00  0.56408584025E+03  0.56408584026E+03  0.25500000920E-02 0. -1.
        2   -1    0    0  501    0  0.00000000000E+00  0.00000000000E+00 -0.16073664005E+04  0.16073664005E+04  0.25500000920E-02 0.  1.
    10030    2    1    2    0    0  0.00000000000E+00  0.00000000000E+00 -0.10432805603E+04  0.21714522408E+04  0.19044081775E+04 0.  0.
        2    1    3    3  502    0 -0.15878849620E+03 -0.91310762779E+03 -0.27257684571E+03  0.96606286714E+03  0.25500000920E-02 0. -1.
       -2    1    3    3    0  502  0.15878849620E+03  0.91310762779E+03 -0.77070371456E+03  0.12053893736E+04  0.25500000920E-02 0.  1.
</event>
<event>
 5   0  0.1317527E-04  0.1891600E+04  0.7818609E-02  0.8659049E-01
       -1   -1    0    0    0  501  0.00000000000E+00  0.00000000000E+00  0.95603019349E+03  0.95603019351E+03  0.50400001928E-02 0. -1.
        1   -1    0    0  501    0  0.00000000000E+00  0.00000000000E+00 -0.93567915153E+03  0.93567915155E+03  0.50400001928E-02 0.  1.
    10030    2    1    2    0    0  0.00000000000E+00  0.00000000000E+00  0.20351041961E+02  0.18917093451E+04  0.18915998735E+04 0.  0.
        1    1    3    3  502    0 -0.70478293881E+03 -0.57550779956E+03 -0.24792719504E+03  0.94307799903E+03  0.50400001928E-02 0.  1.
       -1    1    3    3    0  502  0.70478293881E+03  0.57550779956E+03  0.26827823700E+03  0.94863134603E+03  0.50400001928E-02 0. -1.
</event>
<event>
 5   0  0.2608744E-04  0.1901586E+04  0.7818609E-02  0.8654067E-01
       -2   -1    0    0    0  501  0.00000000000E+00  0.00000000000E+00  0.57839530956E+03  0.57839530957E+03  0.25500000920E-02 0. -1.
        2   -1    0    0  501    0  0.00000000000E+00  0.00000000000E+00 -0.15629570921E+04  0.15629570921E+04  0.25500000920E-02 0.  1.
    10030    2    1    2    0    0  0.00000000000E+00  0.00000000000E+00 -0.98456178252E+03  0.21413524016E+04  0.19015857079E+04 0.  0.
        2    1    3    3  502    0  0.34202856018E+02 -0.56003910158E+03 -0.13566538751E+04  0.14681019609E+04  0.25500000920E-02 0.  1.
       -2    1    3    3    0  502 -0.34202856018E+02  0.56003910158E+03  0.37209209258E+03  0.67325044079E+03  0.25500000920E-02 0. -1.
</event>
<event>
 5   0  0.2608744E-04  0.1903688E+04  0.7818609E-02  0.8653023E-01
        2   -1    0    0  501    0  0.00000000000E+00  0.00000000000E+00  0.13602364111E+04  0.13602364111E+04  0.25500000920E-02 0.  1.
       -2   -1    0    0    0  501  0.00000000000E+00  0.00000000000E+00 -0.66606554032E+03  0.66606554033E+03  0.25500000920E-02 0. -1.
    10030    2    1    2    0    0  0.00000000000E+00  0.00000000000E+00  0.69417087083E+03  0.20263019515E+04  0.19036875796E+04 0.  0.
        2    1    3    3  502    0 -0.18177449970E+03  0.33094232458E+01 -0.64741295859E+03  0.67245554498E+03  0.25500000920E-02 0. -1.
       -2    1    3    3    0  502  0.18177449970E+03 -0.33094232458E+01  0.13415838294E+04  0.13538464065E+04  0.25500000920E-02 0.  1.
</event>
<event>
 5   0  0.2608744E-04  0.1904637E+04  0.7818609E-02  0.8652552E-01
        2   -1    0    0  501    0  0.00000000000E+00  0.00000000000E+00  0.80139078597E+03  0.80139078597E+03  0.25500000920E-02 0. -1.
       -2   -1    0    0    0  501  0.00000000000E+00  0.00000000000E+00 -0.11316702078E+04  0.11316702078E+04  0.25500000920E-02 0.  1.
    10030    2    1    2    0    0  0.00000000000E+00  0.00000000000E+00 -0.33027942182E+03  0.19330609938E+04  0.19046365294E+04 0.  0.
        2    1    3    3  502    0  0.11117087638E+03 -0.12038058403E+02 -0.11249841392E+04  0.11305278378E+04  0.25500000920E-02 0.  1.
       -2    1    3    3    0  502 -0.11117087638E+03  0.12038058403E+02  0.79470471737E+03  0.80253315597E+03  0.25500000920E-02 0. -1.
</event>
<event>
 5   0  0.2595012E-04  0.1869116E+04  0.7818609E-02  0.8670384E-01
        2   -1    0    0  501    0  0.00000000000E+00  0.00000000000E+00  0.67861352378E+03  0.67861352379E+03  0.25500000920E-02 0. -1.
       -2   -1    0    0    0  501  0.00000000000E+00  0.00000000000E+00 -0.12870341990E+04  0.12870341990E+04  0.25500000920E-02 0.  1.
    10030    2    1    2    0    0  0.00000000000E+00  0.00000000000E+00 -0.60842067518E+03  0.19656477228E+04  0.18691161687E+04 0.  0.
        1    1    3    3  502    0  0.64503837576E+03  0.44006742029E+03  0.23579196571E+03  0.81567866940E+03  0.50400001928E-02 0. -1.
       -1    1    3    3    0  502 -0.64503837576E+03 -0.44006742029E+03 -0.84421264089E+03  0.11499690533E+04  0.50400001928E-02 0.  1.
</event>
<event>
 5   0  0.1255141E-04  0.1906673E+04  0.7818609E-02  0.8651542E-01
       -1   -1    0    0    0  501  0.00000000000E+00  0.00000000000E+00  0.80576880912E+03  0.80576880914E+03  0.50400001928E-02 0.  1.
        1   -1    0    0  501    0  0.00000000000E+00  0.00000000000E+00 -0.11279291475E+04  0.11279291475E+04  0.50400001928E-02 0. -1.
    10030    2    1    2    0    0  0.00000000000E+00  0.00000000000E+00 -0.32216033839E+03  0.19336979567E+04  0.19066726263E+04 0.  0.
        2    1    3    3  502    0 -0.45572626781E+02 -0.64841408192E+03  0.54617987935E+03  0.84901716505E+03  0.25500000920E-02 0.  1.
       -2    1    3    3    0  502  0.45572626781E+02  0.64841408192E+03 -0.86834021773E+03  0.10846807916E+04  0.25500000920E-02 0. -1.
</event>
<event>
 5   0  0.2562925E-04  0.1896194E+04  0.7818609E-02  0.8656753E-01
       -2   -1    0    0    0  501  0.00000000000E+00  0.00000000000E+00  0.10805441077E+04  0.10805441077E+04  0.25500000920E-02 0. -1.
        2   -1    0    0  501    0  0.00000000000E+00  0.00000000000E+00 -0.83188483210E+03  0.83188483211E+03  0.25500000920E-02 0.  1.
    10030    2    1    2    0    0  0.00000000000E+00  0.00000000000E+00  0.24865927558E+03  0.19124289398E+04  0.18961943504E+04 0.  0.
        4    1    3    3  502    0  0.72200996497E+03  0.36900583401E+03  0.61988448789E+03  0.10206478757E+04  0.12699999809E+01 0. -1.
       -4    1    3    3    0  502 -0.72200996497E+03 -0.36900583401E+03 -0.37122521231E+03  0.89178106405E+03  0.12699999809E+01 0.  1.
</event>
<event>
 5   0  0.2541124E-04  0.1453471E+04  0.7818609E-02  0.8915998E-01
        2   -1    0    0  501    0  0.00000000000E+00  0.00000000000E+00  0.11524675885E+04  0.11524675885E+04  0.25500000920E-02 0. -1.
       -2   -1    0    0    0  501  0.00000000000E+00  0.00000000000E+00 -0.45827249040E+03  0.45827249040E+03  0.25500000920E-02 0.  1.
    10030    2    1    2    0    0  0.00000000000E+00  0.00000000000E+00  0.69419509806E+03  0.16107400789E+04  0.14534705939E+04 0.  0.
        5    1    3    3  502    0  0.21093007805E+03 -0.16022396668E+03  0.10970478086E+04  0.11285828289E+04  0.46999998093E+01 0. -1.
       -5    1    3    3    0  502 -0.21093007805E+03  0.16022396668E+03 -0.40285271053E+03  0.48215724998E+03  0.46999998093E+01 0.  1.
</event>
<event>
 5   0  0.1239615E-04  0.1577365E+04  0.7818609E-02  0.8834576E-01
       -1   -1    0    0    0  501  0.00000000000E+00  0.00000000000E+00  0.10466947666E+04  0.10466947666E+04  0.50400001928E-02 0. -1.
        1   -1    0    0  501    0  0.00000000000E+00  0.00000000000E+00 -0.59427057093E+03  0.59427057095E+03  0.50400001928E-02 0.  1.
    10030    2    1    2    0    0  0.00000000000E+00  0.00000000000E+00  0.45242419569E+03  0.16409653376E+04  0.15773647601E+04 0.  0.
        3    1    3    3  502    0 -0.17042069940E+03 -0.42322473069E+03  0.89546873654E+03  0.10050008238E+04  0.10100000352E+00 0. -1.
       -3    1    3    3    0  502  0.17042069940E+03  0.42322473069E+03 -0.44304454085E+03  0.63596451382E+03  0.10100000352E+00 0.  1.
</event>
<event>
 5   0  0.2541124E-04  0.1891923E+04  0.7818609E-02  0.8658887E-01
        2   -1    0    0  501    0  0.00000000000E+00  0.00000000000E+00  0.12737250171E+04  0.12737250171E+04  0.25500000920E-02 0. -1.
       -2   -1    0    0    0  501  0.00000000000E+00  0.00000000000E+00 -0.70254031084E+03  0.70254031085E+03  0.25500000920E-02 0.  1.
    10030    2    1    2    0    0  0.00000000000E+00  0.00000000000E+00  0.57118470623E+03  0.19762653279E+04  0.18919230105E+04 0.  0.
        5    1    3    3  502    0 -0.49432148143E+02  0.15753277953E+02  0.12722255232E+04  0.12732916299E+04  0.46999998093E+01 0. -1.
       -5    1    3    3    0  502  0.49432148143E+02 -0.15753277953E+02 -0.70104081695E+03  0.70297369799E+03  0.46999998093E+01 0.  1.
</event>
<event>
 5   0  0.1324058E-04  0.1906263E+04  0.7818609E-02  0.8651745E-01
       -1   -1    0    0    0  501  0.00000000000E+00  0.00000000000E+00  0.95107370297E+03  0.95107370298E+03  0.50400001928E-02 0.  1.
        1   -1    0    0  501    0  0.00000000000E+00  0.00000000000E+00 -0.95519370722E+03  0.95519370723E+03  0.50400001928E-02 0. -1.
    10030    2    1    2    0    0  0.00000000000E+00  0.00000000000E+00 -0.41200042532E+01  0.19062674102E+04  0.19062629579E+04 0.  0.
        5    1    3    3  502    0 -0.11335099897E+03 -0.47889951536E+03 -0.81829982203E+03  0.95489783931E+03  0.46999998093E+01 0. -1.
       -5    1    3    3    0  502  0.11335099897E+03  0.47889951536E+03  0.81417981778E+03  0.95136957091E+03  0.46999998093E+01 0.  1.
</event>
<event>
 5   0  0.2541124E-04  0.1899470E+04  0.7818609E-02  0.8655120E-01
       -2   -1    0    0    0  501  0.00000000000E+00  0.00000000000E+00  0.49343758631E+03  0.49343758632E+03  0.25500000920E-02 0.  1.
        2   -1    0    0  501    0  0.00000000000E+00  0.00000000000E+00 -0.18279842341E+04  0.18279842342E+04  0.25500000920E-02 0. -1.
    10030    2    1    2    0    0  0.00000000000E+00  0.00000000000E+00 -0.13345466478E+04  0.23214218205E+04  0.18994695347E+04 0.  0.
        5    1    3    3  502    0  0.39595118914E+03 -0.15154323841E+03 -0.17059010103E+04  0.17578006270E+04  0.46999998093E+01 0. -1.
       -5    1    3    3    0  502 -0.39595118914E+03  0.15154323841E+03  0.37135436243E+03  0.56362119351E+03  0.46999998093E+01 0.  1.
</event>
<event>
 5   0  0.2608744E-04  0.1894443E+04  0.7818609E-02  0.8657627E-01
       -2   -1    0    0    0  501  0.00000000000E+00  0.00000000000E+00  0.10190606126E+04  0.10190606126E+04  0.25500000920E-02 0.  1.
        2   -1    0    0  501    0  0.00000000000E+00  0.00000000000E+00 -0.88044702758E+03  0.88044702759E+03  0.25500000920E-02 0. -1.
    10030    2    1    2    0    0  0.00000000000E+00  0.00000000000E+00  0.13861358500E+03  0.18995076402E+04  0.18944433349E+04 0.  0.
        2    1    3    3  502    0  0.85281850066E+03 -0.28459427612E+03  0.36832471580E+03  0.97157418314E+03  0.25500000920E-02 0. -1.
       -2    1    3    3    0  502 -0.85281850066E+03  0.28459427612E+03 -0.22971113080E+03  0.92793345703E+03  0.25500000920E-02 0.  1.
</event>
<event>
 5   0  0.1317527E-04  0.1902553E+04  0.7818609E-02  0.8653587E-01
        1   -1    0    0  501    0  0.00000000000E+00  0.00000000000E+00  0.90717555362E+03  0.90717555363E+03  0.50400001928E-02 0.  1.
       -1   -1    0    0    0  501  0.00000000000E+00  0.00000000000E+00 -0.99752156019E+03  0.99752156021E+03  0.50400001928E-02 0. -1.
    10030    2    1    2    0    0  0.00000000000E+00  0.00000000000E+00 -0.90346006573E+02  0.19046971138E+04  0.19025532041E+04 0.  0.
        1    1    3    3  502    0 -0.13414842415E+03  0.69836054414E+03  0.58738068581E+03  0.92234446895E+03  0.50400001928E-02 0.  1.
       -1    1    3    3    0  502  0.13414842415E+03 -0.69836054414E+03 -0.67772669239E+03  0.98235264489E+03  0.50400001928E-02 0. -1.
</event>
<event>
 5   0  0.1239615E-04  0.1855555E+04  0.7818609E-02  0.8677301E-01
        1   -1    0    0  501    0  0.00000000000E+00  0.00000000000E+00  0.34171518575E+04  0.34171518575E+04  0.50400001928E-02 0. -1.
       -1   -1    0    0    0  501  0.00000000000E+00  0.00000000000E+00 -0.25189722055E+03  0.25189722060E+03  0.50400001928E-02 0.  1.
    10030    2    1    2    0    0  0.00000000000E+00  0.00000000000E+00  0.31652546369E+04  0.36690490781E+04  0.18555549630E+04 0.  0.
        3    1    3    3  502    0  0.17341799209E+02  0.51247441694E+03  0.31115033914E+04  0.31534717584E+04  0.10100000352E+00 0. -1.
       -3    1    3    3    0  502 -0.17341799209E+02 -0.51247441694E+03  0.53751245554E+02  0.51557731973E+03  0.10100000352E+00 0.  1.
</event>
<event>
 5   0  0.2562925E-04  0.1906824E+04  0.7818609E-02  0.8651467E-01
       -2   -1    0    0    0  501  0.00000000000E+00  0.00000000000E+00  0.96190384216E+03  0.96190384216E+03  0.25500000920E-02 0.  1.
        2   -1    0    0  501    0  0.00000000000E+00  0.00000000000E+00 -0.94499555298E+03  0.94499555299E+03  0.25500000920E-02 0. -1.
    10030    2    1    2    0    0  0.00000000000E+00  0.00000000000E+00  0.16908289174E+02  0.19068993951E+04  0.19068244316E+04 0.  0.
        4    1    3    3  502    0  0.18866550518E+02  0.87754019725E+03 -0.36379763926E+03  0.95014897766E+03  0.12699999809E+01 0. -1.
       -4    1    3    3    0  502 -0.18866550518E+02 -0.87754019725E+03  0.38070592843E+03  0.95675041749E+03  0.12699999809E+01 0.  1.
</event>
<event>
 5   0  0.2562925E-04  0.1902327E+04  0.7818609E-02  0.8653699E-01
       -2   -1    0    0    0  501  0.00000000000E+00  0.00000000000E+00  0.14467944181E+04  0.14467944181E+04  0.25500000920E-02 0.  1.
        2   -1    0    0  501    0  0.00000000000E+00  0.00000000000E+00 -0.62532172324E+03  0.62532172325E+03  0.25500000920E-02 0. -1.
    10030    2    1    2    0    0  0.00000000000E+00  0.00000000000E+00  0.82147269481E+03  0.20721161413E+04  0.19023269737E+04 0.  0.
        4    1    3    3  502    0 -0.33962212143E+03 -0.15702270157E+03 -0.54179134633E+03  0.65843662567E+03  0.12699999809E+01 0. -1.
       -4    1    3    3    0  502  0.33962212143E+03  0.15702270157E+03  0.13632640411E+04  0.14136795156E+04  0.12699999809E+01 0.  1.
</event>
<event>
 5   0  0.2595012E-04  0.1831655E+04  0.7818609E-02  0.8689644E-01
        2   -1    0    0  501    0  0.00000000000E+00  0.00000000000E+00  0.16261407337E+04  0.16261407337E+04  0.25500000920E-02 0. -1.
       -2   -1    0    0    0  501  0.00000000000E+00  0.00000000000E+00 -0.51578588523E+03  0.51578588524E+03  0.25500000920E-02 0.  1.
    10030    2    1    2    0    0  0.00000000000E+00  0.00000000000E+00  0.11103548484E+04  0.21419266189E+04  0.18316554674E+04 0.  0.
        1    1    3    3  502    0  0.63008575564E+02 -0.91320027549E+03  0.52137376845E+03  0.10534398085E+04  0.50400001928E-02 0.  1.
       -1    1    3    3    0  502 -0.63008575564E+02  0.91320027549E+03  0.58898107999E+03  0.10884868104E+04  0.50400001928E-02 0. -1.
</event>
<event>
 5   0  0.9266125E-05  0.1941405E+04  0.7818609E-02  0.8634517E-01
        4   -1    0    0  501    0  0.00000000000E+00  0.00000000000E+00  0.84620388486E+03  0.84620483788E+03  0.12699999809E+01 0.  1.
       -4   -1    0    0    0  501  0.00000000000E+00  0.00000000000E+00 -0.11135163510E+04  0.11135170753E+04  0.12699999809E+01 0. -1.
    10030    2    1    2    0    0  0.00000000000E+00  0.00000000000E+00 -0.26731246618E+03  0.19597219132E+04  0.19414051670E+04 0.  0.
        4    1    3    3  502    0 -0.89435459622E+03 -0.18954580995E+03  0.19571065176E+03  0.93493423831E+03  0.12699999809E+01 0.  1.
       -4    1    3    3    0  502  0.89435459622E+03  0.18954580995E+03 -0.46302311795E+03  0.10247876748E+04  0.12699999809E+01 0. -1.
</event>
<event>
 5   0  0.1239615E-04  0.1902516E+04  0.7818609E-02  0.8653605E-01
        1   -1    0    0  501    0  0.00000000000E+00  0.00000000000E+00  0.18482050252E+04  0.18482050252E+04  0.50400001928E-02 0.  1.
       -1   -1    0    0    0  501  0.00000000000E+00  0.00000000000E+00 -0.48960576054E+03  0.48960576057E+03  0.50400001928E-02 0. -1.
    10030    2    1    2    0    0  0.00000000000E+00  0.00000000000E+00  0.13585992646E+04  0.23378107858E+04  0.19025160467E+04 0.  0.
        3    1    3    3  502    0  0.58411834426E+03  0.40025098424E+03  0.14598501880E+04  0.16225158465E+04  0.10100000352E+00 0.  1.
       -3    1    3    3    0  502 -0.58411834426E+03 -0.40025098424E+03 -0.10125092335E+03  0.71529493929E+03  0.10100000352E+00 0. -1.
</event>
<event>
 5   0  0.1317527E-04  0.1943075E+04  0.7818609E-02  0.8633707E-01
       -1   -1    0    0    0  501  0.00000000000E+00  0.00000000000E+00  0.87801852999E+03  0.87801853001E+03  0.50400001928E-02 0.  1.
        1   -1    0    0  501    0  0.00000000000E+00  0.00000000000E+00 -0.10750177883E+04  0.10750177883E+04  0.50400001928E-02 0. -1.
    10030    2    1    2    0    0  0.00000000000E+00  0.00000000000E+00 -0.19699925831E+03  0.19530363183E+04  0.19430754367E+04 0.  0.
        1    1    3    3  502    0 -0.16639383850E+03  0.50504220128E+03 -0.91576748822E+03  0.10589544972E+04  0.50400001928E-02 0. -1.
       -1    1    3    3    0  502  0.16639383850E+03 -0.50504220128E+03  0.71876822991E+03  0.89408182115E+03  0.50400001928E-02 0.  1.
</event>
<event>
 5   0  0.2608744E-04  0.1906342E+04  0.7818609E-02  0.8651706E-01
        2   -1    0    0  501    0  0.00000000000E+00  0.00000000000E+00  0.23027765690E+04  0.23027765691E+04  0.25500000920E-02 0. -1.
       -2   -1    0    0    0  501  0.00000000000E+00  0.00000000000E+00 -0.39453900557E+03  0.39453900558E+03  0.25500000920E-02 0.  1.
    10030    2    1    2    0    0  0.00000000000E+00  0.00000000000E+00  0.19082375635E+04  0.26973155746E+04  0.19063422333E+04 0.  0.
        2    1    3    3  502    0  0.86319972158E+03  0.34432315997E+03  0.12538106427E+04  0.15606772010E+04  0.25500000920E-02 0. -1.
       -2    1    3    3    0  502 -0.86319972158E+03 -0.34432315997E+03  0.65442692073E+03  0.11366383736E+04  0.25500000920E-02 0.  1.
</event>
<event>
 5   0  0.1324058E-04  0.1916129E+04  0.7818609E-02  0.8646869E-01
       -1   -1    0    0    0  501  0.00000000000E+00  0.00000000000E+00  0.64689252842E+03  0.64689252844E+03  0.50400001928E-02 0.  1.
        1   -1    0    0  501    0  0.00000000000E+00  0.00000000000E+00 -0.14189188485E+04  0.14189188485E+04  0.50400001928E-02 0. -1.
    10030    2    1    2    0    0  0.00000000000E+00  0.00000000000E+00 -0.77202632007E+03  0.20658113769E+04  0.19161294336E+04 0.  0.
        5    1    3    3  502    0 -0.36240738177E+03  0.85296892772E+03 -0.64782203689E+03  0.11307477984E+04  0.46999998093E+01 0. -1.
       -5    1    3    3    0  502  0.36240738177E+03 -0.85296892772E+03 -0.12420428318E+03  0.93506357857E+03  0.46999998093E+01 0.  1.
</event>
<event>
 5   0  0.1239615E-04  0.1885136E+04  0.7818609E-02  0.8662291E-01
        1   -1    0    0  501    0  0.00000000000E+00  0.00000000000E+00  0.11120083647E+04  0.11120083647E+04  0.50400001928E-02 0.  1.
       -1   -1    0    0    0  501  0.00000000000E+00  0.00000000000E+00 -0.79894589289E+03  0.79894589291E+03  0.50400001928E-02 0. -1.
    10030    2    1    2    0    0  0.00000000000E+00  0.00000000000E+00  0.31306247177E+03  0.19109542576E+04  0.18851360862E+04 0.  0.
        3    1    3    3  502    0 -0.35715947486E+03 -0.17324276220E+03  0.10231423483E+04  0.10974498714E+04  0.10100000352E+00 0.  1.
       -3    1    3    3    0  502  0.35715947486E+03  0.17324276220E+03 -0.71007987651E+03  0.81350438620E+03  0.10100000352E+00 0. -1.
</event>
<event>
 5   0  0.1255141E-04  0.1893824E+04  0.7818609E-02  0.8657937E-01
        1   -1    0    0  501    0  0.00000000000E+00  0.00000000000E+00  0.18867298851E+04  0.18867298851E+04  0.50400001928E-02 0.  1.
       -1   -1    0    0    0  501  0.00000000000E+00  0.00000000000E+00 -0.47523628557E+03  0.47523628560E+03  0.50400001928E-02 0. -1.
    10030    2    1    2    0    0  0.00000000000E+00  0.00000000000E+00  0.14114935995E+04  0.23619661707E+04  0.18938241761E+04 0.  0.
        2    1    3    3  502    0  0.83961028124E+03 -0.30512775858E+03  0.31413159590E+03  0.94695672181E+03  0.25500000920E-02 0. -1.
       -2    1    3    3    0  502 -0.83961028124E+03  0.30512775858E+03  0.10973620036E+04  0.14150094489E+04  0.25500000920E-02 0.  1.
</event>
<event>
 5   0  0.2608744E-04  0.2128720E+04  0.7818609E-02  0.8548697E-01
        2   -1    0    0  501    0  0.00000000000E+00  0.00000000000E+00  0.15773157383E+04  0.15773157383E+04  0.25500000920E-02 0.  1.
       -2   -1    0    0    0  501  0.00000000000E+00  0.00000000000E+00 -0.71822132146E+03  0.71822132146E+03  0.25500000920E-02 0. -1.
    10030    2    1    2    0    0  0.00000000000E+00  0.00000000000E+00  0.85909441684E+03  0.22955370598E+04  0.21287196095E+04 0.  0.
        2    1    3    3  502    0  0.61814158835E+03 -0.75084547147E+02 -0.50130436858E+03  0.79940151516E+03  0.25500000920E-02 0. -1.
       -2    1    3    3    0  502 -0.61814158835E+03  0.75084547147E+02  0.13603987854E+04  0.14961355446E+04  0.25500000920E-02 0.  1.
</event>
<event>
 5   0  0.2651828E-04  0.1930593E+04  0.7818609E-02  0.8639777E-01
       -2   -1    0    0    0  501  0.00000000000E+00  0.00000000000E+00  0.72907419754E+03  0.72907419754E+03  0.25500000920E-02 0. -1.
        2   -1    0    0  501    0  0.00000000000E+00  0.00000000000E+00 -0.12780552161E+04  0.12780552161E+04  0.25500000920E-02 0.  1.
    10030    2    1    2    0    0  0.00000000000E+00  0.00000000000E+00 -0.54898101860E+03  0.20071294137E+04  0.19305927391E+04 0.  0.
        3    1    3    3  502    0 -0.79857797028E+03 -0.16909054679E+03  0.26118221636E+03  0.85704990985E+03  0.10100000352E+00 0. -1.
       -3    1    3    3    0  502  0.79857797028E+03  0.16909054679E+03 -0.81016323496E+03  0.11500795038E+04  0.10100000352E+00 0.  1.
</event>
<event>
 5   0  0.1324058E-04  0.1886967E+04  0.7818609E-02  0.8661371E-01
       -1   -1    0    0    0  501  0.00000000000E+00  0.00000000000E+00  0.46374987309E+03  0.46374987312E+03  0.50400001928E-02 0.  1.
        1   -1    0    0  501    0  0.00000000000E+00  0.00000000000E+00 -0.19194857159E+04  0.19194857159E+04  0.50400001928E-02 0. -1.
    10030    2    1    2    0    0  0.00000000000E+00  0.00000000000E+00 -0.14557358428E+04  0.23832355890E+04  0.18869671509E+04 0.  0.
        5    1    3    3  502    0  0.25546634362E+03  0.44090822122E+03 -0.17307201275E+04  0.18041832950E+04  0.46999998093E+01 0. -1.
       -5    1    3    3    0  502 -0.25546634362E+03 -0.44090822122E+03  0.27498428476E+03  0.57905229394E+03  0.46999998093E+01 0.  1.
</event>
<event>
 5   0  0.1317527E-04  0.1887120E+04  0.7818609E-02  0.8661294E-01
        1   -1    0    0  501    0  0.00000000000E+00  0.00000000000E+00  0.15271614508E+04  0.15271614508E+04  0.50400001928E-02 0.  1.
       -1   -1    0    0    0  501  0.00000000000E+00  0.00000000000E+00 -0.58298046238E+03  0.58298046240E+03  0.50400001928E-02 0. -1.
    10030    2    1    2    0    0  0.00000000000E+00  0.00000000000E+00  0.94418098842E+03  0.21101419132E+04  0.18871198041E+04 0.  0.
        1    1    3    3  502    0 -0.90771559325E+03  0.57381029710E+02  0.19128424847E+03  0.92942446951E+03  0.50400001928E-02 0.  1.
       -1    1    3    3    0  502  0.90771559325E+03 -0.57381029710E+02  0.75289673995E+03  0.11807174437E+04  0.50400001928E-02 0. -1.
</event>
<event>
 5   0  0.1324058E-04  0.1903185E+04  0.7818609E-02  0.8653273E-01
        1   -1    0    0  501    0  0.00000000000E+00  0.00000000000E+00  0.13970799296E+04  0.13970799296E+04  0.50400001928E-02 0. -1.
       -1   -1    0    0    0  501  0.00000000000E+00  0.00000000000E+00 -0.64815756321E+03  0.64815756323E+03  0.50400001928E-02 0.  1.
    10030    2    1    2    0    0  0.00000000000E+00  0.00000000000E+00  0.74892236639E+03  0.20452374928E+04  0.19031846183E+04 0.  0.
        5    1    3    3  502    0 -0.56023629176E+03  0.73036981366E+03  0.11520549475E+03  0.92768484052E+03  0.46999998093E+01 0.  1.
       -5    1    3    3    0  502  0.56023629176E+03 -0.73036981366E+03  0.63371687164E+03  0.11175526523E+04  0.46999998093E+01 0. -1.
</event>
<event>
 5   0  0.2541124E-04  0.1810778E+04  0.7818609E-02  0.8700589E-01
        2   -1    0    0  501    0  0.00000000000E+00  0.00000000000E+00  0.99268038778E+03  0.99268038778E+03  0.25500000920E-02 0.  1.
       -2   -1    0    0    0  501  0.00000000000E+00  0.00000000000E+00 -0.82577379080E+03  0.82577379080E+03  0.25500000920E-02 0. -1.
    10030    2    1    2    0    0  0.00000000000E+00  0.00000000000E+00  0.16690659698E+03  0.18184541786E+04  0.18107782270E+04 0.  0.
        5    1    3    3  502    0 -0.50478624893E+03  0.48174369291E+03 -0.49589881896E+03  0.85605132522E+03  0.46999998093E+01 0. -1.
       -5    1    3    3    0  502  0.50478624893E+03 -0.48174369291E+03  0.66280541594E+03  0.96240285337E+03  0.46999998093E+01 0.  1.
</event>
<event>
 5   0  0.9266125E-05  0.1927699E+04  0.7818609E-02  0.8641190E-01
        3   -1    0    0  501    0  0.00000000000E+00  0.00000000000E+00  0.78670656202E+03  0.78670656850E+03  0.10100000352E+00 0. -1.
       -3   -1    0    0    0  501  0.00000000000E+00  0.00000000000E+00 -0.11808800480E+04  0.11808800523E+04  0.10100000352E+00 0.  1.
    10030    2    1    2    0    0  0.00000000000E+00  0.00000000000E+00 -0.39417348596E+03  0.19675866208E+04  0.19276992435E+04 0.  0.
        5    1    3    3  502    0 -0.95248297731E+03 -0.14481228717E+03 -0.16840580125E+03  0.97804755737E+03  0.46999998093E+01 0.  1.
       -5    1    3    3    0  502  0.95248297731E+03  0.14481228717E+03 -0.22576768471E+03  0.98953906342E+03  0.46999998093E+01 0. -1.
</event>
<event>
 5   0  0.2608744E-04  0.1937440E+04  0.7818609E-02  0.8636441E-01
       -2   -1    0    0    0  501  0.00000000000E+00  0.00000000000E+00  0.67539950139E+03  0.67539950139E+03  0.25500000920E-02 0. -1.
        2   -1    0    0  501    0  0.00000000000E+00  0.00000000000E+00 -0.13894271502E+04  0.13894271502E+04  0.25500000920E-02 0.  1.
    10030    2    1    2    0    0  0.00000000000E+00  0.00000000000E+00 -0.71402764886E+03  0.20648266516E+04  0.19374399650E+04 0.  0.
        2    1    3    3  502    0  0.74010975571E+03  0.10372707289E+02  0.30901458278E+03  0.80209728583E+03  0.25500000920E-02 0. -1.
       -2    1    3    3    0  502 -0.74010975571E+03 -0.10372707289E+02 -0.10230422316E+04  0.12627293658E+04  0.25500000920E-02 0.  1.
</event>
<event>
 5   0  0.2608744E-04  0.1872430E+04  0.7818609E-02  0.8668703E-01
        2   -1    0    0  501    0  0.00000000000E+00  0.00000000000E+00  0.10701381648E+04  0.10701381648E+04  0.25500000920E-02 0. -1.
       -2   -1    0    0    0  501  0.00000000000E+00  0.00000000000E+00 -0.81905206923E+03  0.81905206923E+03  0.25500000920E-02 0.  1.
    10030    2    1    2    0    0  0.00000000000E+00  0.00000000000E+00  0.25108609554E+03  0.18891902340E+04  0.18724303760E+04 0.  0.
        2    1    3    3  502    0  0.34631517643E+03  0.69610809627E+03 -0.40065959508E+03  0.87465924465E+03  0.25500000920E-02 0.  1.
       -2    1    3    3    0  502 -0.34631517643E+03 -0.69610809627E+03  0.65174569063E+03  0.10145309894E+04  0.25500000920E-02 0. -1.
</event>
<event>
 5   0  0.2541124E-04  0.1907594E+04  0.7818609E-02  0.8651086E-01
       -2   -1    0    0    0  501  0.00000000000E+00  0.00000000000E+00  0.67296633791E+03  0.67296633791E+03  0.25500000920E-02 0. -1.
        2   -1    0    0  501    0  0.00000000000E+00  0.00000000000E+00 -0.13518184311E+04  0.13518184311E+04  0.25500000920E-02 0.  1.
    10030    2    1    2    0    0  0.00000000000E+00  0.00000000000E+00 -0.67885209323E+03  0.20247847690E+04  0.19075935617E+04 0.  0.
        5    1    3    3  502    0 -0.85739484992E+03  0.17304582807E+03  0.64247556043E+02  0.87705223661E+03  0.46999998093E+01 0.  1.
       -5    1    3    3    0  502  0.85739484992E+03 -0.17304582807E+03 -0.74309964927E+03  0.11477325324E+04  0.46999998093E+01 0. -1.
</event>
<event>
 5   0  0.2595012E-04  0.1853773E+04  0.7818609E-02  0.8678215E-01
        2   -1    0    0  501    0  0.00000000000E+00  0.00000000000E+00  0.26045178148E+04  0.26045178148E+04  0.25500000920E-02 0.  1.
       -2   -1    0    0    0  501  0.00000000000E+00  0.00000000000E+00 -0.32985717634E+03  0.32985717635E+03  0.25500000920E-02 0. -1.
    10030    2    1    2    0    0  0.00000000000E+00  0.00000000000E+00  0.22746606384E+04  0.29343749911E+04  0.18537733326E+04 0.  0.
        1    1    3    3  502    0 -0.55782684273E+03 -0.24766220776E+03  0.22415365228E+04  0.23231429872E+04  0.50400001928E-02 0.  1.
       -1    1    3    3    0  502  0.55782684273E+03  0.24766220776E+03  0.33124115615E+02  0.61123200397E+03  0.50400001928E-02 0. -1.
</event>
<event>
 5   0  0.2608744E-04  0.1692744E+04  0.7818609E-02  0.8765513E-01
       -2   -1    0    0    0  501  0.00000000000E+00  0.00000000000E+00  0.13029316455E+04  0.13029316455E+04  0.25500000920E-02 0.  1.
        2   -1    0    0  501    0  0.00000000000E+00  0.00000000000E+00 -0.54979540866E+03  0.54979540867E+03  0.25500000920E-02 0. -1.
    10030    2    1    2    0    0  0.00000000000E+00  0.00000000000E+00  0.75313623685E+03  0.18527270542E+04  0.16927443239E+04 0.  0.
        2    1    3    3  502    0 -0.28339656552E+03  0.79162796551E+03  0.48244408335E+03  0.96940226052E+03  0.25500000920E-02 0. -1.
       -2    1    3    3    0  502  0.28339656552E+03 -0.79162796551E+03  0.27069215350E+03  0.88332479367E+03  0.25500000920E-02 0.  1.
</event>
<event>
 5   0  0.2595012E-04  0.1893543E+04  0.7818609E-02  0.8658077E-01
       -2   -1    0    0    0  501  0.00000000000E+00  0.00000000000E+00  0.12465755295E+04  0.12465755295E+04  0.25500000920E-02 0.  1.
        2   -1    0    0  501    0  0.00000000000E+00  0.00000000000E+00 -0.71907120365E+03  0.71907120366E+03  0.25500000920E-02 0. -1.
    10030    2    1    2    0    0  0.00000000000E+00  0.00000000000E+00  0.52750432583E+03  0.19656467331E+04  0.18935433097E+04 0.  0.
        1    1    3    3  502    0 -0.40457883959E+03  0.85440790493E+03  0.31748875882E+03  0.99724421154E+03  0.50400001928E-02 0.  1.
       -1    1    3    3    0  502  0.40457883959E+03 -0.85440790493E+03  0.21001556702E+03  0.96840252161E+03  0.50400001928E-02 0. -1.
</event>
<event>
 5   0  0.1277709E-04  0.1958071E+04  0.7818609E-02  0.8626479E-01
        1   -1    0    0  501    0  0.00000000000E+00  0.00000000000E+00  0.13704123849E+04  0.13704123849E+04  0.50400001928E-02 0.  1.
       -1   -1    0    0    0  501  0.00000000000E+00  0.00000000000E+00 -0.69943183822E+03  0.69943183824E+03  0.50400001928E-02 0. -1.
    10030    2    1    2    0    0  0.00000000000E+00  0.00000000000E+00  0.67098054670E+03  0.20698442232E+04  0.19580705335E+04 0.  0.
        4    1    3    3  502    0 -0.23025989223E+03  0.10221575663E+03  0.13355610502E+04  0.13591146421E+04  0.12699999809E+01 0.  1.
       -4    1    3    3    0  502  0.23025989223E+03 -0.10221575663E+03 -0.66458050346E+03  0.71072958103E+03  0.12699999809E+01 0. -1.
</event>
<event>
 5   0  0.1277709E-04  0.1882921E+04  0.7818609E-02  0.8663405E-01
        1   -1    0    0  501    0  0.00000000000E+00  0.00000000000E+00  0.60688058732E+03  0.60688058734E+03  0.50400001928E-02 0.  1.
       -1   -1    0    0    0  501  0.00000000000E+00  0.00000000000E+00 -0.14604978747E+04  0.14604978747E+04  0.50400001928E-02 0. -1.
    10030    2    1    2    0    0  0.00000000000E+00  0.00000000000E+00 -0.85361728738E+03  0.20673784621E+04  0.18829209309E+04 0.  0.
        4    1    3    3  502    0 -0.41227081235E+03  0.82896402237E+03 -0.23919619781E+03  0.95622434974E+03  0.12699999809E+01 0.  1.
       -4    1    3    3    0  502  0.41227081235E+03 -0.82896402237E+03 -0.61442108957E+03  0.11111541123E+04  0.12699999809E+01 0. -1.
</event>
<event>
 5   0  0.1277709E-04  0.1904575E+04  0.7818609E-02  0.8652583E-01
       -1   -1    0    0    0  501  0.00000000000E+00  0.00000000000E+00  0.15300093789E+04  0.15300093790E+04  0.50400001928E-02 0.  1.
        1   -1    0    0  501    0  0.00000000000E+00  0.00000000000E+00 -0.59270945182E+03  0.59270945185E+03  0.50400001928E-02 0. -1.
    10030    2    1    2    0    0  0.00000000000E+00  0.00000000000E+00  0.93729992712E+03  0.21227188308E+04  0.19045745145E+04 0.  0.
        4    1    3    3  502    0  0.66080573069E+03 -0.68377566658E+03  0.41142707184E+03  0.10360922856E+04  0.12699999809E+01 0.  1.
       -4    1    3    3    0  502 -0.66080573069E+03  0.68377566658E+03  0.52587285528E+03  0.10866265452E+04  0.12699999809E+01 0. -1.
</event>
<event>
 5   0  0.2562925E-04  0.1926955E+04  0.7818609E-02  0.8641554E-01
        2   -1    0    0  501    0  0.00000000000E+00  0.00000000000E+00  0.79830141949E+03  0.79830141949E+03  0.25500000920E-02 0. -1.
       -2   -1    0    0    0  501  0.00000000000E+00  0.00000000000E+00 -0.11628297593E+04  0.11628297593E+04  0.25500000920E-02 0.  1.
    10030    2    1    2    0    0  0.00000000000E+00  0.00000000000E+00 -0.36452833983E+03  0.19611311788E+04  0.19269547452E+04 0.  0.
        4    1    3    3  502    0 -0.12367693291E+03  0.19983697574E+03  0.76868266630E+03  0.80380685179E+03  0.12699999809E+01 0. -1.
       -4    1    3    3    0  502  0.12367693291E+03 -0.19983697574E+03 -0.11332110061E+04  0.11573243270E+04  0.12699999809E+01 0.  1.
</event>
<event>
 5   0  0.1324058E-04  0.1741852E+04  0.7818609E-02  0.8737848E-01
        1   -1    0    0  501    0  0.00000000000E+00  0.00000000000E+00  0.44728012700E+03  0.44728012703E+03  0.50400001928E-02 0.  1.
       -1   -1    0    0    0  501  0.00000000000E+00  0.00000000000E+00 -0.16958315859E+04  0.16958315859E+04  0.50400001928E-02 0. -1.
    10030    2    1    2    0    0  0.00000000000E+00  0.00000000000E+00 -0.12485514589E+04  0.21431117129E+04  0.17418516207E+04 0.  0.
        5    1    3    3  502    0 -0.59958789091E+03  0.16437667242E+03  0.12610955843E+03  0.63439029004E+03  0.46999998093E+01 0.  1.
       -5    1    3    3    0  502  0.59958789091E+03 -0.16437667242E+03 -0.13746610173E+04  0.15087214229E+04  0.46999998093E+01 0. -1.
</event>
<event>
 5   0  0.1255141E-04  0.1922966E+04  0.7818609E-02  0.8643508E-01
       -1   -1    0    0    0  501  0.00000000000E+00  0.00000000000E+00  0.82274752027E+03  0.82274752028E+03  0.50400001928E-02 0.  1.
        1   -1    0    0  501    0  0.00000000000E+00  0.00000000000E+00 -0.11236129423E+04  0.11236129423E+04  0.50400001928E-02 0. -1.
    10030    2    1    2    0    0  0.00000000000E+00  0.00000000000E+00 -0.30086542204E+03  0.19463604626E+04  0.19229662109E+04 0.  0.
        2    1    3    3  502    0 -0.45307953180E+03 -0.46004406737E+03  0.57064436840E+03  0.86171723974E+03  0.25500000920E-02 0.  1.
       -2    1    3    3    0  502  0.45307953180E+03  0.46004406737E+03 -0.87150979044E+03  0.10846432229E+04  0.25500000920E-02 0. -1.
</event>
<event>
 5   0  0.1277709E-04  0.1899391E+04  0.7818609E-02  0.8655160E-01
        1   -1    0    0  501    0  0.00000000000E+00  0.00000000000E+00  0.16130318345E+04  0.16130318345E+04  0.50400001928E-02 0.  1.
       -1   -1    0    0    0  501  0.00000000000E+00  0.00000000000E+00 -0.55914685944E+03  0.55914685946E+03  0.50400001928E-02 0. -1.
    10030    2    1    2    0    0  0.00000000000E+00  0.00000000000E+00  0.10538849751E+04  0.21721786940E+04  0.18993911493E+04 0.  0.
        4    1    3    3  502    0 -0.23456866162E+03 -0.54528783126E+03  0.13747323539E+04  0.14974150840E+04  0.12699999809E+01 0.  1.
       -4    1    3    3    0  502  0.23456866162E+03  0.54528783126E+03 -0.32084737885E+03  0.67476360998E+03  0.12699999809E+01 0. -1.
</event>
<event>
 5   0  0.1277709E-04  0.1614534E+04  0.7818609E-02  0.8811669E-01
       -1   -1    0    0    0  501  0.00000000000E+00  0.00000000000E+00  0.63591920468E+03  0.63591920470E+03  0.50400001928E-02 0.  1.
        1   -1    0    0  501    0  0.00000000000E+00  0.00000000000E+00 -0.10247842262E+04  0.10247842262E+04  0.50400001928E-02 0. -1.
    10030    2    1    2    0    0  0.00000000000E+00  0.00000000000E+00 -0.38886502155E+03  0.16607034309E+04  0.16145339515E+04 0.  0.
        4    1    3    3  502    0  0.51341096684E+03  0.50250844034E+03 -0.57316380297E+03  0.91903422756E+03  0.12699999809E+01 0. -1.
       -4    1    3    3    0  502 -0.51341096684E+03 -0.50250844034E+03  0.18429878143E+03  0.74166920337E+03  0.12699999809E+01 0.  1.
</event>
<event>
 5   0  0.2651828E-04  0.1898507E+04  0.7818609E-02  0.8655600E-01
       -2   -1    0    0    0  501  0.00000000000E+00  0.00000000000E+00  0.59697424380E+03  0.59697424381E+03  0.25500000920E-02 0.  1.
        2   -1    0    0  501    0  0.00000000000E+00  0.00000000000E+00 -0.15094154756E+04  0.15094154756E+04  0.25500000920E-02 0. -1.
    10030    2    1    2    0    0  0.00000000000E+00  0.00000000000E+00 -0.91244123181E+03  0.21063897194E+04  0.18985069525E+04 0.  0.
        3    1    3    3  502    0 -0.83448750067E+03 -0.17394183907E+03  0.71950746892E+01  0.85245347759E+03  0.10100000352E+00 0.  1.
       -3    1    3    3    0  502  0.83448750067E+03  0.17394183907E+03 -0.91963630650E+03  0.12539362418E+04  0.10100000352E+00 0. -1.
</event>
<event>
 5   0  0.1255141E-04  0.1893961E+04  0.7818609E-02  0.8657868E-01
       -1   -1    0    0    0  501  0.00000000000E+00  0.00000000000E+00  0.56706284647E+03  0.56706284649E+03  0.50400001928E-02 0.  1.
        1   -1    0    0  501    0  0.00000000000E+00  0.00000000000E+00 -0.15814336271E+04  0.15814336272E+04  0.50400001928E-02 0. -1.
    10030    2    1    2    0    0  0.00000000000E+00  0.00000000000E+00 -0.10143707807E+04  0.21484964736E+04  0.18939611972E+04 0.  0.
        2    1    3    3  502    0  0.36069768473E+03  0.83813776165E+03 -0.79460246795E+03  0.12099466143E+04  0.25500000920E-02 0. -1.
       -2    1    3    3    0  502 -0.36069768473E+03 -0.83813776165E+03 -0.21976831273E+03  0.93854985939E+03  0.25500000920E-02 0.  1.
</event>
<event>
 5   0  0.2651828E-04  0.1902306E+04  0.7818609E-02  0.8653709E-01
        2   -1    0    0  501    0  0.00000000000E+00  0.00000000000E+00  0.78402756347E+03  0.78402756348E+03  0.25500000920E-02 0. -1.
       -2   -1    0    0    0  501  0.00000000000E+00  0.00000000000E+00 -0.11539032153E+04  0.11539032153E+04  0.25500000920E-02 0.  1.
    10030    2    1    2    0    0  0.00000000000E+00  0.00000000000E+00 -0.36987565187E+03  0.19379307788E+04  0.19023058917E+04 0.  0.
        3    1    3    3  502    0  0.91201606939E+03  0.23032752801E+03 -0.41344854650E+02  0.94155907313E+03  0.10100000352E+00 0. -1.
       -3    1    3    3    0  502 -0.91201606939E+03 -0.23032752801E+03 -0.32853079722E+03  0.99637170570E+03  0.10100000352E+00 0.  1.
</event>
<event>
 5   0  0.1324058E-04  0.1932612E+04  0.7818609E-02  0.8638791E-01
       -1   -1    0    0    0  501  0.00000000000E+00  0.00000000000E+00  0.57959836864E+03  0.57959836867E+03  0.50400001928E-02 0. -1.
        1   -1    0    0  501    0  0.00000000000E+00  0.00000000000E+00 -0.16110245680E+04  0.16110245680E+04  0.50400001928E-02 0.  1.
    10030    2    1    2    0    0  0.00000000000E+00  0.00000000000E+00 -0.10314261993E+04  0.21906229367E+04  0.19326119233E+04 0.  0.
        5    1    3    3  502    0 -0.84299352416E+02  0.61484451402E+03  0.32383373023E+03  0.70002180828E+03  0.46999998093E+01 0. -1.
       -5    1    3    3    0  502  0.84299352416E+02 -0.61484451402E+03 -0.13552599296E+04  0.14906011284E+04  0.46999998093E+01 0.  1.
</event>
<event>
 5   0  0.2651828E-04  0.1899596E+04  0.7818609E-02  0.8655057E-01
       -2   -1    0    0    0  501  0.00000000000E+00  0.00000000000E+00  0.10621727657E+04  0.10621727657E+04  0.25500000920E-02 0. -1.
        2   -1    0    0  501    0  0.00000000000E+00  0.00000000000E+00 -0.84931241394E+03  0.84931241394E+03  0.25500000920E-02 0.  1.
    10030    2    1    2    0    0  0.00000000000E+00  0.00000000000E+00  0.21286035174E+03  0.19114851796E+04  0.18995962894E+04 0.  0.
        3    1    3    3  502    0 -0.35493253563E+03 -0.26333028914E+03  0.95240382568E+03  0.10499490480E+04  0.10100000352E+00 0. -1.
       -3    1    3    3    0  502  0.35493253563E+03  0.26333028914E+03 -0.73954347394E+03  0.86153613162E+03  0.10100000352E+00 0.  1.
</event>
<event>
 5   0  0.1239615E-04  0.1916877E+04  0.7818609E-02  0.8646501E-01
       -1   -1    0    0    0  501  0.00000000000E+00  0.00000000000E+00  0.62983338214E+03  0.62983338216E+03  0.50400001928E-02 0.  1.
        1   -1    0    0  501    0  0.00000000000E+00  0.00000000000E+00 -0.14584881401E+04  0.14584881402E+04  0.50400001928E-02 0. -1.
    10030    2    1    2    0    0  0.00000000000E+00  0.00000000000E+00 -0.82865475800E+03  0.20883215223E+04  0.19168771668E+04 0.  0.
        3    1    3    3  502    0 -0.32654194615E+03 -0.40633861777E+03  0.46188523625E+03  0.69647591240E+03  0.10100000352E+00 0.  1.
       -3    1    3    3    0  502  0.32654194615E+03  0.40633861777E+03 -0.12905399943E+04  0.13918456099E+04  0.10100000352E+00 0. -1.
</event>
<event>
 5   0  0.1324058E-04  0.1868617E+04  0.7818609E-02  0.8670637E-01
       -1   -1    0    0    0  501  0.00000000000E+00  0.00000000000E+00  0.97883579486E+03  0.97883579487E+03  0.50400001928E-02 0.  1.
        1   -1    0    0  501    0  0.00000000000E+00  0.00000000000E+00 -0.89180658876E+03  0.89180658877E+03  0.50400001928E-02 0. -1.
    10030    2    1    2    0    0  0.00000000000E+00  0.00000000000E+00  0.87029206103E+02  0.18706423836E+04  0.18686168266E+04 0.  0.
        5    1    3    3  502    0 -0.71377890983E+03 -0.14958483823E+03  0.62814607911E+03  0.96252041155E+03  0.46999998093E+01 0.  1.
       -5    1    3    3    0  502  0.71377890983E+03  0.14958483823E+03 -0.54111687301E+03  0.90812197209E+03  0.46999998093E+01 0. -1.
</event>
<event>
 5   0  0.2541124E-04  0.1872037E+04  0.7818609E-02  0.8668902E-01
       -2   -1    0    0    0  501  0.00000000000E+00  0.00000000000E+00  0.87068913472E+03  0.87068913473E+03  0.25500000920E-02 0.  1.
        2   -1    0    0  501    0  0.00000000000E+00  0.00000000000E+00 -0.10062499910E+04  0.10062499910E+04  0.25500000920E-02 0. -1.
    10030    2    1    2    0    0  0.00000000000E+00  0.00000000000E+00 -0.13556085623E+03  0.18769391257E+04  0.18720373222E+04 0.  0.
        5    1    3    3  502    0 -0.10518608722E+03  0.35221424194E+03 -0.93084207312E+03  0.10008036972E+04  0.46999998093E+01 0. -1.
       -5    1    3    3    0  502  0.10518608722E+03 -0.35221424194E+03  0.79528121689E+03  0.87613542852E+03  0.46999998093E+01 0.  1.
</event>
<event>
 5   0  0.1239615E-04  0.1393508E+04  0.7818609E-02  0.8958531E-01
        1   -1    0    0  501    0  0.00000000000E+00  0.00000000000E+00  0.88792409449E+03  0.88792409451E+03  0.50400001928E-02 0. -1.
       -1   -1    0    0    0  501  0.00000000000E+00  0.00000000000E+00 -0.54674256848E+03  0.54674256850E+03  0.50400001928E-02 0.  1.
    10030    2    1    2    0    0  0.00000000000E+00  0.00000000000E+00  0.34118152601E+03  0.14346666630E+04  0.13935076606E+04 0.  0.
        3    1    3    3  502    0 -0.11389293704E+03  0.18531475038E+03  0.85207279284E+03  0.87939821033E+03  0.10100000352E+00 0. -1.
       -3    1    3    3    0  502  0.11389293704E+03 -0.18531475038E+03 -0.51089126683E+03  0.55526845268E+03  0.10100000352E+00 0.  1.
</event>
<event>
 5   0  0.1255141E-04  0.1894472E+04  0.7818609E-02  0.8657613E-01
       -1   -1    0    0    0  501  0.00000000000E+00  0.00000000000E+00  0.77106724883E+03  0.77106724885E+03  0.50400001928E-02 0.  1.
        1   -1    0    0  501    0  0.00000000000E+00  0.00000000000E+00 -0.11636549154E+04  0.11636549155E+04  0.50400001928E-02 0. -1.
    10030    2    1    2    0    0  0.00000000000E+00  0.00000000000E+00 -0.39258766662E+03  0.19347221643E+04  0.18944721632E+04 0.  0.
        2    1    3    3  502    0 -0.22250589961E+03 -0.57428502553E+03  0.53867985839E+03  0.81822255881E+03  0.25500000920E-02 0.  1.
       -2    1    3    3    0  502  0.22250589961E+03  0.57428502553E+03 -0.93126752501E+03  0.11164996055E+04  0.25500000920E-02 0. -1.
</event>
<event>
 5   0  0.2608744E-04  0.1926621E+04  0.7818609E-02  0.8641718E-01
        2   -1    0    0  501    0  0.00000000000E+00  0.00000000000E+00  0.87638828566E+03  0.87638828566E+03  0.25500000920E-02 0. -1.
       -2   -1    0    0    0  501  0.00000000000E+00  0.00000000000E+00 -0.10588537544E+04  0.10588537544E+04  0.25500000920E-02 0.  1.
    10030    2    1    2    0    0  0.00000000000E+00  0.00000000000E+00 -0.18246546876E+03  0.19352420401E+04  0.19266209037E+04 0.  0.
        2    1    3    3  502    0  0.44657513316E+03  0.66242565232E+02  0.76354493756E+03  0.88702778913E+03  0.25500000920E-02 0. -1.
       -2    1    3    3    0  502 -0.44657513316E+03 -0.66242565232E+02 -0.94601040632E+03  0.10482142509E+04  0.25500000920E-02 0.  1.
</event>
<event>
 5   0  0.2608744E-04  0.1893934E+04  0.7818609E-02  0.8657881E-01
       -2   -1    0    0    0  501  0.00000000000E+00  0.00000000000E+00  0.81410655489E+03  0.81410655490E+03  0.25500000920E-02 0.  1.
        2   -1    0    0  501    0  0.00000000000E+00  0.00000000000E+00 -0.11015105278E+04  0.11015105278E+04  0.25500000920E-02 0. -1.
    10030    2    1    2    0    0  0.00000000000E+00  0.00000000000E+00 -0.28740397294E+03  0.19156170827E+04  0.18939344667E+04 0.  0.
        2    1    3    3  502    0  0.86859871445E+03  0.35078640813E+03 -0.28396953996E+03  0.97885317107E+03  0.25500000920E-02 0.  1.
       -2    1    3    3    0  502 -0.86859871445E+03 -0.35078640813E+03 -0.34344329811E+01  0.93676391167E+03  0.25500000920E-02 0. -1.
</event>
<event>
 5   0  0.2562925E-04  0.1649350E+04  0.7818609E-02  0.8790791E-01
       -2   -1    0    0    0  501  0.00000000000E+00  0.00000000000E+00  0.55640249305E+03  0.55640249305E+03  0.25500000920E-02 0.  1.
        2   -1    0    0  501    0  0.00000000000E+00  0.00000000000E+00 -0.12222968139E+04  0.12222968139E+04  0.25500000920E-02 0. -1.
    10030    2    1    2    0    0  0.00000000000E+00  0.00000000000E+00 -0.66589432085E+03  0.17786993070E+04  0.16493501684E+04 0.  0.
        4    1    3    3  502    0 -0.55744846273E+03  0.46003349936E+03  0.95321421577E+02  0.72901810365E+03  0.12699999809E+01 0.  1.
       -4    1    3    3    0  502  0.55744846273E+03 -0.46003349936E+03 -0.76121574243E+03  0.10496812033E+04  0.12699999809E+01 0. -1.
</event>
<event>
 5   0  0.2595012E-04  0.2004923E+04  0.7818609E-02  0.8604323E-01
       -2   -1    0    0    0  501  0.00000000000E+00  0.00000000000E+00  0.82117220749E+03  0.82117220749E+03  0.25500000920E-02 0.  1.
        2   -1    0    0  501    0  0.00000000000E+00  0.00000000000E+00 -0.12237734293E+04  0.12237734293E+04  0.25500000920E-02 0. -1.
    10030    2    1    2    0    0  0.00000000000E+00  0.00000000000E+00 -0.40260122186E+03  0.20449456368E+04  0.20049226703E+04 0.  0.
        1    1    3    3  502    0  0.22349941081E+03  0.97579653344E+03 -0.25525138530E+03  0.10330944444E+04  0.50400001928E-02 0. -1.
       -1    1    3    3    0  502 -0.22349941081E+03 -0.97579653344E+03 -0.14734983656E+03  0.10118511925E+04  0.50400001928E-02 0.  1.
</event>
<event>
 5   0  0.9266125E-05  0.1948787E+04  0.7818609E-02  0.8630946E-01
        4   -1    0    0  501    0  0.00000000000E+00  0.00000000000E+00  0.10285857684E+04  0.10285865524E+04  0.12699999809E+01 0.  1.
       -4   -1    0    0    0  501  0.00000000000E+00  0.00000000000E+00 -0.92305447193E+03  0.92305534560E+03  0.12699999809E+01 0. -1.
    10030    2    1    2    0    0  0.00000000000E+00  0.00000000000E+00  0.10553129643E+03  0.19516418980E+04  0.19487866080E+04 0.  0.
        5    1    3    3  502    0  0.63982648375E+03 -0.58216730033E+03 -0.39635940703E+03  0.95153537213E+03  0.46999998093E+01 0. -1.
       -5    1    3    3    0  502 -0.63982648375E+03  0.58216730033E+03  0.50189070346E+03  0.10001065259E+04  0.46999998093E+01 0.  1.
</event>
<event>
 5   0  0.2562925E-04  0.1891893E+04  0.7818609E-02  0.8658903E-01
        2   -1    0    0  501    0  0.00000000000E+00  0.00000000000E+00  0.79936915720E+03  0.79936915721E+03  0.25500000920E-02 0.  1.
       -2   -1    0    0    0  501  0.00000000000E+00  0.00000000000E+00 -0.11194006421E+04  0.11194006421E+04  0.25500000920E-02 0. -1.
    10030    2    1    2    0    0  0.00000000000E+00  0.00000000000E+00 -0.32003148489E+03  0.19187697993E+04  0.18918925422E+04 0.  0.
        4    1    3    3  502    0 -0.23935326750E+03 -0.91503805638E+03 -0.17533340637E+03  0.96193973178E+03  0.12699999809E+01 0.  1.
       -4    1    3    3    0  502  0.23935326750E+03  0.91503805638E+03 -0.14469807852E+03  0.95683006752E+03  0.12699999809E+01 0. -1.
</event>
<event>
 5   0  0.2651828E-04  0.1908629E+04  0.7818609E-02  0.8650573E-01
       -2   -1    0    0    0  501  0.00000000000E+00  0.00000000000E+00  0.66625444680E+03  0.66625444681E+03  0.25500000920E-02 0. -1.
        2   -1    0    0  501    0  0.00000000000E+00  0.00000000000E+00 -0.13669197175E+04  0.13669197175E+04  0.25500000920E-02 0.  1.
    10030    2    1    2    0    0  0.00000000000E+00  0.00000000000E+00 -0.70066527072E+03  0.20331741643E+04  0.19086291837E+04 0.  0.
        3    1    3    3  502    0 -0.97490579101E+02  0.82500227372E+03  0.14997738905E+03  0.84417201569E+03  0.10100000352E+00 0. -1.
       -3    1    3    3    0  502  0.97490579101E+02 -0.82500227372E+03 -0.85064265977E+03  0.11890021486E+04  0.10100000352E+00 0.  1.
</event>
<event>
 5   0  0.1239615E-04  0.1905773E+04  0.7818609E-02  0.8651988E-01
       -1   -1    0    0    0  501  0.00000000000E+00  0.00000000000E+00  0.19392558205E+04  0.19392558205E+04  0.50400001928E-02 0.  1.
        1   -1    0    0  501    0  0.00000000000E+00  0.00000000000E+00 -0.46821720896E+03  0.46821720899E+03  0.50400001928E-02 0. -1.
    10030    2    1    2    0    0  0.00000000000E+00  0.00000000000E+00  0.14710386115E+04  0.24074730295E+04  0.19057732791E+04 0.  0.
        3    1    3    3  502    0  0.92261298648E+03 -0.11642338379E+03  0.99815377388E+03  0.13642140938E+04  0.10100000352E+00 0. -1.
       -3    1    3    3    0  502 -0.92261298648E+03  0.11642338379E+03  0.47288483767E+03  0.10432589357E+04  0.10100000352E+00 0.  1.
</event>
<event>
 5   0  0.2541124E-04  0.1422490E+04  0.7818609E-02  0.8937698E-01
       -2   -1    0    0    0  501  0.00000000000E+00  0.00000000000E+00  0.67389089011E+03  0.67389089011E+03  0.25500000920E-02 0. -1.
        2   -1    0    0  501    0  0.00000000000E+00  0.00000000000E+00 -0.75066925690E+03  0.75066925690E+03  0.25500000920E-02 0.  1.
    10030    2    1    2    0    0  0.00000000000E+00  0.00000000000E+00 -0.76778366789E+02  0.14245601470E+04  0.14224896115E+04 0.  0.
        5    1    3    3  502    0  0.36978527388E+03 -0.81912268349E+02 -0.64125904548E+03  0.74477246317E+03  0.46999998093E+01 0.  1.
       -5    1    3    3    0  502 -0.36978527388E+03  0.81912268349E+02  0.56448067869E+03  0.67978768384E+03  0.46999998093E+01 0. -1.
</event>
<event>
 5   0  0.1277709E-04  0.1907750E+04  0.7818609E-02  0.8651008E-01
       -1   -1    0    0    0  501  0.00000000000E+00  0.00000000000E+00  0.11825429005E+04  0.11825429005E+04  0.50400001928E-02 0.  1.
        1   -1    0    0  501    0  0.00000000000E+00  0.00000000000E+00 -0.76942484893E+03  0.76942484895E+03  0.50400001928E-02 0. -1.
    10030    2    1    2    0    0  0.00000000000E+00  0.00000000000E+00  0.41311805161E+03  0.19519677495E+04  0.19077503952E+04 0.  0.
        4    1    3    3  502    0 -0.43497552825E+03 -0.73256354702E+03  0.64548107440E+03  0.10688781460E+04  0.12699999809E+01 0. -1.
       -4    1    3    3    0  502  0.43497552825E+03  0.73256354702E+03 -0.23236302279E+03  0.88308960353E+03  0.12699999809E+01 0.  1.
</event>
<event>
 5   0  0.2595012E-04  0.1921708E+04  0.7818609E-02  0.8644126E-01
       -2   -1    0    0    0  501  0.00000000000E+00  0.00000000000E+00  0.11932132752E+04  0.11932132752E+04  0.25500000920E-02 0. -1.
        2   -1    0    0  501    0  0.00000000000E+00  0.00000000000E+00 -0.77374287231E+03  0.77374287232E+03  0.25500000920E-02 0.  1.
    10030    2    1    2    0    0  0.00000000000E+00  0.00000000000E+00  0.41947040290E+03  0.19669561475E+04  0.19217078517E+04 0.  0.
        1    1    3    3  502    0 -0.90546419936E+03 -0.27071842266E+03  0.32196791644E+02  0.94561647305E+03  0.50400001928E-02 0.  1.
       -1    1    3    3    0  502  0.90546419936E+03  0.27071842266E+03  0.38727361125E+03  0.10213396745E+04  0.50400001928E-02 0. -1.
</event>
<event>
 5   0  0.2608744E-04  0.1897409E+04  0.7818609E-02  0.8656147E-01
       -2   -1    0    0    0  501  0.00000000000E+00  0.00000000000E+00  0.61489454334E+03  0.61489454335E+03  0.25500000920E-02 0. -1.
        2   -1    0    0  501    0  0.00000000000E+00  0.00000000000E+00 -0.14637309889E+04  0.14637309889E+04  0.25500000920E-02 0.  1.
    10030    2    1    2    0    0  0.00000000000E+00  0.00000000000E+00 -0.84883644558E+03  0.20786255323E+04  0.18974089681E+04 0.  0.
        2    1    3    3  502    0 -0.42742219594E+03 -0.82693424630E+03 -0.22381704025E+03  0.95739440608E+03  0.25500000920E-02 0.  1.
       -2    1    3    3    0  502  0.42742219594E+03  0.82693424630E+03 -0.62501940533E+03  0.11212311262E+04  0.25500000920E-02 0. -1.
</event>
<event>
 5   0  0.1324058E-04  0.1889648E+04  0.7818609E-02  0.8660026E-01
       -1   -1    0    0    0  501  0.00000000000E+00  0.00000000000E+00  0.61240555966E+03  0.61240555968E+03  0.50400001928E-02 0.  1.
        1   -1    0    0  501    0  0.00000000000E+00  0.00000000000E+00 -0.14576818558E+04  0.14576818558E+04  0.50400001928E-02 0. -1.
    10030    2    1    2    0    0  0.00000000000E+00  0.00000000000E+00 -0.84527629617E+03  0.20700874155E+04  0.18896480866E+04 0.  0.
        5    1    3    3  502    0 -0.54869161155E+02 -0.31967077853E+03  0.54949300047E+03  0.63809456905E+03  0.46999998093E+01 0.  1.
       -5    1    3    3    0  502  0.54869161155E+02  0.31967077853E+03 -0.13947692966E+04  0.14319928465E+04  0.46999998093E+01 0. -1.
</event>
<event>
 5   0  0.2562925E-04  0.2201592E+04  0.7818609E-02  0.8517766E-01
        2   -1    0    0  501    0  0.00000000000E+00  0.00000000000E+00  0.13389110999E+04  0.13389110999E+04  0.25500000920E-02 0.  1.
       -2   -1    0    0    0  501  0.00000000000E+00  0.00000000000E+00 -0.90502822659E+03  0.90502822660E+03  0.25500000920E-02 0. -1.
    10030    2    1    2    0    0  0.00000000000E+00  0.00000000000E+00  0.43388287326E+03  0.22439393264E+04  0.22015924584E+04 0.  0.
        4    1    3    3  502    0  0.71062371371E+03 -0.28699925625E+02 -0.63942251380E+03  0.95638512759E+03  0.12699999809E+01 0. -1.
       -4    1    3    3    0  502 -0.71062371371E+03  0.28699925625E+02  0.10733053871E+04  0.12875541989E+04  0.12699999809E+01 0.  1.
</event>
<event>
 5   0  0.2541124E-04  0.1895957E+04  0.7818609E-02  0.8656872E-01
        2   -1    0    0  501    0  0.00000000000E+00  0.00000000000E+00  0.20154577346E+04  0.20154577346E+04  0.25500000920E-02 0.  1.
       -2   -1    0    0    0  501  0.00000000000E+00  0.00000000000E+00 -0.44588522203E+03  0.44588522204E+03  0.25500000920E-02 0. -1.
    10030    2    1    2    0    0  0.00000000000E+00  0.00000000000E+00  0.15695725125E+04  0.24613429566E+04  0.18959565601E+04 0.  0.
        5    1    3    3  502    0  0.13056477248E+03 -0.88630889651E+02 -0.42869869333E+03  0.45684489061E+03  0.46999998093E+01 0. -1.
       -5    1    3    3    0  502 -0.13056477248E+03  0.88630889651E+02  0.19982712059E+04  0.20044980660E+04  0.46999998093E+01 0.  1.
</event>
<event>
 5   0  0.1277709E-04  0.1883729E+04  0.7818609E-02  0.8662998E-01
       -1   -1    0    0    0  501  0.00000000000E+00  0.00000000000E+00  0.16517265944E+04  0.16517265944E+04  0.50400001928E-02 0.  1.
        1   -1    0    0  501    0  0.00000000000E+00  0.00000000000E+00 -0.53707968287E+03  0.53707968289E+03  0.50400001928E-02 0. -1.
    10030    2    1    2    0    0  0.00000000000E+00  0.00000000000E+00  0.11146469116E+04  0.21888062773E+04  0.18837290628E+04 0.  0.
        4    1    3    3  502    0  0.80375581202E+03  0.49012459394E+03  0.52321541432E+03  0.10770336604E+04  0.12699999809E+01 0. -1.
       -4    1    3    3    0  502 -0.80375581202E+03 -0.49012459394E+03  0.59143149724E+03  0.11117726169E+04  0.12699999809E+01 0.  1.
</event>
<event>
 5   0  0.2651828E-04  0.1908459E+04  0.7818609E-02  0.8650657E-01
        2   -1    0    0  501    0  0.00000000000E+00  0.00000000000E+00  0.17353393947E+04  0.17353393947E+04  0.25500000920E-02 0.  1.
       -2   -1    0    0    0  501  0.00000000000E+00  0.00000000000E+00 -0.52471222072E+03  0.52471222072E+03  0.25500000920E-02 0. -1.
    10030    2    1    2    0    0  0.00000000000E+00  0.00000000000E+00  0.12106271740E+04  0.22600516154E+04  0.19084588416E+04 0.  0.
        3    1    3    3  502    0 -0.37354249320E+03  0.20584005608E+03  0.16161827330E+04  0.16715115194E+04  0.10100000352E+00 0.  1.
       -3    1    3    3    0  502  0.37354249320E+03 -0.20584005608E+03 -0.40555555904E+03  0.58854009599E+03  0.10100000352E+00 0. -1.
</event>
<event>
 5   0  0.9266125E-05  0.1920760E+04  0.7818609E-02  0.8644591E-01
        3   -1    0    0  501    0  0.00000000000E+00  0.00000000000E+00  0.57233617594E+03  0.57233618485E+03  0.10100000352E+00 0.  1.
       -3   -1    0    0    0  501  0.00000000000E+00  0.00000000000E+00 -0.16115175749E+04  0.16115175781E+04  0.10100000352E+00 0. -1.
    10030    2    1    2    0    0  0.00000000000E+00  0.00000000000E+00 -0.10391813990E+04  0.21838537629E+04  0.19207600782E+04 0.  0.
        4    1    3    3  502    0  0.63794746447E+03  0.67012142978E+03 -0.81232226583E+03  0.12312224716E+04  0.12699999809E+01 0.  1.
       -4    1    3    3    0  502 -0.63794746447E+03 -0.67012142978E+03 -0.22685913317E+03  0.95263129136E+03  0.12699999809E+01 0. -1.
</event>
<event>
 5   0  0.1239615E-04  0.1887109E+04  0.7818609E-02  0.8661300E-01
       -1   -1    0    0    0  501  0.00000000000E+00  0.00000000000E+00  0.10235297262E+04  0.10235297262E+04  0.50400001928E-02 0. -1.
        1   -1    0    0  501    0  0.00000000000E+00  0.00000000000E+00 -0.86982796461E+03  0.86982796463E+03  0.50400001928E-02 0.  1.
    10030    2    1    2    0    0  0.00000000000E+00  0.00000000000E+00  0.15370176155E+03  0.18933576908E+04  0.18871086651E+04 0.  0.
        3    1    3    3  502    0  0.20705678432E+03  0.46543110583E+03  0.87370766335E+03  0.10113672515E+04  0.10100000352E+00 0. -1.
       -3    1    3    3    0  502 -0.20705678432E+03 -0.46543110583E+03 -0.72000590180E+03  0.88199043931E+03  0.10100000352E+00 0.  1.
</event>
<event>
 5   0  0.1239615E-04  0.1851627E+04  0.7818609E-02  0.8679316E-01
        1   -1    0    0  501    0  0.00000000000E+00  0.00000000000E+00  0.88739754134E+03  0.88739754136E+03  0.50400001928E-02 0. -1.
       -1   -1    0    0    0  501  0.00000000000E+00  0.00000000000E+00 -0.96589275230E+03  0.96589275232E+03  0.50400001928E-02 0.  1.
    10030    2    1    2    0    0  0.00000000000E+00  0.00000000000E+00 -0.78495210960E+02  0.18532902937E+04  0.18516272342E+04 0.  0.
        3    1    3    3  502    0 -0.35484762160E+03 -0.77237582279E+03 -0.40652349620E+03  0.94220093894E+03  0.10100000352E+00 0.  1.
       -3    1    3    3    0  502  0.35484762160E+03  0.77237582279E+03  0.32802828524E+03  0.91108935473E+03  0.10100000352E+00 0. -1.
</event>
<event>
 5   0  0.1317527E-04  0.1906065E+04  0.7818609E-02  0.8651843E-01
        1   -1    0    0  501    0  0.00000000000E+00  0.00000000000E+00  0.14824946907E+04  0.14824946907E+04  0.50400001928E-02 0.  1.
       -1   -1    0    0    0  501  0.00000000000E+00  0.00000000000E+00 -0.61266388576E+03  0.61266388578E+03  0.50400001928E-02 0. -1.
    10030    2    1    2    0    0  0.00000000000E+00  0.00000000000E+00  0.86983080489E+03  0.20951585764E+04  0.19060650123E+04 0.  0.
        1    1    3    3  502    0  0.58417361209E+03  0.30613290531E+03  0.11911299935E+04  0.13615310596E+04  0.50400001928E-02 0.  1.
       -1    1    3    3    0  502 -0.58417361209E+03 -0.30613290531E+03 -0.32129918865E+03  0.73362751682E+03  0.50400001928E-02 0. -1.
</event>
<event>
 5   0  0.2651828E-04  0.1892113E+04  0.7818609E-02  0.8658792E-01
       -2   -1    0    0    0  501  0.00000000000E+00  0.00000000000E+00  0.10821334947E+04  0.10821334947E+04  0.25500000920E-02 0. -1.
        2   -1    0    0  501    0  0.00000000000E+00  0.00000000000E+00 -0.82709074609E+03  0.82709074609E+03  0.25500000920E-02 0.  1.
    10030    2    1    2    0    0  0.00000000000E+00  0.00000000000E+00  0.25504274865E+03  0.19092242408E+04  0.18921126811E+04 0.  0.
        3    1    3    3  502    0  0.66479426482E+03  0.31193120044E+03 -0.47433749783E+03  0.87421310925E+03  0.10100000352E+00 0.  1.
       -3    1    3    3    0  502 -0.66479426482E+03 -0.31193120044E+03  0.72938024648E+03  0.10350111316E+04  0.10100000352E+00 0. -1.
</event>
<event>
 5   0  0.9266125E-05  0.1621387E+04  0.7818609E-02  0.8807516E-01
        3   -1    0    0  501    0  0.00000000000E+00  0.00000000000E+00  0.91461350543E+03  0.91461351100E+03  0.10100000352E+00 0.  1.
       -3   -1    0    0    0  501  0.00000000000E+00  0.00000000000E+00 -0.71858087558E+03  0.71858088267E+03  0.10100000352E+00 0. -1.
    10030    2    1    2    0    0  0.00000000000E+00  0.00000000000E+00  0.19603262985E+03  0.16331943937E+04  0.16213867939E+04 0.  0.
        5    1    3    3  502    0 -0.17080719854E+03  0.18155676333E+03  0.87503773569E+03  0.90986322393E+03  0.46999998093E+01 0.  1.
       -5    1    3    3    0  502  0.17080719854E+03 -0.18155676333E+03 -0.67900510583E+03  0.72333116975E+03  0.46999998093E+01 0. -1.
</event>
<event>
 5   0  0.2651828E-04  0.1908100E+04  0.7818609E-02  0.8650835E-01
       -2   -1    0    0    0  501  0.00000000000E+00  0.00000000000E+00  0.51426739030E+03  0.51426739031E+03  0.25500000920E-02 0.  1.
        2   -1    0    0  501    0  0.00000000000E+00  0.00000000000E+00 -0.17699178844E+04  0.17699178844E+04  0.25500000920E-02 0. -1.
    10030    2    1    2    0    0  0.00000000000E+00  0.00000000000E+00 -0.12556504941E+04  0.22841852747E+04  0.19080996320E+04 0.  0.
        3    1    3    3  502    0  0.84249377901E+03 -0.27045368560E+03 -0.10548897097E+04  0.13768563010E+04  0.10100000352E+00 0. -1.
       -3    1    3    3    0  502 -0.84249377901E+03  0.27045368560E+03 -0.20076078434E+03  0.90732897367E+03  0.10100000352E+00 0.  1.
</event>
<event>
 5   0  0.2541124E-04  0.1905465E+04  0.7818609E-02  0.8652141E-01
        2   -1    0    0  501    0  0.00000000000E+00  0.00000000000E+00  0.21857036170E+04  0.21857036170E+04  0.25500000920E-02 0.  1.
       -2   -1    0    0    0  501  0.00000000000E+00  0.00000000000E+00 -0.41528913306E+03  0.41528913307E+03  0.25500000920E-02 0. -1.
    10030    2    1    2    0    0  0.00000000000E+00  0.00000000000E+00  0.17704144839E+04  0.26009927501E+04  0.19054647310E+04 0.  0.
        5    1    3    3  502    0  0.44673616922E+03  0.32876732531E+03  0.19425591131E+04  0.20202027515E+04  0.46999998093E+01 0.  1.
       -5    1    3    3    0  502 -0.44673616922E+03 -0.32876732531E+03 -0.17214462922E+03  0.58078999857E+03  0.46999998093E+01 0. -1.
</event>
<event>
 5   0  0.1255141E-04  0.1810720E+04  0.7818609E-02  0.8700619E-01
        1   -1    0    0  501    0  0.00000000000E+00  0.00000000000E+00  0.63096519102E+03  0.63096519104E+03  0.50400001928E-02 0.  1.
       -1   -1    0    0    0  501  0.00000000000E+00  0.00000000000E+00 -0.12990845383E+04  0.12990845383E+04  0.50400001928E-02 0. -1.
    10030    2    1    2    0    0  0.00000000000E+00  0.00000000000E+00 -0.66811934724E+03  0.19300497293E+04  0.18107204355E+04 0.  0.
        2    1    3    3  502    0  0.45398815497E+03  0.96318134693E+02 -0.11626531072E+04  0.12518564916E+04  0.25500000920E-02 0. -1.
       -2    1    3    3    0  502 -0.45398815497E+03 -0.96318134693E+02  0.49453375995E+03  0.67819323770E+03  0.25500000920E-02 0.  1.
</event>
<event>
 5   0  0.1277709E-04  0.1858852E+04  0.7818609E-02  0.8675614E-01
       -1   -1    0    0    0  501  0.00000000000E+00  0.00000000000E+00  0.36712758963E+03  0.36712758966E+03  0.50400001928E-02 0. -1.
        1   -1    0    0  501    0  0.00000000000E+00  0.00000000000E+00 -0.23529487178E+04  0.23529487178E+04  0.50400001928E-02 0.  1.
    10030    2    1    2    0    0  0.00000000000E+00  0.00000000000E+00 -0.19858211281E+04  0.27200763074E+04  0.18588516792E+04 0.  0.
        4    1    3    3  502    0  0.50594317635E+03 -0.77709809891E+03 -0.90070083521E+03  0.12927194438E+04  0.12699999809E+01 0.  1.
       -4    1    3    3    0  502 -0.50594317635E+03  0.77709809891E+03 -0.10851202929E+04  0.14273568636E+04  0.12699999809E+01 0. -1.
</event>
<event>
 5   0  0.2608744E-04  0.2028900E+04  0.7818609E-02  0.8593227E-01
        2   -1    0    0  501    0  0.00000000000E+00  0.00000000000E+00  0.14387441366E+04  0.14387441366E+04  0.25500000920E-02 0.  1.
       -2   -1    0    0    0  501  0.00000000000E+00  0.00000000000E+00 -0.71528296118E+03  0.71528296118E+03  0.25500000920E-02 0. -1.
    10030    2    1    2    0    0  0.00000000000E+00  0.00000000000E+00  0.72346117538E+03  0.21540270977E+04  0.20289003587E+04 0.  0.
        2    1    3    3  502    0 -0.83877082528E+02  0.80691195381E+03 -0.28490264996E+03  0.85983241747E+03  0.25500000920E-02 0. -1.
       -2    1    3    3    0  502  0.83877082528E+02 -0.80691195381E+03  0.10083638253E+04  0.12941946803E+04  0.25500000920E-02 0.  1.
</event>
<event>
 5   0  0.2651828E-04  0.1901133E+04  0.7818609E-02  0.8654293E-01
       -2   -1    0    0    0  501  0.00000000000E+00  0.00000000000E+00  0.51206754670E+03  0.51206754670E+03  0.25500000920E-02 0. -1.
        2   -1    0    0  501    0  0.00000000000E+00  0.00000000000E+00 -0.17645654450E+04  0.17645654450E+04  0.25500000920E-02 0.  1.
    10030    2    1    2    0    0  0.00000000000E+00  0.00000000000E+00 -0.12524978983E+04  0.22766329917E+04  0.19011330289E+04 0.  0.
        3    1    3    3  502    0 -0.13275765107E+03 -0.16394023594E+03 -0.17361805944E+04  0.17489494165E+04  0.10100000352E+00 0.  1.
       -3    1    3    3    0  502  0.13275765107E+03  0.16394023594E+03  0.48368269608E+03  0.52768357523E+03  0.10100000352E+00 0. -1.
</event>
<event>
 5   0  0.1317527E-04  0.2198321E+04  0.7818609E-02  0.8519127E-01
       -1   -1    0    0    0  501  0.00000000000E+00  0.00000000000E+00  0.73443625102E+03  0.73443625104E+03  0.50400001928E-02 0.  1.
        1   -1    0    0  501    0  0.00000000000E+00  0.00000000000E+00 -0.16450090737E+04  0.16450090737E+04  0.50400001928E-02 0. -1.
    10030    2    1    2    0    0  0.00000000000E+00  0.00000000000E+00 -0.91057282264E+03  0.23794453247E+04  0.21983214478E+04 0.  0.
        1    1    3    3  502    0  0.50284195740E+03 -0.20205752968E+03  0.57978647051E+03  0.79361806358E+03  0.50400001928E-02 0.  1.
       -1    1    3    3    0  502 -0.50284195740E+03  0.20205752968E+03 -0.14903592931E+04  0.15858272611E+04  0.50400001928E-02 0. -1.
</event>
<event>
 5   0  0.2541124E-04  0.1895928E+04  0.7818609E-02  0.8656886E-01
        2   -1    0    0  501    0  0.00000000000E+00  0.00000000000E+00  0.13793698055E+04  0.13793698055E+04  0.25500000920E-02 0.  1.
       -2   -1    0    0    0  501  0.00000000000E+00  0.00000000000E+00 -0.65148268179E+03  0.65148268179E+03  0.25500000920E-02 0. -1.
    10030    2    1    2    0    0  0.00000000000E+00  0.00000000000E+00  0.72788712374E+03  0.20308524873E+04  0.18959277835E+04 0.  0.
        5    1    3    3  502    0 -0.10997200085E+03 -0.93341330289E+03  0.49626270689E+03  0.10628513533E+04  0.46999998093E+01 0. -1.
       -5    1    3    3    0  502  0.10997200085E+03  0.93341330289E+03  0.23162441686E+03  0.96800113402E+03  0.46999998093E+01 0.  1.
</event>
<event>
 5   0  0.1277709E-04  0.1929885E+04  0.7818609E-02  0.8640122E-01
       -1   -1    0    0    0  501  0.00000000000E+00  0.00000000000E+00  0.88732418045E+03  0.88732418046E+03  0.50400001928E-02 0.  1.
        1   -1    0    0  501    0  0.00000000000E+00  0.00000000000E+00 -0.10493504395E+04  0.10493504395E+04  0.50400001928E-02 0. -1.
    10030    2    1    2    0    0  0.00000000000E+00  0.00000000000E+00 -0.16202625909E+03  0.19366746200E+04  0.19298849901E+04 0.  0.
        4    1    3    3  502    0  0.62475913866E+03  0.14725625470E+03 -0.80403665575E+03  0.10288269741E+04  0.12699999809E+01 0. -1.
       -4    1    3    3    0  502 -0.62475913866E+03 -0.14725625470E+03  0.64201039667E+03  0.90784764593E+03  0.12699999809E+01 0.  1.
</event>
<event>
 5   0  0.1324058E-04  0.1894681E+04  0.7818609E-02  0.8657508E-01
        1   -1    0    0  501    0  0.00000000000E+00  0.00000000000E+00  0.10083908643E+04  0.10083908643E+04  0.50400001928E-02 0. -1.
       -1   -1    0    0    0  501  0.00000000000E+00  0.00000000000E+00 -0.88998664761E+03  0.88998664762E+03  0.50400001928E-02 0.  1.
    10030    2    1    2    0    0  0.00000000000E+00  0.00000000000E+00  0.11840421666E+03  0.18983775119E+04  0.18946814031E+04 0.  0.
        5    1    3    3  502    0 -0.73586491125E+03  0.64202657018E+02  0.65349759532E+03  0.98625572032E+03  0.46999998093E+01 0. -1.
       -5    1    3    3    0  502  0.73586491125E+03 -0.64202657018E+02 -0.53509337866E+03  0.91212179158E+03  0.46999998093E+01 0.  1.
</event>
<event>
 5   0  0.2608744E-04  0.1466123E+04  0.7818609E-02  0.8907299E-01
       -2   -1    0    0    0  501  0.00000000000E+00  0.00000000000E+00  0.83168365078E+03  0.83168365078E+03  0.25500000920E-02 0. -1.
        2   -1    0    0  501    0  0.00000000000E+00  0.00000000000E+00 -0.64613383467E+03  0.64613383467E+03  0.25500000920E-02 0.  1.
    10030    2    1    2    0    0  0.00000000000E+00  0.00000000000E+00  0.18554981611E+03  0.14778174855E+04  0.14661227050E+04 0.  0.
        2    1    3    3  502    0  0.57824117658E+03 -0.19845724833E+03  0.50051462760E+03  0.79010317690E+03  0.25500000920E-02 0. -1.
       -2    1    3    3    0  502 -0.57824117658E+03  0.19845724833E+03 -0.31496481149E+03  0.68771430855E+03  0.25500000920E-02 0.  1.
</event>
<event>
 5   0  0.1317527E-04  0.1896059E+04  0.7818609E-02  0.8656821E-01
        1   -1    0    0  501    0  0.00000000000E+00  0.00000000000E+00  0.11254287577E+04  0.11254287577E+04  0.50400001928E-02 0. -1.
       -1   -1    0    0    0  501  0.00000000000E+00  0.00000000000E+00 -0.79859326729E+03  0.79859326731E+03  0.50400001928E-02 0.  1.
    10030    2    1    2    0    0  0.00000000000E+00  0.00000000000E+00  0.32683549043E+03  0.19240220250E+04  0.18960588902E+04 0.  0.
        1    1    3    3  502    0  0.61618954458E+03 -0.31122811590E+03 -0.49593998714E+03  0.85000527401E+03  0.50400001928E-02 0.  1.
       -1    1    3    3    0  502 -0.61618954458E+03  0.31122811590E+03  0.82277547758E+03  0.10740167510E+04  0.50400001928E-02 0. -1.
</event>
<event>
 5   0  0.1255141E-04  0.1889235E+04  0.7818609E-02  0.8660233E-01
        1   -1    0    0  501    0  0.00000000000E+00  0.00000000000E+00  0.12754872369E+04  0.12754872369E+04  0.50400001928E-02 0.  1.
       -1   -1    0    0    0  501  0.00000000000E+00  0.00000000000E+00 -0.69957784754E+03  0.69957784756E+03  0.50400001928E-02 0. -1.
    10030    2    1    2    0    0  0.00000000000E+00  0.00000000000E+00  0.57590938936E+03  0.19750650845E+04  0.18892354176E+04 0.  0.
        2    1    3    3  502    0 -0.15434903014E+03 -0.80290076930E+03  0.78255439283E+03  0.11317529086E+04  0.25500000920E-02 0.  1.
       -2    1    3    3    0  502  0.15434903014E+03  0.80290076930E+03 -0.20664500347E+03  0.84331217584E+03  0.25500000920E-02 0. -1.
</event>
<event>
 5   0  0.2541124E-04  0.1918613E+04  0.7818609E-02  0.8645647E-01
        2   -1    0    0  501    0  0.00000000000E+00  0.00000000000E+00  0.85825558845E+03  0.85825558845E+03  0.25500000920E-02 0. -1.
       -2   -1    0    0    0  501  0.00000000000E+00  0.00000000000E+00 -0.10722550583E+04  0.10722550583E+04  0.25500000920E-02 0.  1.
    10030    2    1    2    0    0  0.00000000000E+00  0.00000000000E+00 -0.21399946989E+03  0.19305106468E+04  0.19186129324E+04 0.  0.
        5    1    3    3  502    0  0.22042263909E+03  0.13352087710E+02 -0.10463209712E+04  0.10693802330E+04  0.46999998093E+01 0.  1.
       -5    1    3    3    0  502 -0.22042263909E+03 -0.13352087710E+02  0.83232150127E+03  0.86113041378E+03  0.46999998093E+01 0. -1.
</event>
<event>
 5   0  0.2562925E-04  0.1902735E+04  0.7818609E-02  0.8653496E-01
       -2   -1    0    0    0  501  0.00000000000E+00  0.00000000000E+00  0.61145683932E+03  0.61145683933E+03  0.25500000920E-02 0. -1.
        2   -1    0    0  501    0  0.00000000000E+00  0.00000000000E+00 -0.14802352382E+04  0.14802352382E+04  0.25500000920E-02 0.  1.
    10030    2    1    2    0    0  0.00000000000E+00  0.00000000000E+00 -0.86877839889E+03  0.20916920775E+04  0.19027348320E+04 0.  0.
        4    1    3    3  502    0  0.88753747807E+03 -0.17919811377E+02 -0.81049796248E+03  0.12020617516E+04  0.12699999809E+01 0.  1.
       -4    1    3    3    0  502 -0.88753747807E+03  0.17919811377E+02 -0.58280436404E+02  0.88963032592E+03  0.12699999809E+01 0. -1.
</event>
<event>
 5   0  0.1255141E-04  0.1887585E+04  0.7818609E-02  0.8661061E-01
        1   -1    0    0  501    0  0.00000000000E+00  0.00000000000E+00  0.19685640800E+04  0.19685640800E+04  0.50400001928E-02 0. -1.
       -1   -1    0    0    0  501  0.00000000000E+00  0.00000000000E+00 -0.45248417079E+03  0.45248417081E+03  0.50400001928E-02 0.  1.
    10030    2    1    2    0    0  0.00000000000E+00  0.00000000000E+00  0.15160799092E+04  0.24210482509E+04  0.18875847906E+04 0.  0.
        2    1    3    3  502    0 -0.15388675575E+03 -0.56779285520E+03 -0.18855762095E+03  0.61775710149E+03  0.25500000920E-02 0.  1.
       -2    1    3    3    0  502  0.15388675575E+03  0.56779285520E+03  0.17046375302E+04  0.18032911494E+04  0.25500000920E-02 0. -1.
</event>
<event>
 5   0  0.1239615E-04  0.1891290E+04  0.7818609E-02  0.8659204E-01
        1   -1    0    0  501    0  0.00000000000E+00  0.00000000000E+00  0.61051121571E+03  0.61051121573E+03  0.50400001928E-02 0. -1.
       -1   -1    0    0    0  501  0.00000000000E+00  0.00000000000E+00 -0.14647468733E+04  0.14647468733E+04  0.50400001928E-02 0.  1.
    10030    2    1    2    0    0  0.00000000000E+00  0.00000000000E+00 -0.85423565761E+03  0.20752580891E+04  0.18912899242E+04 0.  0.
        3    1    3    3  502    0 -0.74839533155E+03  0.70041446966E+02 -0.10567287992E+04  0.12967949498E+04  0.10100000352E+00 0.  1.
       -3    1    3    3    0  502  0.74839533155E+03 -0.70041446966E+02  0.20249314159E+03  0.77846313925E+03  0.10100000352E+00 0. -1.
</event>
<event>
 5   0  0.1255141E-04  0.1867184E+04  0.7818609E-02  0.8671366E-01
        1   -1    0    0  501    0  0.00000000000E+00  0.00000000000E+00  0.12838555474E+04  0.12838555474E+04  0.50400001928E-02 0.  1.
       -1   -1    0    0    0  501  0.00000000000E+00  0.00000000000E+00 -0.67888797060E+03  0.67888797061E+03  0.50400001928E-02 0. -1.
    10030    2    1    2    0    0  0.00000000000E+00  0.00000000000E+00  0.60496757675E+03  0.19627435180E+04  0.18671840692E+04 0.  0.
        2    1    3    3  502    0  0.91188652831E+03 -0.15852862179E+03  0.17406040653E+03  0.94178839957E+03  0.25500000920E-02 0. -1.
       -2    1    3    3    0  502 -0.91188652831E+03  0.15852862179E+03  0.43090717023E+03  0.10209551184E+04  0.25500000920E-02 0.  1.
</event>
<event>
 5   0  0.2651828E-04  0.1715103E+04  0.7818609E-02  0.8752797E-01
       -2   -1    0    0    0  501  0.00000000000E+00  0.00000000000E+00  0.46950832309E+03  0.46950832309E+03  0.25500000920E-02 0.  1.
        2   -1    0    0  501    0  0.00000000000E+00  0.00000000000E+00 -0.15663080227E+04  0.15663080227E+04  0.25500000920E-02 0. -1.
    10030    2    1    2    0    0  0.00000000000E+00  0.00000000000E+00 -0.10967996996E+04  0.20358163458E+04  0.17151030910E+04 0.  0.
        3    1    3    3  502    0 -0.10213779179E+03  0.76974959169E+03 -0.11641232829E+03  0.78517412260E+03  0.10100000352E+00 0. -1.
       -3    1    3    3    0  502  0.10213779179E+03 -0.76974959169E+03 -0.98038737133E+03  0.12506422232E+04  0.10100000352E+00 0.  1.
</event>
<event>
 5   0  0.9266125E-05  0.1900494E+04  0.7818609E-02  0.8654610E-01
        3   -1    0    0  501    0  0.00000000000E+00  0.00000000000E+00  0.14254502552E+04  0.14254502587E+04  0.10100000352E+00 0. -1.
       -3   -1    0    0    0  501  0.00000000000E+00  0.00000000000E+00 -0.63346283059E+03  0.63346283864E+03  0.10100000352E+00 0.  1.
    10030    2    1    2    0    0  0.00000000000E+00  0.00000000000E+00  0.79198742458E+03  0.20589130974E+04  0.19004944256E+04 0.  0.
        1    1    3    3  502    0 -0.78258723862E+03  0.40690373297E+03  0.77895118594E+03  0.11767660702E+04  0.50400001928E-02 0. -1.
       -1    1    3    3    0  502  0.78258723862E+03 -0.40690373297E+03  0.13036238638E+02  0.88214702714E+03  0.50400001928E-02 0.  1.
</event>
<event>
 5   0  0.1277709E-04  0.1879597E+04  0.7818609E-02  0.8665080E-01
        1   -1    0    0  501    0  0.00000000000E+00  0.00000000000E+00  0.85189712602E+03  0.85189712604E+03  0.50400001928E-02 0. -1.
       -1   -1    0    0    0  501  0.00000000000E+00  0.00000000000E+00 -0.10367695683E+04  0.10367695683E+04  0.50400001928E-02 0.  1.
    10030    2    1    2    0    0  0.00000000000E+00  0.00000000000E+00 -0.18487244229E+03  0.18886666944E+04  0.18795967819E+04 0.  0.
        4    1    3    3  502    0  0.68408941463E+03 -0.22841274586E+03  0.51302318415E+03  0.88506785619E+03  0.12699999809E+01 0. -1.
       -4    1    3    3    0  502 -0.68408941463E+03  0.22841274586E+03 -0.69789562644E+03  0.10035988382E+04  0.12699999809E+01 0.  1.
</event>
<event>
 5   0  0.1239615E-04  0.1869012E+04  0.7818609E-02  0.8670437E-01
       -1   -1    0    0    0  501  0.00000000000E+00  0.00000000000E+00  0.13311732261E+04  0.13311732261E+04  0.50400001928E-02 0.  1.
        1   -1    0    0  501    0  0.00000000000E+00  0.00000000000E+00 -0.65603859190E+03  0.65603859192E+03  0.50400001928E-02 0. -1.
    10030    2    1    2    0    0  0.00000000000E+00  0.00000000000E+00  0.67513463424E+03  0.19872118181E+04  0.18690115129E+04 0.  0.
        3    1    3    3  502    0 -0.67732994452E+03  0.55148630364E+03  0.69082622400E+03  0.11136219641E+04  0.10100000352E+00 0.  1.
       -3    1    3    3    0  502  0.67732994452E+03 -0.55148630364E+03 -0.15691589766E+02  0.87358985401E+03  0.10100000352E+00 0. -1.
</event>
<event>
 5   0  0.2595012E-04  0.1905651E+04  0.7818609E-02  0.8652049E-01
       -2   -1    0    0    0  501  0.00000000000E+00  0.00000000000E+00  0.79858558850E+03  0.79858558851E+03  0.25500000920E-02 0.  1.
        2   -1    0    0  501    0  0.00000000000E+00  0.00000000000E+00 -0.11368550561E+04  0.11368550561E+04  0.25500000920E-02 0. -1.
    10030    2    1    2    0    0  0.00000000000E+00  0.00000000000E+00 -0.33826946758E+03  0.19354406446E+04  0.19056506123E+04 0.  0.
        1    1    3    3  502    0 -0.33795435670E+03  0.12504227166E+03  0.72671260832E+03  0.81114729367E+03  0.50400001928E-02 0.  1.
       -1    1    3    3    0  502  0.33795435670E+03 -0.12504227166E+03 -0.10649820759E+04  0.11242933509E+04  0.50400001928E-02 0. -1.
</event>
<event>
 5   0  0.1317527E-04  0.1922969E+04  0.7818609E-02  0.8643507E-01
        1   -1    0    0  501    0  0.00000000000E+00  0.00000000000E+00  0.12269640600E+04  0.12269640600E+04  0.50400001928E-02 0. -1.
       -1   -1    0    0    0  501  0.00000000000E+00  0.00000000000E+00 -0.75344709543E+03  0.75344709545E+03  0.50400001928E-02 0.  1.
    10030    2    1    2    0    0  0.00000000000E+00  0.00000000000E+00  0.47351696453E+03  0.19804111554E+04  0.19229690660E+04 0.  0.
        1    1    3    3  502    0  0.49474859587E+03 -0.74336314394E+03  0.60390093454E+03  0.10779894599E+04  0.50400001928E-02 0.  1.
       -1    1    3    3    0  502 -0.49474859587E+03  0.74336314394E+03 -0.13038397000E+03  0.90242169552E+03  0.50400001928E-02 0. -1.
</event>
<event>
 5   0  0.2651828E-04  0.1895320E+04  0.7818609E-02  0.8657190E-01
        2   -1    0    0  501    0  0.00000000000E+00  0.00000000000E+00  0.16137912157E+04  0.16137912157E+04  0.25500000920E-02 0. -1.
       -2   -1    0    0    0  501  0.00000000000E+00  0.00000000000E+00 -0.55649034433E+03  0.55649034433E+03  0.25500000920E-02 0.  1.
    10030    2    1    2    0    0  0.00000000000E+00  0.00000000000E+00  0.10573008713E+04  0.21702815600E+04  0.18953197401E+04 0.  0.
        3    1    3    3  502    0 -0.24310917738E+03 -0.87651855422E+03  0.83306009256E+03  0.12334407063E+04  0.10100000352E+00 0. -1.
       -3    1    3    3    0  502  0.24310917738E+03  0.87651855422E+03  0.22424077877E+03  0.93684085366E+03  0.10100000352E+00 0.  1.
</event>
<event>
 5   0  0.2651828E-04  0.1895916E+04  0.7818609E-02  0.8656892E-01
        2   -1    0    0  501    0  0.00000000000E+00  0.00000000000E+00  0.69664599224E+03  0.69664599224E+03  0.25500000920E-02 0.  1.
       -2   -1    0    0    0  501  0.00000000000E+00  0.00000000000E+00 -0.12899297661E+04  0.12899297661E+04  0.25500000920E-02 0. -1.
    10030    2    1    2    0    0  0.00000000000E+00  0.00000000000E+00 -0.59328377385E+03  0.19865757583E+04  0.18959160338E+04 0.  0.
        3    1    3    3  502    0  0.12816469430E+03 -0.19803377408E+03  0.66540199195E+03  0.70597690163E+03  0.10100000352E+00 0.  1.
       -3    1    3    3    0  502 -0.12816469430E+03  0.19803377408E+03 -0.12586857658E+04  0.12805988567E+04  0.10100000352E+00 0. -1.
</event>
<event>
 5   0  0.2562925E-04  0.1779805E+04  0.7818609E-02  0.8717113E-01
        2   -1    0    0  501    0  0.00000000000E+00  0.00000000000E+00  0.96441249793E+03  0.96441249793E+03  0.25500000920E-02 0. -1.
       -2   -1    0    0    0  501  0.00000000000E+00  0.00000000000E+00 -0.82114899415E+03  0.82114899416E+03  0.25500000920E-02 0.  1.
    10030    2    1    2    0    0  0.00000000000E+00  0.00000000000E+00  0.14326350377E+03  0.17855614921E+04  0.17798048799E+04 0.  0.
        4    1    3    3  502    0  0.49496622189E+03  0.71976018947E+03 -0.98854493765E+02  0.87910187976E+03  0.12699999809E+01 0.  1.
       -4    1    3    3    0  502 -0.49496622189E+03 -0.71976018947E+03  0.24211799754E+03  0.90645961233E+03  0.12699999809E+01 0. -1.
</event>
<event>
 5   0  0.1324058E-04  0.1914415E+04  0.7818609E-02  0.8647714E-01
        1   -1    0    0  501    0  0.00000000000E+00  0.00000000000E+00  0.93804457931E+03  0.93804457933E+03  0.50400001928E-02 0.  1.
       -1   -1    0    0    0  501  0.00000000000E+00  0.00000000000E+00 -0.97676142423E+03  0.97676142424E+03  0.50400001928E-02 0. -1.
    10030    2    1    2    0    0  0.00000000000E+00  0.00000000000E+00 -0.38716844913E+02  0.19148060036E+04  0.19144145416E+04 0.  0.
        5    1    3    3  502    0 -0.11460277127E+03  0.42127966762E+03  0.83264515429E+03  0.94017572639E+03  0.46999998093E+01 0.  1.
       -5    1    3    3    0  502  0.11460277127E+03 -0.42127966762E+03 -0.87136199921E+03  0.97463027717E+03  0.46999998093E+01 0. -1.
</event>
<event>
 5   0  0.2562925E-04  0.1801954E+04  0.7818609E-02  0.8705261E-01
        2   -1    0    0  501    0  0.00000000000E+00  0.00000000000E+00  0.12741312582E+04  0.12741312582E+04  0.25500000920E-02 0. -1.
       -2   -1    0    0    0  501  0.00000000000E+00  0.00000000000E+00 -0.63710807348E+03  0.63710807348E+03  0.25500000920E-02 0.  1.
    10030    2    1    2    0    0  0.00000000000E+00  0.00000000000E+00  0.63702318474E+03  0.19112393317E+04  0.18019537300E+04 0.  0.
        4    1    3    3  502    0 -0.68806981062E+01  0.14100244335E+03  0.12623269700E+04  0.12701968450E+04  0.12699999809E+01 0. -1.
       -4    1    3    3    0  502  0.68806981062E+01 -0.14100244335E+03 -0.62530378523E+03  0.64104248670E+03  0.12699999809E+01 0.  1.
</event>
<event>
 5   0  0.1324058E-04  0.1895379E+04  0.7818609E-02  0.8657160E-01
        1   -1    0    0  501    0  0.00000000000E+00  0.00000000000E+00  0.23549554906E+04  0.23549554906E+04  0.50400001928E-02 0.  1.
       -1   -1    0    0    0  501  0.00000000000E+00  0.00000000000E+00 -0.38137248525E+03  0.38137248528E+03  0.50400001928E-02 0. -1.
    10030    2    1    2    0    0  0.00000000000E+00  0.00000000000E+00  0.19735830054E+04  0.27363279759E+04  0.18953788309E+04 0.  0.
        5    1    3    3  502    0  0.15437667021E+03 -0.63780737998E+03  0.19738561998E+04  0.20800867284E+04  0.46999998093E+01 0.  1.
       -5    1    3    3    0  502 -0.15437667021E+03  0.63780737998E+03 -0.27319444174E+00  0.65624124748E+03  0.46999998093E+01 0. -1.
</event>
<event>
 5   0  0.2595012E-04  0.1882407E+04  0.7818609E-02  0.8663664E-01
        2   -1    0    0  501    0  0.00000000000E+00  0.00000000000E+00  0.20220713483E+04  0.20220713483E+04  0.25500000920E-02 0. -1.
       -2   -1    0    0    0  501  0.00000000000E+00  0.00000000000E+00 -0.43809723085E+03  0.43809723086E+03  0.25500000920E-02 0.  1.
    10030    2    1    2    0    0  0.00000000000E+00  0.00000000000E+00  0.15839741174E+04  0.24601685792E+04  0.18824068192E+04 0.  0.
        1    1    3    3  502    0  0.90074758467E+03  0.26638841786E+03  0.71406462711E+03  0.11799141037E+04  0.50400001928E-02 0.  1.
       -1    1    3    3    0  502 -0.90074758467E+03 -0.26638841786E+03  0.86990949033E+03  0.12802544754E+04  0.50400001928E-02 0. -1.
</event>
<event>
 5   0  0.1255141E-04  0.1906950E+04  0.7818609E-02  0.8651405E-01
       -1   -1    0    0    0  501  0.00000000000E+00  0.00000000000E+00  0.74941408454E+03  0.74941408455E+03  0.50400001928E-02 0.  1.
        1   -1    0    0  501    0  0.00000000000E+00  0.00000000000E+00 -0.12131003890E+04  0.12131003891E+04  0.50400001928E-02 0. -1.
    10030    2    1    2    0    0  0.00000000000E+00  0.00000000000E+00 -0.46368630451E+03  0.19625144736E+04  0.19069499391E+04 0.  0.
        2    1    3    3  502    0  0.61942066600E+03 -0.12037823102E+03  0.50378649530E+03  0.80744889177E+03  0.25500000920E-02 0.  1.
       -2    1    3    3    0  502 -0.61942066600E+03  0.12037823102E+03 -0.96747279982E+03  0.11550655818E+04  0.25500000920E-02 0. -1.
</event>
<event>
 5   0  0.2541124E-04  0.1905670E+04  0.7818609E-02  0.8652039E-01
        2   -1    0    0  501    0  0.00000000000E+00  0.00000000000E+00  0.14545275798E+04  0.14545275798E+04  0.25500000920E-02 0.  1.
       -2   -1    0    0    0  501  0.00000000000E+00  0.00000000000E+00 -0.62418520842E+03  0.62418520843E+03  0.25500000920E-02 0. -1.
    10030    2    1    2    0    0  0.00000000000E+00  0.00000000000E+00  0.83034237133E+03  0.20787127882E+04  0.19056700664E+04 0.  0.
        5    1    3    3  502    0  0.30808397076E+03  0.51926425837E+03 -0.38886423992E+03  0.71818423134E+03  0.46999998093E+01 0. -1.
       -5    1    3    3    0  502 -0.30808397076E+03 -0.51926425837E+03  0.12192066113E+04  0.13605285568E+04  0.46999998093E+01 0.  1.
</event>
<event>
 5   0  0.1239615E-04  0.1958975E+04  0.7818609E-02  0.8626045E-01
        1   -1    0    0  501    0  0.00000000000E+00  0.00000000000E+00  0.96372282943E+03  0.96372282944E+03  0.50400001928E-02 0.  1.
       -1   -1    0    0    0  501  0.00000000000E+00  0.00000000000E+00 -0.99551006746E+03  0.99551006748E+03  0.50400001928E-02 0. -1.
    10030    2    1    2    0    0  0.00000000000E+00  0.00000000000E+00 -0.31787238034E+02  0.19592328969E+04  0.19589750167E+04 0.  0.
        3    1    3    3  502    0 -0.88972892066E+03 -0.34733262986E+03 -0.23303567428E+03  0.98313943249E+03  0.10100000352E+00 0. -1.
       -3    1    3    3    0  502  0.88972892066E+03  0.34733262986E+03  0.20124843624E+03  0.97609346444E+03  0.10100000352E+00 0.  1.
</event>
<event>
 5   0  0.1239615E-04  0.1891097E+04  0.7818609E-02  0.8659301E-01
       -1   -1    0    0    0  501  0.00000000000E+00  0.00000000000E+00  0.90140881562E+03  0.90140881563E+03  0.50400001928E-02 0.  1.
        1   -1    0    0  501    0  0.00000000000E+00  0.00000000000E+00 -0.99184978495E+03  0.99184978496E+03  0.50400001928E-02 0. -1.
    10030    2    1    2    0    0  0.00000000000E+00  0.00000000000E+00 -0.90440969335E+02  0.18932586006E+04  0.18910971841E+04 0.  0.
        3    1    3    3  502    0  0.14456221982E+03 -0.40916176796E+03 -0.88627026283E+03  0.98680625086E+03  0.10100000352E+00 0. -1.
       -3    1    3    3    0  502 -0.14456221982E+03  0.40916176796E+03  0.79582929349E+03  0.90645234974E+03  0.10100000352E+00 0.  1.
</event>
<event>
 5   0  0.1239615E-04  0.1927665E+04  0.7818609E-02  0.8641207E-01
       -1   -1    0    0    0  501  0.00000000000E+00  0.00000000000E+00  0.85617010890E+03  0.85617010891E+03  0.50400001928E-02 0.  1.
        1   -1    0    0  501    0  0.00000000000E+00  0.00000000000E+00 -0.10850334979E+04  0.10850334979E+04  0.50400001928E-02 0. -1.
    10030    2    1    2    0    0  0.00000000000E+00  0.00000000000E+00 -0.22886338902E+03  0.19412036068E+04  0.19276651660E+04 0.  0.
        3    1    3    3  502    0  0.23677400015E+03  0.80349558975E+03 -0.59454648072E+03  0.10272062197E+04  0.10100000352E+00 0. -1.
       -3    1    3    3    0  502 -0.23677400015E+03 -0.80349558975E+03  0.36568309170E+03  0.91399738712E+03  0.10100000352E+00 0.  1.
</event>
<event>
 5   0  0.1255141E-04  0.1891239E+04  0.7818609E-02  0.8659230E-01
       -1   -1    0    0    0  501  0.00000000000E+00  0.00000000000E+00  0.13260706679E+04  0.13260706679E+04  0.50400001928E-02 0. -1.
        1   -1    0    0  501    0  0.00000000000E+00  0.00000000000E+00 -0.67431989804E+03  0.67431989806E+03  0.50400001928E-02 0.  1.
    10030    2    1    2    0    0  0.00000000000E+00  0.00000000000E+00  0.65175076987E+03  0.20003905660E+04  0.18912385758E+04 0.  0.
        2    1    3    3  502    0 -0.71160947620E+03 -0.40864557792E+03  0.82290735270E+03  0.11621341429E+04  0.25500000920E-02 0.  1.
       -2    1    3    3    0  502  0.71160947620E+03  0.40864557792E+03 -0.17115658283E+03  0.83825642307E+03  0.25500000920E-02 0. -1.
</event>
<event>
 5   0  0.1324058E-04  0.1896570E+04  0.7818609E-02  0.8656566E-01
       -1   -1    0    0    0  501  0.00000000000E+00  0.00000000000E+00  0.76591735123E+03  0.76591735124E+03  0.50400001928E-02 0.  1.
        1   -1    0    0  501    0  0.00000000000E+00  0.00000000000E+00 -0.11740749572E+04  0.11740749572E+04  0.50400001928E-02 0. -1.
    10030    2    1    2    0    0  0.00000000000E+00  0.00000000000E+00 -0.40815760595E+03  0.19399923084E+04  0.18965699369E+04 0.  0.
        5    1    3    3  502    0 -0.14693047787E+03  0.67065334384E+01 -0.11623240398E+04  0.11716026658E+04  0.46999998093E+01 0. -1.
       -5    1    3    3    0  502  0.14693047787E+03 -0.67065334384E+01  0.75416643388E+03  0.76838964264E+03  0.46999998093E+01 0.  1.
</event>
<event>
 5   0  0.2541124E-04  0.1909727E+04  0.7818609E-02  0.8650030E-01
        2   -1    0    0  501    0  0.00000000000E+00  0.00000000000E+00  0.10688579420E+04  0.10688579420E+04  0.25500000920E-02 0. -1.
       -2   -1    0    0    0  501  0.00000000000E+00  0.00000000000E+00 -0.85302653326E+03  0.85302653327E+03  0.25500000920E-02 0.  1.
    10030    2    1    2    0    0  0.00000000000E+00  0.00000000000E+00  0.21583140872E+03  0.19218844753E+04  0.19097268756E+04 0.  0.
        5    1    3    3  502    0 -0.16664713789E+03 -0.65947109105E+03  0.78230771186E+03  0.10366777872E+04  0.46999998093E+01 0. -1.
       -5    1    3    3    0  502  0.16664713789E+03  0.65947109105E+03 -0.56647630314E+03  0.88520668802E+03  0.46999998093E+01 0.  1.
</event>
<event>
 5   0  0.9266125E-05  0.1927613E+04  0.7818609E-02  0.8641233E-01
       -3   -1    0    0    0  501  0.00000000000E+00  0.00000000000E+00  0.96070216416E+03  0.96070216946E+03  0.10100000352E+00 0.  1.
        3   -1    0    0  501    0  0.00000000000E+00  0.00000000000E+00 -0.96692065718E+03  0.96692066246E+03  0.10100000352E+00 0. -1.
    10030    2    1    2    0    0  0.00000000000E+00  0.00000000000E+00 -0.62184930254E+01  0.19276228319E+04  0.19276128015E+04 0.  0.
        4    1    3    3  502    0  0.59658536911E+03  0.63825744321E+03  0.40387505607E+03  0.96249848845E+03  0.12699999809E+01 0.  1.
       -4    1    3    3    0  502 -0.59658536911E+03 -0.63825744321E+03 -0.41009354909E+03  0.96512434347E+03  0.12699999809E+01 0. -1.
</event>
<event>
 5   0  0.2595012E-04  0.1941180E+04  0.7818609E-02  0.8634626E-01
        2   -1    0    0  501    0  0.00000000000E+00  0.00000000000E+00  0.18552817537E+04  0.18552817537E+04  0.25500000920E-02 0. -1.
       -2   -1    0    0    0  501  0.00000000000E+00  0.00000000000E+00 -0.50776393453E+03  0.50776393454E+03  0.25500000920E-02 0.  1.
    10030    2    1    2    0    0  0.00000000000E+00  0.00000000000E+00  0.13475178192E+04  0.23630456882E+04  0.19411802213E+04 0.  0.
        1    1    3    3  502    0  0.91782076177E+03  0.90566823329E+02  0.10418819843E+04  0.13914436278E+04  0.50400001928E-02 0. -1.
       -1    1    3    3    0  502 -0.91782076177E+03 -0.90566823329E+02  0.30563583492E+03  0.97160206044E+03  0.50400001928E-02 0.  1.
</event>
<event>
 5   0  0.1317527E-04  0.1886952E+04  0.7818609E-02  0.8661378E-01
        1   -1    0    0  501    0  0.00000000000E+00  0.00000000000E+00  0.10895747144E+04  0.10895747145E+04  0.50400001928E-02 0. -1.
       -1   -1    0    0    0  501  0.00000000000E+00  0.00000000000E+00 -0.81696755061E+03  0.81696755063E+03  0.50400001928E-02 0.  1.
    10030    2    1    2    0    0  0.00000000000E+00  0.00000000000E+00  0.27260716383E+03  0.19065422651E+04  0.18869522365E+04 0.  0.
        1    1    3    3  502    0 -0.37007326869E+03 -0.86247854713E+03  0.23386544309E+03  0.96722102642E+03  0.50400001928E-02 0. -1.
       -1    1    3    3    0  502  0.37007326869E+03  0.86247854713E+03  0.38741720737E+02  0.93932123866E+03  0.50400001928E-02 0.  1.
</event>
<event>
 5   0  0.2562925E-04  0.1437350E+04  0.7818609E-02  0.8927218E-01
        2   -1    0    0  501    0  0.00000000000E+00  0.00000000000E+00  0.12734108634E+04  0.12734108634E+04  0.25500000920E-02 0.  1.
       -2   -1    0    0    0  501  0.00000000000E+00  0.00000000000E+00 -0.40559867711E+03  0.40559867712E+03  0.25500000920E-02 0. -1.
    10030    2    1    2    0    0  0.00000000000E+00  0.00000000000E+00  0.86781218631E+03  0.16790095405E+04  0.14373500084E+04 0.  0.
        4    1    3    3  502    0  0.59315458122E+03 -0.40277682143E+03  0.37631577393E+03  0.80973866136E+03  0.12699999809E+01 0.  1.
       -4    1    3    3    0  502 -0.59315458122E+03  0.40277682143E+03  0.49149641239E+03  0.86927087918E+03  0.12699999809E+01 0. -1.
</event>
<event>
 5   0  0.2651828E-04  0.1900357E+04  0.7818609E-02  0.8654679E-01
        2   -1    0    0  501    0  0.00000000000E+00  0.00000000000E+00  0.14931782057E+04  0.14931782057E+04  0.25500000920E-02 0.  1.
       -2   -1    0    0    0  501  0.00000000000E+00  0.00000000000E+00 -0.60464245581E+03  0.60464245581E+03  0.25500000920E-02 0. -1.
    10030    2    1    2    0    0  0.00000000000E+00  0.00000000000E+00  0.88853574993E+03  0.20978206616E+04  0.19003567426E+04 0.  0.
        3    1    3    3  502    0  0.93174432844E+02 -0.69832113395E+03  0.11480953121E+04  0.13470177196E+04  0.10100000352E+00 0.  1.
       -3    1    3    3    0  502 -0.93174432844E+02  0.69832113395E+03 -0.25955956220E+03  0.75080294192E+03  0.10100000352E+00 0. -1.
</event>
<event>
 5   0  0.1239615E-04  0.1896989E+04  0.7818609E-02  0.8656356E-01
       -1   -1    0    0    0  501  0.00000000000E+00  0.00000000000E+00  0.69129054186E+03  0.69129054188E+03  0.50400001928E-02 0. -1.
        1   -1    0    0  501    0  0.00000000000E+00  0.00000000000E+00 -0.13013952327E+04  0.13013952327E+04  0.50400001928E-02 0.  1.
    10030    2    1    2    0    0  0.00000000000E+00  0.00000000000E+00 -0.61010469081E+03  0.19926857746E+04  0.18969894207E+04 0.  0.
        3    1    3    3  502    0  0.48677739895E+03  0.60461532508E+03 -0.87764710123E+03  0.11716553981E+04  0.10100000352E+00 0.  1.
       -3    1    3    3    0  502 -0.48677739895E+03 -0.60461532508E+03  0.26754241042E+03  0.82103037644E+03  0.10100000352E+00 0. -1.
</event>
<event>
 5   0  0.1324058E-04  0.1866280E+04  0.7818609E-02  0.8671825E-01
        1   -1    0    0  501    0  0.00000000000E+00  0.00000000000E+00  0.89215370535E+03  0.89215370536E+03  0.50400001928E-02 0. -1.
       -1   -1    0    0    0  501  0.00000000000E+00  0.00000000000E+00 -0.97600929428E+03  0.97600929430E+03  0.50400001928E-02 0.  1.
    10030    2    1    2    0    0  0.00000000000E+00  0.00000000000E+00 -0.83855588937E+02  0.18681629997E+04  0.18662800523E+04 0.  0.
        5    1    3    3  502    0 -0.55255204640E+03  0.28493210581E+03  0.65463932201E+03  0.90281493166E+03  0.46999998093E+01 0. -1.
       -5    1    3    3    0  502  0.55255204640E+03 -0.28493210581E+03 -0.73849491094E+03  0.96534806800E+03  0.46999998093E+01 0.  1.
</event>
<event>
 5   0  0.1277709E-04  0.1904014E+04  0.7818609E-02  0.8652861E-01
       -1   -1    0    0    0  501  0.00000000000E+00  0.00000000000E+00  0.80347539183E+03  0.80347539185E+03  0.50400001928E-02 0.  1.
        1   -1    0    0  501    0  0.00000000000E+00  0.00000000000E+00 -0.11279962560E+04  0.11279962560E+04  0.50400001928E-02 0. -1.
    10030    2    1    2    0    0  0.00000000000E+00  0.00000000000E+00 -0.32452086412E+03  0.19314716478E+04  0.19040139010E+04 0.  0.
        4    1    3    3  502    0  0.61221101254E+03 -0.49990987544E+03 -0.70057629799E+03  0.10561822616E+04  0.12699999809E+01 0.  1.
       -4    1    3    3    0  502 -0.61221101254E+03  0.49990987544E+03  0.37605543387E+03  0.87528938625E+03  0.12699999809E+01 0. -1.
</event>
<event>
 5   0  0.2541124E-04  0.1899068E+04  0.7818609E-02  0.8655321E-01
        2   -1    0    0  501    0  0.00000000000E+00  0.00000000000E+00  0.83418305821E+03  0.83418305822E+03  0.25500000920E-02 0.  1.
       -2   -1    0    0    0  501  0.00000000000E+00  0.00000000000E+00 -0.10808354181E+04  0.10808354181E+04  0.25500000920E-02 0. -1.
    10030    2    1    2    0    0  0.00000000000E+00  0.00000000000E+00 -0.24665235988E+03  0.19150184763E+04  0.18990677655E+04 0.  0.
        5    1    3    3  502    0  0.44056909714E+03  0.40250829177E+03  0.62144232924E+03  0.86158383972E+03  0.46999998093E+01 0.  1.
       -5    1    3    3    0  502 -0.44056909714E+03 -0.40250829177E+03 -0.86809468912E+03  0.10534346366E+04  0.46999998093E+01 0. -1.
</event>
<event>
 5   0  0.2608744E-04  0.1905002E+04  0.7818609E-02  0.8652371E-01
       -2   -1    0    0    0  501  0.00000000000E+00  0.00000000000E+00  0.10893509880E+04  0.10893509880E+04  0.25500000920E-02 0. -1.
        2   -1    0    0  501    0  0.00000000000E+00  0.00000000000E+00 -0.83284271886E+03  0.83284271887E+03  0.25500000920E-02 0.  1.
    10030    2    1    2    0    0  0.00000000000E+00  0.00000000000E+00  0.25650826913E+03  0.19221937069E+04  0.19050018778E+04 0.  0.
        2    1    3    3  502    0 -0.98895790727E+02 -0.59915316517E+03 -0.61218920833E+03  0.86228795629E+03  0.25500000920E-02 0.  1.
       -2    1    3    3    0  502  0.98895790727E+02  0.59915316517E+03  0.86869747746E+03  0.10599057506E+04  0.25500000920E-02 0. -1.
</event>
<event>
 5   0  0.2651828E-04  0.1852371E+04  0.7818609E-02  0.8678934E-01
       -2   -1    0    0    0  501  0.00000000000E+00  0.00000000000E+00  0.48384489820E+03  0.48384489820E+03  0.25500000920E-02 0. -1.
        2   -1    0    0  501    0  0.00000000000E+00  0.00000000000E+00 -0.17729225893E+04  0.17729225893E+04  0.25500000920E-02 0.  1.
    10030    2    1    2    0    0  0.00000000000E+00  0.00000000000E+00 -0.12890776911E+04  0.22567674875E+04  0.18523709669E+04 0.  0.
        3    1    3    3  502    0 -0.71343275238E+03  0.27041120141E+03 -0.48247487699E+01  0.76297562111E+03  0.10100000352E+00 0. -1.
       -3    1    3    3    0  502  0.71343275238E+03 -0.27041120141E+03 -0.12842529423E+04  0.14937918664E+04  0.10100000352E+00 0.  1.
</event>
<event>
 5   0  0.2608744E-04  0.1882911E+04  0.7818609E-02  0.8663410E-01
       -2   -1    0    0    0  501  0.00000000000E+00  0.00000000000E+00  0.41364649469E+03  0.41364649469E+03  0.25500000920E-02 0.  1.
        2   -1    0    0  501    0  0.00000000000E+00  0.00000000000E+00 -0.21427443107E+04  0.21427443107E+04  0.25500000920E-02 0. -1.
    10030    2    1    2    0    0  0.00000000000E+00  0.00000000000E+00 -0.17290978160E+04  0.25563908054E+04  0.18829112280E+04 0.  0.
        2    1    3    3  502    0  0.34349626136E+03 -0.69328300072E+03 -0.15927865499E+04  0.17707625460E+04  0.25500000920E-02 0. -1.
       -2    1    3    3    0  502 -0.34349626136E+03  0.69328300072E+03 -0.13631126605E+03  0.78562825937E+03  0.25500000920E-02 0.  1.
</event>
<event>
 5   0  0.2651828E-04  0.1900924E+04  0.7818609E-02  0.8654397E-01
        2   -1    0    0  501    0  0.00000000000E+00  0.00000000000E+00  0.67137523668E+03  0.67137523669E+03  0.25500000920E-02 0.  1.
       -2   -1    0    0    0  501  0.00000000000E+00  0.00000000000E+00 -0.13455634443E+04  0.13455634443E+04  0.25500000920E-02 0. -1.
    10030    2    1    2    0    0  0.00000000000E+00  0.00000000000E+00 -0.67418820757E+03  0.20169386809E+04  0.19009239605E+04 0.  0.
        3    1    3    3  502    0  0.56368978527E+03  0.69636534984E+03 -0.38258310025E+00  0.89591909849E+03  0.10100000352E+00 0. -1.
       -3    1    3    3    0  502 -0.56368978527E+03 -0.69636534984E+03 -0.67380562447E+03  0.11210195825E+04  0.10100000352E+00 0.  1.
</event>
<event>
 5   0  0.2541124E-04  0.1938160E+04  0.7818609E-02  0.8636091E-01
       -2   -1    0    0    0  501  0.00000000000E+00  0.00000000000E+00  0.22110952921E+04  0.22110952921E+04  0.25500000920E-02 0.  1.
        2   -1    0    0  501    0  0.00000000000E+00  0.00000000000E+00 -0.42472886544E+03  0.42472886545E+03  0.25500000920E-02 0. -1.
    10030    2    1    2    0    0  0.00000000000E+00  0.00000000000E+00  0.17863664266E+04  0.26358241575E+04  0.19381599467E+04 0.  0.
        5    1    3    3  502    0  0.51018164748E+03  0.57857048452E+03  0.16908966963E+04  0.18585432055E+04  0.46999998093E+01 0.  1.
       -5    1    3    3    0  502 -0.51018164748E+03 -0.57857048452E+03  0.95469730296E+02  0.77728095203E+03  0.46999998093E+01 0. -1.
</event>
<event>
 5   0  0.2562925E-04  0.1890778E+04  0.7818609E-02  0.8659460E-01
        2   -1    0    0  501    0  0.00000000000E+00  0.00000000000E+00  0.11919698088E+04  0.11919698088E+04  0.25500000920E-02 0.  1.
       -2   -1    0    0    0  501  0.00000000000E+00  0.00000000000E+00 -0.74981793901E+03  0.74981793901E+03  0.25500000920E-02 0. -1.
    10030    2    1    2    0    0  0.00000000000E+00  0.00000000000E+00  0.44215186979E+03  0.19417877478E+04  0.18907779832E+04 0.  0.
        4    1    3    3  502    0  0.67026419298E+02  0.26906215555E+03 -0.70711678521E+03  0.75954114126E+03  0.12699999809E+01 0. -1.
       -4    1    3    3    0  502 -0.67026419298E+02 -0.26906215555E+03  0.11492686550E+04  0.11822466065E+04  0.12699999809E+01 0.  1.
</event>
<event>
 5   0  0.2562925E-04  0.1906096E+04  0.7818609E-02  0.8651828E-01
        2   -1    0    0  501    0  0.00000000000E+00  0.00000000000E+00  0.16293711008E+04  0.16293711008E+04  0.25500000920E-02 0. -1.
       -2   -1    0    0    0  501  0.00000000000E+00  0.00000000000E+00 -0.55745445023E+03  0.55745445024E+03  0.25500000920E-02 0.  1.
    10030    2    1    2    0    0  0.00000000000E+00  0.00000000000E+00  0.10719166506E+04  0.21868255510E+04  0.19060956652E+04 0.  0.
        4    1    3    3  502    0 -0.54824164360E+03 -0.40461307977E+01  0.14303315971E+04  0.15318078736E+04  0.12699999809E+01 0. -1.
       -4    1    3    3    0  502  0.54824164360E+03  0.40461307977E+01 -0.35841494656E+03  0.65501767745E+03  0.12699999809E+01 0.  1.
</event>
<event>
 5   0  0.1317527E-04  0.1914443E+04  0.7818609E-02  0.8647700E-01
        1   -1    0    0  501    0  0.00000000000E+00  0.00000000000E+00  0.67458059874E+03  0.67458059875E+03  0.50400001928E-02 0. -1.
       -1   -1    0    0    0  501  0.00000000000E+00  0.00000000000E+00 -0.13582851701E+04  0.13582851701E+04  0.50400001928E-02 0.  1.
    10030    2    1    2    0    0  0.00000000000E+00  0.00000000000E+00 -0.68370457135E+03  0.20328657689E+04  0.19144428154E+04 0.  0.
        1    1    3    3  502    0  0.97596700926E+01  0.94742823713E+03 -0.48650406760E+03  0.10650829655E+04  0.50400001928E-02 0. -1.
       -1    1    3    3    0  502 -0.97596700926E+01 -0.94742823713E+03 -0.19720050375E+03  0.96778280331E+03  0.50400001928E-02 0.  1.
</event>
<event>
 5   0  0.2608744E-04  0.1897346E+04  0.7818609E-02  0.8656178E-01
       -2   -1    0    0    0  501  0.00000000000E+00  0.00000000000E+00  0.21361118387E+04  0.21361118387E+04  0.25500000920E-02 0.  1.
        2   -1    0    0  501    0  0.00000000000E+00  0.00000000000E+00 -0.42131721159E+03  0.42131721160E+03  0.25500000920E-02 0. -1.
    10030    2    1    2    0    0  0.00000000000E+00  0.00000000000E+00  0.17147946271E+04  0.25574290503E+04  0.18973462347E+04 0.  0.
        2    1    3    3  502    0 -0.66256827961E+03 -0.67871009538E+03  0.88212544861E+03  0.12952951115E+04  0.25500000920E-02 0. -1.
       -2    1    3    3    0  502  0.66256827961E+03  0.67871009538E+03  0.83266917852E+03  0.12621339388E+04  0.25500000920E-02 0.  1.
</event>
<event>
 5   0  0.1324058E-04  0.1886018E+04  0.7818609E-02  0.8661848E-01
        1   -1    0    0  501    0  0.00000000000E+00  0.00000000000E+00  0.14644935305E+04  0.14644935305E+04  0.50400001928E-02 0. -1.
       -1   -1    0    0    0  501  0.00000000000E+00  0.00000000000E+00 -0.60721718697E+03  0.60721718699E+03  0.50400001928E-02 0.  1.
    10030    2    1    2    0    0  0.00000000000E+00  0.00000000000E+00  0.85727634355E+03  0.20717107175E+04  0.18860176478E+04 0.  0.
        5    1    3    3  502    0  0.38769929672E+02  0.22164973219E+03 -0.57728278397E+03  0.61960407834E+03  0.46999998093E+01 0.  1.
       -5    1    3    3    0  502 -0.38769929672E+02 -0.22164973219E+03  0.14345591275E+04  0.14521066392E+04  0.46999998093E+01 0. -1.
</event>
<event>
 5   0  0.1317527E-04  0.1956324E+04  0.7818609E-02  0.8627317E-01
        1   -1    0    0  501    0  0.00000000000E+00  0.00000000000E+00  0.90677765355E+03  0.90677765356E+03  0.50400001928E-02 0.  1.
       -1   -1    0    0    0  501  0.00000000000E+00  0.00000000000E+00 -0.10551660865E+04  0.10551660865E+04  0.50400001928E-02 0. -1.
    10030    2    1    2    0    0  0.00000000000E+00  0.00000000000E+00 -0.14838843295E+03  0.19619437401E+04  0.19563241327E+04 0.  0.
        1    1    3    3  502    0 -0.30716510037E+03  0.20374620412E+03 -0.98285324629E+03  0.10496968221E+04  0.50400001928E-02 0. -1.
       -1    1    3    3    0  502  0.30716510037E+03 -0.20374620412E+03  0.83446481335E+03  0.91224691796E+03  0.50400001928E-02 0.  1.
</event>
<event>
 5   0  0.1324058E-04  0.1897127E+04  0.7818609E-02  0.8656288E-01
       -1   -1    0    0    0  501  0.00000000000E+00  0.00000000000E+00  0.51418964562E+03  0.51418964564E+03  0.50400001928E-02 0.  1.
        1   -1    0    0  501    0  0.00000000000E+00  0.00000000000E+00 -0.17498847504E+04  0.17498847504E+04  0.50400001928E-02 0. -1.
    10030    2    1    2    0    0  0.00000000000E+00  0.00000000000E+00 -0.12356951047E+04  0.22640743960E+04  0.18971269011E+04 0.  0.
        5    1    3    3  502    0  0.87965408783E+02 -0.74346114644E+03  0.77292401143E+02  0.75264107958E+03  0.46999998093E+01 0. -1.
       -5    1    3    3    0  502 -0.87965408783E+02  0.74346114644E+03 -0.13129875059E+04  0.15114333164E+04  0.46999998093E+01 0.  1.
</event>
<event>
 5   0  0.2595012E-04  0.1913878E+04  0.7818609E-02  0.8647979E-01
        2   -1    0    0  501    0  0.00000000000E+00  0.00000000000E+00  0.51944119937E+03  0.51944119938E+03  0.25500000920E-02 0.  1.
       -2   -1    0    0    0  501  0.00000000000E+00  0.00000000000E+00 -0.17629188792E+04  0.17629188792E+04  0.25500000920E-02 0. -1.
    10030    2    1    2    0    0  0.00000000000E+00  0.00000000000E+00 -0.12434776798E+04  0.22823600786E+04  0.19138784674E+04 0.  0.
        1    1    3    3  502    0  0.15942697918E+03  0.27901164582E+03 -0.16966510638E+04  0.17268147824E+04  0.50400001928E-02 0. -1.
       -1    1    3    3    0  502 -0.15942697918E+03 -0.27901164582E+03  0.45317338398E+03  0.55554529623E+03  0.50400001928E-02 0.  1.
</event>
<event>
 5   0  0.2651828E-04  0.1855914E+04  0.7818609E-02  0.8677117E-01
        2   -1    0    0  501    0  0.00000000000E+00  0.00000000000E+00  0.22523912950E+04  0.22523912950E+04  0.25500000920E-02 0.  1.
       -2   -1    0    0    0  501  0.00000000000E+00  0.00000000000E+00 -0.38230678599E+03  0.38230678600E+03  0.25500000920E-02 0. -1.
    10030    2    1    2    0    0  0.00000000000E+00  0.00000000000E+00  0.18700845090E+04  0.26346980810E+04  0.18559143049E+04 0.  0.
        3    1    3    3  502    0  0.69340441779E+02 -0.35795757798E+03 -0.27635661132E+03  0.45750924726E+03  0.10100000352E+00 0. -1.
       -3    1    3    3    0  502 -0.69340441779E+02  0.35795757798E+03  0.21464411203E+04  0.21771888337E+04  0.10100000352E+00 0.  1.
</event>
<event>
 5   0  0.2541124E-04  0.2125029E+04  0.7818609E-02  0.8550297E-01
       -2   -1    0    0    0  501  0.00000000000E+00  0.00000000000E+00  0.53220480187E+03  0.53220480188E+03  0.25500000920E-02 0.  1.
        2   -1    0    0  501    0  0.00000000000E+00  0.00000000000E+00 -0.21212464266E+04  0.21212464266E+04  0.25500000920E-02 0. -1.
    10030    2    1    2    0    0  0.00000000000E+00  0.00000000000E+00 -0.15890416248E+04  0.26534512285E+04  0.21250294438E+04 0.  0.
        5    1    3    3  502    0 -0.69851401948E+03 -0.56518754306E+03 -0.15025887110E+04  0.17507580411E+04  0.46999998093E+01 0. -1.
       -5    1    3    3    0  502  0.69851401948E+03  0.56518754306E+03 -0.86452913783E+02  0.90269318738E+03  0.46999998093E+01 0.  1.
</event>
<event>
 5   0  0.1324058E-04  0.1865072E+04  0.7818609E-02  0.8672440E-01
        1   -1    0    0  501    0  0.00000000000E+00  0.00000000000E+00  0.16837432539E+04  0.16837432539E+04  0.50400001928E-02 0.  1.
       -1   -1    0    0    0  501  0.00000000000E+00  0.00000000000E+00 -0.51648241388E+03  0.51648241390E+03  0.50400001928E-02 0. -1.
    10030    2    1    2    0    0  0.00000000000E+00  0.00000000000E+00  0.11672608400E+04  0.22002256678E+04  0.18650724170E+04 0.  0.
        5    1    3    3  502    0 -0.92428969833E+03 -0.82197436694E+02  0.69260956519E+03  0.11579283073E+04  0.46999998093E+01 0.  1.
       -5    1    3    3    0  502  0.92428969833E+03  0.82197436694E+02  0.47465127482E+03  0.10422973605E+04  0.46999998093E+01 0. -1.
</event>
<event>
 5   0  0.2651828E-04  0.1890672E+04  0.7818609E-02  0.8659513E-01
        2   -1    0    0  501    0  0.00000000000E+00  0.00000000000E+00  0.14978154300E+04  0.14978154300E+04  0.25500000920E-02 0. -1.
       -2   -1    0    0    0  501  0.00000000000E+00  0.00000000000E+00 -0.59664238721E+03  0.59664238722E+03  0.25500000920E-02 0.  1.
    10030    2    1    2    0    0  0.00000000000E+00  0.00000000000E+00  0.90117304276E+03  0.20944578172E+04  0.18906720221E+04 0.  0.
        3    1    3    3  502    0 -0.12727832049E+03  0.39069819802E+03  0.13937111796E+04  0.14530229575E+04  0.10100000352E+00 0. -1.
       -3    1    3    3    0  502  0.12727832049E+03 -0.39069819802E+03 -0.49253813681E+03  0.64143485968E+03  0.10100000352E+00 0.  1.
</event>
<event>
 5   0  0.2562925E-04  0.1880519E+04  0.7818609E-02  0.8664614E-01
       -2   -1    0    0    0  501  0.00000000000E+00  0.00000000000E+00  0.54932590940E+03  0.54932590941E+03  0.25500000920E-02 0.  1.
        2   -1    0    0  501    0  0.00000000000E+00  0.00000000000E+00 -0.16094058331E+04  0.16094058331E+04  0.25500000920E-02 0. -1.
    10030    2    1    2    0    0  0.00000000000E+00  0.00000000000E+00 -0.10600799237E+04  0.21587317426E+04  0.18805194207E+04 0.  0.
        4    1    3    3  502    0 -0.65680211276E+03  0.27807948350E+02 -0.13017493006E+04  0.14583261473E+04  0.12699999809E+01 0. -1.
       -4    1    3    3    0  502  0.65680211276E+03 -0.27807948350E+02  0.24166937683E+03  0.70040559529E+03  0.12699999809E+01 0.  1.
</event>
<event>
 5   0  0.2541124E-04  0.1691566E+04  0.7818609E-02  0.8766189E-01
        2   -1    0    0  501    0  0.00000000000E+00  0.00000000000E+00  0.20353164340E+04  0.20353164340E+04  0.25500000920E-02 0.  1.
       -2   -1    0    0    0  501  0.00000000000E+00  0.00000000000E+00 -0.35146829620E+03  0.35146829621E+03  0.25500000920E-02 0. -1.
    10030    2    1    2    0    0  0.00000000000E+00  0.00000000000E+00  0.16838481378E+04  0.23867847302E+04  0.16915663739E+04 0.  0.
        5    1    3    3  502    0 -0.23825304990E+03  0.37825731327E+03  0.18549762167E+04  0.19080885633E+04  0.46999998093E+01 0.  1.
       -5    1    3    3    0  502  0.23825304990E+03 -0.37825731327E+03 -0.17112807892E+03  0.47869616692E+03  0.46999998093E+01 0. -1.
</event>
<event>
 5   0  0.1324058E-04  0.1961928E+04  0.7818609E-02  0.8624631E-01
       -1   -1    0    0    0  501  0.00000000000E+00  0.00000000000E+00  0.66577091309E+03  0.66577091311E+03  0.50400001928E-02 0. -1.
        1   -1    0    0  501    0  0.00000000000E+00  0.00000000000E+00 -0.14453770824E+04  0.14453770824E+04  0.50400001928E-02 0.  1.
    10030    2    1    2    0    0  0.00000000000E+00  0.00000000000E+00 -0.77960616934E+03  0.21111479956E+04  0.19619276439E+04 0.  0.
        5    1    3    3  502    0  0.33215970571E+03 -0.87675930488E+03 -0.70024346006E+03  0.11702136310E+04  0.46999998093E+01 0.  1.
       -5    1    3    3    0  502 -0.33215970571E+03  0.87675930488E+03 -0.79362709286E+02  0.94093436456E+03  0.46999998093E+01 0. -1.
</event>
<event>
 5   0  0.2651828E-04  0.1896888E+04  0.7818609E-02  0.8656407E-01
        2   -1    0    0  501    0  0.00000000000E+00  0.00000000000E+00  0.10319298906E+04  0.10319298906E+04  0.25500000920E-02 0.  1.
       -2   -1    0    0    0  501  0.00000000000E+00  0.00000000000E+00 -0.87171248771E+03  0.87171248771E+03  0.25500000920E-02 0. -1.
    10030    2    1    2    0    0  0.00000000000E+00  0.00000000000E+00  0.16021740285E+03  0.19036423783E+04  0.18968881591E+04 0.  0.
        3    1    3    3  502    0 -0.71429424678E+03 -0.56222901890E+03 -0.19146235026E+03  0.92896479075E+03  0.10100000352E+00 0. -1.
       -3    1    3    3    0  502  0.71429424678E+03  0.56222901890E+03  0.35167975311E+03  0.97467758753E+03  0.10100000352E+00 0.  1.
</event>
<event>
 5   0  0.2595012E-04  0.1854168E+04  0.7818609E-02  0.8678012E-01
        2   -1    0    0  501    0  0.00000000000E+00  0.00000000000E+00  0.89317516362E+03  0.89317516362E+03  0.25500000920E-02 0. -1.
       -2   -1    0    0    0  501  0.00000000000E+00  0.00000000000E+00 -0.96228011448E+03  0.96228011448E+03  0.25500000920E-02 0.  1.
    10030    2    1    2    0    0  0.00000000000E+00  0.00000000000E+00 -0.69104950860E+02  0.18554552781E+04  0.18541679522E+04 0.  0.
        1    1    3    3  502    0 -0.82635168110E+03 -0.21250434390E+03  0.32828649757E+03  0.91421399111E+03  0.50400001928E-02 0. -1.
       -1    1    3    3    0  502  0.82635168110E+03  0.21250434390E+03 -0.39739144843E+03  0.94124128699E+03  0.50400001928E-02 0.  1.
</event>
<event>
 5   0  0.2562925E-04  0.1895255E+04  0.7818609E-02  0.8657222E-01
       -2   -1    0    0    0  501  0.00000000000E+00  0.00000000000E+00  0.53932132533E+03  0.53932132534E+03  0.25500000920E-02 0.  1.
        2   -1    0    0  501    0  0.00000000000E+00  0.00000000000E+00 -0.16650517322E+04  0.16650517322E+04  0.25500000920E-02 0. -1.
    10030    2    1    2    0    0  0.00000000000E+00  0.00000000000E+00 -0.11257304069E+04  0.22043730575E+04  0.18952550298E+04 0.  0.
        4    1    3    3  502    0  0.79486242800E+03 -0.51398242480E+03 -0.61503753353E+03  0.11288299221E+04  0.12699999809E+01 0.  1.
       -4    1    3    3    0  502 -0.79486242800E+03  0.51398242480E+03 -0.51069287334E+03  0.10755431355E+04  0.12699999809E+01 0. -1.
</event>
<event>
 5   0  0.2595012E-04  0.1917348E+04  0.7818609E-02  0.8646269E-01
       -2   -1    0    0    0  501  0.00000000000E+00  0.00000000000E+00  0.87453740665E+03  0.87453740665E+03  0.25500000920E-02 0.  1.
        2   -1    0    0  501    0  0.00000000000E+00  0.00000000000E+00 -0.10509054357E+04  0.10509054357E+04  0.25500000920E-02 0. -1.
    10030    2    1    2    0    0  0.00000000000E+00  0.00000000000E+00 -0.17636802906E+03  0.19254428424E+04  0.19173482880E+04 0.  0.
        1    1    3    3  502    0 -0.43892241511E+03 -0.77827374732E+03 -0.43705995945E+03  0.99467799836E+03  0.50400001928E-02 0. -1.
       -1    1    3    3    0  502  0.43892241511E+03  0.77827374732E+03  0.26069193039E+03  0.93076484401E+03  0.50400001928E-02 0.  1.
</event>
<event>
 5   0  0.2651828E-04  0.1876212E+04  0.7818609E-02  0.8666789E-01
       -2   -1    0    0    0  501  0.00000000000E+00  0.00000000000E+00  0.66013086248E+03  0.66013086249E+03  0.25500000920E-02 0. -1.
        2   -1    0    0  501    0  0.00000000000E+00  0.00000000000E+00 -0.13331338577E+04  0.13331338577E+04  0.25500000920E-02 0.  1.
    10030    2    1    2    0    0  0.00000000000E+00  0.00000000000E+00 -0.67300299517E+03  0.19932647201E+04  0.18762119318E+04 0.  0.
        3    1    3    3  502    0 -0.20565143576E+03  0.75718367733E+03 -0.88280354857E+03  0.11810849884E+04  0.10100000352E+00 0.  1.
       -3    1    3    3    0  502  0.20565143576E+03 -0.75718367733E+03  0.20980055340E+03  0.81217973174E+03  0.10100000352E+00 0. -1.
</event>
<event>
 5   0  0.2608744E-04  0.1894726E+04  0.7818609E-02  0.8657486E-01
       -2   -1    0    0    0  501  0.00000000000E+00  0.00000000000E+00  0.93350066070E+03  0.93350066071E+03  0.25500000920E-02 0.  1.
        2   -1    0    0  501    0  0.00000000000E+00  0.00000000000E+00 -0.96143111497E+03  0.96143111498E+03  0.25500000920E-02 0. -1.
    10030    2    1    2    0    0  0.00000000000E+00  0.00000000000E+00 -0.27930454268E+02  0.18949317757E+04  0.18947259232E+04 0.  0.
        2    1    3    3  502    0  0.30919555715E+03  0.78442352602E+03 -0.44595476783E+03  0.95383322215E+03  0.25500000920E-02 0. -1.
       -2    1    3    3    0  502 -0.30919555715E+03 -0.78442352602E+03  0.41802431356E+03  0.94109855353E+03  0.25500000920E-02 0.  1.
</event>
<event>
 5   0  0.2595012E-04  0.1941602E+04  0.7818609E-02  0.8634421E-01
       -2   -1    0    0    0  501  0.00000000000E+00  0.00000000000E+00  0.34326379587E+03  0.34326379588E+03  0.25500000920E-02 0. -1.
        2   -1    0    0  501    0  0.00000000000E+00  0.00000000000E+00 -0.27455681558E+04  0.27455681558E+04  0.25500000920E-02 0.  1.
    10030    2    1    2    0    0  0.00000000000E+00  0.00000000000E+00 -0.24023043599E+04  0.30888319517E+04  0.19416015523E+04 0.  0.
        1    1    3    3  502    0 -0.65590816514E+03 -0.57307260097E+03 -0.18832366087E+04  0.20748994798E+04  0.50400001928E-02 0.  1.
       -1    1    3    3    0  502  0.65590816514E+03  0.57307260097E+03 -0.51906775124E+03  0.10139324719E+04  0.50400001928E-02 0. -1.
</event>
<event>
 5   0  0.2608744E-04  0.1835547E+04  0.7818609E-02  0.8687621E-01
       -2   -1    0    0    0  501  0.00000000000E+00  0.00000000000E+00  0.12878883728E+04  0.12878883729E+04  0.25500000920E-02 0. -1.
        2   -1    0    0  501    0  0.00000000000E+00  0.00000000000E+00 -0.65402286716E+03  0.65402286716E+03  0.25500000920E-02 0.  1.
    10030    2    1    2    0    0  0.00000000000E+00  0.00000000000E+00  0.63386550569E+03  0.19419112400E+04  0.18355472712E+04 0.  0.
        2    1    3    3  502    0 -0.60111804637E+03  0.51620565095E+03  0.80690861187E+03  0.11308902191E+04  0.25500000920E-02 0.  1.
       -2    1    3    3    0  502  0.60111804637E+03 -0.51620565095E+03 -0.17304310618E+03  0.81102102091E+03  0.25500000920E-02 0. -1.
</event>
<event>
 5   0  0.1317527E-04  0.1949122E+04  0.7818609E-02  0.8630784E-01
        1   -1    0    0  501    0  0.00000000000E+00  0.00000000000E+00  0.17763142543E+04  0.17763142543E+04  0.50400001928E-02 0. -1.
       -1   -1    0    0    0  501  0.00000000000E+00  0.00000000000E+00 -0.53468520573E+03  0.53468520575E+03  0.50400001928E-02 0.  1.
    10030    2    1    2    0    0  0.00000000000E+00  0.00000000000E+00  0.12416290486E+04  0.23109994601E+04  0.19491218048E+04 0.  0.
        1    1    3    3  502    0  0.26721652651E+02 -0.70499677035E+03 -0.17634756308E+03  0.72720901806E+03  0.50400001928E-02 0.  1.
       -1    1    3    3    0  502 -0.26721652651E+02  0.70499677035E+03  0.14179766117E+04  0.15837904420E+04  0.50400001928E-02 0. -1.
</event>
<event>
 5   0  0.1255141E-04  0.1869726E+04  0.7818609E-02  0.8670074E-01
       -1   -1    0    0    0  501  0.00000000000E+00  0.00000000000E+00  0.14865491191E+04  0.14865491191E+04  0.50400001928E-02 0. -1.
        1   -1    0    0  501    0  0.00000000000E+00  0.00000000000E+00 -0.58791808240E+03  0.58791808242E+03  0.50400001928E-02 0.  1.
    10030    2    1    2    0    0  0.00000000000E+00  0.00000000000E+00  0.89863103673E+03  0.20744672016E+04  0.18697262982E+04 0.  0.
        2    1    3    3  502    0 -0.30747775452E+03  0.82506423974E+03  0.79787531722E+03  0.11882249749E+04  0.25500000920E-02 0. -1.
       -2    1    3    3    0  502  0.30747775452E+03 -0.82506423974E+03  0.10075571951E+03  0.88624222662E+03  0.25500000920E-02 0.  1.
</event>
<event>
 5   0  0.1277709E-04  0.1856211E+04  0.7818609E-02  0.8676965E-01
        1   -1    0    0  501    0  0.00000000000E+00  0.00000000000E+00  0.90177422538E+03  0.90177422539E+03  0.50400001928E-02 0. -1.
       -1   -1    0    0    0  501  0.00000000000E+00  0.00000000000E+00 -0.95520565829E+03  0.95520565831E+03  0.50400001928E-02 0.  1.
    10030    2    1    2    0    0  0.00000000000E+00  0.00000000000E+00 -0.53431432914E+02  0.18569798837E+04  0.18562110253E+04 0.  0.
        4    1    3    3  502    0 -0.74157058876E+03 -0.11052753488E+03  0.52053459034E+03  0.91274374648E+03  0.12699999809E+01 0. -1.
       -4    1    3    3    0  502  0.74157058876E+03  0.11052753488E+03 -0.57396602326E+03  0.94423613722E+03  0.12699999809E+01 0.  1.
</event>
<event>
 5   0  0.9266125E-05  0.1896270E+04  0.7818609E-02  0.8656715E-01
       -3   -1    0    0    0  501  0.00000000000E+00  0.00000000000E+00  0.12660812581E+04  0.12660812622E+04  0.10100000352E+00 0.  1.
        3   -1    0    0  501    0  0.00000000000E+00  0.00000000000E+00 -0.71003309568E+03  0.71003310286E+03  0.10100000352E+00 0. -1.
    10030    2    1    2    0    0  0.00000000000E+00  0.00000000000E+00  0.55604816247E+03  0.19761143650E+04  0.18962696076E+04 0.  0.
        2    1    3    3  502    0 -0.82396115630E+03  0.34359673952E+03  0.61082800954E+03  0.10817030848E+04  0.25500000920E-02 0.  1.
       -2    1    3    3    0  502  0.82396115630E+03 -0.34359673952E+03 -0.54779847074E+02  0.89441128020E+03  0.25500000920E-02 0. -1.
</event>
<event>
 5   0  0.2651828E-04  0.1884775E+04  0.7818609E-02  0.8662472E-01
        2   -1    0    0  501    0  0.00000000000E+00  0.00000000000E+00  0.17264953954E+04  0.17264953954E+04  0.25500000920E-02 0.  1.
       -2   -1    0    0    0  501  0.00000000000E+00  0.00000000000E+00 -0.51439155240E+03  0.51439155240E+03  0.25500000920E-02 0. -1.
    10030    2    1    2    0    0  0.00000000000E+00  0.00000000000E+00  0.12121038430E+04  0.22408869478E+04  0.18847754738E+04 0.  0.
        3    1    3    3  502    0  0.64187179946E+03 -0.57162384325E+03  0.14658901990E+03  0.87191833108E+03  0.10100000352E+00 0. -1.
       -3    1    3    3    0  502 -0.64187179946E+03  0.57162384325E+03  0.10655148231E+04  0.13689686167E+04  0.10100000352E+00 0.  1.
</event>
<event>
 5   0  0.2651828E-04  0.1833528E+04  0.7818609E-02  0.8688670E-01
        2   -1    0    0  501    0  0.00000000000E+00  0.00000000000E+00  0.13988766335E+04  0.13988766335E+04  0.25500000920E-02 0. -1.
       -2   -1    0    0    0  501  0.00000000000E+00  0.00000000000E+00 -0.60080826485E+03  0.60080826486E+03  0.25500000920E-02 0.  1.
    10030    2    1    2    0    0  0.00000000000E+00  0.00000000000E+00  0.79806836863E+03  0.19996848983E+04  0.18335284485E+04 0.  0.
        3    1    3    3  502    0 -0.28409491450E+03  0.13287040565E+02  0.13495467520E+04  0.13791892227E+04  0.10100000352E+00 0. -1.
       -3    1    3    3    0  502  0.28409491450E+03 -0.13287040565E+02 -0.55147838342E+03  0.62049567562E+03  0.10100000352E+00 0.  1.
</event>
<event>
 5   0  0.1239615E-04  0.1897950E+04  0.7818609E-02  0.8655878E-01
        1   -1    0    0  501    0  0.00000000000E+00  0.00000000000E+00  0.14256782138E+04  0.14256782138E+04  0.50400001928E-02 0.  1.
       -1   -1    0    0    0  501  0.00000000000E+00  0.00000000000E+00 -0.63166669651E+03  0.63166669653E+03  0.50400001928E-02 0. -1.
    10030    2    1    2    0    0  0.00000000000E+00  0.00000000000E+00  0.79401151724E+03  0.20573449103E+04  0.18979498914E+04 0.  0.
        3    1    3    3  502    0  0.24546953725E+03 -0.22770462013E+02 -0.59635051141E+03  0.64529662196E+03  0.10100000352E+00 0. -1.
       -3    1    3    3    0  502 -0.24546953725E+03  0.22770462013E+02  0.13903620287E+04  0.14120482883E+04  0.10100000352E+00 0.  1.
</event>
<event>
 5   0  0.1277709E-04  0.1903093E+04  0.7818609E-02  0.8653318E-01
       -1   -1    0    0    0  501  0.00000000000E+00  0.00000000000E+00  0.52199571156E+03  0.52199571159E+03  0.50400001928E-02 0. -1.
        1   -1    0    0  501    0  0.00000000000E+00  0.00000000000E+00 -0.17345758883E+04  0.17345758883E+04  0.50400001928E-02 0.  1.
    10030    2    1    2    0    0  0.00000000000E+00  0.00000000000E+00 -0.12125801767E+04  0.22565715998E+04  0.19030934555E+04 0.  0.
        4    1    3    3  502    0  0.36446732751E+03  0.27625788665E+03  0.38313389033E+03  0.59661381444E+03  0.12699999809E+01 0. -1.
       -4    1    3    3    0  502 -0.36446732751E+03 -0.27625788665E+03 -0.15957140670E+04  0.16599577854E+04  0.12699999809E+01 0.  1.
</event>
<event>
 5   0  0.1324058E-04  0.1895898E+04  0.7818609E-02  0.8656901E-01
        1   -1    0    0  501    0  0.00000000000E+00  0.00000000000E+00  0.19912446305E+04  0.19912446305E+04  0.50400001928E-02 0.  1.
       -1   -1    0    0    0  501  0.00000000000E+00  0.00000000000E+00 -0.45127909279E+03  0.45127909281E+03  0.50400001928E-02 0. -1.
    10030    2    1    2    0    0  0.00000000000E+00  0.00000000000E+00  0.15399655377E+04  0.24425237233E+04  0.18958977508E+04 0.  0.
        5    1    3    3  502    0 -0.28390044806E+03 -0.58608451738E+03 -0.11745440962E+03  0.66174931376E+03  0.46999998093E+01 0. -1.
       -5    1    3    3    0  502  0.28390044806E+03  0.58608451738E+03  0.16574199473E+04  0.17807744096E+04  0.46999998093E+01 0.  1.
</event>
<event>
 5   0  0.2562925E-04  0.1886414E+04  0.7818609E-02  0.8661649E-01
       -2   -1    0    0    0  501  0.00000000000E+00  0.00000000000E+00  0.85410625459E+03  0.85410625459E+03  0.25500000920E-02 0.  1.
        2   -1    0    0  501    0  0.00000000000E+00  0.00000000000E+00 -0.10416023944E+04  0.10416023944E+04  0.25500000920E-02 0. -1.
    10030    2    1    2    0    0  0.00000000000E+00  0.00000000000E+00 -0.18749613984E+03  0.18957086490E+04  0.18864136555E+04 0.  0.
        4    1    3    3  502    0 -0.41124111715E+02  0.80048298833E+03  0.40586689437E+03  0.89843962291E+03  0.12699999809E+01 0.  1.
       -4    1    3    3    0  502  0.41124111715E+02 -0.80048298833E+03 -0.59336303421E+03  0.99726902611E+03  0.12699999809E+01 0. -1.
</event>
<event>
 5   0  0.2562925E-04  0.1882175E+04  0.7818609E-02  0.8663780E-01
        2   -1    0    0  501    0  0.00000000000E+00  0.00000000000E+00  0.13834531804E+04  0.13834531804E+04  0.25500000920E-02 0. -1.
       -2   -1    0    0    0  501  0.00000000000E+00  0.00000000000E+00 -0.64017020267E+03  0.64017020268E+03  0.25500000920E-02 0.  1.
    10030    2    1    2    0    0  0.00000000000E+00  0.00000000000E+00  0.74328297776E+03  0.20236233831E+04  0.18821748090E+04 0.  0.
        4    1    3    3  502    0  0.26508545289E+03 -0.88359275396E+03  0.57173942642E+03  0.10853082681E+04  0.12699999809E+01 0. -1.
       -4    1    3    3    0  502 -0.26508545289E+03  0.88359275396E+03  0.17154355135E+03  0.93831511503E+03  0.12699999809E+01 0.  1.
</event>
<event>
 5   0  0.2651828E-04  0.1903307E+04  0.7818609E-02  0.8653212E-01
       -2   -1    0    0    0  501  0.00000000000E+00  0.00000000000E+00  0.92438566594E+03  0.92438566594E+03  0.25500000920E-02 0. -1.
        2   -1    0    0  501    0  0.00000000000E+00  0.00000000000E+00 -0.97972520820E+03  0.97972520821E+03  0.25500000920E-02 0.  1.
    10030    2    1    2    0    0  0.00000000000E+00  0.00000000000E+00 -0.55339542264E+02  0.19041108741E+04  0.19033065324E+04 0.  0.
        3    1    3    3  502    0  0.49043475152E+03 -0.29657221944E+02 -0.84302225216E+03  0.97575218378E+03  0.10100000352E+00 0.  1.
       -3    1    3    3    0  502 -0.49043475152E+03  0.29657221944E+02  0.78768270990E+03  0.92835869037E+03  0.10100000352E+00 0. -1.
</event>
<event>
 5   0  0.1317527E-04  0.1905298E+04  0.7818609E-02  0.8652224E-01
        1   -1    0    0  501    0  0.00000000000E+00  0.00000000000E+00  0.14751059792E+04  0.14751059792E+04  0.50400001928E-02 0. -1.
       -1   -1    0    0    0  501  0.00000000000E+00  0.00000000000E+00 -0.61523749946E+03  0.61523749949E+03  0.50400001928E-02 0.  1.
    10030    2    1    2    0    0  0.00000000000E+00  0.00000000000E+00  0.85986847969E+03  0.20903434786E+04  0.19052984166E+04 0.  0.
        1    1    3    3  502    0  0.25873904090E+03 -0.80242312198E+03 -0.56663183676E+02  0.84500856468E+03  0.50400001928E-02 0.  1.
       -1    1    3    3    0  502 -0.25873904090E+03  0.80242312198E+03  0.91653166336E+03  0.12453349140E+04  0.50400001928E-02 0. -1.
</event>
<event>
 5   0  0.2562925E-04  0.1912153E+04  0.7818609E-02  0.8648831E-01
        2   -1    0    0  501    0  0.00000000000E+00  0.00000000000E+00  0.13834613643E+04  0.13834613643E+04  0.25500000920E-02 0.  1.
       -2   -1    0    0    0  501  0.00000000000E+00  0.00000000000E+00 -0.66072088456E+03  0.66072088456E+03  0.25500000920E-02 0. -1.
    10030    2    1    2    0    0  0.00000000000E+00  0.00000000000E+00  0.72274047973E+03  0.20441822488E+04  0.19121525215E+04 0.  0.
        4    1    3    3  502    0  0.52101340458E+03 -0.69884311079E+03  0.78122644617E+03  0.11705353623E+04  0.12699999809E+01 0.  1.
       -4    1    3    3    0  502 -0.52101340458E+03  0.69884311079E+03 -0.58485966444E+02  0.87364688657E+03  0.12699999809E+01 0. -1.
</event>
<event>
 5   0  0.1277709E-04  0.1894404E+04  0.7818609E-02  0.8657647E-01
       -1   -1    0    0    0  501  0.00000000000E+00  0.00000000000E+00  0.18831258730E+04  0.18831258730E+04  0.50400001928E-02 0. -1.
        1   -1    0    0  501    0  0.00000000000E+00  0.00000000000E+00 -0.47643752623E+03  0.47643752626E+03  0.50400001928E-02 0.  1.
    10030    2    1    2    0    0  0.00000000000E+00  0.00000000000E+00  0.14066883467E+04  0.23595633992E+04  0.18944042151E+04 0.  0.
        4    1    3    3  502    0 -0.35308951993E+03  0.11292959505E+03 -0.38232777689E+03  0.53254243437E+03  0.12699999809E+01 0.  1.
       -4    1    3    3    0  502  0.35308951993E+03 -0.11292959505E+03  0.17890161236E+04  0.18270209648E+04  0.12699999809E+01 0. -1.
</event>
<event>
 5   0  0.2595012E-04  0.1913598E+04  0.7818609E-02  0.8648117E-01
       -2   -1    0    0    0  501  0.00000000000E+00  0.00000000000E+00  0.11547792409E+04  0.11547792409E+04  0.25500000920E-02 0. -1.
        2   -1    0    0  501    0  0.00000000000E+00  0.00000000000E+00 -0.79276148280E+03  0.79276148281E+03  0.25500000920E-02 0.  1.
    10030    2    1    2    0    0  0.00000000000E+00  0.00000000000E+00  0.36201775811E+03  0.19475407237E+04  0.19135981849E+04 0.  0.
        1    1    3    3  502    0 -0.73399755981E+03 -0.19987004035E+03 -0.40959821722E+03  0.86398561933E+03  0.50400001928E-02 0.  1.
       -1    1    3    3    0  502  0.73399755981E+03  0.19987004035E+03  0.77161597534E+03  0.10835551044E+04  0.50400001928E-02 0. -1.
</event>
<event>
 5   0  0.2541124E-04  0.1926309E+04  0.7818609E-02  0.8641871E-01
       -2   -1    0    0    0  501  0.00000000000E+00  0.00000000000E+00  0.53137077822E+03  0.53137077823E+03  0.25500000920E-02 0. -1.
        2   -1    0    0  501    0  0.00000000000E+00  0.00000000000E+00 -0.17457986270E+04  0.17457986270E+04  0.25500000920E-02 0.  1.
    10030    2    1    2    0    0  0.00000000000E+00  0.00000000000E+00 -0.12144278488E+04  0.22771694052E+04  0.19263087759E+04 0.  0.
        5    1    3    3  502    0  0.44631536635E+03 -0.84426791372E+03 -0.75514024918E+03  0.12174746824E+04  0.46999998093E+01 0.  1.
       -5    1    3    3    0  502 -0.44631536635E+03  0.84426791372E+03 -0.45928759958E+03  0.10596947228E+04  0.46999998093E+01 0. -1.
</event>
<event>
 5   0  0.1317527E-04  0.1861169E+04  0.7818609E-02  0.8674430E-01
       -1   -1    0    0    0  501  0.00000000000E+00  0.00000000000E+00  0.34136784141E+03  0.34136784145E+03  0.50400001928E-02 0.  1.
        1   -1    0    0  501    0  0.00000000000E+00  0.00000000000E+00 -0.25368166332E+04  0.25368166332E+04  0.50400001928E-02 0. -1.
    10030    2    1    2    0    0  0.00000000000E+00  0.00000000000E+00 -0.21954487917E+04  0.28781844746E+04  0.18611691145E+04 0.  0.
        1    1    3    3  502    0  0.80498318333E+03  0.46666008882E+03 -0.11205601333E+04  0.14565110972E+04  0.50400001928E-02 0.  1.
       -1    1    3    3    0  502 -0.80498318333E+03 -0.46666008882E+03 -0.10748886585E+04  0.14216733774E+04  0.50400001928E-02 0. -1.
</event>
<event>
 5   0  0.1317527E-04  0.1954227E+04  0.7818609E-02  0.8628325E-01
        1   -1    0    0  501    0  0.00000000000E+00  0.00000000000E+00  0.98816486588E+03  0.98816486590E+03  0.50400001928E-02 0. -1.
       -1   -1    0    0    0  501  0.00000000000E+00  0.00000000000E+00 -0.96618584454E+03  0.96618584455E+03  0.50400001928E-02 0.  1.
    10030    2    1    2    0    0  0.00000000000E+00  0.00000000000E+00  0.21979021347E+02  0.19543507104E+04  0.19542271163E+04 0.  0.
        1    1    3    3  502    0  0.96921776955E+03  0.11830308290E+03 -0.26056066932E+02  0.97675873320E+03  0.50400001928E-02 0.  1.
       -1    1    3    3    0  502 -0.96921776955E+03 -0.11830308290E+03  0.48035088279E+02  0.97759197724E+03  0.50400001928E-02 0. -1.
</event>
<event>
 5   0  0.1277709E-04  0.1873841E+04  0.7818609E-02  0.8667988E-01
       -1   -1    0    0    0  501  0.00000000000E+00  0.00000000000E+00  0.45655753708E+03  0.45655753711E+03  0.50400001928E-02 0. -1.
        1   -1    0    0  501    0  0.00000000000E+00  0.00000000000E+00 -0.19226924162E+04  0.19226924162E+04  0.50400001928E-02 0.  1.
    10030    2    1    2    0    0  0.00000000000E+00  0.00000000000E+00 -0.14661348791E+04  0.23792499533E+04  0.18738406700E+04 0.  0.
        4    1    3    3  502    0  0.14876997735E+03  0.86627319749E+03 -0.32112973371E+03  0.93578185365E+03  0.12699999809E+01 0. -1.
       -4    1    3    3    0  502 -0.14876997735E+03 -0.86627319749E+03 -0.11450051454E+04  0.14434680997E+04  0.12699999809E+01 0.  1.
</event>
<event>
 5   0  0.2562925E-04  0.1896556E+04  0.7818609E-02  0.8656573E-01
        2   -1    0    0  501    0  0.00000000000E+00  0.00000000000E+00  0.14253831803E+04  0.14253831803E+04  0.25500000920E-02 0. -1.
       -2   -1    0    0    0  501  0.00000000000E+00  0.00000000000E+00 -0.63086970026E+03  0.63086970026E+03  0.25500000920E-02 0.  1.
    10030    2    1    2    0    0  0.00000000000E+00  0.00000000000E+00  0.79451348002E+03  0.20562528805E+04  0.18965558887E+04 0.  0.
        4    1    3    3  502    0 -0.52005038900E+03 -0.58047753075E+03 -0.18843694987E+03  0.80182084519E+03  0.12699999809E+01 0.  1.
       -4    1    3    3    0  502  0.52005038900E+03  0.58047753075E+03  0.98295042989E+03  0.12544320354E+04  0.12699999809E+01 0. -1.
</event>
<event>
 5   0  0.1317527E-04  0.1837632E+04  0.7818609E-02  0.8686539E-01
       -1   -1    0    0    0  501  0.00000000000E+00  0.00000000000E+00  0.67545570476E+03  0.67545570478E+03  0.50400001928E-02 0.  1.
        1   -1    0    0  501    0  0.00000000000E+00  0.00000000000E+00 -0.12498566793E+04  0.12498566793E+04  0.50400001928E-02 0. -1.
    10030    2    1    2    0    0  0.00000000000E+00  0.00000000000E+00 -0.57440097454E+03  0.19253123841E+04  0.18376319808E+04 0.  0.
        1    1    3    3  502    0  0.40574127090E+03  0.75451406566E+03  0.60768862618E+02  0.85884242378E+03  0.50400001928E-02 0. -1.
       -1    1    3    3    0  502 -0.40574127090E+03 -0.75451406566E+03 -0.63516983716E+03  0.10664699603E+04  0.50400001928E-02 0.  1.
</event>
<event>
 5   0  0.2595012E-04  0.1896213E+04  0.7818609E-02  0.8656744E-01
       -2   -1    0    0    0  501  0.00000000000E+00  0.00000000000E+00  0.72701758827E+03  0.72701758827E+03  0.25500000920E-02 0.  1.
        2   -1    0    0  501    0  0.00000000000E+00  0.00000000000E+00 -0.12364296075E+04  0.12364296075E+04  0.25500000920E-02 0. -1.
    10030    2    1    2    0    0  0.00000000000E+00  0.00000000000E+00 -0.50941201928E+03  0.19634471958E+04  0.18962131434E+04 0.  0.
        1    1    3    3  502    0 -0.90776883980E+03  0.24740295936E+03 -0.13371437310E+03  0.95033258621E+03  0.50400001928E-02 0. -1.
       -1    1    3    3    0  502  0.90776883980E+03 -0.24740295936E+03 -0.37569764618E+03  0.10131146096E+04  0.50400001928E-02 0.  1.
</event>
<event>
 5   0  0.9266125E-05  0.1985081E+04  0.7818609E-02  0.8613627E-01
       -3   -1    0    0    0  501  0.00000000000E+00  0.00000000000E+00  0.64752445949E+03  0.64752446736E+03  0.10100000352E+00 0. -1.
        3   -1    0    0  501    0  0.00000000000E+00  0.00000000000E+00 -0.15213897551E+04  0.15213897584E+04  0.10100000352E+00 0.  1.
    10030    2    1    2    0    0  0.00000000000E+00  0.00000000000E+00 -0.87386529558E+03  0.21689142258E+04  0.19850814502E+04 0.  0.
        4    1    3    3  502    0  0.70629612885E+02 -0.92005087794E+03 -0.37490472278E+02  0.92352006401E+03  0.12699999809E+01 0. -1.
       -4    1    3    3    0  502 -0.70629612885E+02  0.92005087794E+03 -0.83637482330E+03  0.12453941618E+04  0.12699999809E+01 0.  1.
</event>
<event>
 5   0  0.2651828E-04  0.1908805E+04  0.7818609E-02  0.8650486E-01
       -2   -1    0    0    0  501  0.00000000000E+00  0.00000000000E+00  0.73520921667E+03  0.73520921668E+03  0.25500000920E-02 0.  1.
        2   -1    0    0  501    0  0.00000000000E+00  0.00000000000E+00 -0.12389460181E+04  0.12389460181E+04  0.25500000920E-02 0. -1.
    10030    2    1    2    0    0  0.00000000000E+00  0.00000000000E+00 -0.50373680147E+03  0.19741552348E+04  0.19088054186E+04 0.  0.
        3    1    3    3  502    0  0.94924067166E+03  0.84794893943E+02 -0.19876368619E+03  0.97352711309E+03  0.10100000352E+00 0. -1.
       -3    1    3    3    0  502 -0.94924067166E+03 -0.84794893943E+02 -0.30497311529E+03  0.10006281217E+04  0.10100000352E+00 0.  1.
</event>
<event>
 5   0  0.1317527E-04  0.1761634E+04  0.7818609E-02  0.8726973E-01
        1   -1    0    0  501    0  0.00000000000E+00  0.00000000000E+00  0.62179045093E+03  0.62179045095E+03  0.50400001928E-02 0.  1.
       -1   -1    0    0    0  501  0.00000000000E+00  0.00000000000E+00 -0.12477487886E+04  0.12477487886E+04  0.50400001928E-02 0. -1.
    10030    2    1    2    0    0  0.00000000000E+00  0.00000000000E+00 -0.62595833771E+03  0.18695392396E+04  0.17616336531E+04 0.  0.
        1    1    3    3  502    0  0.66509593061E+03  0.26840903918E+02  0.29921328373E+03  0.72979560168E+03  0.50400001928E-02 0.  1.
       -1    1    3    3    0  502 -0.66509593061E+03 -0.26840903918E+02 -0.92517162144E+03  0.11397436379E+04  0.50400001928E-02 0. -1.
</event>
<event>
 5   0  0.9266125E-05  0.1417844E+04  0.7818609E-02  0.8941002E-01
       -3   -1    0    0    0  501  0.00000000000E+00  0.00000000000E+00  0.56148948194E+03  0.56148949103E+03  0.10100000352E+00 0.  1.
        3   -1    0    0  501    0  0.00000000000E+00  0.00000000000E+00 -0.89506672717E+03  0.89506673287E+03  0.10100000352E+00 0. -1.
    10030    2    1    2    0    0  0.00000000000E+00  0.00000000000E+00 -0.33357724523E+03  0.14565562239E+04  0.14178442280E+04 0.  0.
        4    1    3    3  502    0 -0.32147315265E+03  0.20424053381E+03  0.44745787586E+03  0.58760475414E+03  0.12699999809E+01 0.  1.
       -4    1    3    3    0  502  0.32147315265E+03 -0.20424053381E+03 -0.78103512109E+03  0.86895146976E+03  0.12699999809E+01 0. -1.
</event>
<event>
 5   0  0.2541124E-04  0.1831842E+04  0.7818609E-02  0.8689547E-01
       -2   -1    0    0    0  501  0.00000000000E+00  0.00000000000E+00  0.11292836630E+04  0.11292836630E+04  0.25500000920E-02 0.  1.
        2   -1    0    0  501    0  0.00000000000E+00  0.00000000000E+00 -0.74287025938E+03  0.74287025939E+03  0.25500000920E-02 0. -1.
    10030    2    1    2    0    0  0.00000000000E+00  0.00000000000E+00  0.38641340361E+03  0.18721539224E+04  0.18318419666E+04 0.  0.
        5    1    3    3  502    0  0.45105699005E+02 -0.63677206483E+03  0.86445241138E+03  0.10746223747E+04  0.46999998093E+01 0.  1.
       -5    1    3    3    0  502 -0.45105699005E+02  0.63677206483E+03 -0.47803900777E+03  0.79753154770E+03  0.46999998093E+01 0. -1.
</event>
<event>
 5   0  0.1317527E-04  0.1919485E+04  0.7818609E-02  0.8645218E-01
       -1   -1    0    0    0  501  0.00000000000E+00  0.00000000000E+00  0.49123988321E+03  0.49123988324E+03  0.50400001928E-02 0.  1.
        1   -1    0    0  501    0  0.00000000000E+00  0.00000000000E+00 -0.18750628516E+04  0.18750628516E+04  0.50400001928E-02 0. -1.
    10030    2    1    2    0    0  0.00000000000E+00  0.00000000000E+00 -0.13838229684E+04  0.23663027349E+04  0.19194849896E+04 0.  0.
        1    1    3    3  502    0 -0.38512251947E+03 -0.86988563048E+03 -0.53556070559E+03  0.10917168289E+04  0.50400001928E-02 0.  1.
       -1    1    3    3    0  502  0.38512251947E+03  0.86988563048E+03 -0.84826226282E+03  0.12745859060E+04  0.50400001928E-02 0. -1.
</event>
<event>
 5   0  0.1324058E-04  0.1865323E+04  0.7818609E-02  0.8672312E-01
        1   -1    0    0  501    0  0.00000000000E+00  0.00000000000E+00  0.93711253187E+03  0.93711253189E+03  0.50400001928E-02 0. -1.
       -1   -1    0    0    0  501  0.00000000000E+00  0.00000000000E+00 -0.92823184411E+03  0.92823184412E+03  0.50400001928E-02 0.  1.
    10030    2    1    2    0    0  0.00000000000E+00  0.00000000000E+00  0.88806877626E+01  0.18653443760E+04  0.18653232359E+04 0.  0.
        5    1    3    3  502    0 -0.78358475720E+03  0.22164696131E+03 -0.45021099693E+03  0.93050764582E+03  0.46999998093E+01 0.  1.
       -5    1    3    3    0  502  0.78358475720E+03 -0.22164696131E+03  0.45909168469E+03  0.93483673019E+03  0.46999998093E+01 0. -1.
</event>
<event>
 5   0  0.1239615E-04  0.1663609E+04  0.7818609E-02  0.8782396E-01
        1   -1    0    0  501    0  0.00000000000E+00  0.00000000000E+00  0.13925109761E+04  0.13925109761E+04  0.50400001928E-02 0. -1.
       -1   -1    0    0    0  501  0.00000000000E+00  0.00000000000E+00 -0.49687135761E+03  0.49687135763E+03  0.50400001928E-02 0.  1.
    10030    2    1    2    0    0  0.00000000000E+00  0.00000000000E+00  0.89563961846E+03  0.18893823337E+04  0.16636091118E+04 0.  0.
        3    1    3    3  502    0  0.74378627399E+02 -0.17097342741E+03 -0.47283275157E+03  0.50826657794E+03  0.10100000352E+00 0.  1.
       -3    1    3    3    0  502 -0.74378627399E+02  0.17097342741E+03  0.13684723700E+04  0.13811157558E+04  0.10100000352E+00 0. -1.
</event>
<event>
 5   0  0.2562925E-04  0.2067719E+04  0.7818609E-02  0.8575598E-01
       -2   -1    0    0    0  501  0.00000000000E+00  0.00000000000E+00  0.61964317100E+03  0.61964317101E+03  0.25500000920E-02 0.  1.
        2   -1    0    0  501    0  0.00000000000E+00  0.00000000000E+00 -0.17249694409E+04  0.17249694409E+04  0.25500000920E-02 0. -1.
    10030    2    1    2    0    0  0.00000000000E+00  0.00000000000E+00 -0.11053262699E+04  0.23446126119E+04  0.20677190663E+04 0.  0.
        4    1    3    3  502    0  0.31260343915E+02 -0.69729379365E+03 -0.14174661189E+04  0.15800024224E+04  0.12699999809E+01 0. -1.
       -4    1    3    3    0  502 -0.31260343915E+02  0.69729379365E+03  0.31213984894E+03  0.76461018954E+03  0.12699999809E+01 0.  1.
</event>
<event>
 5   0  0.1255141E-04  0.1904300E+04  0.7818609E-02  0.8652719E-01
        1   -1    0    0  501    0  0.00000000000E+00  0.00000000000E+00  0.16689033163E+04  0.16689033163E+04  0.50400001928E-02 0. -1.
       -1   -1    0    0    0  501  0.00000000000E+00  0.00000000000E+00 -0.54322499724E+03  0.54322499726E+03  0.50400001928E-02 0.  1.
    10030    2    1    2    0    0  0.00000000000E+00  0.00000000000E+00  0.11256783191E+04  0.22121283136E+04  0.19043003959E+04 0.  0.
        2    1    3    3  502    0 -0.67726647783E+03  0.27924010149E+03 -0.14369269445E+03  0.74653366080E+03  0.25500000920E-02 0.  1.
       -2    1    3    3    0  502  0.67726647783E+03 -0.27924010149E+03  0.12693710135E+04  0.14655946528E+04  0.25500000920E-02 0. -1.
</event>
<event>
 5   0  0.9266125E-05  0.1927648E+04  0.7818609E-02  0.8641215E-01
        3   -1    0    0  501    0  0.00000000000E+00  0.00000000000E+00  0.61215448049E+03  0.61215448882E+03  0.10100000352E+00 0. -1.
       -3   -1    0    0    0  501  0.00000000000E+00  0.00000000000E+00 -0.15175194270E+04  0.15175194304E+04  0.10100000352E+00 0.  1.
    10030    2    1    2    0    0  0.00000000000E+00  0.00000000000E+00 -0.90536494651E+03  0.21296739192E+04  0.19276476119E+04 0.  0.
        5    1    3    3  502    0  0.67654897173E+03  0.47288728611E+03  0.97054502700E+02  0.83113330038E+03  0.46999998093E+01 0. -1.
       -5    1    3    3    0  502 -0.67654897173E+03 -0.47288728611E+03 -0.10024194492E+04  0.12985406188E+04  0.46999998093E+01 0.  1.
</event>
<event>
 5   0  0.2595012E-04  0.1985134E+04  0.7818609E-02  0.8613603E-01
        2   -1    0    0  501    0  0.00000000000E+00  0.00000000000E+00  0.20812566731E+04  0.20812566731E+04  0.25500000920E-02 0. -1.
       -2   -1    0    0    0  501  0.00000000000E+00  0.00000000000E+00 -0.47336277223E+03  0.47336277224E+03  0.25500000920E-02 0.  1.
    10030    2    1    2    0    0  0.00000000000E+00  0.00000000000E+00  0.16078939009E+04  0.25546194454E+04  0.19851341804E+04 0.  0.
        1    1    3    3  502    0 -0.64489912057E+03  0.13018274630E+03  0.17603530745E+04  0.18792778853E+04  0.50400001928E-02 0. -1.
       -1    1    3    3    0  502  0.64489912057E+03 -0.13018274630E+03 -0.15245917360E+03  0.67534156009E+03  0.50400001928E-02 0.  1.
</event>
<event>
 5   0  0.2562925E-04  0.1899137E+04  0.7818609E-02  0.8655286E-01
        2   -1    0    0  501    0  0.00000000000E+00  0.00000000000E+00  0.74316327200E+03  0.74316327201E+03  0.25500000920E-02 0. -1.
       -2   -1    0    0    0  501  0.00000000000E+00  0.00000000000E+00 -0.12133004180E+04  0.12133004180E+04  0.25500000920E-02 0.  1.
    10030    2    1    2    0    0  0.00000000000E+00  0.00000000000E+00 -0.47013714604E+03  0.19564636901E+04  0.18991369709E+04 0.  0.
        4    1    3    3  502    0 -0.72416744342E+03 -0.35498960994E+03 -0.75143991533E+03  0.11023155939E+04  0.12699999809E+01 0.  1.
       -4    1    3    3    0  502  0.72416744342E+03  0.35498960994E+03  0.28130276929E+03  0.85414809617E+03  0.12699999809E+01 0. -1.
</event>
<event>
 5   0  0.2562925E-04  0.1837972E+04  0.7818609E-02  0.8686363E-01
       -2   -1    0    0    0  501  0.00000000000E+00  0.00000000000E+00  0.72677757360E+03  0.72677757361E+03  0.25500000920E-02 0. -1.
        2   -1    0    0  501    0  0.00000000000E+00  0.00000000000E+00 -0.11620271706E+04  0.11620271706E+04  0.25500000920E-02 0.  1.
    10030    2    1    2    0    0  0.00000000000E+00  0.00000000000E+00 -0.43524959704E+03  0.18888047442E+04  0.18379720211E+04 0.  0.
        4    1    3    3  502    0  0.38841102216E+03  0.13793087472E+03 -0.10617094894E+04  0.11389103130E+04  0.12699999809E+01 0.  1.
       -4    1    3    3    0  502 -0.38841102216E+03 -0.13793087472E+03  0.62645989236E+03  0.74989443122E+03  0.12699999809E+01 0. -1.
</event>
<event>
 5   0  0.2562925E-04  0.1888681E+04  0.7818609E-02  0.8660511E-01
        2   -1    0    0  501    0  0.00000000000E+00  0.00000000000E+00  0.69095036301E+03  0.69095036301E+03  0.25500000920E-02 0. -1.
       -2   -1    0    0    0  501  0.00000000000E+00  0.00000000000E+00 -0.12906550813E+04  0.12906550813E+04  0.25500000920E-02 0.  1.
    10030    2    1    2    0    0  0.00000000000E+00  0.00000000000E+00 -0.59970471825E+03  0.19816054443E+04  0.18886805944E+04 0.  0.
        4    1    3    3  502    0  0.47421172591E+03 -0.34251044619E+03  0.47796355061E+03  0.75540779408E+03  0.12699999809E+01 0. -1.
       -4    1    3    3    0  502 -0.47421172591E+03  0.34251044619E+03 -0.10776682689E+04  0.12261976502E+04  0.12699999809E+01 0.  1.
</event>
<event>
 5   0  0.2651828E-04  0.1867864E+04  0.7818609E-02  0.8671020E-01
       -2   -1    0    0    0  501  0.00000000000E+00  0.00000000000E+00  0.54346656191E+03  0.54346656192E+03  0.25500000920E-02 0. -1.
        2   -1    0    0  501    0  0.00000000000E+00  0.00000000000E+00 -0.16049352542E+04  0.16049352542E+04  0.25500000920E-02 0.  1.
    10030    2    1    2    0    0  0.00000000000E+00  0.00000000000E+00 -0.10614686923E+04  0.21484018162E+04  0.18678636403E+04 0.  0.
        3    1    3    3  502    0 -0.15505781861E+03  0.76103499418E+03 -0.11272965319E+04  0.13689465550E+04  0.10100000352E+00 0.  1.
       -3    1    3    3    0  502  0.15505781861E+03 -0.76103499418E+03  0.65827839556E+02  0.77945526115E+03  0.10100000352E+00 0. -1.
</event>
<event>
 5   0  0.1239615E-04  0.1921606E+04  0.7818609E-02  0.8644176E-01
        1   -1    0    0  501    0  0.00000000000E+00  0.00000000000E+00  0.23219160714E+04  0.23219160714E+04  0.50400001928E-02 0. -1.
       -1   -1    0    0    0  501  0.00000000000E+00  0.00000000000E+00 -0.39757787780E+03  0.39757787783E+03  0.50400001928E-02 0.  1.
    10030    2    1    2    0    0  0.00000000000E+00  0.00000000000E+00  0.19243381936E+04  0.27194939492E+04  0.19216060617E+04 0.  0.
        3    1    3    3  502    0 -0.46294951967E+03  0.78743715914E+03  0.54053131609E+03  0.10613923173E+04  0.10100000352E+00 0.  1.
       -3    1    3    3    0  502  0.46294951967E+03 -0.78743715914E+03  0.13838068775E+04  0.16581016319E+04  0.10100000352E+00 0. -1.
</event>
<event>
 5   0  0.1277709E-04  0.1903586E+04  0.7818609E-02  0.8653073E-01
        1   -1    0    0  501    0  0.00000000000E+00  0.00000000000E+00  0.18437951916E+04  0.18437951916E+04  0.50400001928E-02 0. -1.
       -1   -1    0    0    0  501  0.00000000000E+00  0.00000000000E+00 -0.49132913355E+03  0.49132913358E+03  0.50400001928E-02 0.  1.
    10030    2    1    2    0    0  0.00000000000E+00  0.00000000000E+00  0.13524660581E+04  0.23351243252E+04  0.19035863983E+04 0.  0.
        4    1    3    3  502    0  0.13003106704E+03  0.13418351933E+03 -0.46860841323E+03  0.50448860552E+03  0.12699999809E+01 0.  1.
       -4    1    3    3    0  502 -0.13003106704E+03 -0.13418351933E+03  0.18210744713E+04  0.18306357197E+04  0.12699999809E+01 0. -1.
</event>
<event>
 5   0  0.2651828E-04  0.1877686E+04  0.7818609E-02  0.8666044E-01
        2   -1    0    0  501    0  0.00000000000E+00  0.00000000000E+00  0.66977123755E+03  0.66977123755E+03  0.25500000920E-02 0.  1.
       -2   -1    0    0    0  501  0.00000000000E+00  0.00000000000E+00 -0.13160106191E+04  0.13160106191E+04  0.25500000920E-02 0. -1.
    10030    2    1    2    0    0  0.00000000000E+00  0.00000000000E+00 -0.64623938157E+03  0.19857818567E+04  0.18776858747E+04 0.  0.
        3    1    3    3  502    0  0.31018830380E+03 -0.58412312587E+03 -0.10278203884E+04  0.12222239447E+04  0.10100000352E+00 0. -1.
       -3    1    3    3    0  502 -0.31018830380E+03  0.58412312587E+03  0.38158100681E+03  0.76355791198E+03  0.10100000352E+00 0.  1.
</event>
<event>
 5   0  0.2608744E-04  0.1904801E+04  0.7818609E-02  0.8652470E-01
       -2   -1    0    0    0  501  0.00000000000E+00  0.00000000000E+00  0.50013257024E+03  0.50013257025E+03  0.25500000920E-02 0.  1.
        2   -1    0    0  501    0  0.00000000000E+00  0.00000000000E+00 -0.18136524502E+04  0.18136524502E+04  0.25500000920E-02 0. -1.
    10030    2    1    2    0    0  0.00000000000E+00  0.00000000000E+00 -0.13135198800E+04  0.23137850205E+04  0.19048009465E+04 0.  0.
        2    1    3    3  502    0 -0.22082511601E+03 -0.82415396211E+03 -0.14272969235E+03  0.86508106569E+03  0.25500000920E-02 0.  1.
       -2    1    3    3    0  502  0.22082511601E+03  0.82415396211E+03 -0.11707901876E+04  0.14487039548E+04  0.25500000920E-02 0. -1.
</event>
<event>
 5   0  0.1317527E-04  0.1901483E+04  0.7818609E-02  0.8654118E-01
       -1   -1    0    0    0  501  0.00000000000E+00  0.00000000000E+00  0.94288120667E+03  0.94288120668E+03  0.50400001928E-02 0.  1.
        1   -1    0    0  501    0  0.00000000000E+00  0.00000000000E+00 -0.95866774217E+03  0.95866774219E+03  0.50400001928E-02 0. -1.
    10030    2    1    2    0    0  0.00000000000E+00  0.00000000000E+00 -0.15786535505E+02  0.19015489489E+04  0.19014834183E+04 0.  0.
        1    1    3    3  502    0 -0.67050851236E+03  0.59812162251E+03 -0.31867504638E+03  0.95335456452E+03  0.50400001928E-02 0. -1.
       -1    1    3    3    0  502  0.67050851236E+03 -0.59812162251E+03  0.30288851088E+03  0.94819438435E+03  0.50400001928E-02 0.  1.
</event>
<event>
 5   0  0.2595012E-04  0.1959826E+04  0.7818609E-02  0.8625637E-01
        2   -1    0    0  501    0  0.00000000000E+00  0.00000000000E+00  0.23197250327E+04  0.23197250327E+04  0.25500000920E-02 0. -1.
       -2   -1    0    0    0  501  0.00000000000E+00  0.00000000000E+00 -0.41394097415E+03  0.41394097416E+03  0.25500000920E-02 0.  1.
    10030    2    1    2    0    0  0.00000000000E+00  0.00000000000E+00  0.19057840585E+04  0.27336660068E+04  0.19598257472E+04 0.  0.
        1    1    3    3  502    0  0.59333913440E+03 -0.53699531757E+03  0.17417098046E+04  0.19167598554E+04  0.50400001928E-02 0. -1.
       -1    1    3    3    0  502 -0.59333913440E+03  0.53699531757E+03  0.16407425388E+03  0.81690615148E+03  0.50400001928E-02 0.  1.
</event>
<event>
 5   0  0.1255141E-04  0.1902604E+04  0.7818609E-02  0.8653561E-01
        1   -1    0    0  501    0  0.00000000000E+00  0.00000000000E+00  0.76184905329E+03  0.76184905331E+03  0.50400001928E-02 0. -1.
       -1   -1    0    0    0  501  0.00000000000E+00  0.00000000000E+00 -0.11878667527E+04  0.11878667527E+04  0.50400001928E-02 0.  1.
    10030    2    1    2    0    0  0.00000000000E+00  0.00000000000E+00 -0.42601769939E+03  0.19497158060E+04  0.19026036487E+04 0.  0.
        2    1    3    3  502    0 -0.72838346444E+03  0.43613447880E+03  0.22682705228E+03  0.87875267654E+03  0.25500000920E-02 0. -1.
       -2    1    3    3    0  502  0.72838346444E+03 -0.43613447880E+03 -0.65284475167E+03  0.10709631295E+04  0.25500000920E-02 0.  1.
</event>
<event>
 5   0  0.2541124E-04  0.2014334E+04  0.7818609E-02  0.8599948E-01
       -2   -1    0    0    0  501  0.00000000000E+00  0.00000000000E+00  0.86185042413E+03  0.86185042414E+03  0.25500000920E-02 0.  1.
        2   -1    0    0  501    0  0.00000000000E+00  0.00000000000E+00 -0.11769853640E+04  0.11769853640E+04  0.25500000920E-02 0. -1.
    10030    2    1    2    0    0  0.00000000000E+00  0.00000000000E+00 -0.31513493990E+03  0.20388357882E+04  0.20143339695E+04 0.  0.
        5    1    3    3  502    0 -0.90382834916E+02 -0.90375031492E+03  0.28296167174E+03  0.95132701330E+03  0.46999998093E+01 0.  1.
       -5    1    3    3    0  502  0.90382834916E+02  0.90375031492E+03 -0.59809661164E+03  0.10875087749E+04  0.46999998093E+01 0. -1.
</event>
<event>
 5   0  0.1255141E-04  0.1930897E+04  0.7818609E-02  0.8639628E-01
       -1   -1    0    0    0  501  0.00000000000E+00  0.00000000000E+00  0.48763926310E+03  0.48763926313E+03  0.50400001928E-02 0. -1.
        1   -1    0    0  501    0  0.00000000000E+00  0.00000000000E+00 -0.19114355420E+04  0.19114355420E+04  0.50400001928E-02 0.  1.
    10030    2    1    2    0    0  0.00000000000E+00  0.00000000000E+00 -0.14237962789E+04  0.23990748052E+04  0.19308972207E+04 0.  0.
        2    1    3    3  502    0  0.24645045192E+03  0.92538041717E+03 -0.86419166147E+03  0.12899201407E+04  0.25500000920E-02 0. -1.
       -2    1    3    3    0  502 -0.24645045192E+03 -0.92538041717E+03 -0.55960461746E+03  0.11091546644E+04  0.25500000920E-02 0.  1.
</event>
<event>
 5   0  0.1239615E-04  0.1874345E+04  0.7818609E-02  0.8667733E-01
       -1   -1    0    0    0  501  0.00000000000E+00  0.00000000000E+00  0.66276225664E+03  0.66276225666E+03  0.50400001928E-02 0. -1.
        1   -1    0    0  501    0  0.00000000000E+00  0.00000000000E+00 -0.13251990814E+04  0.13251990814E+04  0.50400001928E-02 0.  1.
    10030    2    1    2    0    0  0.00000000000E+00  0.00000000000E+00 -0.66243682479E+03  0.19879613381E+04  0.18743446148E+04 0.  0.
        3    1    3    3  502    0  0.37632703718E+03  0.69365550697E+02  0.57612563410E+03  0.69163167583E+03  0.10100000352E+00 0. -1.
       -3    1    3    3    0  502 -0.37632703718E+03 -0.69365550697E+02 -0.12385624589E+04  0.12963296623E+04  0.10100000352E+00 0.  1.
</event>
<event>
 5   0  0.1324058E-04  0.1779183E+04  0.7818609E-02  0.8717449E-01
        1   -1    0    0  501    0  0.00000000000E+00  0.00000000000E+00  0.14664049677E+04  0.14664049677E+04  0.50400001928E-02 0. -1.
       -1   -1    0    0    0  501  0.00000000000E+00  0.00000000000E+00 -0.53966880549E+03  0.53966880552E+03  0.50400001928E-02 0.  1.
    10030    2    1    2    0    0  0.00000000000E+00  0.00000000000E+00  0.92673616224E+03  0.20060737733E+04  0.17791829780E+04 0.  0.
        5    1    3    3  502    0 -0.10027072470E+03  0.42470809520E+03  0.13374145480E+04  0.14068158898E+04  0.46999998093E+01 0. -1.
       -5    1    3    3    0  502  0.10027072470E+03 -0.42470809520E+03 -0.41067838581E+03  0.59925788349E+03  0.46999998093E+01 0.  1.
</event>
<event>
 5   0  0.2595012E-04  0.1893781E+04  0.7818609E-02  0.8657958E-01
       -2   -1    0    0    0  501  0.00000000000E+00  0.00000000000E+00  0.65076951951E+03  0.65076951952E+03  0.25500000920E-02 0. -1.
        2   -1    0    0  501    0  0.00000000000E+00  0.00000000000E+00 -0.13777563160E+04  0.13777563160E+04  0.25500000920E-02 0.  1.
    10030    2    1    2    0    0  0.00000000000E+00  0.00000000000E+00 -0.72698679650E+03  0.20285258355E+04  0.18937812078E+04 0.  0.
        1    1    3    3  502    0 -0.60827488660E+03  0.58909636104E+03  0.90413067161E+02  0.85159108908E+03  0.50400001928E-02 0. -1.
       -1    1    3    3    0  502  0.60827488660E+03 -0.58909636104E+03 -0.81739986366E+03  0.11769347464E+04  0.50400001928E-02 0.  1.
</event>
<event>
 5   0  0.1239615E-04  0.1865433E+04  0.7818609E-02  0.8672257E-01
        1   -1    0    0  501    0  0.00000000000E+00  0.00000000000E+00  0.10138790424E+04  0.10138790424E+04  0.50400001928E-02 0.  1.
       -1   -1    0    0    0  501  0.00000000000E+00  0.00000000000E+00 -0.85805079461E+03  0.85805079463E+03  0.50400001928E-02 0. -1.
    10030    2    1    2    0    0  0.00000000000E+00  0.00000000000E+00  0.15582824781E+03  0.18719298371E+04  0.18654326233E+04 0.  0.
        3    1    3    3  502    0 -0.77201282000E+02  0.86624909852E+03  0.41615214521E+03  0.96412144297E+03  0.10100000352E+00 0.  1.
       -3    1    3    3    0  502  0.77201282000E+02 -0.86624909852E+03 -0.26032389740E+03  0.90780839410E+03  0.10100000352E+00 0. -1.
</event>
<event>
 5   0  0.2608744E-04  0.2024772E+04  0.7818609E-02  0.8595126E-01
        2   -1    0    0  501    0  0.00000000000E+00  0.00000000000E+00  0.24111894371E+04  0.24111894371E+04  0.25500000920E-02 0. -1.
       -2   -1    0    0    0  501  0.00000000000E+00  0.00000000000E+00 -0.42507052794E+03  0.42507052795E+03  0.25500000920E-02 0.  1.
    10030    2    1    2    0    0  0.00000000000E+00  0.00000000000E+00  0.19861189092E+04  0.28362599651E+04  0.20247721521E+04 0.  0.
        2    1    3    3  502    0 -0.64056987049E+03  0.50781998517E+03  0.18296835361E+04  0.20039842161E+04  0.25500000920E-02 0. -1.
       -2    1    3    3    0  502  0.64056987049E+03 -0.50781998517E+03  0.15643537312E+03  0.83227574895E+03  0.25500000920E-02 0.  1.
</event>
<event>
 5   0  0.1277709E-04  0.1883007E+04  0.7818609E-02  0.8663361E-01
        1   -1    0    0  501    0  0.00000000000E+00  0.00000000000E+00  0.14009737471E+04  0.14009737471E+04  0.50400001928E-02 0.  1.
       -1   -1    0    0    0  501  0.00000000000E+00  0.00000000000E+00 -0.63272351819E+03  0.63272351821E+03  0.50400001928E-02 0. -1.
    10030    2    1    2    0    0  0.00000000000E+00  0.00000000000E+00  0.76825022893E+03  0.20336972653E+04  0.18830072100E+04 0.  0.
        4    1    3    3  502    0 -0.13295720267E+03  0.20635752389E+03  0.13658009045E+04  0.13876868411E+04  0.12699999809E+01 0.  1.
       -4    1    3    3    0  502  0.13295720267E+03 -0.20635752389E+03 -0.59755067557E+03  0.64601042420E+03  0.12699999809E+01 0. -1.
</event>
<event>
 5   0  0.1324058E-04  0.1862123E+04  0.7818609E-02  0.8673943E-01
        1   -1    0    0  501    0  0.00000000000E+00  0.00000000000E+00  0.62370950524E+03  0.62370950526E+03  0.50400001928E-02 0.  1.
       -1   -1    0    0    0  501  0.00000000000E+00  0.00000000000E+00 -0.13898703999E+04  0.13898703999E+04  0.50400001928E-02 0. -1.
    10030    2    1    2    0    0  0.00000000000E+00  0.00000000000E+00 -0.76616089463E+03  0.20135799051E+04  0.18621228525E+04 0.  0.
        5    1    3    3  502    0  0.26238844578E+03  0.63070211548E+03  0.30100471081E+03  0.74649767640E+03  0.46999998093E+01 0.  1.
       -5    1    3    3    0  502 -0.26238844578E+03 -0.63070211548E+03 -0.10671656054E+04  0.12670822287E+04  0.46999998093E+01 0. -1.
</event>
<event>
 5   0  0.2541124E-04  0.1700219E+04  0.7818609E-02  0.8761239E-01
       -2   -1    0    0    0  501  0.00000000000E+00  0.00000000000E+00  0.39101310463E+03  0.39101310464E+03  0.25500000920E-02 0.  1.
        2   -1    0    0  501    0  0.00000000000E+00  0.00000000000E+00 -0.18482402534E+04  0.18482402534E+04  0.25500000920E-02 0. -1.
    10030    2    1    2    0    0  0.00000000000E+00  0.00000000000E+00 -0.14572271487E+04  0.22392533580E+04  0.17002189972E+04 0.  0.
        5    1    3    3  502    0 -0.58986680505E+03 -0.84988953402E+02 -0.15270234839E+04  0.16392037031E+04  0.46999998093E+01 0. -1.
       -5    1    3    3    0  502  0.58986680505E+03  0.84988953402E+02  0.69796335196E+02  0.60004965487E+03  0.46999998093E+01 0.  1.
</event>
<event>
 5   0  0.1324058E-04  0.1877938E+04  0.7818609E-02  0.8665917E-01
       -1   -1    0    0    0  501  0.00000000000E+00  0.00000000000E+00  0.43159145812E+03  0.43159145815E+03  0.50400001928E-02 0.  1.
        1   -1    0    0  501    0  0.00000000000E+00  0.00000000000E+00 -0.20428182736E+04  0.20428182737E+04  0.50400001928E-02 0. -1.
    10030    2    1    2    0    0  0.00000000000E+00  0.00000000000E+00 -0.16112268155E+04  0.24744097318E+04  0.18779381432E+04 0.  0.
        5    1    3    3  502    0  0.23310396661E+03  0.90702934744E+03 -0.71623705378E+03  0.11790069141E+04  0.46999998093E+01 0.  1.
       -5    1    3    3    0  502 -0.23310396661E+03 -0.90702934744E+03 -0.89498976176E+03  0.12954028177E+04  0.46999998093E+01 0. -1.
</event>
<event>
 5   0  0.1255141E-04  0.1899628E+04  0.7818609E-02  0.8655042E-01
       -1   -1    0    0    0  501  0.00000000000E+00  0.00000000000E+00  0.86281666341E+03  0.86281666342E+03  0.50400001928E-02 0.  1.
        1   -1    0    0  501    0  0.00000000000E+00  0.00000000000E+00 -0.10455831982E+04  0.10455831982E+04  0.50400001928E-02 0. -1.
    10030    2    1    2    0    0  0.00000000000E+00  0.00000000000E+00 -0.18276653482E+03  0.19083998617E+04  0.18996279704E+04 0.  0.
        2    1    3    3  502    0 -0.68699368888E+02 -0.37020264000E+03 -0.96740586485E+03  0.10380961927E+04  0.25500000920E-02 0. -1.
       -2    1    3    3    0  502  0.68699368888E+02  0.37020264000E+03  0.78463933004E+03  0.87030366896E+03  0.25500000920E-02 0.  1.
</event>
<event>
 5   0  0.2595012E-04  0.1898090E+04  0.7818609E-02  0.8655808E-01
       -2   -1    0    0    0  501  0.00000000000E+00  0.00000000000E+00  0.81700752896E+03  0.81700752896E+03  0.25500000920E-02 0.  1.
        2   -1    0    0  501    0  0.00000000000E+00  0.00000000000E+00 -0.11024207138E+04  0.11024207138E+04  0.25500000920E-02 0. -1.
    10030    2    1    2    0    0  0.00000000000E+00  0.00000000000E+00 -0.28541318483E+03  0.19194282428E+04  0.18980895904E+04 0.  0.
        1    1    3    3  502    0 -0.11466342849E+03 -0.69001775559E+03  0.50591979197E+03  0.86326533626E+03  0.50400001928E-02 0.  1.
       -1    1    3    3    0  502  0.11466342849E+03  0.69001775559E+03 -0.79133297680E+03  0.10561629065E+04  0.50400001928E-02 0. -1.
</event>
<event>
 5   0  0.1277709E-04  0.1754685E+04  0.7818609E-02  0.8730775E-01
        1   -1    0    0  501    0  0.00000000000E+00  0.00000000000E+00  0.47809086841E+03  0.47809086843E+03  0.50400001928E-02 0.  1.
       -1   -1    0    0    0  501  0.00000000000E+00  0.00000000000E+00 -0.16100082935E+04  0.16100082935E+04  0.50400001928E-02 0. -1.
    10030    2    1    2    0    0  0.00000000000E+00  0.00000000000E+00 -0.11319174251E+04  0.20880991619E+04  0.17546854570E+04 0.  0.
        4    1    3    3  502    0 -0.28082063725E+03  0.59811322116E+03 -0.12528026347E+04  0.14163741420E+04  0.12699999809E+01 0. -1.
       -4    1    3    3    0  502  0.28082063725E+03 -0.59811322116E+03  0.12088520962E+03  0.67172501995E+03  0.12699999809E+01 0.  1.
</event>
<event>
 5   0  0.2595012E-04  0.1952194E+04  0.7818609E-02  0.8629304E-01
        2   -1    0    0  501    0  0.00000000000E+00  0.00000000000E+00  0.18973820364E+04  0.18973820364E+04  0.25500000920E-02 0.  1.
       -2   -1    0    0    0  501  0.00000000000E+00  0.00000000000E+00 -0.50214718986E+03  0.50214718987E+03  0.25500000920E-02 0. -1.
    10030    2    1    2    0    0  0.00000000000E+00  0.00000000000E+00  0.13952348465E+04  0.23995292263E+04  0.19521936970E+04 0.  0.
        1    1    3    3  502    0  0.25127918085E+03  0.92302761893E+03  0.93609641645E+03  0.13384310640E+04  0.50400001928E-02 0. -1.
       -1    1    3    3    0  502 -0.25127918085E+03 -0.92302761893E+03  0.45913843008E+03  0.10610981623E+04  0.50400001928E-02 0.  1.
</event>
<event>
 5   0  0.2595012E-04  0.1936993E+04  0.7818609E-02  0.8636659E-01
        2   -1    0    0  501    0  0.00000000000E+00  0.00000000000E+00  0.13581915787E+04  0.13581915787E+04  0.25500000920E-02 0.  1.
       -2   -1    0    0    0  501  0.00000000000E+00  0.00000000000E+00 -0.69061327552E+03  0.69061327552E+03  0.25500000920E-02 0. -1.
    10030    2    1    2    0    0  0.00000000000E+00  0.00000000000E+00  0.66757830318E+03  0.20488048542E+04  0.19369926535E+04 0.  0.
        1    1    3    3  502    0  0.32698307851E+02 -0.44337300830E+03  0.12438850394E+04  0.13209461742E+04  0.50400001928E-02 0.  1.
       -1    1    3    3    0  502 -0.32698307851E+02  0.44337300830E+03 -0.57630673624E+03  0.72785868002E+03  0.50400001928E-02 0. -1.
</event>
<event>
 5   0  0.1277709E-04  0.1866730E+04  0.7818609E-02  0.8671596E-01
       -1   -1    0    0    0  501  0.00000000000E+00  0.00000000000E+00  0.14372411633E+04  0.14372411633E+04  0.50400001928E-02 0. -1.
        1   -1    0    0  501    0  0.00000000000E+00  0.00000000000E+00 -0.60614090765E+03  0.60614090767E+03  0.50400001928E-02 0.  1.
    10030    2    1    2    0    0  0.00000000000E+00  0.00000000000E+00  0.83110025562E+03  0.20433820709E+04  0.18667304714E+04 0.  0.
        4    1    3    3  502    0  0.89897630956E+03  0.24997569726E+03  0.39052167046E+03  0.10115112666E+04  0.12699999809E+01 0.  1.
       -4    1    3    3    0  502 -0.89897630956E+03 -0.24997569726E+03  0.44057858515E+03  0.10318708044E+04  0.12699999809E+01 0. -1.
</event>
<event>
 5   0  0.1239615E-04  0.1946941E+04  0.7818609E-02  0.8631837E-01
       -1   -1    0    0    0  501  0.00000000000E+00  0.00000000000E+00  0.54171953475E+03  0.54171953478E+03  0.50400001928E-02 0.  1.
        1   -1    0    0  501    0  0.00000000000E+00  0.00000000000E+00 -0.17493269230E+04  0.17493269230E+04  0.50400001928E-02 0. -1.
    10030    2    1    2    0    0  0.00000000000E+00  0.00000000000E+00 -0.12076073882E+04  0.22910464578E+04  0.19469407458E+04 0.  0.
        3    1    3    3  502    0 -0.24926857189E+03  0.91462535370E+03 -0.34340002915E+03  0.10082648208E+04  0.10100000352E+00 0.  1.
       -3    1    3    3    0  502  0.24926857189E+03 -0.91462535370E+03 -0.86420735909E+03  0.12827816370E+04  0.10100000352E+00 0. -1.
</event>
<event>
 5   0  0.2562925E-04  0.1842396E+04  0.7818609E-02  0.8684073E-01
       -2   -1    0    0    0  501  0.00000000000E+00  0.00000000000E+00  0.86495625180E+03  0.86495625180E+03  0.25500000920E-02 0. -1.
        2   -1    0    0  501    0  0.00000000000E+00  0.00000000000E+00 -0.98109690486E+03  0.98109690486E+03  0.25500000920E-02 0.  1.
    10030    2    1    2    0    0  0.00000000000E+00  0.00000000000E+00 -0.11614065306E+03  0.18460531567E+04  0.18423961588E+04 0.  0.
        4    1    3    3  502    0  0.54889221987E+02  0.23376222176E+03 -0.94918744793E+03  0.97908938674E+03  0.12699999809E+01 0.  1.
       -4    1    3    3    0  502 -0.54889221987E+02 -0.23376222176E+03  0.83304679487E+03  0.86696376992E+03  0.12699999809E+01 0. -1.
</event>
<event>
 5   0  0.1277709E-04  0.1873196E+04  0.7818609E-02  0.8668314E-01
       -1   -1    0    0    0  501  0.00000000000E+00  0.00000000000E+00  0.85574212547E+03  0.85574212548E+03  0.50400001928E-02 0. -1.
        1   -1    0    0  501    0  0.00000000000E+00  0.00000000000E+00 -0.10250940655E+04  0.10250940655E+04  0.50400001928E-02 0.  1.
    10030    2    1    2    0    0  0.00000000000E+00  0.00000000000E+00 -0.16935194001E+03  0.18808361910E+04  0.18731963852E+04 0.  0.
        4    1    3    3  502    0  0.25730448119E+03 -0.28644023920E+03  0.77259831219E+03  0.86322845850E+03  0.12699999809E+01 0. -1.
       -4    1    3    3    0  502 -0.25730448119E+03  0.28644023920E+03 -0.94195025220E+03  0.10176077325E+04  0.12699999809E+01 0.  1.
</event>
<event>
 5   0  0.1317527E-04  0.1892519E+04  0.7818609E-02  0.8658589E-01
       -1   -1    0    0    0  501  0.00000000000E+00  0.00000000000E+00  0.12009353156E+04  0.12009353156E+04  0.50400001928E-02 0.  1.
        1   -1    0    0  501    0  0.00000000000E+00  0.00000000000E+00 -0.74559144026E+03  0.74559144028E+03  0.50400001928E-02 0. -1.
    10030    2    1    2    0    0  0.00000000000E+00  0.00000000000E+00  0.45534387530E+03  0.19465267559E+04  0.18925190531E+04 0.  0.
        1    1    3    3  502    0  0.11110352987E+03  0.16021921208E+03  0.11800514821E+04  0.11960500369E+04  0.50400001928E-02 0.  1.
       -1    1    3    3    0  502 -0.11110352987E+03 -0.16021921208E+03 -0.72470760683E+03  0.75047671895E+03  0.50400001928E-02 0. -1.
</event>
<event>
 5   0  0.1324058E-04  0.1878201E+04  0.7818609E-02  0.8665784E-01
        1   -1    0    0  501    0  0.00000000000E+00  0.00000000000E+00  0.19735626078E+04  0.19735626078E+04  0.50400001928E-02 0.  1.
       -1   -1    0    0    0  501  0.00000000000E+00  0.00000000000E+00 -0.44686183722E+03  0.44686183725E+03  0.50400001928E-02 0. -1.
    10030    2    1    2    0    0  0.00000000000E+00  0.00000000000E+00  0.15267007706E+04  0.24204244451E+04  0.18782010679E+04 0.  0.
        5    1    3    3  502    0 -0.38231379778E+03 -0.23836863833E+03 -0.29847650398E+03  0.54045699287E+03  0.46999998093E+01 0. -1.
       -5    1    3    3    0  502  0.38231379778E+03  0.23836863833E+03  0.18251772746E+04  0.18799674522E+04  0.46999998093E+01 0.  1.
</event>
<event>
 5   0  0.2562925E-04  0.1936982E+04  0.7818609E-02  0.8636664E-01
       -2   -1    0    0    0  501  0.00000000000E+00  0.00000000000E+00  0.81900636331E+03  0.81900636331E+03  0.25500000920E-02 0.  1.
        2   -1    0    0  501    0  0.00000000000E+00  0.00000000000E+00 -0.11452593525E+04  0.11452593525E+04  0.25500000920E-02 0. -1.
    10030    2    1    2    0    0  0.00000000000E+00  0.00000000000E+00 -0.32625298917E+03  0.19642657158E+04  0.19369818764E+04 0.  0.
        4    1    3    3  502    0 -0.19385833815E+02  0.96675016499E+03 -0.10766247125E+03  0.97292060965E+03  0.12699999809E+01 0.  1.
       -4    1    3    3    0  502  0.19385833815E+02 -0.96675016499E+03 -0.21859051792E+03  0.99134510615E+03  0.12699999809E+01 0. -1.
</event>
<event>
 5   0  0.2608744E-04  0.1918903E+04  0.7818609E-02  0.8645504E-01
       -2   -1    0    0    0  501  0.00000000000E+00  0.00000000000E+00  0.12637654087E+04  0.12637654087E+04  0.25500000920E-02 0.  1.
        2   -1    0    0  501    0  0.00000000000E+00  0.00000000000E+00 -0.72841655912E+03  0.72841655912E+03  0.25500000920E-02 0. -1.
    10030    2    1    2    0    0  0.00000000000E+00  0.00000000000E+00  0.53534884961E+03  0.19921819679E+04  0.19189034896E+04 0.  0.
        2    1    3    3  502    0  0.91469296601E+02 -0.54497474037E+03  0.10819627897E+04  0.12149105227E+04  0.25500000920E-02 0.  1.
       -2    1    3    3    0  502 -0.91469296601E+02  0.54497474037E+03 -0.54661394012E+03  0.77727144513E+03  0.25500000920E-02 0. -1.
</event>
<event>
 5   0  0.1324058E-04  0.2180389E+04  0.7818609E-02  0.8526635E-01
       -1   -1    0    0    0  501  0.00000000000E+00  0.00000000000E+00  0.69601201475E+03  0.69601201476E+03  0.50400001928E-02 0.  1.
        1   -1    0    0  501    0  0.00000000000E+00  0.00000000000E+00 -0.17076196282E+04  0.17076196282E+04  0.50400001928E-02 0. -1.
    10030    2    1    2    0    0  0.00000000000E+00  0.00000000000E+00 -0.10116076135E+04  0.24036316430E+04  0.21803887524E+04 0.  0.
        5    1    3    3  502    0  0.62016057253E+03 -0.51021664960E+03  0.30696368085E+03  0.85974935685E+03  0.46999998093E+01 0. -1.
       -5    1    3    3    0  502 -0.62016057253E+03  0.51021664960E+03 -0.13185712943E+04  0.15438822861E+04  0.46999998093E+01 0.  1.
</event>
<event>
 5   0  0.1317527E-04  0.1879637E+04  0.7818609E-02  0.8665059E-01
       -1   -1    0    0    0  501  0.00000000000E+00  0.00000000000E+00  0.11835518652E+04  0.11835518652E+04  0.50400001928E-02 0.  1.
        1   -1    0    0  501    0  0.00000000000E+00  0.00000000000E+00 -0.74627810479E+03  0.74627810480E+03  0.50400001928E-02 0. -1.
    10030    2    1    2    0    0  0.00000000000E+00  0.00000000000E+00  0.43727376041E+03  0.19298299700E+04  0.18796370319E+04 0.  0.
        1    1    3    3  502    0 -0.72358090017E+02 -0.83057678255E+03  0.66400065516E+03  0.10658284829E+04  0.50400001928E-02 0.  1.
       -1    1    3    3    0  502  0.72358090017E+02  0.83057678255E+03 -0.22672689474E+03  0.86400148711E+03  0.50400001928E-02 0. -1.
</event>
<event>
 5   0  0.2651828E-04  0.1923088E+04  0.7818609E-02  0.8643449E-01
        2   -1    0    0  501    0  0.00000000000E+00  0.00000000000E+00  0.83205480178E+03  0.83205480179E+03  0.25500000920E-02 0. -1.
       -2   -1    0    0    0  501  0.00000000000E+00  0.00000000000E+00 -0.11111848400E+04  0.11111848400E+04  0.25500000920E-02 0.  1.
    10030    2    1    2    0    0  0.00000000000E+00  0.00000000000E+00 -0.27913003820E+03  0.19432396418E+04  0.19230878106E+04 0.  0.
        3    1    3    3  502    0  0.95841361397E+03  0.42973180127E+02 -0.74365071959E+02  0.96225439660E+03  0.10100000352E+00 0. -1.
       -3    1    3    3    0  502 -0.95841361397E+03 -0.42973180127E+02 -0.20476496624E+03  0.98098524517E+03  0.10100000352E+00 0.  1.
</event>
<event>
 5   0  0.2562925E-04  0.1898727E+04  0.7818609E-02  0.8655490E-01
       -2   -1    0    0    0  501  0.00000000000E+00  0.00000000000E+00  0.10703930727E+04  0.10703930727E+04  0.25500000920E-02 0.  1.
        2   -1    0    0  501    0  0.00000000000E+00  0.00000000000E+00 -0.84201893408E+03  0.84201893408E+03  0.25500000920E-02 0. -1.
    10030    2    1    2    0    0  0.00000000000E+00  0.00000000000E+00  0.22837413862E+03  0.19124120068E+04  0.18987271885E+04 0.  0.
        4    1    3    3  502    0  0.27238751630E+02 -0.93121025783E+02  0.10653855912E+04  0.10697950952E+04  0.12699999809E+01 0.  1.
       -4    1    3    3    0  502 -0.27238751630E+02  0.93121025783E+02 -0.83701145254E+03  0.84261691154E+03  0.12699999809E+01 0. -1.
</event>
<event>
 5   0  0.2562925E-04  0.1889812E+04  0.7818609E-02  0.8659944E-01
        2   -1    0    0  501    0  0.00000000000E+00  0.00000000000E+00  0.10938914969E+04  0.10938914969E+04  0.25500000920E-02 0. -1.
       -2   -1    0    0    0  501  0.00000000000E+00  0.00000000000E+00 -0.81621205298E+03  0.81621205299E+03  0.25500000920E-02 0.  1.
    10030    2    1    2    0    0  0.00000000000E+00  0.00000000000E+00  0.27767944387E+03  0.19101035498E+04  0.18898120800E+04 0.  0.
        4    1    3    3  502    0 -0.14106820278E+03  0.48016585699E+03 -0.67125617783E+03  0.83728487221E+03  0.12699999809E+01 0.  1.
       -4    1    3    3    0  502  0.14106820278E+03 -0.48016585699E+03  0.94893562170E+03  0.10728186776E+04  0.12699999809E+01 0. -1.
</event>
<event>
 5   0  0.1239615E-04  0.1911148E+04  0.7818609E-02  0.8649327E-01
       -1   -1    0    0    0  501  0.00000000000E+00  0.00000000000E+00  0.10063190073E+04  0.10063190073E+04  0.50400001928E-02 0. -1.
        1   -1    0    0  501    0  0.00000000000E+00  0.00000000000E+00 -0.90738758669E+03  0.90738758671E+03  0.50400001928E-02 0.  1.
    10030    2    1    2    0    0  0.00000000000E+00  0.00000000000E+00  0.98931420632E+02  0.19137065940E+04  0.19111476924E+04 0.  0.
        3    1    3    3  502    0 -0.92091413721E+03 -0.99541394747E+02 -0.18564651347E+03  0.94469888089E+03  0.10100000352E+00 0.  1.
       -3    1    3    3    0  502  0.92091413721E+03  0.99541394747E+02  0.28457793410E+03  0.96900771316E+03  0.10100000352E+00 0. -1.
</event>
<event>
 5   0  0.1239615E-04  0.1905204E+04  0.7818609E-02  0.8652270E-01
        1   -1    0    0  501    0  0.00000000000E+00  0.00000000000E+00  0.40616533903E+03  0.40616533906E+03  0.50400001928E-02 0. -1.
       -1   -1    0    0    0  501  0.00000000000E+00  0.00000000000E+00 -0.22341897363E+04  0.22341897363E+04  0.50400001928E-02 0.  1.
    10030    2    1    2    0    0  0.00000000000E+00  0.00000000000E+00 -0.18280243973E+04  0.26403550754E+04  0.19052038544E+04 0.  0.
        3    1    3    3  502    0  0.60793763138E+03 -0.17792197815E+03  0.72005111700E+02  0.63751795290E+03  0.10100000352E+00 0. -1.
       -3    1    3    3    0  502 -0.60793763138E+03  0.17792197815E+03 -0.19000295090E+04  0.20028371225E+04  0.10100000352E+00 0.  1.
</event>
<event>
 5   0  0.1239615E-04  0.1872051E+04  0.7818609E-02  0.8668895E-01
       -1   -1    0    0    0  501  0.00000000000E+00  0.00000000000E+00  0.40612834540E+03  0.40612834543E+03  0.50400001928E-02 0.  1.
        1   -1    0    0  501    0  0.00000000000E+00  0.00000000000E+00 -0.21573068483E+04  0.21573068483E+04  0.50400001928E-02 0. -1.
    10030    2    1    2    0    0  0.00000000000E+00  0.00000000000E+00 -0.17511785029E+04  0.25634351938E+04  0.18720507054E+04 0.  0.
        3    1    3    3  502    0 -0.24996338884E+03 -0.28787261114E+03  0.29499146110E+03  0.48205010977E+03  0.10100000352E+00 0.  1.
       -3    1    3    3    0  502  0.24996338884E+03  0.28787261114E+03 -0.20461699640E+04  0.20813850840E+04  0.10100000352E+00 0. -1.
</event>
<event>
 5   0  0.1255141E-04  0.1931674E+04  0.7818609E-02  0.8639249E-01
        1   -1    0    0  501    0  0.00000000000E+00  0.00000000000E+00  0.79050797304E+03  0.79050797306E+03  0.50400001928E-02 0.  1.
       -1   -1    0    0    0  501  0.00000000000E+00  0.00000000000E+00 -0.11800527407E+04  0.11800527407E+04  0.50400001928E-02 0. -1.
    10030    2    1    2    0    0  0.00000000000E+00  0.00000000000E+00 -0.38954476769E+03  0.19705607138E+04  0.19316739893E+04 0.  0.
        2    1    3    3  502    0 -0.27576278727E+02  0.64616520542E+03 -0.92653509647E+03  0.11299368163E+04  0.25500000920E-02 0. -1.
       -2    1    3    3    0  502  0.27576278727E+02 -0.64616520542E+03  0.53699032878E+03  0.84062389750E+03  0.25500000920E-02 0.  1.
</event>
<event>
 5   0  0.2651828E-04  0.1901217E+04  0.7818609E-02  0.8654251E-01
       -2   -1    0    0    0  501  0.00000000000E+00  0.00000000000E+00  0.56873959235E+03  0.56873959236E+03  0.25500000920E-02 0. -1.
        2   -1    0    0  501    0  0.00000000000E+00  0.00000000000E+00 -0.15888753253E+04  0.15888753253E+04  0.25500000920E-02 0.  1.
    10030    2    1    2    0    0  0.00000000000E+00  0.00000000000E+00 -0.10201357329E+04  0.21576149177E+04  0.19012167733E+04 0.  0.
        3    1    3    3  502    0  0.69155788704E+03 -0.65145866617E+03 -0.54605545268E+03  0.10958226464E+04  0.10100000352E+00 0.  1.
       -3    1    3    3    0  502 -0.69155788704E+03  0.65145866617E+03 -0.47408028026E+03  0.10617922712E+04  0.10100000352E+00 0. -1.
</event>
<event>
 5   0  0.2651828E-04  0.1884614E+04  0.7818609E-02  0.8662553E-01
        2   -1    0    0  501    0  0.00000000000E+00  0.00000000000E+00  0.62857263221E+03  0.62857263221E+03  0.25500000920E-02 0.  1.
       -2   -1    0    0    0  501  0.00000000000E+00  0.00000000000E+00 -0.14126334735E+04  0.14126334735E+04  0.25500000920E-02 0. -1.
    10030    2    1    2    0    0  0.00000000000E+00  0.00000000000E+00 -0.78406084132E+03  0.20412061057E+04  0.18846142744E+04 0.  0.
        3    1    3    3  502    0 -0.74622690034E+02  0.66599221102E+03  0.32545292515E+03  0.74500589776E+03  0.10100000352E+00 0.  1.
       -3    1    3    3    0  502  0.74622690034E+02 -0.66599221102E+03 -0.11095137665E+04  0.12962002080E+04  0.10100000352E+00 0. -1.
</event>
<event>
 5   0  0.1239615E-04  0.1926014E+04  0.7818609E-02  0.8642015E-01
       -1   -1    0    0    0  501  0.00000000000E+00  0.00000000000E+00  0.11364215414E+04  0.11364215414E+04  0.50400001928E-02 0.  1.
        1   -1    0    0  501    0  0.00000000000E+00  0.00000000000E+00 -0.81605525138E+03  0.81605525140E+03  0.50400001928E-02 0. -1.
    10030    2    1    2    0    0  0.00000000000E+00  0.00000000000E+00  0.32036629002E+03  0.19524767928E+04  0.19260142956E+04 0.  0.
        3    1    3    3  502    0 -0.31785942068E+03 -0.22008483047E+03  0.10542938163E+04  0.11229458603E+04  0.10100000352E+00 0.  1.
       -3    1    3    3    0  502  0.31785942068E+03  0.22008483047E+03 -0.73392752629E+03  0.82953093249E+03  0.10100000352E+00 0. -1.
</event>
<event>
 5   0  0.2608744E-04  0.1936041E+04  0.7818609E-02  0.8637121E-01
        2   -1    0    0  501    0  0.00000000000E+00  0.00000000000E+00  0.17840191623E+04  0.17840191623E+04  0.25500000920E-02 0.  1.
       -2   -1    0    0    0  501  0.00000000000E+00  0.00000000000E+00 -0.52525449006E+03  0.52525449006E+03  0.25500000920E-02 0. -1.
    10030    2    1    2    0    0  0.00000000000E+00  0.00000000000E+00  0.12587646722E+04  0.23092736524E+04  0.19360413997E+04 0.  0.
        2    1    3    3  502    0  0.69534426232E+03  0.34956620342E+03 -0.57232776571E+02  0.78036899248E+03  0.25500000920E-02 0. -1.
       -2    1    3    3    0  502 -0.69534426232E+03 -0.34956620342E+03  0.13159974488E+04  0.15289046599E+04  0.25500000920E-02 0.  1.
</event>
<event>
 5   0  0.2595012E-04  0.1900415E+04  0.7818609E-02  0.8654650E-01
        2   -1    0    0  501    0  0.00000000000E+00  0.00000000000E+00  0.98865760368E+03  0.98865760368E+03  0.25500000920E-02 0. -1.
       -2   -1    0    0    0  501  0.00000000000E+00  0.00000000000E+00 -0.91325229369E+03  0.91325229370E+03  0.25500000920E-02 0.  1.
    10030    2    1    2    0    0  0.00000000000E+00  0.00000000000E+00  0.75405309982E+02  0.19019098974E+04  0.19004145066E+04 0.  0.
        1    1    3    3  502    0  0.31794351959E+03 -0.18363002142E+03  0.91479729643E+03  0.98572925288E+03  0.50400001928E-02 0. -1.
       -1    1    3    3    0  502 -0.31794351959E+03  0.18363002142E+03 -0.83939198645E+03  0.91618064450E+03  0.50400001928E-02 0.  1.
</event>
<event>
 5   0  0.2562925E-04  0.2001310E+04  0.7818609E-02  0.8606008E-01
        2   -1    0    0  501    0  0.00000000000E+00  0.00000000000E+00  0.12175358552E+04  0.12175358552E+04  0.25500000920E-02 0.  1.
       -2   -1    0    0    0  501  0.00000000000E+00  0.00000000000E+00 -0.82240747592E+03  0.82240747592E+03  0.25500000920E-02 0. -1.
    10030    2    1    2    0    0  0.00000000000E+00  0.00000000000E+00  0.39512837924E+03  0.20399433311E+04  0.20013101604E+04 0.  0.
        4    1    3    3  502    0  0.80757744673E+03 -0.35370861962E+03 -0.28487771301E+03  0.92652471329E+03  0.12699999809E+01 0. -1.
       -4    1    3    3    0  502 -0.80757744673E+03  0.35370861962E+03  0.68000609225E+03  0.11134186178E+04  0.12699999809E+01 0.  1.
</event>
<event>
 5   0  0.1324058E-04  0.1897323E+04  0.7818609E-02  0.8656190E-01
       -1   -1    0    0    0  501  0.00000000000E+00  0.00000000000E+00  0.14167246959E+04  0.14167246959E+04  0.50400001928E-02 0. -1.
        1   -1    0    0  501    0  0.00000000000E+00  0.00000000000E+00 -0.63523901907E+03  0.63523901909E+03  0.50400001928E-02 0.  1.
    10030    2    1    2    0    0  0.00000000000E+00  0.00000000000E+00  0.78148567682E+03  0.20519637150E+04  0.18973231735E+04 0.  0.
        5    1    3    3  502    0 -0.67327122144E+03 -0.59617543063E+03  0.71738127807E+03  0.11503813584E+04  0.46999998093E+01 0. -1.
       -5    1    3    3    0  502  0.67327122144E+03  0.59617543063E+03  0.64104398746E+02  0.90158235655E+03  0.46999998093E+01 0.  1.
</event>
<event>
 5   0  0.2595012E-04  0.1785370E+04  0.7818609E-02  0.8714119E-01
        2   -1    0    0  501    0  0.00000000000E+00  0.00000000000E+00  0.62507307888E+03  0.62507307889E+03  0.25500000920E-02 0. -1.
       -2   -1    0    0    0  501  0.00000000000E+00  0.00000000000E+00 -0.12748689047E+04  0.12748689047E+04  0.25500000920E-02 0.  1.
    10030    2    1    2    0    0  0.00000000000E+00  0.00000000000E+00 -0.64979582581E+03  0.18999419836E+04  0.17853696888E+04 0.  0.
        1    1    3    3  502    0 -0.75691632075E+03 -0.43179237160E+03 -0.11876880223E+03  0.87947313614E+03  0.50400001928E-02 0. -1.
       -1    1    3    3    0  502  0.75691632075E+03  0.43179237160E+03 -0.53102702358E+03  0.10204688474E+04  0.50400001928E-02 0.  1.
</event>
<event>
 5   0  0.2651828E-04  0.1918380E+04  0.7818609E-02  0.8645761E-01
        2   -1    0    0  501    0  0.00000000000E+00  0.00000000000E+00  0.15851229396E+04  0.15851229396E+04  0.25500000920E-02 0. -1.
       -2   -1    0    0    0  501  0.00000000000E+00  0.00000000000E+00 -0.58042531648E+03  0.58042531649E+03  0.25500000920E-02 0.  1.
    10030    2    1    2    0    0  0.00000000000E+00  0.00000000000E+00  0.10046976231E+04  0.21655482560E+04  0.19183800289E+04 0.  0.
        3    1    3    3  502    0  0.64833036763E+03 -0.25255142079E+03  0.12476676389E+04  0.14285618759E+04  0.10100000352E+00 0. -1.
       -3    1    3    3    0  502 -0.64833036763E+03  0.25255142079E+03 -0.24297001587E+03  0.73698638017E+03  0.10100000352E+00 0.  1.
</event>
<event>
 5   0  0.1277709E-04  0.1756308E+04  0.7818609E-02  0.8729886E-01
        1   -1    0    0  501    0  0.00000000000E+00  0.00000000000E+00  0.17649928625E+04  0.17649928625E+04  0.50400001928E-02 0.  1.
       -1   -1    0    0    0  501  0.00000000000E+00  0.00000000000E+00 -0.43691625782E+03  0.43691625784E+03  0.50400001928E-02 0. -1.
    10030    2    1    2    0    0  0.00000000000E+00  0.00000000000E+00  0.13280766047E+04  0.22019091204E+04  0.17563075774E+04 0.  0.
        4    1    3    3  502    0  0.41571786966E+02 -0.87536158656E+03  0.73458517963E+03  0.11435047528E+04  0.12699999809E+01 0.  1.
       -4    1    3    3    0  502 -0.41571786966E+02  0.87536158656E+03  0.59349142507E+03  0.10584043675E+04  0.12699999809E+01 0. -1.
</event>
<event>
 5   0  0.2541124E-04  0.1901884E+04  0.7818609E-02  0.8653919E-01
       -2   -1    0    0    0  501  0.00000000000E+00  0.00000000000E+00  0.13181976905E+04  0.13181976905E+04  0.25500000920E-02 0. -1.
        2   -1    0    0  501    0  0.00000000000E+00  0.00000000000E+00 -0.68600509468E+03  0.68600509468E+03  0.25500000920E-02 0.  1.
    10030    2    1    2    0    0  0.00000000000E+00  0.00000000000E+00  0.63219259579E+03  0.20042027852E+04  0.19018836257E+04 0.  0.
        5    1    3    3  502    0 -0.79207476233E+03  0.52619933870E+03  0.31582090760E+03  0.10020145253E+04  0.46999998093E+01 0. -1.
       -5    1    3    3    0  502  0.79207476233E+03 -0.52619933870E+03  0.31637168819E+03  0.10021882599E+04  0.46999998093E+01 0.  1.
</event>
<event>
 5   0  0.2608744E-04  0.1894572E+04  0.7818609E-02  0.8657563E-01
       -2   -1    0    0    0  501  0.00000000000E+00  0.00000000000E+00  0.71431902111E+03  0.71431902111E+03  0.25500000920E-02 0.  1.
        2   -1    0    0  501    0  0.00000000000E+00  0.00000000000E+00 -0.12562319271E+04  0.12562319271E+04  0.25500000920E-02 0. -1.
    10030    2    1    2    0    0  0.00000000000E+00  0.00000000000E+00 -0.54191290597E+03  0.19705509482E+04  0.18945715721E+04 0.  0.
        2    1    3    3  502    0  0.72639474450E+01  0.14920635333E+03  0.70199098434E+03  0.71770930251E+03  0.25500000920E-02 0.  1.
       -2    1    3    3    0  502 -0.72639474450E+01 -0.14920635333E+03 -0.12439038903E+04  0.12528416457E+04  0.25500000920E-02 0. -1.
</event>
<event>
 5   0  0.2608744E-04  0.1925847E+04  0.7818609E-02  0.8642096E-01
        2   -1    0    0  501    0  0.00000000000E+00  0.00000000000E+00  0.13732040541E+04  0.13732040541E+04  0.25500000920E-02 0.  1.
       -2   -1    0    0    0  501  0.00000000000E+00  0.00000000000E+00 -0.67522510315E+03  0.67522510316E+03  0.25500000920E-02 0. -1.
    10030    2    1    2    0    0  0.00000000000E+00  0.00000000000E+00  0.69797895090E+03  0.20484291572E+04  0.19258471892E+04 0.  0.
        2    1    3    3  502    0  0.71351910458E+03  0.64385662210E+03  0.28551716662E+03  0.10025871109E+04  0.25500000920E-02 0. -1.
       -2    1    3    3    0  502 -0.71351910458E+03 -0.64385662210E+03  0.41246178428E+03  0.10458420464E+04  0.25500000920E-02 0.  1.
</event>
<event>
 5   0  0.1239615E-04  0.1531276E+04  0.7818609E-02  0.8863917E-01
        1   -1    0    0  501    0  0.00000000000E+00  0.00000000000E+00  0.13026200844E+04  0.13026200844E+04  0.50400001928E-02 0. -1.
       -1   -1    0    0    0  501  0.00000000000E+00  0.00000000000E+00 -0.45001722624E+03  0.45001722627E+03  0.50400001928E-02 0.  1.
    10030    2    1    2    0    0  0.00000000000E+00  0.00000000000E+00  0.85260285818E+03  0.17526373107E+04  0.15312759089E+04 0.  0.
        3    1    3    3  502    0  0.32483818555E+03  0.59519358828E+03  0.83326652902E+03  0.10742943605E+04  0.10100000352E+00 0. -1.
       -3    1    3    3    0  502 -0.32483818555E+03 -0.59519358828E+03  0.19336329160E+02  0.67834295024E+03  0.10100000352E+00 0.  1.
</event>
<event>
 5   0  0.1255141E-04  0.1866547E+04  0.7818609E-02  0.8671690E-01
        1   -1    0    0  501    0  0.00000000000E+00  0.00000000000E+00  0.12253528456E+04  0.12253528456E+04  0.50400001928E-02 0.  1.
       -1   -1    0    0    0  501  0.00000000000E+00  0.00000000000E+00 -0.71081492288E+03  0.71081492290E+03  0.50400001928E-02 0. -1.
    10030    2    1    2    0    0  0.00000000000E+00  0.00000000000E+00  0.51453792267E+03  0.19361677685E+04  0.18665466385E+04 0.  0.
        2    1    3    3  502    0  0.24419156174E+03 -0.73658139177E+03 -0.28054595946E+03  0.82515919731E+03  0.25500000920E-02 0. -1.
       -2    1    3    3    0  502 -0.24419156174E+03  0.73658139177E+03  0.79508388213E+03  0.11110085711E+04  0.25500000920E-02 0.  1.
</event>
<event>
 5   0  0.2595012E-04  0.1730045E+04  0.7818609E-02  0.8744412E-01
       -2   -1    0    0    0  501  0.00000000000E+00  0.00000000000E+00  0.11846456025E+04  0.11846456025E+04  0.25500000920E-02 0.  1.
        2   -1    0    0  501    0  0.00000000000E+00  0.00000000000E+00 -0.63163544743E+03  0.63163544743E+03  0.25500000920E-02 0. -1.
    10030    2    1    2    0    0  0.00000000000E+00  0.00000000000E+00  0.55301015508E+03  0.18162810499E+04  0.17300452655E+04 0.  0.
        1    1    3    3  502    0 -0.22938148194E+03 -0.36187945551E+03 -0.51241176922E+03  0.66793594441E+03  0.50400001928E-02 0. -1.
       -1    1    3    3    0  502  0.22938148194E+03  0.36187945551E+03  0.10654219243E+04  0.11483451055E+04  0.50400001928E-02 0.  1.
</event>
<event>
 5   0  0.1255141E-04  0.1885829E+04  0.7818609E-02  0.8661943E-01
        1   -1    0    0  501    0  0.00000000000E+00  0.00000000000E+00  0.82633501906E+03  0.82633501908E+03  0.50400001928E-02 0.  1.
       -1   -1    0    0    0  501  0.00000000000E+00  0.00000000000E+00 -0.10759406349E+04  0.10759406349E+04  0.50400001928E-02 0. -1.
    10030    2    1    2    0    0  0.00000000000E+00  0.00000000000E+00 -0.24960561585E+03  0.19022756540E+04  0.18858286508E+04 0.  0.
        2    1    3    3  502    0 -0.52909780159E+03  0.27406928560E+01  0.66247525548E+03  0.84783575012E+03  0.25500000920E-02 0.  1.
       -2    1    3    3    0  502  0.52909780159E+03 -0.27406928560E+01 -0.91208087134E+03  0.10544399039E+04  0.25500000920E-02 0. -1.
</event>
<event>
 5   0  0.1324058E-04  0.1839521E+04  0.7818609E-02  0.8685561E-01
        1   -1    0    0  501    0  0.00000000000E+00  0.00000000000E+00  0.11041269836E+04  0.11041269836E+04  0.50400001928E-02 0. -1.
       -1   -1    0    0    0  501  0.00000000000E+00  0.00000000000E+00 -0.76617922445E+03  0.76617922447E+03  0.50400001928E-02 0.  1.
    10030    2    1    2    0    0  0.00000000000E+00  0.00000000000E+00  0.33794775912E+03  0.18703062081E+04  0.18395207593E+04 0.  0.
        5    1    3    3  502    0 -0.37464705071E+03  0.80445467087E+03  0.41474083942E+03  0.97956101595E+03  0.46999998093E+01 0. -1.
       -5    1    3    3    0  502  0.37464705071E+03 -0.80445467087E+03 -0.76793080294E+02  0.89074519211E+03  0.46999998093E+01 0.  1.
</event>
<event>
 5   0  0.2541124E-04  0.1905972E+04  0.7818609E-02  0.8651890E-01
       -2   -1    0    0    0  501  0.00000000000E+00  0.00000000000E+00  0.38236956096E+03  0.38236956097E+03  0.25500000920E-02 0.  1.
        2   -1    0    0  501    0  0.00000000000E+00  0.00000000000E+00 -0.23751416193E+04  0.23751416193E+04  0.25500000920E-02 0. -1.
    10030    2    1    2    0    0  0.00000000000E+00  0.00000000000E+00 -0.19927720584E+04  0.27575111803E+04  0.19059715194E+04 0.  0.
        5    1    3    3  502    0 -0.89340234296E+03 -0.14663005223E+03 -0.56600608915E+03  0.10677326920E+04  0.46999998093E+01 0.  1.
       -5    1    3    3    0  502  0.89340234296E+03  0.14663005223E+03 -0.14267659692E+04  0.16897784883E+04  0.46999998093E+01 0. -1.
</event>
<event>
 5   0  0.1255141E-04  0.1936272E+04  0.7818609E-02  0.8637009E-01
       -1   -1    0    0    0  501  0.00000000000E+00  0.00000000000E+00  0.72058129113E+03  0.72058129115E+03  0.50400001928E-02 0.  1.
        1   -1    0    0  501    0  0.00000000000E+00  0.00000000000E+00 -0.13007374738E+04  0.13007374738E+04  0.50400001928E-02 0. -1.
    10030    2    1    2    0    0  0.00000000000E+00  0.00000000000E+00 -0.58015618268E+03  0.20213187650E+04  0.19362717664E+04 0.  0.
        2    1    3    3  502    0 -0.90265918369E+03 -0.67824352878E+02  0.68359159253E+02  0.90778120679E+03  0.25500000920E-02 0.  1.
       -2    1    3    3    0  502  0.90265918369E+03  0.67824352878E+02 -0.64851534194E+03  0.11135375582E+04  0.25500000920E-02 0. -1.
</event>
<event>
 5   0  0.1239615E-04  0.1915135E+04  0.7818609E-02  0.8647359E-01
        1   -1    0    0  501    0  0.00000000000E+00  0.00000000000E+00  0.14657215175E+04  0.14657215175E+04  0.50400001928E-02 0.  1.
       -1   -1    0    0    0  501  0.00000000000E+00  0.00000000000E+00 -0.62558667511E+03  0.62558667513E+03  0.50400001928E-02 0. -1.
    10030    2    1    2    0    0  0.00000000000E+00  0.00000000000E+00  0.84013484242E+03  0.20913081927E+04  0.19151353485E+04 0.  0.
        3    1    3    3  502    0  0.45423390977E+03  0.59323585510E+03 -0.23392288219E+03  0.78292857246E+03  0.10100000352E+00 0. -1.
       -3    1    3    3    0  502 -0.45423390977E+03 -0.59323585510E+03  0.10740577246E+04  0.13083796202E+04  0.10100000352E+00 0.  1.
</event>
<event>
 5   0  0.1324058E-04  0.1939782E+04  0.7818609E-02  0.8635304E-01
        1   -1    0    0  501    0  0.00000000000E+00  0.00000000000E+00  0.98826908787E+03  0.98826908789E+03  0.50400001928E-02 0. -1.
       -1   -1    0    0    0  501  0.00000000000E+00  0.00000000000E+00 -0.95185453224E+03  0.95185453226E+03  0.50400001928E-02 0.  1.
    10030    2    1    2    0    0  0.00000000000E+00  0.00000000000E+00  0.36414555630E+02  0.19401236201E+04  0.19397818541E+04 0.  0.
        5    1    3    3  502    0 -0.88175917374E+03  0.28272599633E+03 -0.27034501004E+03  0.96464591635E+03  0.46999998093E+01 0.  1.
       -5    1    3    3    0  502  0.88175917374E+03 -0.28272599633E+03  0.30675956567E+03  0.97547770380E+03  0.46999998093E+01 0. -1.
</event>
<event>
 5   0  0.2608744E-04  0.1850530E+04  0.7818609E-02  0.8679880E-01
        2   -1    0    0  501    0  0.00000000000E+00  0.00000000000E+00  0.78122583174E+03  0.78122583174E+03  0.25500000920E-02 0. -1.
       -2   -1    0    0    0  501  0.00000000000E+00  0.00000000000E+00 -0.10958617265E+04  0.10958617265E+04  0.25500000920E-02 0.  1.
    10030    2    1    2    0    0  0.00000000000E+00  0.00000000000E+00 -0.31463589477E+03  0.18770875582E+04  0.18505301822E+04 0.  0.
        2    1    3    3  502    0  0.75362946863E+03 -0.26268290585E+02  0.38653712040E+03  0.84738323356E+03  0.25500000920E-02 0. -1.
       -2    1    3    3    0  502 -0.75362946863E+03  0.26268290585E+02 -0.70117301516E+03  0.10297043247E+04  0.25500000920E-02 0.  1.
</event>
<event>
 5   0  0.2651828E-04  0.1910894E+04  0.7818609E-02  0.8649453E-01
        2   -1    0    0  501    0  0.00000000000E+00  0.00000000000E+00  0.74851610177E+03  0.74851610177E+03  0.25500000920E-02 0.  1.
       -2   -1    0    0    0  501  0.00000000000E+00  0.00000000000E+00 -0.12195851354E+04  0.12195851354E+04  0.25500000920E-02 0. -1.
    10030    2    1    2    0    0  0.00000000000E+00  0.00000000000E+00 -0.47106903367E+03  0.19681012372E+04  0.19108941481E+04 0.  0.
        3    1    3    3  502    0  0.36100315469E+03  0.46142270245E+03  0.54180888334E+03  0.79799189488E+03  0.10100000352E+00 0.  1.
       -3    1    3    3    0  502 -0.36100315469E+03 -0.46142270245E+03 -0.10128779170E+04  0.11701093423E+04  0.10100000352E+00 0. -1.
</event>
<event>
 5   0  0.1239615E-04  0.1746816E+04  0.7818609E-02  0.8735105E-01
       -1   -1    0    0    0  501  0.00000000000E+00  0.00000000000E+00  0.53250926718E+03  0.53250926720E+03  0.50400001928E-02 0. -1.
        1   -1    0    0  501    0  0.00000000000E+00  0.00000000000E+00 -0.14325415222E+04  0.14325415222E+04  0.50400001928E-02 0.  1.
    10030    2    1    2    0    0  0.00000000000E+00  0.00000000000E+00 -0.90003225500E+03  0.19650507894E+04  0.17468161165E+04 0.  0.
        3    1    3    3  502    0 -0.18011917902E+03  0.71773645276E+03  0.71900686982E+02  0.74347713702E+03  0.10100000352E+00 0. -1.
       -3    1    3    3    0  502  0.18011917902E+03 -0.71773645276E+03 -0.97193294198E+03  0.12215736524E+04  0.10100000352E+00 0.  1.
</event>
<event>
 5   0  0.2595012E-04  0.1865871E+04  0.7818609E-02  0.8672033E-01
        2   -1    0    0  501    0  0.00000000000E+00  0.00000000000E+00  0.15456140864E+04  0.15456140864E+04  0.25500000920E-02 0.  1.
       -2   -1    0    0    0  501  0.00000000000E+00  0.00000000000E+00 -0.56312166552E+03  0.56312166552E+03  0.25500000920E-02 0. -1.
    10030    2    1    2    0    0  0.00000000000E+00  0.00000000000E+00  0.98249242083E+03  0.21087357519E+04  0.18658711408E+04 0.  0.
        1    1    3    3  502    0 -0.77797255419E+03 -0.51449998610E+03  0.51433161700E+03  0.10651237219E+04  0.50400001928E-02 0. -1.
       -1    1    3    3    0  502  0.77797255419E+03  0.51449998610E+03  0.46816080383E+03  0.10436120299E+04  0.50400001928E-02 0.  1.
</event>
<event>
 5   0  0.2595012E-04  0.1923696E+04  0.7818609E-02  0.8643151E-01
       -2   -1    0    0    0  501  0.00000000000E+00  0.00000000000E+00  0.10269494252E+04  0.10269494252E+04  0.25500000920E-02 0. -1.
        2   -1    0    0  501    0  0.00000000000E+00  0.00000000000E+00 -0.90087309109E+03  0.90087309110E+03  0.25500000920E-02 0.  1.
    10030    2    1    2    0    0  0.00000000000E+00  0.00000000000E+00  0.12607633406E+03  0.19278225163E+04  0.19236955092E+04 0.  0.
        1    1    3    3  502    0 -0.67769916465E+03 -0.61871255373E+03  0.35187468011E+03  0.98280067788E+03  0.50400001928E-02 0. -1.
       -1    1    3    3    0  502  0.67769916465E+03  0.61871255373E+03 -0.22579834605E+03  0.94502183838E+03  0.50400001928E-02 0.  1.
</event>
<event>
 5   0  0.2541124E-04  0.1945475E+04  0.7818609E-02  0.8632546E-01
        2   -1    0    0  501    0  0.00000000000E+00  0.00000000000E+00  0.81642314818E+03  0.81642314818E+03  0.25500000920E-02 0.  1.
       -2   -1    0    0    0  501  0.00000000000E+00  0.00000000000E+00 -0.11589801923E+04  0.11589801923E+04  0.25500000920E-02 0. -1.
    10030    2    1    2    0    0  0.00000000000E+00  0.00000000000E+00 -0.34255704414E+03  0.19754033405E+04  0.19454750138E+04 0.  0.
        5    1    3    3  502    0  0.46841137584E+03 -0.44331328151E+03 -0.91067040194E+03  0.11159204961E+04  0.46999998093E+01 0. -1.
       -5    1    3    3    0  502 -0.46841137584E+03  0.44331328151E+03  0.56811335780E+03  0.85948284444E+03  0.46999998093E+01 0.  1.
</event>
<event>
 5   0  0.2651828E-04  0.1867955E+04  0.7818609E-02  0.8670974E-01
       -2   -1    0    0    0  501  0.00000000000E+00  0.00000000000E+00  0.66871086084E+03  0.66871086084E+03  0.25500000920E-02 0.  1.
        2   -1    0    0  501    0  0.00000000000E+00  0.00000000000E+00 -0.13044710847E+04  0.13044710847E+04  0.25500000920E-02 0. -1.
    10030    2    1    2    0    0  0.00000000000E+00  0.00000000000E+00 -0.63576022384E+03  0.19731819455E+04  0.18679550123E+04 0.  0.
        3    1    3    3  502    0 -0.11093984921E+03  0.11336553712E+02 -0.12974131529E+04  0.13021970155E+04  0.10100000352E+00 0. -1.
       -3    1    3    3    0  502  0.11093984921E+03 -0.11336553712E+02  0.66165292907E+03  0.67098493004E+03  0.10100000352E+00 0.  1.
</event>
<event>
 5   0  0.1317527E-04  0.2201117E+04  0.7818609E-02  0.8517963E-01
        1   -1    0    0  501    0  0.00000000000E+00  0.00000000000E+00  0.16321594095E+04  0.16321594095E+04  0.50400001928E-02 0. -1.
       -1   -1    0    0    0  501  0.00000000000E+00  0.00000000000E+00 -0.74210231738E+03  0.74210231740E+03  0.50400001928E-02 0.  1.
    10030    2    1    2    0    0  0.00000000000E+00  0.00000000000E+00  0.89005709215E+03  0.23742617269E+04  0.22011172438E+04 0.  0.
        1    1    3    3  502    0 -0.10529360329E+04 -0.45240715250E+02  0.10305988238E+03  0.10589345358E+04  0.50400001928E-02 0.  1.
       -1    1    3    3    0  502  0.10529360329E+04  0.45240715250E+02  0.78699720978E+03  0.13153271912E+04  0.50400001928E-02 0. -1.
</event>
<event>
 5   0  0.1317527E-04  0.1898143E+04  0.7818609E-02  0.8655781E-01
       -1   -1    0    0    0  501  0.00000000000E+00  0.00000000000E+00  0.50065121738E+03  0.50065121740E+03  0.50400001928E-02 0.  1.
        1   -1    0    0  501    0  0.00000000000E+00  0.00000000000E+00 -0.17991302978E+04  0.17991302978E+04  0.50400001928E-02 0. -1.
    10030    2    1    2    0    0  0.00000000000E+00  0.00000000000E+00 -0.12984790804E+04  0.22997815152E+04  0.18981430651E+04 0.  0.
        1    1    3    3  502    0  0.39169066272E+03 -0.47126686195E+03 -0.15273100637E+04  0.16456579417E+04  0.50400001928E-02 0. -1.
       -1    1    3    3    0  502 -0.39169066272E+03  0.47126686195E+03  0.22883098330E+03  0.65412357347E+03  0.50400001928E-02 0.  1.
</event>
<event>
 5   0  0.1239615E-04  0.1884077E+04  0.7818609E-02  0.8662823E-01
        1   -1    0    0  501    0  0.00000000000E+00  0.00000000000E+00  0.12626232919E+04  0.12626232919E+04  0.50400001928E-02 0. -1.
       -1   -1    0    0    0  501  0.00000000000E+00  0.00000000000E+00 -0.70285152517E+03  0.70285152519E+03  0.50400001928E-02 0.  1.
    10030    2    1    2    0    0  0.00000000000E+00  0.00000000000E+00  0.55977176669E+03  0.19654748171E+04  0.18840771815E+04 0.  0.
        3    1    3    3  502    0 -0.36150372440E+03  0.10137076080E+03  0.11812009643E+04  0.12394340250E+04  0.10100000352E+00 0. -1.
       -3    1    3    3    0  502  0.36150372440E+03 -0.10137076080E+03 -0.62142919765E+03  0.72604079210E+03  0.10100000352E+00 0.  1.
</event>
<event>
 5   0  0.2541124E-04  0.1858611E+04  0.7818609E-02  0.8675737E-01
        2   -1    0    0  501    0  0.00000000000E+00  0.00000000000E+00  0.13241338020E+04  0.13241338020E+04  0.25500000920E-02 0. -1.
       -2   -1    0    0    0  501  0.00000000000E+00  0.00000000000E+00 -0.65220621947E+03  0.65220621947E+03  0.25500000920E-02 0.  1.
    10030    2    1    2    0    0  0.00000000000E+00  0.00000000000E+00  0.67192758249E+03  0.19763400214E+04  0.18586105574E+04 0.  0.
        5    1    3    3  502    0  0.69417262921E+03 -0.61759405663E+03  0.31791347037E+03  0.98203315757E+03  0.46999998093E+01 0.  1.
       -5    1    3    3    0  502 -0.69417262921E+03  0.61759405663E+03  0.35401411212E+03  0.99430686386E+03  0.46999998093E+01 0. -1.
</event>
<event>
 5   0  0.2595012E-04  0.2111302E+04  0.7818609E-02  0.8556281E-01
       -2   -1    0    0    0  501  0.00000000000E+00  0.00000000000E+00  0.64728343220E+03  0.64728343221E+03  0.25500000920E-02 0. -1.
        2   -1    0    0  501    0  0.00000000000E+00  0.00000000000E+00 -0.17216557644E+04  0.17216557644E+04  0.25500000920E-02 0.  1.
    10030    2    1    2    0    0  0.00000000000E+00  0.00000000000E+00 -0.10743723322E+04  0.23689391966E+04  0.21113022069E+04 0.  0.
        1    1    3    3  502    0  0.33748215426E+03  0.40161347381E+03  0.49068638427E+03  0.71830405437E+03  0.50400001928E-02 0. -1.
       -1    1    3    3    0  502 -0.33748215426E+03 -0.40161347381E+03 -0.15650587165E+04  0.16506351422E+04  0.50400001928E-02 0.  1.
</event>
<event>
 5   0  0.1324058E-04  0.1903404E+04  0.7818609E-02  0.8653164E-01
        1   -1    0    0  501    0  0.00000000000E+00  0.00000000000E+00  0.19906850194E+04  0.19906850194E+04  0.50400001928E-02 0. -1.
       -1   -1    0    0    0  501  0.00000000000E+00  0.00000000000E+00 -0.45498729068E+03  0.45498729070E+03  0.50400001928E-02 0.  1.
    10030    2    1    2    0    0  0.00000000000E+00  0.00000000000E+00  0.15356977287E+04  0.24456723101E+04  0.19034036709E+04 0.  0.
        5    1    3    3  502    0  0.91746317499E+03  0.71221006229E+02  0.10796924038E+04  0.14186503748E+04  0.46999998093E+01 0. -1.
       -5    1    3    3    0  502 -0.91746317499E+03 -0.71221006229E+02  0.45600532495E+03  0.10270219353E+04  0.46999998093E+01 0.  1.
</event>
<event>
 5   0  0.1324058E-04  0.1896519E+04  0.7818609E-02  0.8656591E-01
       -1   -1    0    0    0  501  0.00000000000E+00  0.00000000000E+00  0.11270218632E+04  0.11270218632E+04  0.50400001928E-02 0. -1.
        1   -1    0    0  501    0  0.00000000000E+00  0.00000000000E+00 -0.79785125720E+03  0.79785125721E+03  0.50400001928E-02 0.  1.
    10030    2    1    2    0    0  0.00000000000E+00  0.00000000000E+00  0.32917060602E+03  0.19248731204E+04  0.18965187165E+04 0.  0.
        5    1    3    3  502    0  0.58304888483E+02  0.58868067333E+03  0.91676539326E+03  0.10910661169E+04  0.46999998093E+01 0. -1.
       -5    1    3    3    0  502 -0.58304888483E+02 -0.58868067333E+03 -0.58759478724E+03  0.83380700354E+03  0.46999998093E+01 0.  1.
</event>
<event>
 5   0  0.2595012E-04  0.1892202E+04  0.7818609E-02  0.8658748E-01
       -2   -1    0    0    0  501  0.00000000000E+00  0.00000000000E+00  0.67060442669E+03  0.67060442669E+03  0.25500000920E-02 0.  1.
        2   -1    0    0  501    0  0.00000000000E+00  0.00000000000E+00 -0.13347763088E+04  0.13347763088E+04  0.25500000920E-02 0. -1.
    10030    2    1    2    0    0  0.00000000000E+00  0.00000000000E+00 -0.66417188216E+03  0.20053807355E+04  0.18922017877E+04 0.  0.
        1    1    3    3  502    0 -0.92586179637E+03  0.16823234304E+03 -0.22832856702E+03  0.96832645413E+03  0.50400001928E-02 0. -1.
       -1    1    3    3    0  502  0.92586179637E+03 -0.16823234304E+03 -0.43584331514E+03  0.10370542814E+04  0.50400001928E-02 0.  1.
</event>
<event>
 5   0  0.1239615E-04  0.1874788E+04  0.7818609E-02  0.8667509E-01
        1   -1    0    0  501    0  0.00000000000E+00  0.00000000000E+00  0.20767577784E+04  0.20767577784E+04  0.50400001928E-02 0. -1.
       -1   -1    0    0    0  501  0.00000000000E+00  0.00000000000E+00 -0.42311524729E+03  0.42311524732E+03  0.50400001928E-02 0.  1.
    10030    2    1    2    0    0  0.00000000000E+00  0.00000000000E+00  0.16536425312E+04  0.24998730258E+04  0.18747883945E+04 0.  0.
        3    1    3    3  502    0 -0.17234607937E+03 -0.90724629672E+03  0.10414509661E+04  0.13919120443E+04  0.10100000352E+00 0.  1.
       -3    1    3    3    0  502  0.17234607937E+03  0.90724629672E+03  0.61219156504E+03  0.11079609815E+04  0.10100000352E+00 0. -1.
</event>
<event>
 5   0  0.1255141E-04  0.1899216E+04  0.7818609E-02  0.8655247E-01
        1   -1    0    0  501    0  0.00000000000E+00  0.00000000000E+00  0.11222171129E+04  0.11222171129E+04  0.50400001928E-02 0. -1.
       -1   -1    0    0    0  501  0.00000000000E+00  0.00000000000E+00 -0.80354772585E+03  0.80354772587E+03  0.50400001928E-02 0.  1.
    10030    2    1    2    0    0  0.00000000000E+00  0.00000000000E+00  0.31866938702E+03  0.19257648387E+04  0.18992156370E+04 0.  0.
        2    1    3    3  502    0 -0.22384627657E+03 -0.71941211006E+03 -0.42675402088E+03  0.86589833928E+03  0.25500000920E-02 0.  1.
       -2    1    3    3    0  502  0.22384627657E+03  0.71941211006E+03  0.74542340789E+03  0.10598664995E+04  0.25500000920E-02 0. -1.
</event>
<event>
 5   0  0.1277709E-04  0.1898815E+04  0.7818609E-02  0.8655446E-01
       -1   -1    0    0    0  501  0.00000000000E+00  0.00000000000E+00  0.12957462963E+04  0.12957462963E+04  0.50400001928E-02 0.  1.
        1   -1    0    0  501    0  0.00000000000E+00  0.00000000000E+00 -0.69564147372E+03  0.69564147374E+03  0.50400001928E-02 0. -1.
    10030    2    1    2    0    0  0.00000000000E+00  0.00000000000E+00  0.60010482257E+03  0.19913877700E+04  0.18988152761E+04 0.  0.
        4    1    3    3  502    0 -0.16749713061E+03  0.56938935380E+03 -0.47709654523E+03  0.76150000090E+03  0.12699999809E+01 0. -1.
       -4    1    3    3    0  502  0.16749713061E+03 -0.56938935380E+03  0.10772013678E+04  0.12298877691E+04  0.12699999809E+01 0.  1.
</event>
<event>
 5   0  0.1277709E-04  0.1910538E+04  0.7818609E-02  0.8649629E-01
        1   -1    0    0  501    0  0.00000000000E+00  0.00000000000E+00  0.12374144307E+04  0.12374144307E+04  0.50400001928E-02 0.  1.
       -1   -1    0    0    0  501  0.00000000000E+00  0.00000000000E+00 -0.73745618438E+03  0.73745618440E+03  0.50400001928E-02 0. -1.
    10030    2    1    2    0    0  0.00000000000E+00  0.00000000000E+00  0.49995824631E+03  0.19748706151E+04  0.19105380651E+04 0.  0.
        4    1    3    3  502    0 -0.55589206063E+02  0.80365076765E+03  0.78067969568E+03  0.11217874649E+04  0.12699999809E+01 0.  1.
       -4    1    3    3    0  502  0.55589206063E+02 -0.80365076765E+03 -0.28072144938E+03  0.85308315023E+03  0.12699999809E+01 0. -1.
</event>
<event>
 5   0  0.1317527E-04  0.1926781E+04  0.7818609E-02  0.8641639E-01
       -1   -1    0    0    0  501  0.00000000000E+00  0.00000000000E+00  0.46275144713E+03  0.46275144716E+03  0.50400001928E-02 0. -1.
        1   -1    0    0  501    0  0.00000000000E+00  0.00000000000E+00 -0.20056586795E+04  0.20056586795E+04  0.50400001928E-02 0.  1.
    10030    2    1    2    0    0  0.00000000000E+00  0.00000000000E+00 -0.15429072324E+04  0.24684101267E+04  0.19267812086E+04 0.  0.
        1    1    3    3  502    0  0.59373869854E+03  0.70820693193E+03 -0.42286397813E+03  0.10163152290E+04  0.50400001928E-02 0. -1.
       -1    1    3    3    0  502 -0.59373869854E+03 -0.70820693193E+03 -0.11200432543E+04  0.14520948977E+04  0.50400001928E-02 0.  1.
</event>
<event>
 5   0  0.1239615E-04  0.1570383E+04  0.7818609E-02  0.8838952E-01
       -1   -1    0    0    0  501  0.00000000000E+00  0.00000000000E+00  0.66720373090E+03  0.66720373091E+03  0.50400001928E-02 0.  1.
        1   -1    0    0  501    0  0.00000000000E+00  0.00000000000E+00 -0.92404436687E+03  0.92404436689E+03  0.50400001928E-02 0. -1.
    10030    2    1    2    0    0  0.00000000000E+00  0.00000000000E+00 -0.25684063598E+03  0.15912480978E+04  0.15703832005E+04 0.  0.
        3    1    3    3  502    0 -0.21473503297E+03  0.75176245083E+03 -0.20196511046E+03  0.80749478816E+03  0.10100000352E+00 0.  1.
       -3    1    3    3    0  502  0.21473503297E+03 -0.75176245083E+03 -0.54875525519E+02  0.78375330964E+03  0.10100000352E+00 0. -1.
</event>
<event>
 5   0  0.1277709E-04  0.1904049E+04  0.7818609E-02  0.8652843E-01
        1   -1    0    0  501    0  0.00000000000E+00  0.00000000000E+00  0.50217282515E+03  0.50217282517E+03  0.50400001928E-02 0. -1.
       -1   -1    0    0    0  501  0.00000000000E+00  0.00000000000E+00 -0.18048588802E+04  0.18048588803E+04  0.50400001928E-02 0.  1.
    10030    2    1    2    0    0  0.00000000000E+00  0.00000000000E+00 -0.13026860551E+04  0.23070317054E+04  0.19040494562E+04 0.  0.
        4    1    3    3  502    0  0.79623977672E+02 -0.11695697240E+03  0.48936159102E+03  0.50940680294E+03  0.12699999809E+01 0. -1.
       -4    1    3    3    0  502 -0.79623977672E+02  0.11695697240E+03 -0.17920476461E+04  0.17976249025E+04  0.12699999809E+01 0.  1.
</event>
<event>
 5   0  0.2541124E-04  0.1843726E+04  0.7818609E-02  0.8683386E-01
       -2   -1    0    0    0  501  0.00000000000E+00  0.00000000000E+00  0.83169929282E+03  0.83169929283E+03  0.25500000920E-02 0. -1.
        2   -1    0    0  501    0  0.00000000000E+00  0.00000000000E+00 -0.10218010699E+04  0.10218010699E+04  0.25500000920E-02 0.  1.
    10030    2    1    2    0    0  0.00000000000E+00  0.00000000000E+00 -0.19010177709E+03  0.18535003627E+04  0.18437258226E+04 0.  0.
        5    1    3    3  502    0  0.77566833910E+03 -0.49734676234E+03 -0.66724157284E+02  0.92384488820E+03  0.46999998093E+01 0. -1.
       -5    1    3    3    0  502 -0.77566833910E+03  0.49734676234E+03 -0.12337761980E+03  0.92965547455E+03  0.46999998093E+01 0.  1.
</event>
<event>
 5   0  0.1255141E-04  0.1818561E+04  0.7818609E-02  0.8696491E-01
       -1   -1    0    0    0  501  0.00000000000E+00  0.00000000000E+00  0.68423736408E+03  0.68423736410E+03  0.50400001928E-02 0.  1.
        1   -1    0    0  501    0  0.00000000000E+00  0.00000000000E+00 -0.12083393035E+04  0.12083393035E+04  0.50400001928E-02 0. -1.
    10030    2    1    2    0    0  0.00000000000E+00  0.00000000000E+00 -0.52410193938E+03  0.18925766676E+04  0.18185608595E+04 0.  0.
        2    1    3    3  502    0 -0.64617536595E+03 -0.26211212832E+03 -0.86936488635E+03  0.11144687869E+04  0.25500000920E-02 0. -1.
       -2    1    3    3    0  502  0.64617536595E+03  0.26211212832E+03  0.34526294698E+03  0.77810788065E+03  0.25500000920E-02 0.  1.
</event>
<event>
 5   0  0.1239615E-04  0.1904789E+04  0.7818609E-02  0.8652476E-01
       -1   -1    0    0    0  501  0.00000000000E+00  0.00000000000E+00  0.64752750387E+03  0.64752750389E+03  0.50400001928E-02 0. -1.
        1   -1    0    0  501    0  0.00000000000E+00  0.00000000000E+00 -0.14007974505E+04  0.14007974505E+04  0.50400001928E-02 0.  1.
    10030    2    1    2    0    0  0.00000000000E+00  0.00000000000E+00 -0.75326994661E+03  0.20483249544E+04  0.19047885726E+04 0.  0.
        3    1    3    3  502    0  0.75107142688E+03 -0.39938488847E+03  0.83936541480E+02  0.85478765235E+03  0.10100000352E+00 0. -1.
       -3    1    3    3    0  502 -0.75107142688E+03  0.39938488847E+03 -0.83720648809E+03  0.11935373020E+04  0.10100000352E+00 0.  1.
</event>
<event>
 5   0  0.1255141E-04  0.1898498E+04  0.7818609E-02  0.8655605E-01
        1   -1    0    0  501    0  0.00000000000E+00  0.00000000000E+00  0.90246790346E+03  0.90246790347E+03  0.50400001928E-02 0. -1.
       -1   -1    0    0    0  501  0.00000000000E+00  0.00000000000E+00 -0.99845464222E+03  0.99845464223E+03  0.50400001928E-02 0.  1.
    10030    2    1    2    0    0  0.00000000000E+00  0.00000000000E+00 -0.95986738759E+02  0.19009225457E+04  0.18984975825E+04 0.  0.
        2    1    3    3  502    0  0.73212640477E+03  0.15285880306E+03  0.53730300514E+03  0.92090683870E+03  0.25500000920E-02 0. -1.
       -2    1    3    3    0  502 -0.73212640477E+03 -0.15285880306E+03 -0.63328974390E+03  0.98001570700E+03  0.25500000920E-02 0.  1.
</event>
<event>
 5   0  0.2595012E-04  0.1929609E+04  0.7818609E-02  0.8640257E-01
        2   -1    0    0  501    0  0.00000000000E+00  0.00000000000E+00  0.88295172795E+03  0.88295172795E+03  0.25500000920E-02 0.  1.
       -2   -1    0    0    0  501  0.00000000000E+00  0.00000000000E+00 -0.10542457769E+04  0.10542457769E+04  0.25500000920E-02 0. -1.
    10030    2    1    2    0    0  0.00000000000E+00  0.00000000000E+00 -0.17129404899E+03  0.19371975049E+04  0.19296094221E+04 0.  0.
        1    1    3    3  502    0  0.42423621850E+03  0.83444367533E+03 -0.32017972670E+03  0.98933698698E+03  0.50400001928E-02 0. -1.
       -1    1    3    3    0  502 -0.42423621850E+03 -0.83444367533E+03  0.14888567771E+03  0.94786051792E+03  0.50400001928E-02 0.  1.
</event>
<event>
 5   0  0.1317527E-04  0.1909674E+04  0.7818609E-02  0.8650056E-01
        1   -1    0    0  501    0  0.00000000000E+00  0.00000000000E+00  0.13044066275E+04  0.13044066275E+04  0.50400001928E-02 0. -1.
       -1   -1    0    0    0  501  0.00000000000E+00  0.00000000000E+00 -0.69894884052E+03  0.69894884054E+03  0.50400001928E-02 0.  1.
    10030    2    1    2    0    0  0.00000000000E+00  0.00000000000E+00  0.60545778697E+03  0.20033554680E+04  0.19096737940E+04 0.  0.
        1    1    3    3  502    0 -0.21362814327E+03  0.33800014550E+03  0.12123475333E+04  0.12765843581E+04  0.50400001928E-02 0. -1.
       -1    1    3    3    0  502  0.21362814327E+03 -0.33800014550E+03 -0.60688974633E+03  0.72677110989E+03  0.50400001928E-02 0.  1.
</event>
<event>
 5   0  0.2608744E-04  0.1851635E+04  0.7818609E-02  0.8679312E-01
        2   -1    0    0  501    0  0.00000000000E+00  0.00000000000E+00  0.68161112902E+03  0.68161112902E+03  0.25500000920E-02 0.  1.
       -2   -1    0    0    0  501  0.00000000000E+00  0.00000000000E+00 -0.12575176307E+04  0.12575176307E+04  0.25500000920E-02 0. -1.
    10030    2    1    2    0    0  0.00000000000E+00  0.00000000000E+00 -0.57590650169E+03  0.19391287597E+04  0.18516349662E+04 0.  0.
        2    1    3    3  502    0 -0.53133220692E+03 -0.15872190457E+03 -0.10643559985E+04  0.12001500942E+04  0.25500000920E-02 0. -1.
       -2    1    3    3    0  502  0.53133220692E+03  0.15872190457E+03  0.48844949683E+03  0.73897866550E+03  0.25500000920E-02 0.  1.
</event>
<event>
 5   0  0.9266125E-05  0.1871319E+04  0.7818609E-02  0.8669266E-01
        3   -1    0    0  501    0  0.00000000000E+00  0.00000000000E+00  0.11470154444E+04  0.11470154488E+04  0.10100000352E+00 0. -1.
       -3   -1    0    0    0  501  0.00000000000E+00  0.00000000000E+00 -0.76324894546E+03  0.76324895214E+03  0.10100000352E+00 0.  1.
    10030    2    1    2    0    0  0.00000000000E+00  0.00000000000E+00  0.38376649892E+03  0.19102644010E+04  0.18713186142E+04 0.  0.
        1    1    3    3  502    0  0.19645451821E+03  0.85914189444E+03  0.51265083348E+03  0.10195734645E+04  0.50400001928E-02 0. -1.
       -1    1    3    3    0  502 -0.19645451821E+03 -0.85914189444E+03 -0.12888433456E+03  0.89069093643E+03  0.50400001928E-02 0.  1.
</event>
<event>
 5   0  0.1317527E-04  0.1804491E+04  0.7818609E-02  0.8703915E-01
        1   -1    0    0  501    0  0.00000000000E+00  0.00000000000E+00  0.53714947981E+03  0.53714947983E+03  0.50400001928E-02 0. -1.
       -1   -1    0    0    0  501  0.00000000000E+00  0.00000000000E+00 -0.15154947279E+04  0.15154947280E+04  0.50400001928E-02 0.  1.
    10030    2    1    2    0    0  0.00000000000E+00  0.00000000000E+00 -0.97834524814E+03  0.20526442078E+04  0.18044912910E+04 0.  0.
        1    1    3    3  502    0  0.29015188108E+03 -0.82913050544E+03 -0.72340692880E+03  0.11379644519E+04  0.50400001928E-02 0. -1.
       -1    1    3    3    0  502 -0.29015188108E+03  0.82913050544E+03 -0.25493831934E+03  0.91467975589E+03  0.50400001928E-02 0.  1.
</event>
<event>
 5   0  0.1239615E-04  0.1894470E+04  0.7818609E-02  0.8657614E-01
        1   -1    0    0  501    0  0.00000000000E+00  0.00000000000E+00  0.74973876652E+03  0.74973876653E+03  0.50400001928E-02 0.  1.
       -1   -1    0    0    0  501  0.00000000000E+00  0.00000000000E+00 -0.11967558033E+04  0.11967558033E+04  0.50400001928E-02 0. -1.
    10030    2    1    2    0    0  0.00000000000E+00  0.00000000000E+00 -0.44701703679E+03  0.19464945698E+04  0.18944700787E+04 0.  0.
        3    1    3    3  502    0 -0.32076398197E+02  0.39144142998E+03 -0.11091532381E+04  0.11766376690E+04  0.10100000352E+00 0. -1.
       -3    1    3    3    0  502  0.32076398197E+02 -0.39144142998E+03  0.66213620131E+03  0.76985690080E+03  0.10100000352E+00 0.  1.
</event>
<event>
 5   0  0.2651828E-04  0.1897519E+04  0.7818609E-02  0.8656092E-01
       -2   -1    0    0    0  501  0.00000000000E+00  0.00000000000E+00  0.64650931987E+03  0.64650931988E+03  0.25500000920E-02 0. -1.
        2   -1    0    0  501    0  0.00000000000E+00  0.00000000000E+00 -0.13923145236E+04  0.13923145236E+04  0.25500000920E-02 0.  1.
    10030    2    1    2    0    0  0.00000000000E+00  0.00000000000E+00 -0.74580520368E+03  0.20388238434E+04  0.18975187121E+04 0.  0.
        3    1    3    3  502    0 -0.17946096888E+03 -0.45476751264E+03 -0.12465481882E+04  0.13389929520E+04  0.10100000352E+00 0.  1.
       -3    1    3    3    0  502  0.17946096888E+03  0.45476751264E+03  0.50074298448E+03  0.69983089144E+03  0.10100000352E+00 0. -1.
</event>
<event>
 5   0  0.2562925E-04  0.1912513E+04  0.7818609E-02  0.8648653E-01
       -2   -1    0    0    0  501  0.00000000000E+00  0.00000000000E+00  0.52724286321E+03  0.52724286322E+03  0.25500000920E-02 0.  1.
        2   -1    0    0  501    0  0.00000000000E+00  0.00000000000E+00 -0.17343555776E+04  0.17343555776E+04  0.25500000920E-02 0. -1.
    10030    2    1    2    0    0  0.00000000000E+00  0.00000000000E+00 -0.12071127144E+04  0.22615984408E+04  0.19125131117E+04 0.  0.
        4    1    3    3  502    0  0.19354854395E+03 -0.24870163897E+03 -0.16711834102E+04  0.17006378649E+04  0.12699999809E+01 0. -1.
       -4    1    3    3    0  502 -0.19354854395E+03  0.24870163897E+03  0.46407069583E+03  0.56096057591E+03  0.12699999809E+01 0.  1.
</event>
<event>
 5   0  0.1317527E-04  0.1874173E+04  0.7818609E-02  0.8667820E-01
        1   -1    0    0  501    0  0.00000000000E+00  0.00000000000E+00  0.96871493052E+03  0.96871493054E+03  0.50400001928E-02 0.  1.
       -1   -1    0    0    0  501  0.00000000000E+00  0.00000000000E+00 -0.90649030568E+03  0.90649030569E+03  0.50400001928E-02 0. -1.
    10030    2    1    2    0    0  0.00000000000E+00  0.00000000000E+00  0.62224624843E+02  0.18752052362E+04  0.18741725572E+04 0.  0.
        1    1    3    3  502    0  0.68616888802E+03  0.63631906768E+03  0.80139257680E+02  0.93922947112E+03  0.50400001928E-02 0.  1.
       -1    1    3    3    0  502 -0.68616888802E+03 -0.63631906768E+03 -0.17914632837E+02  0.93597576511E+03  0.50400001928E-02 0. -1.
</event>
<event>
 5   0  0.1324058E-04  0.1926822E+04  0.7818609E-02  0.8641620E-01
       -1   -1    0    0    0  501  0.00000000000E+00  0.00000000000E+00  0.82555940652E+03  0.82555940654E+03  0.50400001928E-02 0.  1.
        1   -1    0    0  501    0  0.00000000000E+00  0.00000000000E+00 -0.11242804184E+04  0.11242804184E+04  0.50400001928E-02 0. -1.
    10030    2    1    2    0    0  0.00000000000E+00  0.00000000000E+00 -0.29872101190E+03  0.19498398250E+04  0.19268215019E+04 0.  0.
        5    1    3    3  502    0  0.41695869111E+03 -0.50227899891E+03 -0.86634385469E+03  0.10847638026E+04  0.46999998093E+01 0. -1.
       -5    1    3    3    0  502 -0.41695869111E+03  0.50227899891E+03  0.56762284279E+03  0.86507602238E+03  0.46999998093E+01 0.  1.
</event>
<event>
 5   0  0.2651828E-04  0.1889041E+04  0.7818609E-02  0.8660331E-01
        2   -1    0    0  501    0  0.00000000000E+00  0.00000000000E+00  0.10464458145E+04  0.10464458145E+04  0.25500000920E-02 0.  1.
       -2   -1    0    0    0  501  0.00000000000E+00  0.00000000000E+00 -0.85252287467E+03  0.85252287467E+03  0.25500000920E-02 0. -1.
    10030    2    1    2    0    0  0.00000000000E+00  0.00000000000E+00  0.19392293986E+03  0.18989686892E+04  0.18890410202E+04 0.  0.
        3    1    3    3  502    0 -0.78154655669E+03 -0.19160444475E+02 -0.43585882992E+03  0.89507266338E+03  0.10100000352E+00 0. -1.
       -3    1    3    3    0  502  0.78154655669E+03  0.19160444475E+02  0.62978176978E+03  0.10038960258E+04  0.10100000352E+00 0.  1.
</event>
<event>
 5   0  0.1277709E-04  0.1902519E+04  0.7818609E-02  0.8653603E-01
        1   -1    0    0  501    0  0.00000000000E+00  0.00000000000E+00  0.24383084099E+04  0.24383084099E+04  0.50400001928E-02 0. -1.
       -1   -1    0    0    0  501  0.00000000000E+00  0.00000000000E+00 -0.37111589652E+03  0.37111589655E+03  0.50400001928E-02 0.  1.
    10030    2    1    2    0    0  0.00000000000E+00  0.00000000000E+00  0.20671925134E+04  0.28094243065E+04  0.19025193945E+04 0.  0.
        4    1    3    3  502    0 -0.93203435769E+03 -0.10321277533E+02  0.75303042375E+03  0.11982700049E+04  0.12699999809E+01 0.  1.
       -4    1    3    3    0  502  0.93203435769E+03  0.10321277533E+02  0.13141620896E+04  0.16111543016E+04  0.12699999809E+01 0. -1.
</event>
<event>
 5   0  0.2651828E-04  0.1909365E+04  0.7818609E-02  0.8650209E-01
       -2   -1    0    0    0  501  0.00000000000E+00  0.00000000000E+00  0.74545363512E+03  0.74545363513E+03  0.25500000920E-02 0.  1.
        2   -1    0    0  501    0  0.00000000000E+00  0.00000000000E+00 -0.12226357742E+04  0.12226357742E+04  0.25500000920E-02 0. -1.
    10030    2    1    2    0    0  0.00000000000E+00  0.00000000000E+00 -0.47718213906E+03  0.19680894093E+04  0.19093645878E+04 0.  0.
        3    1    3    3  502    0 -0.85628205974E+03 -0.26933255184E+03  0.96459059767E+02  0.90280858975E+03  0.10100000352E+00 0.  1.
       -3    1    3    3    0  502  0.85628205974E+03  0.26933255184E+03 -0.57364119882E+03  0.10652808196E+04  0.10100000352E+00 0. -1.
</event>
<event>
 5   0  0.9266125E-05  0.1899446E+04  0.7818609E-02  0.8655132E-01
       -3   -1    0    0    0  501  0.00000000000E+00  0.00000000000E+00  0.96621741380E+03  0.96621741907E+03  0.10100000352E+00 0. -1.
        3   -1    0    0  501    0  0.00000000000E+00  0.00000000000E+00 -0.93351062628E+03  0.93351063174E+03  0.10100000352E+00 0.  1.
    10030    2    1    2    0    0  0.00000000000E+00  0.00000000000E+00  0.32706787519E+02  0.18997280508E+04  0.18994464807E+04 0.  0.
        4    1    3    3  502    0 -0.57503654718E+03  0.13972014417E+03 -0.72657828134E+03  0.93707329548E+03  0.12699999809E+01 0.  1.
       -4    1    3    3    0  502  0.57503654718E+03 -0.13972014417E+03  0.75928506886E+03  0.96265475534E+03  0.12699999809E+01 0. -1.
</event>
<event>
 5   0  0.1255141E-04  0.1920660E+04  0.7818609E-02  0.8644640E-01
       -1   -1    0    0    0  501  0.00000000000E+00  0.00000000000E+00  0.49413235604E+03  0.49413235607E+03  0.50400001928E-02 0. -1.
        1   -1    0    0  501    0  0.00000000000E+00  0.00000000000E+00 -0.18663699044E+04  0.18663699045E+04  0.50400001928E-02 0.  1.
    10030    2    1    2    0    0  0.00000000000E+00  0.00000000000E+00 -0.13722375484E+04  0.23605022605E+04  0.19206600513E+04 0.  0.
        2    1    3    3  502    0 -0.66503879117E+03  0.53785213768E+03 -0.12227768317E+04  0.14922280978E+04  0.25500000920E-02 0.  1.
       -2    1    3    3    0  502  0.66503879117E+03 -0.53785213768E+03 -0.14946071670E+03  0.86827416270E+03  0.25500000920E-02 0. -1.
</event>
<event>
 5   0  0.2541124E-04  0.1894376E+04  0.7818609E-02  0.8657661E-01
       -2   -1    0    0    0  501  0.00000000000E+00  0.00000000000E+00  0.61006943131E+03  0.61006943132E+03  0.25500000920E-02 0. -1.
        2   -1    0    0  501    0  0.00000000000E+00  0.00000000000E+00 -0.14705957384E+04  0.14705957384E+04  0.25500000920E-02 0.  1.
    10030    2    1    2    0    0  0.00000000000E+00  0.00000000000E+00 -0.86052630705E+03  0.20806651697E+04  0.18943764207E+04 0.  0.
        5    1    3    3  502    0  0.54532285558E+03 -0.25965354200E+03  0.37110687124E+03  0.70890011890E+03  0.46999998093E+01 0. -1.
       -5    1    3    3    0  502 -0.54532285558E+03  0.25965354200E+03 -0.12316331783E+04  0.13717650508E+04  0.46999998093E+01 0.  1.
</event>
<event>
 5   0  0.1317527E-04  0.1910912E+04  0.7818609E-02  0.8649444E-01
        1   -1    0    0  501    0  0.00000000000E+00  0.00000000000E+00  0.54121208355E+03  0.54121208357E+03  0.50400001928E-02 0. -1.
       -1   -1    0    0    0  501  0.00000000000E+00  0.00000000000E+00 -0.16867624719E+04  0.16867624719E+04  0.50400001928E-02 0.  1.
    10030    2    1    2    0    0  0.00000000000E+00  0.00000000000E+00 -0.11455503884E+04  0.22279745555E+04  0.19109120670E+04 0.  0.
        1    1    3    3  502    0 -0.17785275308E+03 -0.80781278115E+03 -0.11303531408E+04  0.14006753064E+04  0.50400001928E-02 0.  1.
       -1    1    3    3    0  502  0.17785275308E+03  0.80781278115E+03 -0.15197247615E+02  0.82729924908E+03  0.50400001928E-02 0. -1.
</event>
<event>
 5   0  0.1317527E-04  0.1899944E+04  0.7818609E-02  0.8654884E-01
       -1   -1    0    0    0  501  0.00000000000E+00  0.00000000000E+00  0.64513084860E+03  0.64513084862E+03  0.50400001928E-02 0. -1.
        1   -1    0    0  501    0  0.00000000000E+00  0.00000000000E+00 -0.13988583822E+04  0.13988583822E+04  0.50400001928E-02 0.  1.
    10030    2    1    2    0    0  0.00000000000E+00  0.00000000000E+00 -0.75372753363E+03  0.20439892309E+04  0.18999438889E+04 0.  0.
        1    1    3    3  502    0 -0.61162127522E+02  0.93888626989E+03 -0.51794934698E+03  0.10740203721E+04  0.50400001928E-02 0.  1.
       -1    1    3    3    0  502  0.61162127522E+02 -0.93888626989E+03 -0.23577818665E+03  0.96996885875E+03  0.50400001928E-02 0. -1.
</event>
<event>
 5   0  0.2541124E-04  0.1911521E+04  0.7818609E-02  0.8649143E-01
        2   -1    0    0  501    0  0.00000000000E+00  0.00000000000E+00  0.18407534243E+04  0.18407534243E+04  0.25500000920E-02 0. -1.
       -2   -1    0    0    0  501  0.00000000000E+00  0.00000000000E+00 -0.49625217031E+03  0.49625217032E+03  0.25500000920E-02 0.  1.
    10030    2    1    2    0    0  0.00000000000E+00  0.00000000000E+00  0.13445012540E+04  0.23370055946E+04  0.19115207368E+04 0.  0.
        5    1    3    3  502    0 -0.92474778192E+02  0.62787549677E+03  0.15459332617E+04  0.16711406175E+04  0.46999998093E+01 0. -1.
       -5    1    3    3    0  502  0.92474778192E+02 -0.62787549677E+03 -0.20143200766E+03  0.66586497711E+03  0.46999998093E+01 0.  1.
</event>
<event>
 5   0  0.1277709E-04  0.1737835E+04  0.7818609E-02  0.8740075E-01
       -1   -1    0    0    0  501  0.00000000000E+00  0.00000000000E+00  0.91987641376E+03  0.91987641377E+03  0.50400001928E-02 0. -1.
        1   -1    0    0  501    0  0.00000000000E+00  0.00000000000E+00 -0.82078198225E+03  0.82078198226E+03  0.50400001928E-02 0.  1.
    10030    2    1    2    0    0  0.00000000000E+00  0.00000000000E+00  0.99094431509E+02  0.17406583960E+04  0.17378354195E+04 0.  0.
        4    1    3    3  502    0 -0.65697682530E+02  0.72264451063E+03  0.52832484069E+03  0.89758566412E+03  0.12699999809E+01 0. -1.
       -4    1    3    3    0  502  0.65697682530E+02 -0.72264451063E+03 -0.42923040918E+03  0.84307273192E+03  0.12699999809E+01 0.  1.
</event>
<event>
 5   0  0.1317527E-04  0.1889281E+04  0.7818609E-02  0.8660211E-01
       -1   -1    0    0    0  501  0.00000000000E+00  0.00000000000E+00  0.78405248286E+03  0.78405248287E+03  0.50400001928E-02 0.  1.
        1   -1    0    0  501    0  0.00000000000E+00  0.00000000000E+00 -0.11381194590E+04  0.11381194590E+04  0.50400001928E-02 0. -1.
    10030    2    1    2    0    0  0.00000000000E+00  0.00000000000E+00 -0.35406697610E+03  0.19221719418E+04  0.18892806966E+04 0.  0.
        1    1    3    3  502    0  0.57360452695E+03 -0.51393326723E+03  0.37947720720E+03  0.85857585996E+03  0.50400001928E-02 0.  1.
       -1    1    3    3    0  502 -0.57360452695E+03  0.51393326723E+03 -0.73354418331E+03  0.10635960819E+04  0.50400001928E-02 0. -1.
</event>
<event>
 5   0  0.2541124E-04  0.1893692E+04  0.7818609E-02  0.8658003E-01
        2   -1    0    0  501    0  0.00000000000E+00  0.00000000000E+00  0.16486407156E+04  0.16486407156E+04  0.25500000920E-02 0. -1.
       -2   -1    0    0    0  501  0.00000000000E+00  0.00000000000E+00 -0.54379162872E+03  0.54379162873E+03  0.25500000920E-02 0.  1.
    10030    2    1    2    0    0  0.00000000000E+00  0.00000000000E+00  0.11048490869E+04  0.21924323443E+04  0.18936916538E+04 0.  0.
        5    1    3    3  502    0  0.44951383277E+03 -0.50992790677E+03 -0.21064607202E+03  0.71167619997E+03  0.46999998093E+01 0.  1.
       -5    1    3    3    0  502 -0.44951383277E+03  0.50992790677E+03  0.13154951589E+04  0.14807561443E+04  0.46999998093E+01 0. -1.
</event>
<event>
 5   0  0.1324058E-04  0.1918288E+04  0.7818609E-02  0.8645806E-01
        1   -1    0    0  501    0  0.00000000000E+00  0.00000000000E+00  0.11120743578E+04  0.11120743578E+04  0.50400001928E-02 0.  1.
       -1   -1    0    0    0  501  0.00000000000E+00  0.00000000000E+00 -0.82724474643E+03  0.82724474644E+03  0.50400001928E-02 0. -1.
    10030    2    1    2    0    0  0.00000000000E+00  0.00000000000E+00  0.28482961134E+03  0.19393191042E+04  0.19182884769E+04 0.  0.
        5    1    3    3  502    0 -0.20037758270E+03  0.70532917365E+03 -0.48266397786E+03  0.87785364633E+03  0.46999998093E+01 0. -1.
       -5    1    3    3    0  502  0.20037758270E+03 -0.70532917365E+03  0.76749358919E+03  0.10614654579E+04  0.46999998093E+01 0.  1.
</event>
<event>
 5   0  0.2651828E-04  0.1898943E+04  0.7818609E-02  0.8655383E-01
        2   -1    0    0  501    0  0.00000000000E+00  0.00000000000E+00  0.10939698957E+04  0.10939698957E+04  0.25500000920E-02 0. -1.
       -2   -1    0    0    0  501  0.00000000000E+00  0.00000000000E+00 -0.82405956687E+03  0.82405956688E+03  0.25500000920E-02 0.  1.
    10030    2    1    2    0    0  0.00000000000E+00  0.00000000000E+00  0.26991032885E+03  0.19180294626E+04  0.18989432413E+04 0.  0.
        3    1    3    3  502    0  0.38422272531E+03 -0.53913450895E+03 -0.55247578041E+03  0.86227757684E+03  0.10100000352E+00 0. -1.
       -3    1    3    3    0  502 -0.38422272531E+03  0.53913450895E+03  0.82238610926E+03  0.10557518858E+04  0.10100000352E+00 0.  1.
</event>
<event>
 5   0  0.1255141E-04  0.1916785E+04  0.7818609E-02  0.8646546E-01
       -1   -1    0    0    0  501  0.00000000000E+00  0.00000000000E+00  0.10104988775E+04  0.10104988775E+04  0.50400001928E-02 0.  1.
        1   -1    0    0  501    0  0.00000000000E+00  0.00000000000E+00 -0.90897334819E+03  0.90897334820E+03  0.50400001928E-02 0. -1.
    10030    2    1    2    0    0  0.00000000000E+00  0.00000000000E+00  0.10152552931E+03  0.19194722257E+04  0.19167853798E+04 0.  0.
        2    1    3    3  502    0  0.65252088018E+03  0.35997399118E+03 -0.55270271171E+03  0.92781736400E+03  0.25500000920E-02 0. -1.
       -2    1    3    3    0  502 -0.65252088018E+03 -0.35997399118E+03  0.65422824102E+03  0.99165486171E+03  0.25500000920E-02 0.  1.
</event>
<event>
 5   0  0.1277709E-04  0.1925730E+04  0.7818609E-02  0.8642154E-01
        1   -1    0    0  501    0  0.00000000000E+00  0.00000000000E+00  0.11519321881E+04  0.11519321881E+04  0.50400001928E-02 0.  1.
       -1   -1    0    0    0  501  0.00000000000E+00  0.00000000000E+00 -0.80482914394E+03  0.80482914396E+03  0.50400001928E-02 0. -1.
    10030    2    1    2    0    0  0.00000000000E+00  0.00000000000E+00  0.34710304412E+03  0.19567613320E+04  0.19257295727E+04 0.  0.
        4    1    3    3  502    0  0.79402941022E+03 -0.54411795188E+03  0.14950728468E+03  0.97411554290E+03  0.12699999809E+01 0. -1.
       -4    1    3    3    0  502 -0.79402941022E+03  0.54411795188E+03  0.19759575944E+03  0.98264578913E+03  0.12699999809E+01 0.  1.
</event>
<event>
 5   0  0.1317527E-04  0.1877469E+04  0.7818609E-02  0.8666153E-01
        1   -1    0    0  501    0  0.00000000000E+00  0.00000000000E+00  0.84860337314E+03  0.84860337316E+03  0.50400001928E-02 0. -1.
       -1   -1    0    0    0  501  0.00000000000E+00  0.00000000000E+00 -0.10384385486E+04  0.10384385487E+04  0.50400001928E-02 0.  1.
    10030    2    1    2    0    0  0.00000000000E+00  0.00000000000E+00 -0.18983517550E+03  0.18870419218E+04  0.18774689933E+04 0.  0.
        1    1    3    3  502    0 -0.25728291374E+03 -0.31601934562E+03  0.75506553250E+03  0.85801321837E+03  0.50400001928E-02 0. -1.
       -1    1    3    3    0  502  0.25728291374E+03  0.31601934562E+03 -0.94490070800E+03  0.10290287034E+04  0.50400001928E-02 0.  1.
</event>
<event>
 5   0  0.1277709E-04  0.1908676E+04  0.7818609E-02  0.8650550E-01
        1   -1    0    0  501    0  0.00000000000E+00  0.00000000000E+00  0.12039183226E+04  0.12039183226E+04  0.50400001928E-02 0. -1.
       -1   -1    0    0    0  501  0.00000000000E+00  0.00000000000E+00 -0.75649716765E+03  0.75649716767E+03  0.50400001928E-02 0.  1.
    10030    2    1    2    0    0  0.00000000000E+00  0.00000000000E+00  0.44742115497E+03  0.19604154903E+04  0.19086757725E+04 0.  0.
        4    1    3    3  502    0 -0.44726545151E+03  0.11779995132E+02  0.10895166585E+04  0.11778086918E+04  0.12699999809E+01 0. -1.
       -4    1    3    3    0  502  0.44726545151E+03 -0.11779995132E+02 -0.64209550358E+03  0.78260679847E+03  0.12699999809E+01 0.  1.
</event>
<event>
 5   0  0.2608744E-04  0.1912090E+04  0.7818609E-02  0.8648862E-01
        2   -1    0    0  501    0  0.00000000000E+00  0.00000000000E+00  0.63653450113E+03  0.63653450113E+03  0.25500000920E-02 0. -1.
       -2   -1    0    0    0  501  0.00000000000E+00  0.00000000000E+00 -0.14359348234E+04  0.14359348234E+04  0.25500000920E-02 0.  1.
    10030    2    1    2    0    0  0.00000000000E+00  0.00000000000E+00 -0.79940032229E+03  0.20724693246E+04  0.19120900151E+04 0.  0.
        2    1    3    3  502    0  0.55002010972E+03 -0.17908937285E+03 -0.12247479718E+04  0.13544750714E+04  0.25500000920E-02 0.  1.
       -2    1    3    3    0  502 -0.55002010972E+03  0.17908937285E+03  0.42534764954E+03  0.71799425314E+03  0.25500000920E-02 0. -1.
</event>
<event>
 5   0  0.2595012E-04  0.1924129E+04  0.7818609E-02  0.8642938E-01
        2   -1    0    0  501    0  0.00000000000E+00  0.00000000000E+00  0.13267049196E+04  0.13267049196E+04  0.25500000920E-02 0.  1.
       -2   -1    0    0    0  501  0.00000000000E+00  0.00000000000E+00 -0.69764396857E+03  0.69764396857E+03  0.25500000920E-02 0. -1.
    10030    2    1    2    0    0  0.00000000000E+00  0.00000000000E+00  0.62906095099E+03  0.20243488881E+04  0.19241285666E+04 0.  0.
        1    1    3    3  502    0  0.58383683721E+03  0.33585861923E+03  0.10372617137E+04  0.12367612249E+04  0.50400001928E-02 0. -1.
       -1    1    3    3    0  502 -0.58383683721E+03 -0.33585861923E+03 -0.40820076273E+03  0.78758766325E+03  0.50400001928E-02 0.  1.
</event>
<event>
 5   0  0.2651828E-04  0.1874932E+04  0.7818609E-02  0.8667436E-01
        2   -1    0    0  501    0  0.00000000000E+00  0.00000000000E+00  0.24568606844E+04  0.24568606844E+04  0.25500000920E-02 0.  1.
       -2   -1    0    0    0  501  0.00000000000E+00  0.00000000000E+00 -0.35770947432E+03  0.35770947433E+03  0.25500000920E-02 0. -1.
    10030    2    1    2    0    0  0.00000000000E+00  0.00000000000E+00  0.20991512100E+04  0.28145701587E+04  0.18749318322E+04 0.  0.
        3    1    3    3  502    0 -0.39182358559E+03 -0.23075877832E+03  0.22802208587E+04  0.23251198917E+04  0.10100000352E+00 0.  1.
       -3    1    3    3    0  502  0.39182358559E+03  0.23075877832E+03 -0.18106964868E+03  0.48945026700E+03  0.10100000352E+00 0. -1.
</event>
<event>
 5   0  0.2595012E-04  0.1882271E+04  0.7818609E-02  0.8663732E-01
        2   -1    0    0  501    0  0.00000000000E+00  0.00000000000E+00  0.13568840354E+04  0.13568840354E+04  0.25500000920E-02 0. -1.
       -2   -1    0    0    0  501  0.00000000000E+00  0.00000000000E+00 -0.65277185629E+03  0.65277185629E+03  0.25500000920E-02 0.  1.
    10030    2    1    2    0    0  0.00000000000E+00  0.00000000000E+00  0.70411217908E+03  0.20096558917E+04  0.18822706612E+04 0.  0.
        1    1    3    3  502    0  0.34605915757E+03 -0.11385498292E+03 -0.57443591490E+03  0.68021799302E+03  0.50400001928E-02 0.  1.
       -1    1    3    3    0  502 -0.34605915757E+03  0.11385498292E+03  0.12785480940E+04  0.13294378986E+04  0.50400001928E-02 0. -1.
</event>
<event>
 5   0  0.2562925E-04  0.1887675E+04  0.7818609E-02  0.8661016E-01
       -2   -1    0    0    0  501  0.00000000000E+00  0.00000000000E+00  0.62203798759E+03  0.62203798759E+03  0.25500000920E-02 0. -1.
        2   -1    0    0  501    0  0.00000000000E+00  0.00000000000E+00 -0.14321137512E+04  0.14321137512E+04  0.25500000920E-02 0.  1.
    10030    2    1    2    0    0  0.00000000000E+00  0.00000000000E+00 -0.81007576361E+03  0.20541517388E+04  0.18876749252E+04 0.  0.
        4    1    3    3  502    0 -0.57782258715E+03  0.56148271084E+03  0.12993387111E+03  0.81610428289E+03  0.12699999809E+01 0. -1.
       -4    1    3    3    0  502  0.57782258715E+03 -0.56148271084E+03 -0.94000963472E+03  0.12380474559E+04  0.12699999809E+01 0.  1.
</event>
<event>
 5   0  0.1239615E-04  0.1901473E+04  0.7818609E-02  0.8654123E-01
       -1   -1    0    0    0  501  0.00000000000E+00  0.00000000000E+00  0.10157208094E+04  0.10157208094E+04  0.50400001928E-02 0. -1.
        1   -1    0    0  501    0  0.00000000000E+00  0.00000000000E+00 -0.88991004328E+03  0.88991004329E+03  0.50400001928E-02 0.  1.
    10030    2    1    2    0    0  0.00000000000E+00  0.00000000000E+00  0.12581076610E+03  0.19056308527E+04  0.19014732703E+04 0.  0.
        3    1    3    3  502    0  0.79072407000E+03  0.29265131262E+03 -0.37738515146E+03  0.92374721023E+03  0.10100000352E+00 0.  1.
       -3    1    3    3    0  502 -0.79072407000E+03 -0.29265131262E+03  0.50319591756E+03  0.98188364245E+03  0.10100000352E+00 0. -1.
</event>
<event>
 5   0  0.1317527E-04  0.1911332E+04  0.7818609E-02  0.8649236E-01
       -1   -1    0    0    0  501  0.00000000000E+00  0.00000000000E+00  0.57527859575E+03  0.57527859577E+03  0.50400001928E-02 0.  1.
        1   -1    0    0  501    0  0.00000000000E+00  0.00000000000E+00 -0.15875749601E+04  0.15875749601E+04  0.50400001928E-02 0. -1.
    10030    2    1    2    0    0  0.00000000000E+00  0.00000000000E+00 -0.10122963644E+04  0.21628535559E+04  0.19113324083E+04 0.  0.
        1    1    3    3  502    0  0.27820274437E+03  0.81979239990E+03 -0.48108702960E+02  0.86704716898E+03  0.50400001928E-02 0.  1.
       -1    1    3    3    0  502 -0.27820274437E+03 -0.81979239990E+03 -0.96418766142E+03  0.12958063869E+04  0.50400001928E-02 0. -1.
</event>
<event>
 5   0  0.9266125E-05  0.1867381E+04  0.7818609E-02  0.8671265E-01
       -3   -1    0    0    0  501  0.00000000000E+00  0.00000000000E+00  0.73628773514E+03  0.73628774207E+03  0.10100000352E+00 0.  1.
        3   -1    0    0  501    0  0.00000000000E+00  0.00000000000E+00 -0.11840181608E+04  0.11840181651E+04  0.10100000352E+00 0. -1.
    10030    2    1    2    0    0  0.00000000000E+00  0.00000000000E+00 -0.44773042562E+03  0.19203059071E+04  0.18673811188E+04 0.  0.
        1    1    3    3  502    0 -0.80782204948E+03  0.43226454619E+03 -0.40882086625E+03  0.10032764336E+04  0.50400001928E-02 0. -1.
       -1    1    3    3    0  502  0.80782204948E+03 -0.43226454619E+03 -0.38909559376E+02  0.91702947354E+03  0.50400001928E-02 0.  1.
</event>
<event>
 5   0  0.1317527E-04  0.1881573E+04  0.7818609E-02  0.8664083E-01
        1   -1    0    0  501    0  0.00000000000E+00  0.00000000000E+00  0.95748789854E+03  0.95748789856E+03  0.50400001928E-02 0. -1.
       -1   -1    0    0    0  501  0.00000000000E+00  0.00000000000E+00 -0.92437626248E+03  0.92437626249E+03  0.50400001928E-02 0.  1.
    10030    2    1    2    0    0  0.00000000000E+00  0.00000000000E+00  0.33111636064E+02  0.18818641610E+04  0.18815728368E+04 0.  0.
        1    1    3    3  502    0 -0.78477474741E+03 -0.47405147210E+03 -0.19438649232E+03  0.93722052410E+03  0.50400001928E-02 0. -1.
       -1    1    3    3    0  502  0.78477474741E+03  0.47405147210E+03  0.22749812839E+03  0.94464363695E+03  0.50400001928E-02 0.  1.
</event>
<event>
 5   0  0.1277709E-04  0.1896761E+04  0.7818609E-02  0.8656470E-01
       -1   -1    0    0    0  501  0.00000000000E+00  0.00000000000E+00  0.49399014082E+03  0.49399014084E+03  0.50400001928E-02 0. -1.
        1   -1    0    0  501    0  0.00000000000E+00  0.00000000000E+00 -0.18207363313E+04  0.18207363313E+04  0.50400001928E-02 0.  1.
    10030    2    1    2    0    0  0.00000000000E+00  0.00000000000E+00 -0.13267461905E+04  0.23147264722E+04  0.18967612362E+04 0.  0.
        4    1    3    3  502    0 -0.39438337107E+03  0.44298370439E+03 -0.15664798809E+04  0.16750025779E+04  0.12699999809E+01 0.  1.
       -4    1    3    3    0  502  0.39438337107E+03 -0.44298370439E+03  0.23973369039E+03  0.63972389430E+03  0.12699999809E+01 0. -1.
</event>
<event>
 5   0  0.1239615E-04  0.1899420E+04  0.7818609E-02  0.8655145E-01
       -1   -1    0    0    0  501  0.00000000000E+00  0.00000000000E+00  0.64579782321E+03  0.64579782323E+03  0.50400001928E-02 0.  1.
        1   -1    0    0  501    0  0.00000000000E+00  0.00000000000E+00 -0.13966430926E+04  0.13966430926E+04  0.50400001928E-02 0. -1.
    10030    2    1    2    0    0  0.00000000000E+00  0.00000000000E+00 -0.75084526940E+03  0.20424409159E+04  0.18994199842E+04 0.  0.
        3    1    3    3  502    0 -0.58902657985E+03  0.48159186264E+03  0.23576441439E+03  0.79653493534E+03  0.10100000352E+00 0.  1.
       -3    1    3    3    0  502  0.58902657985E+03 -0.48159186264E+03 -0.98660968379E+03  0.12459059805E+04  0.10100000352E+00 0. -1.
</event>
<event>
 5   0  0.2562925E-04  0.1899453E+04  0.7818609E-02  0.8655129E-01
        2   -1    0    0  501    0  0.00000000000E+00  0.00000000000E+00  0.13072546212E+04  0.13072546212E+04  0.25500000920E-02 0. -1.
       -2   -1    0    0    0  501  0.00000000000E+00  0.00000000000E+00 -0.68998070654E+03  0.68998070655E+03  0.25500000920E-02 0.  1.
    10030    2    1    2    0    0  0.00000000000E+00  0.00000000000E+00  0.61727391462E+03  0.19972353277E+04  0.18994530446E+04 0.  0.
        4    1    3    3  502    0  0.70057274001E+03 -0.46192245480E+03  0.77628441854E+03  0.11431507467E+04  0.12699999809E+01 0. -1.
       -4    1    3    3    0  502 -0.70057274001E+03  0.46192245480E+03 -0.15901050391E+03  0.85408458102E+03  0.12699999809E+01 0.  1.
</event>
<event>
 5   0  0.1255141E-04  0.1884854E+04  0.7818609E-02  0.8662432E-01
        1   -1    0    0  501    0  0.00000000000E+00  0.00000000000E+00  0.21595427993E+04  0.21595427993E+04  0.50400001928E-02 0. -1.
       -1   -1    0    0    0  501  0.00000000000E+00  0.00000000000E+00 -0.41127627395E+03  0.41127627398E+03  0.50400001928E-02 0.  1.
    10030    2    1    2    0    0  0.00000000000E+00  0.00000000000E+00  0.17482665254E+04  0.25708190733E+04  0.18848540697E+04 0.  0.
        2    1    3    3  502    0 -0.16938592616E+03  0.42809498606E+02  0.21372614530E+04  0.21443905343E+04  0.25500000920E-02 0. -1.
       -2    1    3    3    0  502  0.16938592616E+03 -0.42809498606E+02 -0.38899492762E+03  0.42642853900E+03  0.25500000920E-02 0.  1.
</event>
<event>
 5   0  0.1239615E-04  0.1905803E+04  0.7818609E-02  0.8651973E-01
        1   -1    0    0  501    0  0.00000000000E+00  0.00000000000E+00  0.15079527361E+04  0.15079527361E+04  0.50400001928E-02 0. -1.
       -1   -1    0    0    0  501  0.00000000000E+00  0.00000000000E+00 -0.60215511965E+03  0.60215511967E+03  0.50400001928E-02 0.  1.
    10030    2    1    2    0    0  0.00000000000E+00  0.00000000000E+00  0.90579761648E+03  0.21101078558E+04  0.19058032011E+04 0.  0.
        3    1    3    3  502    0 -0.19831418060E+03 -0.50166399731E+02 -0.57755788042E+03  0.61271387884E+03  0.10100000352E+00 0.  1.
       -3    1    3    3    0  502  0.19831418060E+03  0.50166399731E+02  0.14833554969E+04  0.14973939770E+04  0.10100000352E+00 0. -1.
</event>
<event>
 5   0  0.2541124E-04  0.1879839E+04  0.7818609E-02  0.8664957E-01
       -2   -1    0    0    0  501  0.00000000000E+00  0.00000000000E+00  0.63399764995E+03  0.63399764995E+03  0.25500000920E-02 0. -1.
        2   -1    0    0  501    0  0.00000000000E+00  0.00000000000E+00 -0.13934575838E+04  0.13934575838E+04  0.25500000920E-02 0.  1.
    10030    2    1    2    0    0  0.00000000000E+00  0.00000000000E+00 -0.75945993384E+03  0.20274552337E+04  0.18798391776E+04 0.  0.
        5    1    3    3  502    0  0.57195378689E+03 -0.73719573182E+02 -0.11802120278E+04  0.13135784066E+04  0.46999998093E+01 0.  1.
       -5    1    3    3    0  502 -0.57195378689E+03  0.73719573182E+02  0.42075209392E+03  0.71387682715E+03  0.46999998093E+01 0. -1.
</event>
<event>
 5   0  0.1255141E-04  0.1825044E+04  0.7818609E-02  0.8693094E-01
       -1   -1    0    0    0  501  0.00000000000E+00  0.00000000000E+00  0.70761624406E+03  0.70761624408E+03  0.50400001928E-02 0.  1.
        1   -1    0    0  501    0  0.00000000000E+00  0.00000000000E+00 -0.11767625256E+04  0.11767625256E+04  0.50400001928E-02 0. -1.
    10030    2    1    2    0    0  0.00000000000E+00  0.00000000000E+00 -0.46914628156E+03  0.18843787697E+04  0.18250438664E+04 0.  0.
        2    1    3    3  502    0 -0.40875291699E+03  0.50941594271E+03 -0.89256147816E+03  0.11060061221E+04  0.25500000920E-02 0. -1.
       -2    1    3    3    0  502  0.40875291699E+03 -0.50941594271E+03  0.42341519660E+03  0.77837264761E+03  0.25500000920E-02 0.  1.
</event>
<event>
 5   0  0.1324058E-04  0.1913313E+04  0.7818609E-02  0.8648258E-01
       -1   -1    0    0    0  501  0.00000000000E+00  0.00000000000E+00  0.70149548671E+03  0.70149548673E+03  0.50400001928E-02 0. -1.
        1   -1    0    0  501    0  0.00000000000E+00  0.00000000000E+00 -0.13046291383E+04  0.13046291383E+04  0.50400001928E-02 0.  1.
    10030    2    1    2    0    0  0.00000000000E+00  0.00000000000E+00 -0.60313365159E+03  0.20061246250E+04  0.19133127840E+04 0.  0.
        5    1    3    3  502    0 -0.12920225057E+03  0.84454193187E+03 -0.75282160533E+03  0.11387303261E+04  0.46999998093E+01 0.  1.
       -5    1    3    3    0  502  0.12920225057E+03 -0.84454193187E+03  0.14968795374E+03  0.86739429888E+03  0.46999998093E+01 0. -1.
</event>
<event>
 5   0  0.1324058E-04  0.1880826E+04  0.7818609E-02  0.8664460E-01
       -1   -1    0    0    0  501  0.00000000000E+00  0.00000000000E+00  0.91628089500E+03  0.91628089502E+03  0.50400001928E-02 0. -1.
        1   -1    0    0  501    0  0.00000000000E+00  0.00000000000E+00 -0.96518068088E+03  0.96518068089E+03  0.50400001928E-02 0.  1.
    10030    2    1    2    0    0  0.00000000000E+00  0.00000000000E+00 -0.48899785874E+02  0.18814615759E+04  0.18808260081E+04 0.  0.
        5    1    3    3  502    0  0.46135106673E+02  0.22444444966E+03  0.88791684327E+03  0.91701808576E+03  0.46999998093E+01 0. -1.
       -5    1    3    3    0  502 -0.46135106673E+02 -0.22444444966E+03 -0.93681662914E+03  0.96444349015E+03  0.46999998093E+01 0.  1.
</event>
<event>
 5   0  0.2608744E-04  0.1869533E+04  0.7818609E-02  0.8670172E-01
       -2   -1    0    0    0  501  0.00000000000E+00  0.00000000000E+00  0.46876565247E+03  0.46876565248E+03  0.25500000920E-02 0. -1.
        2   -1    0    0  501    0  0.00000000000E+00  0.00000000000E+00 -0.18640199315E+04  0.18640199315E+04  0.25500000920E-02 0.  1.
    10030    2    1    2    0    0  0.00000000000E+00  0.00000000000E+00 -0.13952542791E+04  0.23327855840E+04  0.18695331176E+04 0.  0.
        2    1    3    3  502    0  0.67190576405E+03  0.43779317030E+03 -0.12969151939E+04  0.15248308876E+04  0.25500000920E-02 0.  1.
       -2    1    3    3    0  502 -0.67190576405E+03 -0.43779317030E+03 -0.98339085162E+02  0.80795469638E+03  0.25500000920E-02 0. -1.
</event>
<event>
 5   0  0.2608744E-04  0.1815973E+04  0.7818609E-02  0.8697851E-01
       -2   -1    0    0    0  501  0.00000000000E+00  0.00000000000E+00  0.29587020132E+03  0.29587020133E+03  0.25500000920E-02 0.  1.
        2   -1    0    0  501    0  0.00000000000E+00  0.00000000000E+00 -0.27864917370E+04  0.27864917370E+04  0.25500000920E-02 0. -1.
    10030    2    1    2    0    0  0.00000000000E+00  0.00000000000E+00 -0.24906215357E+04  0.30823619384E+04  0.18159734263E+04 0.  0.
        2    1    3    3  502    0 -0.59494033053E+02  0.86059563992E+03 -0.76439879616E+03  0.11525926926E+04  0.25500000920E-02 0.  1.
       -2    1    3    3    0  502  0.59494033053E+02 -0.86059563992E+03 -0.17262227396E+04  0.19297692458E+04  0.25500000920E-02 0. -1.
</event>
<event>
 5   0  0.2541124E-04  0.1874269E+04  0.7818609E-02  0.8667772E-01
        2   -1    0    0  501    0  0.00000000000E+00  0.00000000000E+00  0.18468019680E+04  0.18468019680E+04  0.25500000920E-02 0. -1.
       -2   -1    0    0    0  501  0.00000000000E+00  0.00000000000E+00 -0.47553598053E+03  0.47553598054E+03  0.25500000920E-02 0.  1.
    10030    2    1    2    0    0  0.00000000000E+00  0.00000000000E+00  0.13712659874E+04  0.23223379485E+04  0.18742686944E+04 0.  0.
        5    1    3    3  502    0 -0.11662287566E+03  0.89671009309E+03  0.38084148179E+03  0.98119937343E+03  0.46999998093E+01 0.  1.
       -5    1    3    3    0  502  0.11662287566E+03 -0.89671009309E+03  0.99042450565E+03  0.13411385751E+04  0.46999998093E+01 0. -1.
</event>
<event>
 5   0  0.2562925E-04  0.1756686E+04  0.7818609E-02  0.8729678E-01
       -2   -1    0    0    0  501  0.00000000000E+00  0.00000000000E+00  0.33198539603E+03  0.33198539604E+03  0.25500000920E-02 0. -1.
        2   -1    0    0  501    0  0.00000000000E+00  0.00000000000E+00 -0.23238571273E+04  0.23238571273E+04  0.25500000920E-02 0.  1.
    10030    2    1    2    0    0  0.00000000000E+00  0.00000000000E+00 -0.19918717313E+04  0.26558425234E+04  0.17566862312E+04 0.  0.
        4    1    3    3  502    0  0.71631910954E+03  0.30277869129E+02 -0.22882354736E+03  0.75258995793E+03  0.12699999809E+01 0. -1.
       -4    1    3    3    0  502 -0.71631910954E+03 -0.30277869129E+02 -0.17630481840E+04  0.19032525655E+04  0.12699999809E+01 0.  1.
</event>
<event>
 5   0  0.1317527E-04  0.1923395E+04  0.7818609E-02  0.8643298E-01
       -1   -1    0    0    0  501  0.00000000000E+00  0.00000000000E+00  0.41481502512E+03  0.41481502515E+03  0.50400001928E-02 0.  1.
        1   -1    0    0  501    0  0.00000000000E+00  0.00000000000E+00 -0.22295761457E+04  0.22295761457E+04  0.50400001928E-02 0. -1.
    10030    2    1    2    0    0  0.00000000000E+00  0.00000000000E+00 -0.18147611206E+04  0.26443911708E+04  0.19233945876E+04 0.  0.
        1    1    3    3  502    0  0.41391576349E+03 -0.14789782391E+03 -0.20833944676E+04  0.21292563334E+04  0.50400001928E-02 0. -1.
       -1    1    3    3    0  502 -0.41391576349E+03  0.14789782391E+03  0.26863334705E+03  0.51513483744E+03  0.50400001928E-02 0.  1.
</event>
<event>
 5   0  0.2562925E-04  0.1873636E+04  0.7818609E-02  0.8668092E-01
        2   -1    0    0  501    0  0.00000000000E+00  0.00000000000E+00  0.15392636363E+04  0.15392636363E+04  0.25500000920E-02 0. -1.
       -2   -1    0    0    0  501  0.00000000000E+00  0.00000000000E+00 -0.57016065259E+03  0.57016065259E+03  0.25500000920E-02 0.  1.
    10030    2    1    2    0    0  0.00000000000E+00  0.00000000000E+00  0.96910298370E+03  0.21094242889E+04  0.18736355669E+04 0.  0.
        4    1    3    3  502    0  0.15336041293E+02 -0.40113131731E+03 -0.46842501756E+03  0.61689961733E+03  0.12699999809E+01 0.  1.
       -4    1    3    3    0  502 -0.15336041293E+02  0.40113131731E+03  0.14375280013E+04  0.14925246716E+04  0.12699999809E+01 0. -1.
</event>
<event>
 5   0  0.1277709E-04  0.1910526E+04  0.7818609E-02  0.8649635E-01
       -1   -1    0    0    0  501  0.00000000000E+00  0.00000000000E+00  0.11058061291E+04  0.11058061291E+04  0.50400001928E-02 0.  1.
        1   -1    0    0  501    0  0.00000000000E+00  0.00000000000E+00 -0.82521457845E+03  0.82521457846E+03  0.50400001928E-02 0. -1.
    10030    2    1    2    0    0  0.00000000000E+00  0.00000000000E+00  0.28059155063E+03  0.19310207075E+04  0.19105259367E+04 0.  0.
        4    1    3    3  502    0 -0.33710725413E+03 -0.12744504468E+02 -0.76300382324E+03  0.83425426001E+03  0.12699999809E+01 0. -1.
       -4    1    3    3    0  502  0.33710725413E+03  0.12744504468E+02  0.10435953739E+04  0.10967664475E+04  0.12699999809E+01 0.  1.
</event>
<event>
 5   0  0.2595012E-04  0.1901566E+04  0.7818609E-02  0.8654077E-01
       -2   -1    0    0    0  501  0.00000000000E+00  0.00000000000E+00  0.94174737703E+03  0.94174737703E+03  0.25500000920E-02 0.  1.
        2   -1    0    0  501    0  0.00000000000E+00  0.00000000000E+00 -0.95990574921E+03  0.95990574921E+03  0.25500000920E-02 0. -1.
    10030    2    1    2    0    0  0.00000000000E+00  0.00000000000E+00 -0.18158372183E+02  0.19016531262E+04  0.19015664296E+04 0.  0.
        1    1    3    3  502    0  0.24779225901E+03 -0.89945701602E+03 -0.19229450985E+03  0.95257603677E+03  0.50400001928E-02 0. -1.
       -1    1    3    3    0  502 -0.24779225901E+03  0.89945701602E+03  0.17413613767E+03  0.94907708947E+03  0.50400001928E-02 0.  1.
</event>
<event>
 5   0  0.1239615E-04  0.1864644E+04  0.7818609E-02  0.8672658E-01
       -1   -1    0    0    0  501  0.00000000000E+00  0.00000000000E+00  0.10373527120E+04  0.10373527120E+04  0.50400001928E-02 0. -1.
        1   -1    0    0  501    0  0.00000000000E+00  0.00000000000E+00 -0.83792544455E+03  0.83792544457E+03  0.50400001928E-02 0.  1.
    10030    2    1    2    0    0  0.00000000000E+00  0.00000000000E+00  0.19942726741E+03  0.18752781565E+04  0.18646439149E+04 0.  0.
        3    1    3    3  502    0 -0.28006752644E+03 -0.62819478943E+03 -0.53328655956E+03  0.87032239868E+03  0.10100000352E+00 0.  1.
       -3    1    3    3    0  502  0.28006752644E+03  0.62819478943E+03  0.73271382697E+03  0.10049557579E+04  0.10100000352E+00 0. -1.
</event>
<event>
 5   0  0.2651828E-04  0.1913386E+04  0.7818609E-02  0.8648222E-01
        2   -1    0    0  501    0  0.00000000000E+00  0.00000000000E+00  0.17892233272E+04  0.17892233272E+04  0.25500000920E-02 0.  1.
       -2   -1    0    0    0  501  0.00000000000E+00  0.00000000000E+00 -0.51154105321E+03  0.51154105321E+03  0.25500000920E-02 0. -1.
    10030    2    1    2    0    0  0.00000000000E+00  0.00000000000E+00  0.12776822740E+04  0.23007643804E+04  0.19133856749E+04 0.  0.
        3    1    3    3  502    0 -0.93648281026E+02  0.68505464318E+03 -0.15622890126E+03  0.70885636378E+03  0.10100000352E+00 0. -1.
       -3    1    3    3    0  502  0.93648281026E+02 -0.68505464318E+03  0.14339111753E+04  0.15919080166E+04  0.10100000352E+00 0.  1.
</event>
<event>
 5   0  0.1324058E-04  0.1890144E+04  0.7818609E-02  0.8659778E-01
        1   -1    0    0  501    0  0.00000000000E+00  0.00000000000E+00  0.85434942046E+03  0.85434942048E+03  0.50400001928E-02 0. -1.
       -1   -1    0    0    0  501  0.00000000000E+00  0.00000000000E+00 -0.10454283829E+04  0.10454283830E+04  0.50400001928E-02 0.  1.
    10030    2    1    2    0    0  0.00000000000E+00  0.00000000000E+00 -0.19107896247E+03  0.18997778034E+04  0.18901440507E+04 0.  0.
        5    1    3    3  502    0  0.63313105348E+03 -0.70098812206E+03 -0.12568844926E+03  0.95292127398E+03  0.46999998093E+01 0. -1.
       -5    1    3    3    0  502 -0.63313105348E+03  0.70098812206E+03 -0.65390513218E+02  0.94685652945E+03  0.46999998093E+01 0.  1.
</event>
<event>
 5   0  0.2595012E-04  0.1903677E+04  0.7818609E-02  0.8653028E-01
       -2   -1    0    0    0  501  0.00000000000E+00  0.00000000000E+00  0.42113154374E+03  0.42113154374E+03  0.25500000920E-02 0.  1.
        2   -1    0    0  501    0  0.00000000000E+00  0.00000000000E+00 -0.21513376345E+04  0.21513376345E+04  0.25500000920E-02 0. -1.
    10030    2    1    2    0    0  0.00000000000E+00  0.00000000000E+00 -0.17302060908E+04  0.25724691783E+04  0.19036765893E+04 0.  0.
        1    1    3    3  502    0  0.96284387362E+02  0.42046234285E+03 -0.20116826702E+04  0.20574076967E+04  0.50400001928E-02 0. -1.
       -1    1    3    3    0  502 -0.96284387362E+02 -0.42046234285E+03  0.28147657939E+03  0.51506148155E+03  0.50400001928E-02 0.  1.
</event>
<event>
 5   0  0.2651828E-04  0.1887214E+04  0.7818609E-02  0.8661247E-01
        2   -1    0    0  501    0  0.00000000000E+00  0.00000000000E+00  0.61179656025E+03  0.61179656026E+03  0.25500000920E-02 0.  1.
       -2   -1    0    0    0  501  0.00000000000E+00  0.00000000000E+00 -0.14553767714E+04  0.14553767714E+04  0.25500000920E-02 0. -1.
    10030    2    1    2    0    0  0.00000000000E+00  0.00000000000E+00 -0.84358021118E+03  0.20671733317E+04  0.18872143520E+04 0.  0.
        3    1    3    3  502    0  0.49734377923E+03 -0.66031898766E+03 -0.92017449324E+03  0.12369693240E+04  0.10100000352E+00 0. -1.
       -3    1    3    3    0  502 -0.49734377923E+03  0.66031898766E+03  0.76594282061E+02  0.83020400773E+03  0.10100000352E+00 0.  1.
</event>
<event>
 5   0  0.9266125E-05  0.1951332E+04  0.7818609E-02  0.8629719E-01
       -3   -1    0    0    0  501  0.00000000000E+00  0.00000000000E+00  0.10521701212E+04  0.10521701260E+04  0.10100000352E+00 0.  1.
        3   -1    0    0  501    0  0.00000000000E+00  0.00000000000E+00 -0.90472458968E+03  0.90472459532E+03  0.10100000352E+00 0. -1.
    10030    2    1    2    0    0  0.00000000000E+00  0.00000000000E+00  0.14744553151E+03  0.19568947214E+04  0.19513320491E+04 0.  0.
        1    1    3    3  502    0  0.18232728674E+03  0.28770349139E+03 -0.84316343136E+03  0.90936302457E+03  0.50400001928E-02 0. -1.
       -1    1    3    3    0  502 -0.18232728674E+03 -0.28770349139E+03  0.99060896287E+03  0.10475316968E+04  0.50400001928E-02 0.  1.
</event>
<event>
 5   0  0.1277709E-04  0.1893931E+04  0.7818609E-02  0.8657883E-01
       -1   -1    0    0    0  501  0.00000000000E+00  0.00000000000E+00  0.10401576780E+04  0.10401576780E+04  0.50400001928E-02 0. -1.
        1   -1    0    0  501    0  0.00000000000E+00  0.00000000000E+00 -0.86212276004E+03  0.86212276006E+03  0.50400001928E-02 0.  1.
    10030    2    1    2    0    0  0.00000000000E+00  0.00000000000E+00  0.17803491799E+03  0.19022804381E+04  0.18939309473E+04 0.  0.
        4    1    3    3  502    0 -0.69065390000E+03  0.55139682367E+03  0.43066511727E+03  0.98311511171E+03  0.12699999809E+01 0. -1.
       -4    1    3    3    0  502  0.69065390000E+03 -0.55139682367E+03 -0.25263019929E+03  0.91916532639E+03  0.12699999809E+01 0.  1.
</event>
<event>
 5   0  0.1255141E-04  0.1867757E+04  0.7818609E-02  0.8671074E-01
        1   -1    0    0  501    0  0.00000000000E+00  0.00000000000E+00  0.15703010177E+04  0.15703010177E+04  0.50400001928E-02 0.  1.
       -1   -1    0    0    0  501  0.00000000000E+00  0.00000000000E+00 -0.55538982667E+03  0.55538982670E+03  0.50400001928E-02 0. -1.
    10030    2    1    2    0    0  0.00000000000E+00  0.00000000000E+00  0.10149111910E+04  0.21256908444E+04  0.18677571685E+04 0.  0.
        2    1    3    3  502    0 -0.53612414358E+03 -0.42552372036E+03 -0.21559923993E+03  0.71762285790E+03  0.25500000920E-02 0. -1.
       -2    1    3    3    0  502  0.53612414358E+03  0.42552372036E+03  0.12305104310E+04  0.14080679865E+04  0.25500000920E-02 0.  1.
</event>
<event>
 5   0  0.2562925E-04  0.1977671E+04  0.7818609E-02  0.8617132E-01
       -2   -1    0    0    0  501  0.00000000000E+00  0.00000000000E+00  0.50968756772E+03  0.50968756773E+03  0.25500000920E-02 0. -1.
        2   -1    0    0  501    0  0.00000000000E+00  0.00000000000E+00 -0.19184215863E+04  0.19184215863E+04  0.25500000920E-02 0.  1.
    10030    2    1    2    0    0  0.00000000000E+00  0.00000000000E+00 -0.14087340186E+04  0.24281091541E+04  0.19776709860E+04 0.  0.
        4    1    3    3  502    0 -0.19156829534E+03  0.33053085961E+03  0.41541982881E+03  0.56437957795E+03  0.12699999809E+01 0. -1.
       -4    1    3    3    0  502  0.19156829534E+03 -0.33053085961E+03 -0.18241538474E+04  0.18637295761E+04  0.12699999809E+01 0.  1.
</event>
<event>
 5   0  0.2595012E-04  0.1910458E+04  0.7818609E-02  0.8649668E-01
        2   -1    0    0  501    0  0.00000000000E+00  0.00000000000E+00  0.12074673041E+04  0.12074673041E+04  0.25500000920E-02 0. -1.
       -2   -1    0    0    0  501  0.00000000000E+00  0.00000000000E+00 -0.75568331294E+03  0.75568331294E+03  0.25500000920E-02 0.  1.
    10030    2    1    2    0    0  0.00000000000E+00  0.00000000000E+00  0.45178399112E+03  0.19631506170E+04  0.19104584713E+04 0.  0.
        1    1    3    3  502    0 -0.66239184583E+03 -0.51305867665E+03  0.69731619515E+03  0.10900651536E+04  0.50400001928E-02 0. -1.
       -1    1    3    3    0  502  0.66239184583E+03  0.51305867665E+03 -0.24553220404E+03  0.87308546337E+03  0.50400001928E-02 0.  1.
</event>
<event>
 5   0  0.1317527E-04  0.1875074E+04  0.7818609E-02  0.8667364E-01
        1   -1    0    0  501    0  0.00000000000E+00  0.00000000000E+00  0.20482415575E+04  0.20482415575E+04  0.50400001928E-02 0.  1.
       -1   -1    0    0    0  501  0.00000000000E+00  0.00000000000E+00 -0.42913654932E+03  0.42913654935E+03  0.50400001928E-02 0. -1.
    10030    2    1    2    0    0  0.00000000000E+00  0.00000000000E+00  0.16191050082E+04  0.24773781069E+04  0.18750736670E+04 0.  0.
        1    1    3    3  502    0  0.74868340650E+03 -0.56351602933E+03  0.76995664448E+03  0.12128109469E+04  0.50400001928E-02 0.  1.
       -1    1    3    3    0  502 -0.74868340650E+03  0.56351602933E+03  0.84914836371E+03  0.12645671600E+04  0.50400001928E-02 0. -1.
</event>
<event>
 5   0  0.2541124E-04  0.1934078E+04  0.7818609E-02  0.8638077E-01
       -2   -1    0    0    0  501  0.00000000000E+00  0.00000000000E+00  0.65980218853E+03  0.65980218854E+03  0.25500000920E-02 0. -1.
        2   -1    0    0  501    0  0.00000000000E+00  0.00000000000E+00 -0.14173409663E+04  0.14173409663E+04  0.25500000920E-02 0.  1.
    10030    2    1    2    0    0  0.00000000000E+00  0.00000000000E+00 -0.75753877773E+03  0.20771431548E+04  0.19340782522E+04 0.  0.
        5    1    3    3  502    0  0.17389058006E+03 -0.37702075381E+03 -0.13167337601E+04  0.13806492920E+04  0.46999998093E+01 0.  1.
       -5    1    3    3    0  502 -0.17389058006E+03  0.37702075381E+03  0.55919498234E+03  0.69649386279E+03  0.46999998093E+01 0. -1.
</event>
<event>
 5   0  0.1277709E-04  0.1905680E+04  0.7818609E-02  0.8652034E-01
       -1   -1    0    0    0  501  0.00000000000E+00  0.00000000000E+00  0.10424497755E+04  0.10424497755E+04  0.50400001928E-02 0.  1.
        1   -1    0    0  501    0  0.00000000000E+00  0.00000000000E+00 -0.87093286058E+03  0.87093286059E+03  0.50400001928E-02 0. -1.
    10030    2    1    2    0    0  0.00000000000E+00  0.00000000000E+00  0.17151691496E+03  0.19133826361E+04  0.19056796846E+04 0.  0.
        4    1    3    3  502    0  0.46527101394E+03 -0.67812741630E+03  0.56891896018E+03  0.10000021527E+04  0.12699999809E+01 0.  1.
       -4    1    3    3    0  502 -0.46527101394E+03  0.67812741630E+03 -0.39740204522E+03  0.91338048348E+03  0.12699999809E+01 0. -1.
</event>
<event>
 5   0  0.1239615E-04  0.1572575E+04  0.7818609E-02  0.8837576E-01
       -1   -1    0    0    0  501  0.00000000000E+00  0.00000000000E+00  0.42319142524E+03  0.42319142527E+03  0.50400001928E-02 0. -1.
        1   -1    0    0  501    0  0.00000000000E+00  0.00000000000E+00 -0.14609175356E+04  0.14609175356E+04  0.50400001928E-02 0.  1.
    10030    2    1    2    0    0  0.00000000000E+00  0.00000000000E+00 -0.10377261104E+04  0.18841089609E+04  0.15725746712E+04 0.  0.
        3    1    3    3  502    0 -0.73924729605E+02  0.50795118611E+03 -0.12324834591E+04  0.13351010300E+04  0.10100000352E+00 0.  1.
       -3    1    3    3    0  502  0.73924729605E+02 -0.50795118611E+03  0.19475734872E+03  0.54900793091E+03  0.10100000352E+00 0. -1.
</event>
<event>
 5   0  0.1255141E-04  0.1934332E+04  0.7818609E-02  0.8637953E-01
        1   -1    0    0  501    0  0.00000000000E+00  0.00000000000E+00  0.14863756830E+04  0.14863756830E+04  0.50400001928E-02 0.  1.
       -1   -1    0    0    0  501  0.00000000000E+00  0.00000000000E+00 -0.62932276785E+03  0.62932276787E+03  0.50400001928E-02 0. -1.
    10030    2    1    2    0    0  0.00000000000E+00  0.00000000000E+00  0.85705291512E+03  0.21156984508E+04  0.19343319869E+04 0.  0.
        2    1    3    3  502    0  0.29964041614E+03  0.83936690146E+03  0.83936308423E+03  0.12242759335E+04  0.25500000920E-02 0. -1.
       -2    1    3    3    0  502 -0.29964041614E+03 -0.83936690146E+03  0.17689830885E+02  0.89142251731E+03  0.25500000920E-02 0.  1.
</event>
<event>
 5   0  0.2562925E-04  0.1907335E+04  0.7818609E-02  0.8651214E-01
       -2   -1    0    0    0  501  0.00000000000E+00  0.00000000000E+00  0.78278096229E+03  0.78278096229E+03  0.25500000920E-02 0.  1.
        2   -1    0    0  501    0  0.00000000000E+00  0.00000000000E+00 -0.11618600357E+04  0.11618600357E+04  0.25500000920E-02 0. -1.
    10030    2    1    2    0    0  0.00000000000E+00  0.00000000000E+00 -0.37907907341E+03  0.19446409980E+04  0.19073352268E+04 0.  0.
        4    1    3    3  502    0 -0.17065239268E+03  0.85931262420E+03  0.19457843106E+03  0.89744236805E+03  0.12699999809E+01 0.  1.
       -4    1    3    3    0  502  0.17065239268E+03 -0.85931262420E+03 -0.57365750448E+03  0.10471986300E+04  0.12699999809E+01 0. -1.
</event>
<event>
 5   0  0.1317527E-04  0.1764101E+04  0.7818609E-02  0.8725627E-01
       -1   -1    0    0    0  501  0.00000000000E+00  0.00000000000E+00  0.60591385583E+03  0.60591385585E+03  0.50400001928E-02 0. -1.
        1   -1    0    0  501    0  0.00000000000E+00  0.00000000000E+00 -0.12840318870E+04  0.12840318870E+04  0.50400001928E-02 0.  1.
    10030    2    1    2    0    0  0.00000000000E+00  0.00000000000E+00 -0.67811803114E+03  0.18899457428E+04  0.17641005773E+04 0.  0.
        1    1    3    3  502    0  0.41442426256E+03  0.63101552672E+02 -0.11704904770E+04  0.12432928987E+04  0.50400001928E-02 0.  1.
       -1    1    3    3    0  502 -0.41442426256E+03 -0.63101552672E+02  0.49237244583E+03  0.64665284410E+03  0.50400001928E-02 0. -1.
</event>
<event>
 5   0  0.1239615E-04  0.1923477E+04  0.7818609E-02  0.8643258E-01
       -1   -1    0    0    0  501  0.00000000000E+00  0.00000000000E+00  0.17343851039E+04  0.17343851039E+04  0.50400001928E-02 0. -1.
        1   -1    0    0  501    0  0.00000000000E+00  0.00000000000E+00 -0.53329610404E+03  0.53329610406E+03  0.50400001928E-02 0.  1.
    10030    2    1    2    0    0  0.00000000000E+00  0.00000000000E+00  0.12010889999E+04  0.22676812080E+04  0.19234768716E+04 0.  0.
        3    1    3    3  502    0 -0.35432546215E+03  0.86258918454E+03  0.87787124161E+03  0.12807281372E+04  0.10100000352E+00 0. -1.
       -3    1    3    3    0  502  0.35432546215E+03 -0.86258918454E+03  0.32321775825E+03  0.98695307075E+03  0.10100000352E+00 0.  1.
</event>
<event>
 5   0  0.2608744E-04  0.1956080E+04  0.7818609E-02  0.8627434E-01
       -2   -1    0    0    0  501  0.00000000000E+00  0.00000000000E+00  0.83648891667E+03  0.83648891667E+03  0.25500000920E-02 0. -1.
        2   -1    0    0  501    0  0.00000000000E+00  0.00000000000E+00 -0.11435446920E+04  0.11435446920E+04  0.25500000920E-02 0.  1.
    10030    2    1    2    0    0  0.00000000000E+00  0.00000000000E+00 -0.30705577534E+03  0.19800336087E+04  0.19560802239E+04 0.  0.
        2    1    3    3  502    0 -0.93478731396E+03  0.10497593555E+03  0.11754836908E+03  0.94797937133E+03  0.25500000920E-02 0. -1.
       -2    1    3    3    0  502  0.93478731396E+03 -0.10497593555E+03 -0.42460414442E+03  0.10320542374E+04  0.25500000920E-02 0.  1.
</event>
<event>
 5   0  0.2562925E-04  0.1889593E+04  0.7818609E-02  0.8660054E-01
        2   -1    0    0  501    0  0.00000000000E+00  0.00000000000E+00  0.86817234014E+03  0.86817234014E+03  0.25500000920E-02 0. -1.
       -2   -1    0    0    0  501  0.00000000000E+00  0.00000000000E+00 -0.10281836044E+04  0.10281836044E+04  0.25500000920E-02 0.  1.
    10030    2    1    2    0    0  0.00000000000E+00  0.00000000000E+00 -0.16001126425E+03  0.18963559445E+04  0.18895931477E+04 0.  0.
        4    1    3    3  502    0 -0.53412047387E+03 -0.56109421958E+03 -0.62279950709E+03  0.99397798909E+03  0.12699999809E+01 0.  1.
       -4    1    3    3    0  502  0.53412047387E+03  0.56109421958E+03  0.46278824285E+03  0.90237795545E+03  0.12699999809E+01 0. -1.
</event>
<event>
 5   0  0.1324058E-04  0.1907645E+04  0.7818609E-02  0.8651060E-01
        1   -1    0    0  501    0  0.00000000000E+00  0.00000000000E+00  0.14310019755E+04  0.14310019755E+04  0.50400001928E-02 0.  1.
       -1   -1    0    0    0  501  0.00000000000E+00  0.00000000000E+00 -0.63576276145E+03  0.63576276147E+03  0.50400001928E-02 0. -1.
    10030    2    1    2    0    0  0.00000000000E+00  0.00000000000E+00  0.79523921401E+03  0.20667647369E+04  0.19076454257E+04 0.  0.
        5    1    3    3  502    0  0.73372345827E+03 -0.60619012623E+03  0.46561690063E+03  0.10595460210E+04  0.46999998093E+01 0.  1.
       -5    1    3    3    0  502 -0.73372345827E+03  0.60619012623E+03  0.32962231337E+03  0.10072187160E+04  0.46999998093E+01 0. -1.
</event>
<event>
 5   0  0.2562925E-04  0.1915351E+04  0.7818609E-02  0.8647252E-01
        2   -1    0    0  501    0  0.00000000000E+00  0.00000000000E+00  0.16289739756E+04  0.16289739756E+04  0.25500000920E-02 0.  1.
       -2   -1    0    0    0  501  0.00000000000E+00  0.00000000000E+00 -0.56301870750E+03  0.56301870751E+03  0.25500000920E-02 0. -1.
    10030    2    1    2    0    0  0.00000000000E+00  0.00000000000E+00  0.10659552681E+04  0.21919926831E+04  0.19153514793E+04 0.  0.
        4    1    3    3  502    0  0.44443544017E+03  0.91139360422E+01 -0.43779308120E+03  0.62391531409E+03  0.12699999809E+01 0. -1.
       -4    1    3    3    0  502 -0.44443544017E+03 -0.91139360422E+01  0.15037483493E+04  0.15680773690E+04  0.12699999809E+01 0.  1.
</event>
<event>
 5   0  0.1255141E-04  0.1948936E+04  0.7818609E-02  0.8630874E-01
        1   -1    0    0  501    0  0.00000000000E+00  0.00000000000E+00  0.12181260745E+04  0.12181260745E+04  0.50400001928E-02 0. -1.
       -1   -1    0    0    0  501  0.00000000000E+00  0.00000000000E+00 -0.77954788191E+03  0.77954788193E+03  0.50400001928E-02 0.  1.
    10030    2    1    2    0    0  0.00000000000E+00  0.00000000000E+00  0.43857819260E+03  0.19976739565E+04  0.19489357109E+04 0.  0.
        2    1    3    3  502    0 -0.87482914023E+03 -0.39443409991E+03  0.45692268515E+02  0.96072476140E+03  0.25500000920E-02 0.  1.
       -2    1    3    3    0  502  0.87482914023E+03  0.39443409991E+03  0.39288592409E+03  0.10369491951E+04  0.25500000920E-02 0. -1.
</event>
<event>
 5   0  0.2541124E-04  0.1889231E+04  0.7818609E-02  0.8660236E-01
        2   -1    0    0  501    0  0.00000000000E+00  0.00000000000E+00  0.12479678715E+04  0.12479678715E+04  0.25500000920E-02 0.  1.
       -2   -1    0    0    0  501  0.00000000000E+00  0.00000000000E+00 -0.71500094692E+03  0.71500094692E+03  0.25500000920E-02 0. -1.
    10030    2    1    2    0    0  0.00000000000E+00  0.00000000000E+00  0.53296692463E+03  0.19629688185E+04  0.18892307534E+04 0.  0.
        5    1    3    3  502    0  0.20611407639E+03 -0.75502126521E+03  0.81602759064E+03  0.11306914885E+04  0.46999998093E+01 0.  1.
       -5    1    3    3    0  502 -0.20611407639E+03  0.75502126521E+03 -0.28306066601E+03  0.83227733001E+03  0.46999998093E+01 0. -1.
</event>
<event>
 5   0  0.1277709E-04  0.1911035E+04  0.7818609E-02  0.8649383E-01
       -1   -1    0    0    0  501  0.00000000000E+00  0.00000000000E+00  0.10477336683E+04  0.10477336683E+04  0.50400001928E-02 0.  1.
        1   -1    0    0  501    0  0.00000000000E+00  0.00000000000E+00 -0.87141797118E+03  0.87141797119E+03  0.50400001928E-02 0. -1.
    10030    2    1    2    0    0  0.00000000000E+00  0.00000000000E+00  0.17631569708E+03  0.19191516395E+04  0.19110352666E+04 0.  0.
        4    1    3    3  502    0  0.56725102852E+03  0.21619093345E+03  0.82919429056E+03  0.10276560872E+04  0.12699999809E+01 0.  1.
       -4    1    3    3    0  502 -0.56725102852E+03 -0.21619093345E+03 -0.65287859348E+03  0.89149555231E+03  0.12699999809E+01 0. -1.
</event>
<event>
 5   0  0.2651828E-04  0.1928721E+04  0.7818609E-02  0.8640691E-01
        2   -1    0    0  501    0  0.00000000000E+00  0.00000000000E+00  0.18049135928E+04  0.18049135928E+04  0.25500000920E-02 0.  1.
       -2   -1    0    0    0  501  0.00000000000E+00  0.00000000000E+00 -0.51525508669E+03  0.51525508670E+03  0.25500000920E-02 0. -1.
    10030    2    1    2    0    0  0.00000000000E+00  0.00000000000E+00  0.12896585061E+04  0.23201686795E+04  0.19287207260E+04 0.  0.
        3    1    3    3  502    0 -0.17474739022E+03 -0.87916080268E+03  0.10727347640E+04  0.13979342801E+04  0.10100000352E+00 0.  1.
       -3    1    3    3    0  502  0.17474739022E+03  0.87916080268E+03  0.21692374211E+03  0.92223439940E+03  0.10100000352E+00 0. -1.
</event>
<event>
 5   0  0.1255141E-04  0.1946650E+04  0.7818609E-02  0.8631978E-01
        1   -1    0    0  501    0  0.00000000000E+00  0.00000000000E+00  0.12271186047E+04  0.12271186047E+04  0.50400001928E-02 0.  1.
       -1   -1    0    0    0  501  0.00000000000E+00  0.00000000000E+00 -0.77202119073E+03  0.77202119075E+03  0.50400001928E-02 0. -1.
    10030    2    1    2    0    0  0.00000000000E+00  0.00000000000E+00  0.45509741398E+03  0.19991397955E+04  0.19466500111E+04 0.  0.
        2    1    3    3  502    0 -0.76318220599E+03  0.41294929887E+03  0.68033086233E+03  0.11026442242E+04  0.25500000920E-02 0.  1.
       -2    1    3    3    0  502  0.76318220599E+03 -0.41294929887E+03 -0.22523344835E+03  0.89649557124E+03  0.25500000920E-02 0. -1.
</event>
<event>
 5   0  0.2608744E-04  0.1884243E+04  0.7818609E-02  0.8662740E-01
       -2   -1    0    0    0  501  0.00000000000E+00  0.00000000000E+00  0.42607041108E+03  0.42607041109E+03  0.25500000920E-02 0. -1.
        2   -1    0    0  501    0  0.00000000000E+00  0.00000000000E+00 -0.20832072239E+04  0.20832072239E+04  0.25500000920E-02 0.  1.
    10030    2    1    2    0    0  0.00000000000E+00  0.00000000000E+00 -0.16571368128E+04  0.25092776349E+04  0.18842430398E+04 0.  0.
        2    1    3    3  502    0  0.33029230462E+03 -0.54504514968E+03  0.95441118065E+02  0.64441929572E+03  0.25500000920E-02 0. -1.
       -2    1    3    3    0  502 -0.33029230462E+03  0.54504514968E+03 -0.17525779308E+04  0.18648583392E+04  0.25500000920E-02 0.  1.
</event>
<event>
 5   0  0.9266125E-05  0.1882330E+04  0.7818609E-02  0.8663702E-01
        3   -1    0    0  501    0  0.00000000000E+00  0.00000000000E+00  0.11304872570E+04  0.11304872615E+04  0.10100000352E+00 0. -1.
       -3   -1    0    0    0  501  0.00000000000E+00  0.00000000000E+00 -0.78354834151E+03  0.78354834802E+03  0.10100000352E+00 0.  1.
    10030    2    1    2    0    0  0.00000000000E+00  0.00000000000E+00  0.34693891546E+03  0.19140356095E+04  0.18823298604E+04 0.  0.
        5    1    3    3  502    0 -0.86122969249E+03 -0.31717568422E+03  0.38543284735E+03  0.99543837966E+03  0.46999998093E+01 0. -1.
       -5    1    3    3    0  502  0.86122969249E+03  0.31717568422E+03 -0.38493931892E+02  0.91859722984E+03  0.46999998093E+01 0.  1.
</event>
<event>
 5   0  0.2562925E-04  0.1874110E+04  0.7818609E-02  0.8667852E-01
        2   -1    0    0  501    0  0.00000000000E+00  0.00000000000E+00  0.13094476728E+04  0.13094476729E+04  0.25500000920E-02 0. -1.
       -2   -1    0    0    0  501  0.00000000000E+00  0.00000000000E+00 -0.67056703925E+03  0.67056703925E+03  0.25500000920E-02 0.  1.
    10030    2    1    2    0    0  0.00000000000E+00  0.00000000000E+00  0.63888063360E+03  0.19800147121E+04  0.18741104013E+04 0.  0.
        4    1    3    3  502    0  0.31797996684E+03  0.88043850223E+03  0.27477083408E+03  0.97559409576E+03  0.12699999809E+01 0.  1.
       -4    1    3    3    0  502 -0.31797996684E+03 -0.88043850223E+03  0.36410979952E+03  0.10044206163E+04  0.12699999809E+01 0. -1.
</event>
<event>
 5   0  0.2541124E-04  0.1914085E+04  0.7818609E-02  0.8647877E-01
        2   -1    0    0  501    0  0.00000000000E+00  0.00000000000E+00  0.15086078787E+04  0.15086078787E+04  0.25500000920E-02 0.  1.
       -2   -1    0    0    0  501  0.00000000000E+00  0.00000000000E+00 -0.60713619943E+03  0.60713619944E+03  0.25500000920E-02 0. -1.
    10030    2    1    2    0    0  0.00000000000E+00  0.00000000000E+00  0.90147167923E+03  0.21157440781E+04  0.19140851119E+04 0.  0.
        5    1    3    3  502    0 -0.18324099533E+03  0.77003864777E+03  0.10453425805E+04  0.13112207984E+04  0.46999998093E+01 0. -1.
       -5    1    3    3    0  502  0.18324099533E+03 -0.77003864777E+03 -0.14387090127E+03  0.80452327975E+03  0.46999998093E+01 0.  1.
</event>
<event>
 5   0  0.1317527E-04  0.1839855E+04  0.7818609E-02  0.8685387E-01
        1   -1    0    0  501    0  0.00000000000E+00  0.00000000000E+00  0.43449104127E+03  0.43449104130E+03  0.50400001928E-02 0.  1.
       -1   -1    0    0    0  501  0.00000000000E+00  0.00000000000E+00 -0.19477199871E+04  0.19477199871E+04  0.50400001928E-02 0. -1.
    10030    2    1    2    0    0  0.00000000000E+00  0.00000000000E+00 -0.15132289459E+04  0.23822110284E+04  0.18398553045E+04 0.  0.
        1    1    3    3  502    0 -0.87511277808E+03 -0.46470438590E+02 -0.39434155811E+03  0.96098238304E+03  0.50400001928E-02 0.  1.
       -1    1    3    3    0  502  0.87511277808E+03  0.46470438590E+02 -0.11188873878E+04  0.14212286454E+04  0.50400001928E-02 0. -1.
</event>
<event>
 5   0  0.1255141E-04  0.1920561E+04  0.7818609E-02  0.8644689E-01
       -1   -1    0    0    0  501  0.00000000000E+00  0.00000000000E+00  0.91383407273E+03  0.91383407275E+03  0.50400001928E-02 0. -1.
        1   -1    0    0  501    0  0.00000000000E+00  0.00000000000E+00 -0.10090872519E+04  0.10090872519E+04  0.50400001928E-02 0.  1.
    10030    2    1    2    0    0  0.00000000000E+00  0.00000000000E+00 -0.95253179162E+02  0.19229213247E+04  0.19205606610E+04 0.  0.
        2    1    3    3  502    0 -0.94012487503E+03  0.16258153073E+03 -0.15671361135E+03  0.96686436007E+03  0.25500000920E-02 0.  1.
       -2    1    3    3    0  502  0.94012487503E+03 -0.16258153073E+03  0.61460432192E+02  0.95605696458E+03  0.25500000920E-02 0. -1.
</event>
<event>
 5   0  0.2541124E-04  0.1899199E+04  0.7818609E-02  0.8655255E-01
       -2   -1    0    0    0  501  0.00000000000E+00  0.00000000000E+00  0.84927635712E+03  0.84927635713E+03  0.25500000920E-02 0.  1.
        2   -1    0    0  501    0  0.00000000000E+00  0.00000000000E+00 -0.10617734502E+04  0.10617734502E+04  0.25500000920E-02 0. -1.
    10030    2    1    2    0    0  0.00000000000E+00  0.00000000000E+00 -0.21249709309E+03  0.19110498073E+04  0.18991988710E+04 0.  0.
        5    1    3    3  502    0  0.55988347673E+03  0.42629578483E+03  0.53531871986E+03  0.88418653321E+03  0.46999998093E+01 0.  1.
       -5    1    3    3    0  502 -0.55988347673E+03 -0.42629578483E+03 -0.74781581295E+03  0.10268632741E+04  0.46999998093E+01 0. -1.
</event>
<event>
 5   0  0.1239615E-04  0.1910865E+04  0.7818609E-02  0.8649467E-01
        1   -1    0    0  501    0  0.00000000000E+00  0.00000000000E+00  0.10516339862E+04  0.10516339862E+04  0.50400001928E-02 0.  1.
       -1   -1    0    0    0  501  0.00000000000E+00  0.00000000000E+00 -0.86803096716E+03  0.86803096717E+03  0.50400001928E-02 0. -1.
    10030    2    1    2    0    0  0.00000000000E+00  0.00000000000E+00  0.18360301906E+03  0.19196649534E+04  0.19108645857E+04 0.  0.
        3    1    3    3  502    0  0.10714910976E+03 -0.36823870356E+03 -0.78731158738E+03  0.87575123200E+03  0.10100000352E+00 0. -1.
       -3    1    3    3    0  502 -0.10714910976E+03  0.36823870356E+03  0.97091460644E+03  0.10439137214E+04  0.10100000352E+00 0.  1.
</event>
<event>
 5   0  0.2595012E-04  0.1908655E+04  0.7818609E-02  0.8650560E-01
       -2   -1    0    0    0  501  0.00000000000E+00  0.00000000000E+00  0.52482316086E+03  0.52482316086E+03  0.25500000920E-02 0. -1.
        2   -1    0    0  501    0  0.00000000000E+00  0.00000000000E+00 -0.17353286799E+04  0.17353286799E+04  0.25500000920E-02 0.  1.
    10030    2    1    2    0    0  0.00000000000E+00  0.00000000000E+00 -0.12105055190E+04  0.22601518407E+04  0.19086546916E+04 0.  0.
        1    1    3    3  502    0  0.94957139004E+03  0.33832287348E+02 -0.49993419529E+03  0.10736687795E+04  0.50400001928E-02 0.  1.
       -1    1    3    3    0  502 -0.94957139004E+03 -0.33832287348E+02 -0.71057132373E+03  0.11864830612E+04  0.50400001928E-02 0. -1.
</event>
<event>
 5   0  0.1317527E-04  0.1900649E+04  0.7818609E-02  0.8654533E-01
       -1   -1    0    0    0  501  0.00000000000E+00  0.00000000000E+00  0.10759726686E+04  0.10759726686E+04  0.50400001928E-02 0.  1.
        1   -1    0    0  501    0  0.00000000000E+00  0.00000000000E+00 -0.83934913219E+03  0.83934913220E+03  0.50400001928E-02 0. -1.
    10030    2    1    2    0    0  0.00000000000E+00  0.00000000000E+00  0.23662353641E+03  0.19153218008E+04  0.19006490740E+04 0.  0.
        1    1    3    3  502    0  0.90727825757E+02 -0.23032036384E+02 -0.83469220977E+03  0.83992445978E+03  0.50400001928E-02 0. -1.
       -1    1    3    3    0  502 -0.90727825757E+02  0.23032036384E+02  0.10713157462E+04  0.10753973410E+04  0.50400001928E-02 0.  1.
</event>
<event>
 5   0  0.2595012E-04  0.1907320E+04  0.7818609E-02  0.8651221E-01
       -2   -1    0    0    0  501  0.00000000000E+00  0.00000000000E+00  0.11622672821E+04  0.11622672821E+04  0.25500000920E-02 0.  1.
        2   -1    0    0  501    0  0.00000000000E+00  0.00000000000E+00 -0.78249395312E+03  0.78249395312E+03  0.25500000920E-02 0. -1.
    10030    2    1    2    0    0  0.00000000000E+00  0.00000000000E+00  0.37977332895E+03  0.19447612352E+04  0.19073197111E+04 0.  0.
        1    1    3    3  502    0  0.49495093934E+03  0.41152977084E+03 -0.52758398358E+03  0.83227281849E+03  0.50400001928E-02 0. -1.
       -1    1    3    3    0  502 -0.49495093934E+03 -0.41152977084E+03  0.90735731253E+03  0.11124884167E+04  0.50400001928E-02 0.  1.
</event>
<event>
 5   0  0.2595012E-04  0.1902716E+04  0.7818609E-02  0.8653506E-01
        2   -1    0    0  501    0  0.00000000000E+00  0.00000000000E+00  0.18514060748E+04  0.18514060748E+04  0.25500000920E-02 0. -1.
       -2   -1    0    0    0  501  0.00000000000E+00  0.00000000000E+00 -0.48886172762E+03  0.48886172762E+03  0.25500000920E-02 0.  1.
    10030    2    1    2    0    0  0.00000000000E+00  0.00000000000E+00  0.13625443472E+04  0.23402678025E+04  0.19027155040E+04 0.  0.
        1    1    3    3  502    0  0.24812482610E+03  0.74257650036E+03  0.13460160494E+04  0.15571592705E+04  0.50400001928E-02 0. -1.
       -1    1    3    3    0  502 -0.24812482610E+03 -0.74257650036E+03  0.16528297772E+02  0.78310853199E+03  0.50400001928E-02 0.  1.
</event>
<event>
 5   0  0.2541124E-04  0.1921105E+04  0.7818609E-02  0.8644422E-01
       -2   -1    0    0    0  501  0.00000000000E+00  0.00000000000E+00  0.55736314551E+03  0.55736314551E+03  0.25500000920E-02 0. -1.
        2   -1    0    0  501    0  0.00000000000E+00  0.00000000000E+00 -0.16554045452E+04  0.16554045452E+04  0.25500000920E-02 0.  1.
    10030    2    1    2    0    0  0.00000000000E+00  0.00000000000E+00 -0.10980413996E+04  0.22127676907E+04  0.19211053947E+04 0.  0.
        5    1    3    3  502    0  0.12157401438E+03 -0.32999208108E+03  0.48053142393E+03  0.59548933990E+03  0.46999998093E+01 0. -1.
       -5    1    3    3    0  502 -0.12157401438E+03  0.32999208108E+03 -0.15785728236E+04  0.16172783508E+04  0.46999998093E+01 0.  1.
</event>
<event>
 5   0  0.2651828E-04  0.1896384E+04  0.7818609E-02  0.8656658E-01
        2   -1    0    0  501    0  0.00000000000E+00  0.00000000000E+00  0.12521601836E+04  0.12521601836E+04  0.25500000920E-02 0. -1.
       -2   -1    0    0    0  501  0.00000000000E+00  0.00000000000E+00 -0.71801380658E+03  0.71801380659E+03  0.25500000920E-02 0.  1.
    10030    2    1    2    0    0  0.00000000000E+00  0.00000000000E+00  0.53414637702E+03  0.19701739902E+04  0.18963842436E+04 0.  0.
        3    1    3    3  502    0  0.47310939319E+02  0.88043899994E+03  0.62943884489E+03  0.10833302485E+04  0.10100000352E+00 0.  1.
       -3    1    3    3    0  502 -0.47310939319E+02 -0.88043899994E+03 -0.95292467867E+02  0.88684374172E+03  0.10100000352E+00 0. -1.
</event>
<event>
 5   0  0.1255141E-04  0.1924955E+04  0.7818609E-02  0.8642533E-01
        1   -1    0    0  501    0  0.00000000000E+00  0.00000000000E+00  0.74242264674E+03  0.74242264676E+03  0.50400001928E-02 0.  1.
       -1   -1    0    0    0  501  0.00000000000E+00  0.00000000000E+00 -0.12477569832E+04  0.12477569833E+04  0.50400001928E-02 0. -1.
    10030    2    1    2    0    0  0.00000000000E+00  0.00000000000E+00 -0.50533433650E+03  0.19901796300E+04  0.19249551081E+04 0.  0.
        2    1    3    3  502    0  0.81119252511E+03  0.41798968254E+03  0.63664662348E+02  0.91476875588E+03  0.25500000920E-02 0.  1.
       -2    1    3    3    0  502 -0.81119252511E+03 -0.41798968254E+03 -0.56899899885E+03  0.10754108741E+04  0.25500000920E-02 0. -1.
</event>
<event>
 5   0  0.1239615E-04  0.1903011E+04  0.7818609E-02  0.8653359E-01
        1   -1    0    0  501    0  0.00000000000E+00  0.00000000000E+00  0.62198900853E+03  0.62198900855E+03  0.50400001928E-02 0.  1.
       -1   -1    0    0    0  501  0.00000000000E+00  0.00000000000E+00 -0.14555928520E+04  0.14555928521E+04  0.50400001928E-02 0. -1.
    10030    2    1    2    0    0  0.00000000000E+00  0.00000000000E+00 -0.83360384351E+03  0.20775818606E+04  0.19030110403E+04 0.  0.
        3    1    3    3  502    0  0.27129452916E+03  0.71685710575E+03  0.19872494441E+03  0.79181844216E+03  0.10100000352E+00 0.  1.
       -3    1    3    3    0  502 -0.27129452916E+03 -0.71685710575E+03 -0.10323287879E+04  0.12857634184E+04  0.10100000352E+00 0. -1.
</event>
<event>
 5   0  0.1255141E-04  0.1888449E+04  0.7818609E-02  0.8660627E-01
       -1   -1    0    0    0  501  0.00000000000E+00  0.00000000000E+00  0.73319285133E+03  0.73319285135E+03  0.50400001928E-02 0.  1.
        1   -1    0    0  501    0  0.00000000000E+00  0.00000000000E+00 -0.12159970503E+04  0.12159970503E+04  0.50400001928E-02 0. -1.
    10030    2    1    2    0    0  0.00000000000E+00  0.00000000000E+00 -0.48280419895E+03  0.19491899016E+04  0.18884494640E+04 0.  0.
        2    1    3    3  502    0 -0.83454956476E+03  0.35800235841E+03  0.25610775183E+02  0.90845725077E+03  0.25500000920E-02 0.  1.
       -2    1    3    3    0  502  0.83454956476E+03 -0.35800235841E+03 -0.50841497413E+03  0.10407326509E+04  0.25500000920E-02 0. -1.
</event>
<event>
 5   0  0.1317527E-04  0.1756469E+04  0.7818609E-02  0.8729798E-01
        1   -1    0    0  501    0  0.00000000000E+00  0.00000000000E+00  0.81766102492E+03  0.81766102494E+03  0.50400001928E-02 0.  1.
       -1   -1    0    0    0  501  0.00000000000E+00  0.00000000000E+00 -0.94329526634E+03  0.94329526636E+03  0.50400001928E-02 0. -1.
    10030    2    1    2    0    0  0.00000000000E+00  0.00000000000E+00 -0.12563424142E+03  0.17609562913E+04  0.17564689286E+04 0.  0.
        1    1    3    3  502    0 -0.15606773759E+03  0.72011214183E+03 -0.54192621943E+03  0.91465986184E+03  0.50400001928E-02 0. -1.
       -1    1    3    3    0  502  0.15606773759E+03 -0.72011214183E+03  0.41629197801E+03  0.84629642946E+03  0.50400001928E-02 0.  1.
</event>
<event>
 5   0  0.2595012E-04  0.1908431E+04  0.7818609E-02  0.8650671E-01
        2   -1    0    0  501    0  0.00000000000E+00  0.00000000000E+00  0.18889945038E+04  0.18889945038E+04  0.25500000920E-02 0.  1.
       -2   -1    0    0    0  501  0.00000000000E+00  0.00000000000E+00 -0.48201673429E+03  0.48201673430E+03  0.25500000920E-02 0. -1.
    10030    2    1    2    0    0  0.00000000000E+00  0.00000000000E+00  0.14069777695E+04  0.23710112381E+04  0.19084307290E+04 0.  0.
        1    1    3    3  502    0  0.35748143208E+03  0.63222841885E+03  0.14723866981E+04  0.16417759703E+04  0.50400001928E-02 0.  1.
       -1    1    3    3    0  502 -0.35748143208E+03 -0.63222841885E+03 -0.65408928555E+02  0.72923526783E+03  0.50400001928E-02 0. -1.
</event>
<event>
 5   0  0.1239615E-04  0.1585969E+04  0.7818609E-02  0.8829214E-01
       -1   -1    0    0    0  501  0.00000000000E+00  0.00000000000E+00  0.32949540834E+03  0.32949540838E+03  0.50400001928E-02 0. -1.
        1   -1    0    0  501    0  0.00000000000E+00  0.00000000000E+00 -0.19084472550E+04  0.19084472550E+04  0.50400001928E-02 0.  1.
    10030    2    1    2    0    0  0.00000000000E+00  0.00000000000E+00 -0.15789518466E+04  0.22379426633E+04  0.15859692401E+04 0.  0.
        3    1    3    3  502    0  0.39940784290E+03 -0.68483074292E+03 -0.81411249079E+03  0.11363533470E+04  0.10100000352E+00 0. -1.
       -3    1    3    3    0  502 -0.39940784290E+03  0.68483074292E+03 -0.76483935583E+03  0.11015893163E+04  0.10100000352E+00 0.  1.
</event>
<event>
 5   0  0.2608744E-04  0.1863022E+04  0.7818609E-02  0.8673485E-01
        2   -1    0    0  501    0  0.00000000000E+00  0.00000000000E+00  0.76834042414E+03  0.76834042414E+03  0.25500000920E-02 0.  1.
       -2   -1    0    0    0  501  0.00000000000E+00  0.00000000000E+00 -0.11293342049E+04  0.11293342049E+04  0.25500000920E-02 0. -1.
    10030    2    1    2    0    0  0.00000000000E+00  0.00000000000E+00 -0.36099378077E+03  0.18976746291E+04  0.18630224067E+04 0.  0.
        2    1    3    3  502    0 -0.58656952814E+03 -0.55808685088E+03  0.28871009502E+03  0.85958028330E+03  0.25500000920E-02 0. -1.
       -2    1    3    3    0  502  0.58656952814E+03  0.55808685088E+03 -0.64970387579E+03  0.10380943458E+04  0.25500000920E-02 0.  1.
</event>
<event>
 5   0  0.1324058E-04  0.1462899E+04  0.7818609E-02  0.8909506E-01
       -1   -1    0    0    0  501  0.00000000000E+00  0.00000000000E+00  0.26548729446E+03  0.26548729451E+03  0.50400001928E-02 0.  1.
        1   -1    0    0  501    0  0.00000000000E+00  0.00000000000E+00 -0.20152323091E+04  0.20152323091E+04  0.50400001928E-02 0. -1.
    10030    2    1    2    0    0  0.00000000000E+00  0.00000000000E+00 -0.17497450147E+04  0.22807196036E+04  0.14628992768E+04 0.  0.
        5    1    3    3  502    0 -0.72510302085E+03 -0.26248984464E+02 -0.10188884157E+04  0.12508473502E+04  0.46999998093E+01 0.  1.
       -5    1    3    3    0  502  0.72510302085E+03  0.26248984464E+02 -0.73085659898E+03  0.10298722534E+04  0.46999998093E+01 0. -1.
</event>
<event>
 5   0  0.2562925E-04  0.1872132E+04  0.7818609E-02  0.8668854E-01
        2   -1    0    0  501    0  0.00000000000E+00  0.00000000000E+00  0.20702393972E+04  0.20702393972E+04  0.25500000920E-02 0.  1.
       -2   -1    0    0    0  501  0.00000000000E+00  0.00000000000E+00 -0.42324538770E+03  0.42324538771E+03  0.25500000920E-02 0. -1.
    10030    2    1    2    0    0  0.00000000000E+00  0.00000000000E+00  0.16469940095E+04  0.24934847849E+04  0.18721317008E+04 0.  0.
        4    1    3    3  502    0  0.47275046708E+03 -0.97362253667E+02  0.18917118754E+04  0.19523185818E+04  0.12699999809E+01 0.  1.
       -4    1    3    3    0  502 -0.47275046708E+03  0.97362253667E+02 -0.24471786590E+03  0.54116620307E+03  0.12699999809E+01 0. -1.
</event>
<event>
 5   0  0.2595012E-04  0.1900597E+04  0.7818609E-02  0.8654559E-01
       -2   -1    0    0    0  501  0.00000000000E+00  0.00000000000E+00  0.44244990611E+03  0.44244990612E+03  0.25500000920E-02 0.  1.
        2   -1    0    0  501    0  0.00000000000E+00  0.00000000000E+00 -0.20410614317E+04  0.20410614317E+04  0.25500000920E-02 0. -1.
    10030    2    1    2    0    0  0.00000000000E+00  0.00000000000E+00 -0.15986115256E+04  0.24835113378E+04  0.19005972102E+04 0.  0.
        1    1    3    3  502    0  0.67187330316E+02 -0.44211064582E+03 -0.18949813283E+04  0.19470311234E+04  0.50400001928E-02 0. -1.
       -1    1    3    3    0  502 -0.67187330316E+02  0.44211064582E+03  0.29636980276E+03  0.53648021447E+03  0.50400001928E-02 0.  1.
</event>
<event>
 5   0  0.2595012E-04  0.1880427E+04  0.7818609E-02  0.8664661E-01
       -2   -1    0    0    0  501  0.00000000000E+00  0.00000000000E+00  0.93506049928E+03  0.93506049929E+03  0.25500000920E-02 0.  1.
        2   -1    0    0  501    0  0.00000000000E+00  0.00000000000E+00 -0.94539480024E+03  0.94539480024E+03  0.25500000920E-02 0. -1.
    10030    2    1    2    0    0  0.00000000000E+00  0.00000000000E+00 -0.10334300956E+02  0.18804552995E+04  0.18804269025E+04 0.  0.
        1    1    3    3  502    0 -0.11162346445E+03 -0.74687039553E+03  0.55495392914E+03  0.93714942727E+03  0.50400001928E-02 0.  1.
       -1    1    3    3    0  502  0.11162346445E+03  0.74687039553E+03 -0.56528823009E+03  0.94330587226E+03  0.50400001928E-02 0. -1.
</event>
<event>
 5   0  0.1277709E-04  0.1899265E+04  0.7818609E-02  0.8655222E-01
        1   -1    0    0  501    0  0.00000000000E+00  0.00000000000E+00  0.99537845620E+03  0.99537845621E+03  0.50400001928E-02 0.  1.
       -1   -1    0    0    0  501  0.00000000000E+00  0.00000000000E+00 -0.90598892787E+03  0.90598892788E+03  0.50400001928E-02 0. -1.
    10030    2    1    2    0    0  0.00000000000E+00  0.00000000000E+00  0.89389528333E+02  0.19013673841E+04  0.18992649740E+04 0.  0.
        4    1    3    3  502    0 -0.33642958842E+03 -0.77920213240E+03  0.47114684272E+03  0.97073260552E+03  0.12699999809E+01 0.  1.
       -4    1    3    3    0  502  0.33642958842E+03  0.77920213240E+03 -0.38175731439E+03  0.93063477858E+03  0.12699999809E+01 0. -1.
</event>
<event>
 5   0  0.2562925E-04  0.1875816E+04  0.7818609E-02  0.8666989E-01
       -2   -1    0    0    0  501  0.00000000000E+00  0.00000000000E+00  0.37522243790E+03  0.37522243791E+03  0.25500000920E-02 0. -1.
        2   -1    0    0  501    0  0.00000000000E+00  0.00000000000E+00 -0.23444008590E+04  0.23444008590E+04  0.25500000920E-02 0.  1.
    10030    2    1    2    0    0  0.00000000000E+00  0.00000000000E+00 -0.19691784211E+04  0.27196232969E+04  0.18758164150E+04 0.  0.
        4    1    3    3  502    0 -0.39471812230E+03 -0.12140152608E+03  0.23631386206E+03  0.47580098876E+03  0.12699999809E+01 0. -1.
       -4    1    3    3    0  502  0.39471812230E+03  0.12140152608E+03 -0.22054922831E+04  0.22438223081E+04  0.12699999809E+01 0.  1.
</event>
<event>
 5   0  0.2562925E-04  0.1881115E+04  0.7818609E-02  0.8664314E-01
       -2   -1    0    0    0  501  0.00000000000E+00  0.00000000000E+00  0.47702157952E+03  0.47702157952E+03  0.25500000920E-02 0. -1.
        2   -1    0    0  501    0  0.00000000000E+00  0.00000000000E+00 -0.18545247114E+04  0.18545247115E+04  0.25500000920E-02 0.  1.
    10030    2    1    2    0    0  0.00000000000E+00  0.00000000000E+00 -0.13775031319E+04  0.23315462910E+04  0.18811148898E+04 0.  0.
        4    1    3    3  502    0 -0.17893153610E+03 -0.19437091256E+03  0.43008743237E+03  0.50475078865E+03  0.12699999809E+01 0. -1.
       -4    1    3    3    0  502  0.17893153610E+03  0.19437091256E+03 -0.18075905643E+04  0.18267955023E+04  0.12699999809E+01 0.  1.
</event>
<event>
 5   0  0.1255141E-04  0.1842565E+04  0.7818609E-02  0.8683986E-01
       -1   -1    0    0    0  501  0.00000000000E+00  0.00000000000E+00  0.89817295001E+03  0.89817295002E+03  0.50400001928E-02 0.  1.
        1   -1    0    0  501    0  0.00000000000E+00  0.00000000000E+00 -0.94498630763E+03  0.94498630765E+03  0.50400001928E-02 0. -1.
    10030    2    1    2    0    0  0.00000000000E+00  0.00000000000E+00 -0.46813357626E+02  0.18431592577E+04  0.18425646688E+04 0.  0.
        2    1    3    3  502    0 -0.48326404876E+03 -0.78257234929E+03  0.29501947657E+02  0.92023583261E+03  0.25500000920E-02 0.  1.
       -2    1    3    3    0  502  0.48326404876E+03  0.78257234929E+03 -0.76315305283E+02  0.92292342506E+03  0.25500000920E-02 0. -1.
</event>
<event>
 5   0  0.2595012E-04  0.1892004E+04  0.7818609E-02  0.8658847E-01
        2   -1    0    0  501    0  0.00000000000E+00  0.00000000000E+00  0.78995003422E+03  0.78995003422E+03  0.25500000920E-02 0.  1.
       -2   -1    0    0    0  501  0.00000000000E+00  0.00000000000E+00 -0.11328812257E+04  0.11328812257E+04  0.25500000920E-02 0. -1.
    10030    2    1    2    0    0  0.00000000000E+00  0.00000000000E+00 -0.34293119147E+03  0.19228312599E+04  0.18920037664E+04 0.  0.
        1    1    3    3  502    0 -0.10067865861E+03  0.31811760148E+03 -0.10710918329E+04  0.11218612727E+04  0.50400001928E-02 0. -1.
       -1    1    3    3    0  502  0.10067865861E+03 -0.31811760148E+03  0.72816064143E+03  0.80096998721E+03  0.50400001928E-02 0.  1.
</event>
<event>
 5   0  0.1324058E-04  0.1904376E+04  0.7818609E-02  0.8652681E-01
       -1   -1    0    0    0  501  0.00000000000E+00  0.00000000000E+00  0.65269280549E+03  0.65269280551E+03  0.50400001928E-02 0. -1.
        1   -1    0    0  501    0  0.00000000000E+00  0.00000000000E+00 -0.13891100282E+04  0.13891100282E+04  0.50400001928E-02 0.  1.
    10030    2    1    2    0    0  0.00000000000E+00  0.00000000000E+00 -0.73641722272E+03  0.20418028337E+04  0.19043761409E+04 0.  0.
        5    1    3    3  502    0 -0.75027434914E+02 -0.66588707428E+03 -0.10934901162E+04  0.12824887664E+04  0.46999998093E+01 0.  1.
       -5    1    3    3    0  502  0.75027434914E+02  0.66588707428E+03  0.35707289344E+03  0.75931406737E+03  0.46999998093E+01 0. -1.
</event>
<event>
 5   0  0.1324058E-04  0.1910434E+04  0.7818609E-02  0.8649680E-01
       -1   -1    0    0    0  501  0.00000000000E+00  0.00000000000E+00  0.78185105296E+03  0.78185105298E+03  0.50400001928E-02 0. -1.
        1   -1    0    0  501    0  0.00000000000E+00  0.00000000000E+00 -0.11670243163E+04  0.11670243163E+04  0.50400001928E-02 0.  1.
    10030    2    1    2    0    0  0.00000000000E+00  0.00000000000E+00 -0.38517326332E+03  0.19488753693E+04  0.19104336582E+04 0.  0.
        5    1    3    3  502    0 -0.92999958280E+01  0.37386498909E+03  0.70405102220E+03  0.79722735267E+03  0.46999998093E+01 0. -1.
       -5    1    3    3    0  502  0.92999958280E+01 -0.37386498909E+03 -0.10892242855E+04  0.11516480166E+04  0.46999998093E+01 0.  1.
</event>
<event>
 5   0  0.1324058E-04  0.1900630E+04  0.7818609E-02  0.8654543E-01
        1   -1    0    0  501    0  0.00000000000E+00  0.00000000000E+00  0.11138319620E+04  0.11138319620E+04  0.50400001928E-02 0. -1.
       -1   -1    0    0    0  501  0.00000000000E+00  0.00000000000E+00 -0.81080311491E+03  0.81080311493E+03  0.50400001928E-02 0.  1.
    10030    2    1    2    0    0  0.00000000000E+00  0.00000000000E+00  0.30302884711E+03  0.19246350770E+04  0.19006298159E+04 0.  0.
        5    1    3    3  502    0  0.40720043951E+03 -0.55133893651E+02 -0.71617691511E+03  0.82570176692E+03  0.46999998093E+01 0.  1.
       -5    1    3    3    0  502 -0.40720043951E+03  0.55133893651E+02  0.10192057622E+04  0.10989333100E+04  0.46999998093E+01 0. -1.
</event>
<event>
 5   0  0.1255141E-04  0.1880143E+04  0.7818609E-02  0.8664804E-01
       -1   -1    0    0    0  501  0.00000000000E+00  0.00000000000E+00  0.74053265568E+03  0.74053265569E+03  0.50400001928E-02 0.  1.
        1   -1    0    0  501    0  0.00000000000E+00  0.00000000000E+00 -0.11933766908E+04  0.11933766908E+04  0.50400001928E-02 0. -1.
    10030    2    1    2    0    0  0.00000000000E+00  0.00000000000E+00 -0.45284403509E+03  0.19339093465E+04  0.18801429840E+04 0.  0.
        2    1    3    3  502    0  0.61706905883E+03 -0.58261233810E+03 -0.64236588313E+03  0.10643520506E+04  0.25500000920E-02 0. -1.
       -2    1    3    3    0  502 -0.61706905883E+03  0.58261233810E+03  0.18952184803E+03  0.86955729585E+03  0.25500000920E-02 0.  1.
</event>
<event>
 5   0  0.2651828E-04  0.1948422E+04  0.7818609E-02  0.8631122E-01
        2   -1    0    0  501    0  0.00000000000E+00  0.00000000000E+00  0.15981209460E+04  0.15981209461E+04  0.25500000920E-02 0.  1.
       -2   -1    0    0    0  501  0.00000000000E+00  0.00000000000E+00 -0.59387698141E+03  0.59387698142E+03  0.25500000920E-02 0. -1.
    10030    2    1    2    0    0  0.00000000000E+00  0.00000000000E+00  0.10042439646E+04  0.21919979275E+04  0.19484221754E+04 0.  0.
        3    1    3    3  502    0  0.48802762433E+03 -0.19134651481E+03  0.14259360074E+04  0.15192359785E+04  0.10100000352E+00 0.  1.
       -3    1    3    3    0  502 -0.48802762433E+03  0.19134651481E+03 -0.42169204280E+03  0.67276194898E+03  0.10100000352E+00 0. -1.
</event>
<event>
 5   0  0.2541124E-04  0.1893371E+04  0.7818609E-02  0.8658163E-01
       -2   -1    0    0    0  501  0.00000000000E+00  0.00000000000E+00  0.62572391415E+03  0.62572391415E+03  0.25500000920E-02 0. -1.
        2   -1    0    0  501    0  0.00000000000E+00  0.00000000000E+00 -0.14322831875E+04  0.14322831875E+04  0.25500000920E-02 0.  1.
    10030    2    1    2    0    0  0.00000000000E+00  0.00000000000E+00 -0.80655927336E+03  0.20580071017E+04  0.18933714292E+04 0.  0.
        5    1    3    3  502    0  0.42085107551E+03 -0.46269288398E+03 -0.11756988166E+04  0.13317244948E+04  0.46999998093E+01 0.  1.
       -5    1    3    3    0  502 -0.42085107551E+03  0.46269288398E+03  0.36913954326E+03  0.72628260687E+03  0.46999998093E+01 0. -1.
</event>
<event>
 5   0  0.2608744E-04  0.1779762E+04  0.7818609E-02  0.8717137E-01
       -2   -1    0    0    0  501  0.00000000000E+00  0.00000000000E+00  0.11171244475E+04  0.11171244475E+04  0.25500000920E-02 0.  1.
        2   -1    0    0  501    0  0.00000000000E+00  0.00000000000E+00 -0.70886286995E+03  0.70886286996E+03  0.25500000920E-02 0. -1.
    10030    2    1    2    0    0  0.00000000000E+00  0.00000000000E+00  0.40826157751E+03  0.18259873174E+04  0.17797618289E+04 0.  0.
        2    1    3    3  502    0 -0.29877907416E+02 -0.88713640520E+03  0.13936962088E+03  0.89851409672E+03  0.25500000920E-02 0.  1.
       -2    1    3    3    0  502  0.29877907416E+02  0.88713640520E+03  0.26889195662E+03  0.92747322070E+03  0.25500000920E-02 0. -1.
</event>
<event>
 5   0  0.1277709E-04  0.1893681E+04  0.7818609E-02  0.8658008E-01
        1   -1    0    0  501    0  0.00000000000E+00  0.00000000000E+00  0.12720252298E+04  0.12720252298E+04  0.50400001928E-02 0.  1.
       -1   -1    0    0    0  501  0.00000000000E+00  0.00000000000E+00 -0.70478677736E+03  0.70478677738E+03  0.50400001928E-02 0. -1.
    10030    2    1    2    0    0  0.00000000000E+00  0.00000000000E+00  0.56723845245E+03  0.19768120072E+04  0.18936806092E+04 0.  0.
        4    1    3    3  502    0 -0.22583602171E+02  0.51301103758E+03 -0.54679902441E+03  0.75012074346E+03  0.12699999809E+01 0. -1.
       -4    1    3    3    0  502  0.22583602171E+02 -0.51301103758E+03  0.11140374769E+04  0.12266912637E+04  0.12699999809E+01 0.  1.
</event>
<event>
 5   0  0.2595012E-04  0.1918387E+04  0.7818609E-02  0.8645758E-01
        2   -1    0    0  501    0  0.00000000000E+00  0.00000000000E+00  0.19923142422E+04  0.19923142422E+04  0.25500000920E-02 0. -1.
       -2   -1    0    0    0  501  0.00000000000E+00  0.00000000000E+00 -0.46180068076E+03  0.46180068076E+03  0.25500000920E-02 0.  1.
    10030    2    1    2    0    0  0.00000000000E+00  0.00000000000E+00  0.15305135615E+04  0.24541149230E+04  0.19183868988E+04 0.  0.
        1    1    3    3  502    0 -0.43130917049E+03 -0.14300525306E+03  0.18458897073E+04  0.19009962953E+04  0.50400001928E-02 0. -1.
       -1    1    3    3    0  502  0.43130917049E+03  0.14300525306E+03 -0.31537614585E+03  0.55311862774E+03  0.50400001928E-02 0.  1.
</event>
<event>
 5   0  0.1255141E-04  0.1876763E+04  0.7818609E-02  0.8666510E-01
       -1   -1    0    0    0  501  0.00000000000E+00  0.00000000000E+00  0.41045146405E+03  0.41045146408E+03  0.50400001928E-02 0. -1.
        1   -1    0    0  501    0  0.00000000000E+00  0.00000000000E+00 -0.21453436751E+04  0.21453436751E+04  0.50400001928E-02 0.  1.
    10030    2    1    2    0    0  0.00000000000E+00  0.00000000000E+00 -0.17348922110E+04  0.25557951392E+04  0.18767625874E+04 0.  0.
        2    1    3    3  502    0  0.58195001739E+03  0.14313562220E+03  0.11589601262E+03  0.61039783325E+03  0.25500000920E-02 0. -1.
       -2    1    3    3    0  502 -0.58195001739E+03 -0.14313562220E+03 -0.18507882236E+04  0.19453973059E+04  0.25500000920E-02 0.  1.
</event>
<event>
 5   0  0.1317527E-04  0.1855993E+04  0.7818609E-02  0.8677077E-01
        1   -1    0    0  501    0  0.00000000000E+00  0.00000000000E+00  0.22924090503E+04  0.22924090503E+04  0.50400001928E-02 0.  1.
       -1   -1    0    0    0  501  0.00000000000E+00  0.00000000000E+00 -0.37566469942E+03  0.37566469945E+03  0.50400001928E-02 0. -1.
    10030    2    1    2    0    0  0.00000000000E+00  0.00000000000E+00  0.19167443508E+04  0.26680737497E+04  0.18559926259E+04 0.  0.
        1    1    3    3  502    0  0.45763176078E+03 -0.47036431462E+03  0.19015901438E+04  0.20116447231E+04  0.50400001928E-02 0.  1.
       -1    1    3    3    0  502 -0.45763176078E+03  0.47036431462E+03  0.15154207004E+02  0.65642902659E+03  0.50400001928E-02 0. -1.
</event>
<event>
 5   0  0.1239615E-04  0.1896950E+04  0.7818609E-02  0.8656376E-01
        1   -1    0    0  501    0  0.00000000000E+00  0.00000000000E+00  0.21196310162E+04  0.21196310162E+04  0.50400001928E-02 0. -1.
       -1   -1    0    0    0  501  0.00000000000E+00  0.00000000000E+00 -0.42441585480E+03  0.42441585483E+03  0.50400001928E-02 0.  1.
    10030    2    1    2    0    0  0.00000000000E+00  0.00000000000E+00  0.16952151614E+04  0.25440468710E+04  0.18969501940E+04 0.  0.
        3    1    3    3  502    0  0.80035709230E+02  0.29488861316E+03  0.20518151371E+04  0.20744421843E+04  0.10100000352E+00 0. -1.
       -3    1    3    3    0  502 -0.80035709230E+02 -0.29488861316E+03 -0.35659997571E+03  0.46960468673E+03  0.10100000352E+00 0.  1.
</event>
<event>
 5   0  0.1255141E-04  0.1793912E+04  0.7818609E-02  0.8709544E-01
        1   -1    0    0  501    0  0.00000000000E+00  0.00000000000E+00  0.13726563239E+04  0.13726563239E+04  0.50400001928E-02 0. -1.
       -1   -1    0    0    0  501  0.00000000000E+00  0.00000000000E+00 -0.58611201355E+03  0.58611201358E+03  0.50400001928E-02 0.  1.
    10030    2    1    2    0    0  0.00000000000E+00  0.00000000000E+00  0.78654431038E+03  0.19587683375E+04  0.17939123300E+04 0.  0.
        2    1    3    3  502    0  0.55505400589E+02 -0.84117822284E+03  0.72780771232E+03  0.11137170728E+04  0.25500000920E-02 0. -1.
       -2    1    3    3    0  502 -0.55505400589E+02  0.84117822284E+03  0.58736598059E+02  0.84505126474E+03  0.25500000920E-02 0.  1.
</event>
<event>
 5   0  0.1239615E-04  0.1935486E+04  0.7818609E-02  0.8637392E-01
        1   -1    0    0  501    0  0.00000000000E+00  0.00000000000E+00  0.97745909278E+03  0.97745909280E+03  0.50400001928E-02 0. -1.
       -1   -1    0    0    0  501  0.00000000000E+00  0.00000000000E+00 -0.95812335185E+03  0.95812335187E+03  0.50400001928E-02 0.  1.
    10030    2    1    2    0    0  0.00000000000E+00  0.00000000000E+00  0.19335740930E+02  0.19355824447E+04  0.19354858639E+04 0.  0.
        3    1    3    3  502    0  0.86100580497E+03  0.39970315803E+03  0.19791318291E+03  0.96967172223E+03  0.10100000352E+00 0. -1.
       -3    1    3    3    0  502 -0.86100580497E+03 -0.39970315803E+03 -0.17857744198E+03  0.96591072243E+03  0.10100000352E+00 0.  1.
</event>
<event>
 5   0  0.1317527E-04  0.1897387E+04  0.7818609E-02  0.8656158E-01
        1   -1    0    0  501    0  0.00000000000E+00  0.00000000000E+00  0.16780397062E+04  0.16780397063E+04  0.50400001928E-02 0.  1.
       -1   -1    0    0    0  501  0.00000000000E+00  0.00000000000E+00 -0.53635150722E+03  0.53635150724E+03  0.50400001928E-02 0. -1.
    10030    2    1    2    0    0  0.00000000000E+00  0.00000000000E+00  0.11416881990E+04  0.22143912135E+04  0.18973867562E+04 0.  0.
        1    1    3    3  502    0  0.44559515034E+03 -0.16780608869E+03 -0.38680073472E+03  0.61345637971E+03  0.50400001928E-02 0. -1.
       -1    1    3    3    0  502 -0.44559515034E+03  0.16780608869E+03  0.15284889337E+04  0.16009348338E+04  0.50400001928E-02 0.  1.
</event>
<event>
 5   0  0.1255141E-04  0.1928820E+04  0.7818609E-02  0.8640642E-01
        1   -1    0    0  501    0  0.00000000000E+00  0.00000000000E+00  0.10121621861E+04  0.10121621861E+04  0.50400001928E-02 0. -1.
       -1   -1    0    0    0  501  0.00000000000E+00  0.00000000000E+00 -0.91891071270E+03  0.91891071272E+03  0.50400001928E-02 0.  1.
    10030    2    1    2    0    0  0.00000000000E+00  0.00000000000E+00  0.93251473360E+02  0.19310728988E+04  0.19288200287E+04 0.  0.
        2    1    3    3  502    0  0.79745140840E+03 -0.23662585546E+03  0.53521842451E+03  0.98913058095E+03  0.25500000920E-02 0. -1.
       -2    1    3    3    0  502 -0.79745140840E+03  0.23662585546E+03 -0.44196695115E+03  0.94194231784E+03  0.25500000920E-02 0.  1.
</event>
<event>
 5   0  0.2608744E-04  0.1870989E+04  0.7818609E-02  0.8669433E-01
       -2   -1    0    0    0  501  0.00000000000E+00  0.00000000000E+00  0.64543436223E+03  0.64543436224E+03  0.25500000920E-02 0.  1.
        2   -1    0    0  501    0  0.00000000000E+00  0.00000000000E+00 -0.13559082926E+04  0.13559082926E+04  0.25500000920E-02 0. -1.
    10030    2    1    2    0    0  0.00000000000E+00  0.00000000000E+00 -0.71047393035E+03  0.20013426548E+04  0.18709888338E+04 0.  0.
        2    1    3    3  502    0 -0.70124040833E+02 -0.21047835974E+03  0.61688826305E+03  0.65556818876E+03  0.25500000920E-02 0.  1.
       -2    1    3    3    0  502  0.70124040833E+02  0.21047835974E+03 -0.13273621934E+04  0.13457744661E+04  0.25500000920E-02 0. -1.
</event>
<event>
 5   0  0.1255141E-04  0.1899239E+04  0.7818609E-02  0.8655235E-01
       -1   -1    0    0    0  501  0.00000000000E+00  0.00000000000E+00  0.76010657411E+03  0.76010657413E+03  0.50400001928E-02 0.  1.
        1   -1    0    0  501    0  0.00000000000E+00  0.00000000000E+00 -0.11863825687E+04  0.11863825687E+04  0.50400001928E-02 0. -1.
    10030    2    1    2    0    0  0.00000000000E+00  0.00000000000E+00 -0.42627599459E+03  0.19464891428E+04  0.18992389949E+04 0.  0.
        2    1    3    3  502    0 -0.15403115704E+03  0.28599434022E+03  0.70139524823E+03  0.77296419983E+03  0.25500000920E-02 0.  1.
       -2    1    3    3    0  502  0.15403115704E+03 -0.28599434022E+03 -0.11276712428E+04  0.11735249430E+04  0.25500000920E-02 0. -1.
</event>
<event>
 5   0  0.1324058E-04  0.1878526E+04  0.7818609E-02  0.8665620E-01
       -1   -1    0    0    0  501  0.00000000000E+00  0.00000000000E+00  0.84003941119E+03  0.84003941121E+03  0.50400001928E-02 0. -1.
        1   -1    0    0  501    0  0.00000000000E+00  0.00000000000E+00 -0.10502061068E+04  0.10502061068E+04  0.50400001928E-02 0.  1.
    10030    2    1    2    0    0  0.00000000000E+00  0.00000000000E+00 -0.21016669561E+03  0.18902455180E+04  0.18785255065E+04 0.  0.
        5    1    3    3  502    0  0.10246993521E+03 -0.40261608903E+03 -0.95271207650E+03  0.10393662461E+04  0.46999998093E+01 0.  1.
       -5    1    3    3    0  502 -0.10246993521E+03  0.40261608903E+03  0.74254538089E+03  0.85087927196E+03  0.46999998093E+01 0. -1.
</event>
<event>
 5   0  0.2651828E-04  0.1931736E+04  0.7818609E-02  0.8639219E-01
       -2   -1    0    0    0  501  0.00000000000E+00  0.00000000000E+00  0.35833469547E+03  0.35833469548E+03  0.25500000920E-02 0. -1.
        2   -1    0    0  501    0  0.00000000000E+00  0.00000000000E+00 -0.26034336596E+04  0.26034336596E+04  0.25500000920E-02 0.  1.
    10030    2    1    2    0    0  0.00000000000E+00  0.00000000000E+00 -0.22450989641E+04  0.29617683550E+04  0.19317356005E+04 0.  0.
        3    1    3    3  502    0 -0.25347542149E+03 -0.78681870163E+03 -0.18884936347E+04  0.20614901593E+04  0.10100000352E+00 0. -1.
       -3    1    3    3    0  502  0.25347542149E+03  0.78681870163E+03 -0.35660532940E+03  0.90027819572E+03  0.10100000352E+00 0.  1.
</event>
<event>
 5   0  0.2651828E-04  0.1930532E+04  0.7818609E-02  0.8639806E-01
        2   -1    0    0  501    0  0.00000000000E+00  0.00000000000E+00  0.21636454609E+04  0.21636454609E+04  0.25500000920E-02 0.  1.
       -2   -1    0    0    0  501  0.00000000000E+00  0.00000000000E+00 -0.43063366186E+03  0.43063366187E+03  0.25500000920E-02 0. -1.
    10030    2    1    2    0    0  0.00000000000E+00  0.00000000000E+00  0.17330117991E+04  0.25942791228E+04  0.19305321213E+04 0.  0.
        3    1    3    3  502    0 -0.84448529388E+03 -0.46685707426E+02  0.14916381433E+04  0.17147359352E+04  0.10100000352E+00 0.  1.
       -3    1    3    3    0  502  0.84448529388E+03  0.46685707426E+02  0.24137365576E+03  0.87954318755E+03  0.10100000352E+00 0. -1.
</event>
<event>
 5   0  0.2562925E-04  0.1907164E+04  0.7818609E-02  0.8651299E-01
       -2   -1    0    0    0  501  0.00000000000E+00  0.00000000000E+00  0.17302638271E+04  0.17302638271E+04  0.25500000920E-02 0. -1.
        2   -1    0    0  501    0  0.00000000000E+00  0.00000000000E+00 -0.52553752239E+03  0.52553752239E+03  0.25500000920E-02 0.  1.
    10030    2    1    2    0    0  0.00000000000E+00  0.00000000000E+00  0.12047263047E+04  0.22558013495E+04  0.19071639309E+04 0.  0.
        4    1    3    3  502    0 -0.52896300972E+03 -0.34836945345E+03  0.14455239785E+04  0.15781965426E+04  0.12699999809E+01 0. -1.
       -4    1    3    3    0  502  0.52896300972E+03  0.34836945345E+03 -0.24079767378E+03  0.67760480691E+03  0.12699999809E+01 0.  1.
</event>
<event>
 5   0  0.2651828E-04  0.1901691E+04  0.7818609E-02  0.8654015E-01
       -2   -1    0    0    0  501  0.00000000000E+00  0.00000000000E+00  0.74247952505E+03  0.74247952505E+03  0.25500000920E-02 0.  1.
        2   -1    0    0  501    0  0.00000000000E+00  0.00000000000E+00 -0.12176864676E+04  0.12176864676E+04  0.25500000920E-02 0. -1.
    10030    2    1    2    0    0  0.00000000000E+00  0.00000000000E+00 -0.47520694257E+03  0.19601659927E+04  0.19016911107E+04 0.  0.
        3    1    3    3  502    0 -0.52411668848E+03 -0.61573558965E+03 -0.75326504229E+03  0.11050958572E+04  0.10100000352E+00 0. -1.
       -3    1    3    3    0  502  0.52411668848E+03  0.61573558965E+03  0.27805809972E+03  0.85507013545E+03  0.10100000352E+00 0.  1.
</event>
<event>
 5   0  0.2595012E-04  0.1881707E+04  0.7818609E-02  0.8664016E-01
        2   -1    0    0  501    0  0.00000000000E+00  0.00000000000E+00  0.17390369097E+04  0.17390369097E+04  0.25500000920E-02 0. -1.
       -2   -1    0    0    0  501  0.00000000000E+00  0.00000000000E+00 -0.50902026506E+03  0.50902026506E+03  0.25500000920E-02 0.  1.
    10030    2    1    2    0    0  0.00000000000E+00  0.00000000000E+00  0.12300166446E+04  0.22480571747E+04  0.18817067027E+04 0.  0.
        1    1    3    3  502    0  0.10869423014E+03  0.19519634211E+03 -0.47686887603E+03  0.52661178546E+03  0.50400001928E-02 0.  1.
       -1    1    3    3    0  502 -0.10869423014E+03 -0.19519634211E+03  0.17068855206E+04  0.17214453893E+04  0.50400001928E-02 0. -1.
</event>
<event>
 5   0  0.2541124E-04  0.1871175E+04  0.7818609E-02  0.8669339E-01
       -2   -1    0    0    0  501  0.00000000000E+00  0.00000000000E+00  0.54996439802E+03  0.54996439802E+03  0.25500000920E-02 0. -1.
        2   -1    0    0  501    0  0.00000000000E+00  0.00000000000E+00 -0.15916007134E+04  0.15916007134E+04  0.25500000920E-02 0.  1.
    10030    2    1    2    0    0  0.00000000000E+00  0.00000000000E+00 -0.10416363154E+04  0.21415651114E+04  0.18711747414E+04 0.  0.
        5    1    3    3  502    0 -0.64107272177E+03  0.57682990177E+02  0.25626489092E+03  0.69281696448E+03  0.46999998093E+01 0. -1.
       -5    1    3    3    0  502  0.64107272177E+03 -0.57682990177E+02 -0.12979012063E+04  0.14487481469E+04  0.46999998093E+01 0.  1.
</event>
<event>
 5   0  0.2541124E-04  0.1864416E+04  0.7818609E-02  0.8672774E-01
       -2   -1    0    0    0  501  0.00000000000E+00  0.00000000000E+00  0.77102650770E+03  0.77102650770E+03  0.25500000920E-02 0.  1.
        2   -1    0    0  501    0  0.00000000000E+00  0.00000000000E+00 -0.11270847451E+04  0.11270847451E+04  0.25500000920E-02 0. -1.
    10030    2    1    2    0    0  0.00000000000E+00  0.00000000000E+00 -0.35605823744E+03  0.18981112528E+04  0.18644164931E+04 0.  0.
        5    1    3    3  502    0  0.10288734742E+03 -0.92625919129E+03 -0.19958316506E+03  0.95309885399E+03  0.46999998093E+01 0.  1.
       -5    1    3    3    0  502 -0.10288734742E+03  0.92625919129E+03 -0.15647507238E+03  0.94501239885E+03  0.46999998093E+01 0. -1.
</event>
<event>
 5   0  0.1239615E-04  0.1917221E+04  0.7818609E-02  0.8646331E-01
       -1   -1    0    0    0  501  0.00000000000E+00  0.00000000000E+00  0.21389072867E+04  0.21389072867E+04  0.50400001928E-02 0. -1.
        1   -1    0    0  501    0  0.00000000000E+00  0.00000000000E+00 -0.42962796995E+03  0.42962796998E+03  0.50400001928E-02 0.  1.
    10030    2    1    2    0    0  0.00000000000E+00  0.00000000000E+00  0.17092793168E+04  0.25685352567E+04  0.19172213180E+04 0.  0.
        3    1    3    3  502    0  0.24956528993E+03  0.86694766724E+03  0.12888679526E+04  0.15732328820E+04  0.10100000352E+00 0. -1.
       -3    1    3    3    0  502 -0.24956528993E+03 -0.86694766724E+03  0.42041136416E+03  0.99530237465E+03  0.10100000352E+00 0.  1.
</event>
<event>
 5   0  0.1317527E-04  0.1883017E+04  0.7818609E-02  0.8663357E-01
        1   -1    0    0  501    0  0.00000000000E+00  0.00000000000E+00  0.70488295571E+03  0.70488295573E+03  0.50400001928E-02 0.  1.
       -1   -1    0    0    0  501  0.00000000000E+00  0.00000000000E+00 -0.12575674591E+04  0.12575674591E+04  0.50400001928E-02 0. -1.
    10030    2    1    2    0    0  0.00000000000E+00  0.00000000000E+00 -0.55268450336E+03  0.19624504148E+04  0.18830165879E+04 0.  0.
        1    1    3    3  502    0  0.26505342461E+03  0.80011588366E+03  0.16087752443E+03  0.85809109253E+03  0.50400001928E-02 0.  1.
       -1    1    3    3    0  502 -0.26505342461E+03 -0.80011588366E+03 -0.71356202778E+03  0.11043593223E+04  0.50400001928E-02 0. -1.
</event>
<event>
 5   0  0.1239615E-04  0.1932115E+04  0.7818609E-02  0.8639034E-01
        1   -1    0    0  501    0  0.00000000000E+00  0.00000000000E+00  0.12099516695E+04  0.12099516695E+04  0.50400001928E-02 0.  1.
       -1   -1    0    0    0  501  0.00000000000E+00  0.00000000000E+00 -0.77132560838E+03  0.77132560840E+03  0.50400001928E-02 0. -1.
    10030    2    1    2    0    0  0.00000000000E+00  0.00000000000E+00  0.43862606112E+03  0.19812772779E+04  0.19321146008E+04 0.  0.
        3    1    3    3  502    0  0.82393748521E+03  0.43205664482E+03 -0.47540732586E+02  0.93156108513E+03  0.10100000352E+00 0.  1.
       -3    1    3    3    0  502 -0.82393748521E+03 -0.43205664482E+03  0.48616679371E+03  0.10497161928E+04  0.10100000352E+00 0. -1.
</event>
<event>
 5   0  0.1317527E-04  0.1898926E+04  0.7818609E-02  0.8655391E-01
       -1   -1    0    0    0  501  0.00000000000E+00  0.00000000000E+00  0.15723350924E+04  0.15723350924E+04  0.50400001928E-02 0. -1.
        1   -1    0    0  501    0  0.00000000000E+00  0.00000000000E+00 -0.57333848441E+03  0.57333848443E+03  0.50400001928E-02 0.  1.
    10030    2    1    2    0    0  0.00000000000E+00  0.00000000000E+00  0.99899660798E+03  0.21456735768E+04  0.18989262428E+04 0.  0.
        1    1    3    3  502    0  0.20628858646E+01  0.93941249645E+03  0.34382824522E+03  0.10003589137E+04  0.50400001928E-02 0. -1.
       -1    1    3    3    0  502 -0.20628858646E+01 -0.93941249645E+03  0.65516836276E+03  0.11453146631E+04  0.50400001928E-02 0.  1.
</event>
<event>
 5   0  0.1277709E-04  0.1946130E+04  0.7818609E-02  0.8632229E-01
        1   -1    0    0  501    0  0.00000000000E+00  0.00000000000E+00  0.21691675181E+04  0.21691675181E+04  0.50400001928E-02 0. -1.
       -1   -1    0    0    0  501  0.00000000000E+00  0.00000000000E+00 -0.43650643483E+03  0.43650643486E+03  0.50400001928E-02 0.  1.
    10030    2    1    2    0    0  0.00000000000E+00  0.00000000000E+00  0.17326610832E+04  0.26056739529E+04  0.19461300881E+04 0.  0.
        4    1    3    3  502    0 -0.84381256394E+03 -0.46042921174E+03  0.66398703803E+03  0.11682872513E+04  0.12699999809E+01 0.  1.
       -4    1    3    3    0  502  0.84381256394E+03  0.46042921174E+03  0.10686740452E+04  0.14373867016E+04  0.12699999809E+01 0. -1.
</event>
<event>
 5   0  0.2562925E-04  0.1853241E+04  0.7818609E-02  0.8678488E-01
       -2   -1    0    0    0  501  0.00000000000E+00  0.00000000000E+00  0.14473440793E+04  0.14473440793E+04  0.25500000920E-02 0.  1.
        2   -1    0    0  501    0  0.00000000000E+00  0.00000000000E+00 -0.59324207747E+03  0.59324207748E+03  0.25500000920E-02 0. -1.
    10030    2    1    2    0    0  0.00000000000E+00  0.00000000000E+00  0.85410200186E+03  0.20405861568E+04  0.18532408461E+04 0.  0.
        4    1    3    3  502    0 -0.75312761679E+03 -0.12327569234E+03 -0.15165116474E+03  0.77807312777E+03  0.12699999809E+01 0. -1.
       -4    1    3    3    0  502  0.75312761679E+03  0.12327569234E+03  0.10057531666E+04  0.12625130290E+04  0.12699999809E+01 0.  1.
</event>
<event>
 5   0  0.2541124E-04  0.1900881E+04  0.7818609E-02  0.8654418E-01
        2   -1    0    0  501    0  0.00000000000E+00  0.00000000000E+00  0.18563049394E+04  0.18563049394E+04  0.25500000920E-02 0. -1.
       -2   -1    0    0    0  501  0.00000000000E+00  0.00000000000E+00 -0.48663191045E+03  0.48663191045E+03  0.25500000920E-02 0.  1.
    10030    2    1    2    0    0  0.00000000000E+00  0.00000000000E+00  0.13696730290E+04  0.23429368499E+04  0.19008810789E+04 0.  0.
        5    1    3    3  502    0 -0.60919926294E+03  0.40847919482E+03  0.14298290990E+04  0.16069885926E+04  0.46999998093E+01 0. -1.
       -5    1    3    3    0  502  0.60919926294E+03 -0.40847919482E+03 -0.60156070016E+02  0.73594825723E+03  0.46999998093E+01 0.  1.
</event>
<event>
 5   0  0.1317527E-04  0.1894699E+04  0.7818609E-02  0.8657500E-01
       -1   -1    0    0    0  501  0.00000000000E+00  0.00000000000E+00  0.79335995046E+03  0.79335995048E+03  0.50400001928E-02 0. -1.
        1   -1    0    0  501    0  0.00000000000E+00  0.00000000000E+00 -0.11312280819E+04  0.11312280819E+04  0.50400001928E-02 0.  1.
    10030    2    1    2    0    0  0.00000000000E+00  0.00000000000E+00 -0.33786813146E+03  0.19245880324E+04  0.18946989788E+04 0.  0.
        1    1    3    3  502    0  0.27538035235E+03 -0.64059901253E+03 -0.82035374701E+03  0.10766530098E+04  0.50400001928E-02 0.  1.
       -1    1    3    3    0  502 -0.27538035235E+03  0.64059901253E+03  0.48248561554E+03  0.84793502259E+03  0.50400001928E-02 0. -1.
</event>
<event>
 5   0  0.2651828E-04  0.1400984E+04  0.7818609E-02  0.8953107E-01
       -2   -1    0    0    0  501  0.00000000000E+00  0.00000000000E+00  0.10002823691E+04  0.10002823691E+04  0.25500000920E-02 0.  1.
        2   -1    0    0  501    0  0.00000000000E+00  0.00000000000E+00 -0.49055047789E+03  0.49055047790E+03  0.25500000920E-02 0. -1.
    10030    2    1    2    0    0  0.00000000000E+00  0.00000000000E+00  0.50973189125E+03  0.14908328470E+04  0.14009839317E+04 0.  0.
        3    1    3    3  502    0 -0.55923139333E+03 -0.24634161937E+03  0.61926737793E+03  0.87000921850E+03  0.10100000352E+00 0.  1.
       -3    1    3    3    0  502  0.55923139333E+03  0.24634161937E+03 -0.10953548668E+03  0.62082362854E+03  0.10100000352E+00 0. -1.
</event>
<event>
 5   0  0.2595012E-04  0.1907443E+04  0.7818609E-02  0.8651160E-01
       -2   -1    0    0    0  501  0.00000000000E+00  0.00000000000E+00  0.12619090074E+04  0.12619090074E+04  0.25500000920E-02 0.  1.
        2   -1    0    0  501    0  0.00000000000E+00  0.00000000000E+00 -0.72080045833E+03  0.72080045833E+03  0.25500000920E-02 0. -1.
    10030    2    1    2    0    0  0.00000000000E+00  0.00000000000E+00  0.54110854908E+03  0.19827094657E+04  0.19074428861E+04 0.  0.
        1    1    3    3  502    0 -0.91217992129E+03 -0.23162618305E+03  0.43112196757E+03  0.10351758539E+04  0.50400001928E-02 0.  1.
       -1    1    3    3    0  502  0.91217992129E+03  0.23162618305E+03  0.10998658150E+03  0.94753361187E+03  0.50400001928E-02 0. -1.
</event>
<event>
 5   0  0.2608744E-04  0.1971160E+04  0.7818609E-02  0.8620224E-01
       -2   -1    0    0    0  501  0.00000000000E+00  0.00000000000E+00  0.68012601158E+03  0.68012601159E+03  0.25500000920E-02 0.  1.
        2   -1    0    0  501    0  0.00000000000E+00  0.00000000000E+00 -0.14282179866E+04  0.14282179866E+04  0.25500000920E-02 0. -1.
    10030    2    1    2    0    0  0.00000000000E+00  0.00000000000E+00 -0.74809197504E+03  0.21083439982E+04  0.19711602704E+04 0.  0.
        2    1    3    3  502    0  0.35932581436E+03 -0.10235609677E+03 -0.13495360052E+04  0.14002996968E+04  0.25500000920E-02 0. -1.
       -2    1    3    3    0  502 -0.35932581436E+03  0.10235609677E+03  0.60144403015E+03  0.70804430146E+03  0.25500000920E-02 0.  1.
</event>
<event>
 5   0  0.1255141E-04  0.1531123E+04  0.7818609E-02  0.8864017E-01
        1   -1    0    0  501    0  0.00000000000E+00  0.00000000000E+00  0.13951681504E+04  0.13951681504E+04  0.50400001928E-02 0. -1.
       -1   -1    0    0    0  501  0.00000000000E+00  0.00000000000E+00 -0.42008128439E+03  0.42008128442E+03  0.50400001928E-02 0.  1.
    10030    2    1    2    0    0  0.00000000000E+00  0.00000000000E+00  0.97508686600E+03  0.18152494348E+04  0.15311225014E+04 0.  0.
        2    1    3    3  502    0 -0.51142605227E+03  0.29642332047E+03  0.10642958000E+04  0.12174353954E+04  0.25500000920E-02 0. -1.
       -2    1    3    3    0  502  0.51142605227E+03 -0.29642332047E+03 -0.89208934046E+02  0.59781403946E+03  0.25500000920E-02 0.  1.
</event>
<event>
 5   0  0.1277709E-04  0.1876334E+04  0.7818609E-02  0.8666727E-01
       -1   -1    0    0    0  501  0.00000000000E+00  0.00000000000E+00  0.39020982391E+03  0.39020982394E+03  0.50400001928E-02 0. -1.
        1   -1    0    0  501    0  0.00000000000E+00  0.00000000000E+00 -0.22556009328E+04  0.22556009328E+04  0.50400001928E-02 0.  1.
    10030    2    1    2    0    0  0.00000000000E+00  0.00000000000E+00 -0.18653911089E+04  0.26458107568E+04  0.18763343443E+04 0.  0.
        4    1    3    3  502    0 -0.26071135567E+02  0.51666762603E+03  0.17090661980E+03  0.54482641776E+03  0.12699999809E+01 0. -1.
       -4    1    3    3    0  502  0.26071135567E+02 -0.51666762603E+03 -0.20362977287E+04  0.21009843390E+04  0.12699999809E+01 0.  1.
</event>
<event>
 5   0  0.2541124E-04  0.1884556E+04  0.7818609E-02  0.8662582E-01
        2   -1    0    0  501    0  0.00000000000E+00  0.00000000000E+00  0.15191500696E+04  0.15191500696E+04  0.25500000920E-02 0. -1.
       -2   -1    0    0    0  501  0.00000000000E+00  0.00000000000E+00 -0.58446340974E+03  0.58446340975E+03  0.25500000920E-02 0.  1.
    10030    2    1    2    0    0  0.00000000000E+00  0.00000000000E+00  0.93468665989E+03  0.21036134794E+04  0.18845557881E+04 0.  0.
        5    1    3    3  502    0  0.76533078886E+03  0.39526021262E+02  0.10793148613E+04  0.13237205833E+04  0.46999998093E+01 0. -1.
       -5    1    3    3    0  502 -0.76533078886E+03 -0.39526021262E+02 -0.14462820143E+03  0.77989289610E+03  0.46999998093E+01 0.  1.
</event>
<event>
 5   0  0.1255141E-04  0.1953923E+04  0.7818609E-02  0.8628472E-01
       -1   -1    0    0    0  501  0.00000000000E+00  0.00000000000E+00  0.68598931230E+03  0.68598931232E+03  0.50400001928E-02 0.  1.
        1   -1    0    0  501    0  0.00000000000E+00  0.00000000000E+00 -0.13913531770E+04  0.13913531770E+04  0.50400001928E-02 0. -1.
    10030    2    1    2    0    0  0.00000000000E+00  0.00000000000E+00 -0.70536386471E+03  0.20773424893E+04  0.19539226280E+04 0.  0.
        2    1    3    3  502    0 -0.78979267652E+03 -0.55558408216E+03 -0.51040084598E+03  0.10922248705E+04  0.25500000920E-02 0. -1.
       -2    1    3    3    0  502  0.78979267652E+03  0.55558408216E+03 -0.19496301873E+03  0.98511761882E+03  0.25500000920E-02 0.  1.
</event>
<event>
 5   0  0.1324058E-04  0.1971477E+04  0.7818609E-02  0.8620073E-01
        1   -1    0    0  501    0  0.00000000000E+00  0.00000000000E+00  0.19888788338E+04  0.19888788338E+04  0.50400001928E-02 0. -1.
       -1   -1    0    0    0  501  0.00000000000E+00  0.00000000000E+00 -0.48855702617E+03  0.48855702619E+03  0.50400001928E-02 0.  1.
    10030    2    1    2    0    0  0.00000000000E+00  0.00000000000E+00  0.15003218076E+04  0.24774358600E+04  0.19714773430E+04 0.  0.
        5    1    3    3  502    0  0.45394674588E+03 -0.52181744161E+03  0.16327633110E+04  0.17732171920E+04  0.46999998093E+01 0. -1.
       -5    1    3    3    0  502 -0.45394674588E+03  0.52181744161E+03 -0.13244150337E+03  0.70421866794E+03  0.46999998093E+01 0.  1.
</event>
<event>
 5   0  0.1277709E-04  0.1890204E+04  0.7818609E-02  0.8659748E-01
       -1   -1    0    0    0  501  0.00000000000E+00  0.00000000000E+00  0.65214291707E+03  0.65214291709E+03  0.50400001928E-02 0. -1.
        1   -1    0    0  501    0  0.00000000000E+00  0.00000000000E+00 -0.13696659828E+04  0.13696659828E+04  0.50400001928E-02 0.  1.
    10030    2    1    2    0    0  0.00000000000E+00  0.00000000000E+00 -0.71752306577E+03  0.20218088999E+04  0.18902041895E+04 0.  0.
        4    1    3    3  502    0 -0.81391795789E+02 -0.23198164518E+03 -0.13348643083E+04  0.13573151597E+04  0.12699999809E+01 0.  1.
       -4    1    3    3    0  502  0.81391795789E+02  0.23198164518E+03  0.61734124258E+03  0.66449374024E+03  0.12699999809E+01 0. -1.
</event>
<event>
 5   0  0.1239615E-04  0.1874157E+04  0.7818609E-02  0.8667828E-01
        1   -1    0    0  501    0  0.00000000000E+00  0.00000000000E+00  0.56043691518E+03  0.56043691520E+03  0.50400001928E-02 0.  1.
       -1   -1    0    0    0  501  0.00000000000E+00  0.00000000000E+00 -0.15668422261E+04  0.15668422261E+04  0.50400001928E-02 0. -1.
    10030    2    1    2    0    0  0.00000000000E+00  0.00000000000E+00 -0.10064053109E+04  0.21272791413E+04  0.18741571159E+04 0.  0.
        3    1    3    3  502    0  0.77367473329E+03 -0.52397606398E+03 -0.58340488454E+03  0.11015828512E+04  0.10100000352E+00 0. -1.
       -3    1    3    3    0  502 -0.77367473329E+03  0.52397606398E+03 -0.42300042633E+03  0.10256962901E+04  0.10100000352E+00 0.  1.
</event>
<event>
 5   0  0.1324058E-04  0.1889843E+04  0.7818609E-02  0.8659929E-01
        1   -1    0    0  501    0  0.00000000000E+00  0.00000000000E+00  0.68224232582E+03  0.68224232584E+03  0.50400001928E-02 0. -1.
       -1   -1    0    0    0  501  0.00000000000E+00  0.00000000000E+00 -0.13087386992E+04  0.13087386992E+04  0.50400001928E-02 0.  1.
    10030    2    1    2    0    0  0.00000000000E+00  0.00000000000E+00 -0.62649637340E+03  0.19909810251E+04  0.18898433100E+04 0.  0.
        5    1    3    3  502    0 -0.71717242139E+03 -0.20470893767E+03 -0.92448097772E+03  0.11878254078E+04  0.46999998093E+01 0. -1.
       -5    1    3    3    0  502  0.71717242139E+03  0.20470893767E+03  0.29798460433E+03  0.80315561729E+03  0.46999998093E+01 0.  1.
</event>
<event>
 5   0  0.1317527E-04  0.1794514E+04  0.7818609E-02  0.8709222E-01
        1   -1    0    0  501    0  0.00000000000E+00  0.00000000000E+00  0.12526290046E+04  0.12526290046E+04  0.50400001928E-02 0. -1.
       -1   -1    0    0    0  501  0.00000000000E+00  0.00000000000E+00 -0.64270411084E+03  0.64270411086E+03  0.50400001928E-02 0.  1.
    10030    2    1    2    0    0  0.00000000000E+00  0.00000000000E+00  0.60992489373E+03  0.18953331154E+04  0.17945136507E+04 0.  0.
        1    1    3    3  502    0 -0.37507108206E+03 -0.54311308155E+03  0.94690888742E+03  0.11542471906E+04  0.50400001928E-02 0. -1.
       -1    1    3    3    0  502  0.37507108206E+03  0.54311308155E+03 -0.33698399368E+03  0.74108592483E+03  0.50400001928E-02 0.  1.
</event>
<event>
 5   0  0.2595012E-04  0.1897172E+04  0.7818609E-02  0.8656265E-01
       -2   -1    0    0    0  501  0.00000000000E+00  0.00000000000E+00  0.98386982709E+03  0.98386982709E+03  0.25500000920E-02 0. -1.
        2   -1    0    0  501    0  0.00000000000E+00  0.00000000000E+00 -0.91456754802E+03  0.91456754802E+03  0.25500000920E-02 0.  1.
    10030    2    1    2    0    0  0.00000000000E+00  0.00000000000E+00  0.69302279068E+02  0.18984373751E+04  0.18971720168E+04 0.  0.
        1    1    3    3  502    0 -0.24673917210E+03  0.53304134291E+02 -0.88034041115E+03  0.91581700646E+03  0.50400001928E-02 0.  1.
       -1    1    3    3    0  502  0.24673917210E+03 -0.53304134291E+02  0.94964269022E+03  0.98262036865E+03  0.50400001928E-02 0. -1.
</event>
<event>
 5   0  0.1317527E-04  0.1892023E+04  0.7818609E-02  0.8658837E-01
       -1   -1    0    0    0  501  0.00000000000E+00  0.00000000000E+00  0.36957036651E+03  0.36957036655E+03  0.50400001928E-02 0. -1.
        1   -1    0    0  501    0  0.00000000000E+00  0.00000000000E+00 -0.24215621425E+04  0.24215621425E+04  0.50400001928E-02 0.  1.
    10030    2    1    2    0    0  0.00000000000E+00  0.00000000000E+00 -0.20519917760E+04  0.27911325091E+04  0.18920228419E+04 0.  0.
        1    1    3    3  502    0  0.79349515357E+03  0.25780236658E+03 -0.36817594182E+03  0.91194854192E+03  0.50400001928E-02 0. -1.
       -1    1    3    3    0  502 -0.79349515357E+03 -0.25780236658E+03 -0.16838158342E+04  0.18791839672E+04  0.50400001928E-02 0.  1.
</event>
<event>
 5   0  0.2562925E-04  0.1816832E+04  0.7818609E-02  0.8697400E-01
       -2   -1    0    0    0  501  0.00000000000E+00  0.00000000000E+00  0.66693076279E+03  0.66693076280E+03  0.25500000920E-02 0.  1.
        2   -1    0    0  501    0  0.00000000000E+00  0.00000000000E+00 -0.12373386654E+04  0.12373386654E+04  0.25500000920E-02 0. -1.
    10030    2    1    2    0    0  0.00000000000E+00  0.00000000000E+00 -0.57040790257E+03  0.19042694282E+04  0.18168315496E+04 0.  0.
        4    1    3    3  502    0  0.43479157363E+03 -0.53808819649E+03  0.33188806845E+03  0.76728998598E+03  0.12699999809E+01 0.  1.
       -4    1    3    3    0  502 -0.43479157363E+03  0.53808819649E+03 -0.90229597102E+03  0.11369794422E+04  0.12699999809E+01 0. -1.
</event>
<event>
 5   0  0.2541124E-04  0.1874159E+04  0.7818609E-02  0.8667827E-01
        2   -1    0    0  501    0  0.00000000000E+00  0.00000000000E+00  0.10111610205E+04  0.10111610205E+04  0.25500000920E-02 0.  1.
       -2   -1    0    0    0  501  0.00000000000E+00  0.00000000000E+00 -0.86842584481E+03  0.86842584482E+03  0.25500000920E-02 0. -1.
    10030    2    1    2    0    0  0.00000000000E+00  0.00000000000E+00  0.14273517570E+03  0.18795868653E+04  0.18741593993E+04 0.  0.
        5    1    3    3  502    0 -0.24399288132E+03  0.62287183278E+03  0.72946484178E+03  0.98976911025E+03  0.46999998093E+01 0.  1.
       -5    1    3    3    0  502  0.24399288132E+03 -0.62287183278E+03 -0.58672966608E+03  0.88981775509E+03  0.46999998093E+01 0. -1.
</event>
<event>
 5   0  0.1255141E-04  0.1905879E+04  0.7818609E-02  0.8651935E-01
        1   -1    0    0  501    0  0.00000000000E+00  0.00000000000E+00  0.11979058104E+04  0.11979058105E+04  0.50400001928E-02 0.  1.
       -1   -1    0    0    0  501  0.00000000000E+00  0.00000000000E+00 -0.75806802103E+03  0.75806802105E+03  0.50400001928E-02 0. -1.
    10030    2    1    2    0    0  0.00000000000E+00  0.00000000000E+00  0.43983778942E+03  0.19559738315E+04  0.19058794161E+04 0.  0.
        2    1    3    3  502    0 -0.41888950483E+03  0.82307957599E+03  0.46096610757E+03  0.10321909504E+04  0.25500000920E-02 0.  1.
       -2    1    3    3    0  502  0.41888950483E+03 -0.82307957599E+03 -0.21128318150E+02  0.92378288115E+03  0.25500000920E-02 0. -1.
</event>
<event>
 5   0  0.1317527E-04  0.1913720E+04  0.7818609E-02  0.8648057E-01
        1   -1    0    0  501    0  0.00000000000E+00  0.00000000000E+00  0.23981420608E+04  0.23981420608E+04  0.50400001928E-02 0. -1.
       -1   -1    0    0    0  501  0.00000000000E+00  0.00000000000E+00 -0.38178773086E+03  0.38178773090E+03  0.50400001928E-02 0.  1.
    10030    2    1    2    0    0  0.00000000000E+00  0.00000000000E+00  0.20163543299E+04  0.27799297917E+04  0.19137201632E+04 0.  0.
        1    1    3    3  502    0  0.85297595460E+02 -0.51779120472E+01  0.23925879245E+04  0.23941135034E+04  0.50400001928E-02 0. -1.
       -1    1    3    3    0  502 -0.85297595460E+02  0.51779120472E+01 -0.37623359461E+03  0.38581628828E+03  0.50400001928E-02 0.  1.
</event>
<event>
 5   0  0.2608744E-04  0.1893597E+04  0.7818609E-02  0.8658050E-01
       -2   -1    0    0    0  501  0.00000000000E+00  0.00000000000E+00  0.77867252319E+03  0.77867252319E+03  0.25500000920E-02 0.  1.
        2   -1    0    0  501    0  0.00000000000E+00  0.00000000000E+00 -0.11512250661E+04  0.11512250661E+04  0.25500000920E-02 0. -1.
    10030    2    1    2    0    0  0.00000000000E+00  0.00000000000E+00 -0.37255254296E+03  0.19298975893E+04  0.18935969233E+04 0.  0.
        2    1    3    3  502    0 -0.62557188525E+03 -0.66721088591E+03  0.63195233383E+02  0.91679015452E+03  0.25500000920E-02 0.  1.
       -2    1    3    3    0  502  0.62557188525E+03  0.66721088591E+03 -0.43574777634E+03  0.10131074348E+04  0.25500000920E-02 0. -1.
</event>
<event>
 5   0  0.1239615E-04  0.1931796E+04  0.7818609E-02  0.8639190E-01
        1   -1    0    0  501    0  0.00000000000E+00  0.00000000000E+00  0.76062304378E+03  0.76062304380E+03  0.50400001928E-02 0.  1.
       -1   -1    0    0    0  501  0.00000000000E+00  0.00000000000E+00 -0.12265714969E+04  0.12265714969E+04  0.50400001928E-02 0. -1.
    10030    2    1    2    0    0  0.00000000000E+00  0.00000000000E+00 -0.46594845312E+03  0.19871945407E+04  0.19317955849E+04 0.  0.
        3    1    3    3  502    0  0.79787637869E+02 -0.65523981931E+03  0.49240987065E+03  0.82351246432E+03  0.10100000352E+00 0.  1.
       -3    1    3    3    0  502 -0.79787637869E+02  0.65523981931E+03 -0.95835832377E+03  0.11636820764E+04  0.10100000352E+00 0. -1.
</event>
<event>
 5   0  0.1239615E-04  0.1852338E+04  0.7818609E-02  0.8678951E-01
        1   -1    0    0  501    0  0.00000000000E+00  0.00000000000E+00  0.66740219185E+03  0.66740219187E+03  0.50400001928E-02 0. -1.
       -1   -1    0    0    0  501  0.00000000000E+00  0.00000000000E+00 -0.12852656618E+04  0.12852656618E+04  0.50400001928E-02 0.  1.
    10030    2    1    2    0    0  0.00000000000E+00  0.00000000000E+00 -0.61786346994E+03  0.19526678537E+04  0.18523381115E+04 0.  0.
        3    1    3    3  502    0  0.87656872794E+03  0.25175158736E+03 -0.47903312591E+03  0.10301574358E+04  0.10100000352E+00 0.  1.
       -3    1    3    3    0  502 -0.87656872794E+03 -0.25175158736E+03 -0.13883034404E+03  0.92251041792E+03  0.10100000352E+00 0. -1.
</event>
<event>
 5   0  0.2608744E-04  0.1896507E+04  0.7818609E-02  0.8656597E-01
       -2   -1    0    0    0  501  0.00000000000E+00  0.00000000000E+00  0.74723355903E+03  0.74723355903E+03  0.25500000920E-02 0. -1.
        2   -1    0    0  501    0  0.00000000000E+00  0.00000000000E+00 -0.12033512977E+04  0.12033512977E+04  0.25500000920E-02 0.  1.
    10030    2    1    2    0    0  0.00000000000E+00  0.00000000000E+00 -0.45611773868E+03  0.19505848567E+04  0.18965067603E+04 0.  0.
        2    1    3    3  502    0 -0.23242619030E+03  0.15111599205E+03  0.70462098247E+03  0.75719793048E+03  0.25500000920E-02 0. -1.
       -2    1    3    3    0  502  0.23242619030E+03 -0.15111599205E+03 -0.11607387211E+04  0.11933869263E+04  0.25500000920E-02 0.  1.
</event>
<event>
 5   0  0.1324058E-04  0.1905761E+04  0.7818609E-02  0.8651994E-01
       -1   -1    0    0    0  501  0.00000000000E+00  0.00000000000E+00  0.90581022512E+03  0.90581022513E+03  0.50400001928E-02 0.  1.
        1   -1    0    0  501    0  0.00000000000E+00  0.00000000000E+00 -0.10023965708E+04  0.10023965708E+04  0.50400001928E-02 0. -1.
    10030    2    1    2    0    0  0.00000000000E+00  0.00000000000E+00 -0.96586345640E+02  0.19082067959E+04  0.19057608071E+04 0.  0.
        5    1    3    3  502    0  0.54966296808E+03 -0.17827229990E+03 -0.80692554568E+03  0.99250255298E+03  0.46999998093E+01 0. -1.
       -5    1    3    3    0  502 -0.54966296808E+03  0.17827229990E+03  0.71033920004E+03  0.91570424292E+03  0.46999998093E+01 0.  1.
</event>
<event>
 5   0  0.2651828E-04  0.1941429E+04  0.7818609E-02  0.8634505E-01
        2   -1    0    0  501    0  0.00000000000E+00  0.00000000000E+00  0.10217333181E+04  0.10217333181E+04  0.25500000920E-02 0. -1.
       -2   -1    0    0    0  501  0.00000000000E+00  0.00000000000E+00 -0.92224326175E+03  0.92224326175E+03  0.25500000920E-02 0.  1.
    10030    2    1    2    0    0  0.00000000000E+00  0.00000000000E+00  0.99490056318E+02  0.19439765798E+04  0.19414290282E+04 0.  0.
        3    1    3    3  502    0  0.48146810836E+03 -0.38620751383E+03 -0.70045026058E+03  0.93359432349E+03  0.10100000352E+00 0.  1.
       -3    1    3    3    0  502 -0.48146810836E+03  0.38620751383E+03  0.79994031690E+03  0.10103822563E+04  0.10100000352E+00 0. -1.
</event>
<event>
 5   0  0.2651828E-04  0.1911110E+04  0.7818609E-02  0.8649346E-01
        2   -1    0    0  501    0  0.00000000000E+00  0.00000000000E+00  0.22730828860E+04  0.22730828860E+04  0.25500000920E-02 0.  1.
       -2   -1    0    0    0  501  0.00000000000E+00  0.00000000000E+00 -0.40169488240E+03  0.40169488241E+03  0.25500000920E-02 0. -1.
    10030    2    1    2    0    0  0.00000000000E+00  0.00000000000E+00  0.18713880036E+04  0.26747777684E+04  0.19111104234E+04 0.  0.
        3    1    3    3  502    0 -0.26877819408E+03  0.17105109874E+03  0.21965604213E+04  0.22195445233E+04  0.10100000352E+00 0.  1.
       -3    1    3    3    0  502  0.26877819408E+03 -0.17105109874E+03 -0.32517241776E+03  0.45523324512E+03  0.10100000352E+00 0. -1.
</event>
<event>
 5   0  0.2608744E-04  0.1900890E+04  0.7818609E-02  0.8654414E-01
       -2   -1    0    0    0  501  0.00000000000E+00  0.00000000000E+00  0.62727221864E+03  0.62727221865E+03  0.25500000920E-02 0. -1.
        2   -1    0    0  501    0  0.00000000000E+00  0.00000000000E+00 -0.14401173937E+04  0.14401173937E+04  0.25500000920E-02 0.  1.
    10030    2    1    2    0    0  0.00000000000E+00  0.00000000000E+00 -0.81284517503E+03  0.20673896123E+04  0.19008899312E+04 0.  0.
        2    1    3    3  502    0 -0.61567744398E+03 -0.43918693753E+03 -0.10325212258E+04  0.12798609154E+04  0.25500000920E-02 0.  1.
       -2    1    3    3    0  502  0.61567744398E+03  0.43918693753E+03  0.21967605078E+03  0.78752869688E+03  0.25500000920E-02 0. -1.
</event>
<event>
 5   0  0.1277709E-04  0.1892258E+04  0.7818609E-02  0.8658720E-01
        1   -1    0    0  501    0  0.00000000000E+00  0.00000000000E+00  0.57919181787E+03  0.57919181789E+03  0.50400001928E-02 0. -1.
       -1   -1    0    0    0  501  0.00000000000E+00  0.00000000000E+00 -0.15455322525E+04  0.15455322525E+04  0.50400001928E-02 0.  1.
    10030    2    1    2    0    0  0.00000000000E+00  0.00000000000E+00 -0.96634043461E+03  0.21247240704E+04  0.18922575247E+04 0.  0.
        4    1    3    3  502    0 -0.21471193544E+03  0.56841364308E+03 -0.12974990002E+04  0.14327248700E+04  0.12699999809E+01 0.  1.
       -4    1    3    3    0  502  0.21471193544E+03 -0.56841364308E+03  0.33115856554E+03  0.69199920035E+03  0.12699999809E+01 0. -1.
</event>
<event>
 5   0  0.2595012E-04  0.1907392E+04  0.7818609E-02  0.8651186E-01
       -2   -1    0    0    0  501  0.00000000000E+00  0.00000000000E+00  0.77163235434E+03  0.77163235434E+03  0.25500000920E-02 0.  1.
        2   -1    0    0  501    0  0.00000000000E+00  0.00000000000E+00 -0.11787169829E+04  0.11787169829E+04  0.25500000920E-02 0. -1.
    10030    2    1    2    0    0  0.00000000000E+00  0.00000000000E+00 -0.40708462860E+03  0.19503493373E+04  0.19073921051E+04 0.  0.
        1    1    3    3  502    0 -0.77084927038E+03 -0.32536815265E+03  0.26443652830E+03  0.87749627345E+03  0.50400001928E-02 0.  1.
       -1    1    3    3    0  502  0.77084927038E+03  0.32536815265E+03 -0.67152115690E+03  0.10728530638E+04  0.50400001928E-02 0. -1.
</event>
<event>
 5   0  0.2608744E-04  0.1924408E+04  0.7818609E-02  0.8642801E-01
        2   -1    0    0  501    0  0.00000000000E+00  0.00000000000E+00  0.20986572807E+04  0.20986572807E+04  0.25500000920E-02 0.  1.
       -2   -1    0    0    0  501  0.00000000000E+00  0.00000000000E+00 -0.44115671279E+03  0.44115671280E+03  0.25500000920E-02 0. -1.
    10030    2    1    2    0    0  0.00000000000E+00  0.00000000000E+00  0.16575005679E+04  0.25398139935E+04  0.19244082179E+04 0.  0.
        2    1    3    3  502    0 -0.39537173792E+03 -0.75103794843E+03  0.14269804149E+04  0.16603162095E+04  0.25500000920E-02 0.  1.
       -2    1    3    3    0  502  0.39537173792E+03  0.75103794843E+03  0.23052015308E+03  0.87949778403E+03  0.25500000920E-02 0. -1.
</event>
<event>
 5   0  0.2595012E-04  0.1826442E+04  0.7818609E-02  0.8692363E-01
       -2   -1    0    0    0  501  0.00000000000E+00  0.00000000000E+00  0.11376821143E+04  0.11376821143E+04  0.25500000920E-02 0. -1.
        2   -1    0    0  501    0  0.00000000000E+00  0.00000000000E+00 -0.73304505224E+03  0.73304505225E+03  0.25500000920E-02 0.  1.
    10030    2    1    2    0    0  0.00000000000E+00  0.00000000000E+00  0.40463706208E+03  0.18707271666E+04  0.18264416168E+04 0.  0.
        1    1    3    3  502    0 -0.86829073094E+03  0.28129077561E+03  0.23336776158E+03  0.94207951153E+03  0.50400001928E-02 0. -1.
       -1    1    3    3    0  502  0.86829073094E+03 -0.28129077561E+03  0.17126930050E+03  0.92864765503E+03  0.50400001928E-02 0.  1.
</event>
<event>
 5   0  0.2651828E-04  0.1916838E+04  0.7818609E-02  0.8646520E-01
       -2   -1    0    0    0  501  0.00000000000E+00  0.00000000000E+00  0.69662184943E+03  0.69662184943E+03  0.25500000920E-02 0.  1.
        2   -1    0    0  501    0  0.00000000000E+00  0.00000000000E+00 -0.13186017960E+04  0.13186017960E+04  0.25500000920E-02 0. -1.
    10030    2    1    2    0    0  0.00000000000E+00  0.00000000000E+00 -0.62197994655E+03  0.20152236454E+04  0.19168378354E+04 0.  0.
        3    1    3    3  502    0 -0.82127402597E+02  0.38796976454E+03  0.60632013849E+03  0.72449262867E+03  0.10100000352E+00 0.  1.
       -3    1    3    3    0  502  0.82127402597E+02 -0.38796976454E+03 -0.12283000850E+04  0.12907310167E+04  0.10100000352E+00 0. -1.
</event>
<event>
 5   0  0.1255141E-04  0.1893375E+04  0.7818609E-02  0.8658161E-01
       -1   -1    0    0    0  501  0.00000000000E+00  0.00000000000E+00  0.64108454422E+03  0.64108454424E+03  0.50400001928E-02 0. -1.
        1   -1    0    0  501    0  0.00000000000E+00  0.00000000000E+00 -0.13979704691E+04  0.13979704691E+04  0.50400001928E-02 0.  1.
    10030    2    1    2    0    0  0.00000000000E+00  0.00000000000E+00 -0.75688592487E+03  0.20390550133E+04  0.18933750405E+04 0.  0.
        2    1    3    3  502    0  0.19992844691E+03  0.44122082556E+03  0.49750885242E+03  0.69437904564E+03  0.25500000920E-02 0. -1.
       -2    1    3    3    0  502 -0.19992844691E+03 -0.44122082556E+03 -0.12543947773E+04  0.13446759677E+04  0.25500000920E-02 0.  1.
</event>
<event>
 5   0  0.2595012E-04  0.1902915E+04  0.7818609E-02  0.8653407E-01
        2   -1    0    0  501    0  0.00000000000E+00  0.00000000000E+00  0.18632627880E+04  0.18632627880E+04  0.25500000920E-02 0. -1.
       -2   -1    0    0    0  501  0.00000000000E+00  0.00000000000E+00 -0.48585289982E+03  0.48585289983E+03  0.25500000920E-02 0.  1.
    10030    2    1    2    0    0  0.00000000000E+00  0.00000000000E+00  0.13774098882E+04  0.23491156879E+04  0.19029152674E+04 0.  0.
        1    1    3    3  502    0 -0.20382141822E+03 -0.87665654603E+03  0.30780804261E+03  0.95121798834E+03  0.50400001928E-02 0.  1.
       -1    1    3    3    0  502  0.20382141822E+03  0.87665654603E+03  0.10696018456E+04  0.13978976995E+04  0.50400001928E-02 0. -1.
</event>
<event>
 5   0  0.2562925E-04  0.1896307E+04  0.7818609E-02  0.8656697E-01
        2   -1    0    0  501    0  0.00000000000E+00  0.00000000000E+00  0.20083560769E+04  0.20083560769E+04  0.25500000920E-02 0.  1.
       -2   -1    0    0    0  501  0.00000000000E+00  0.00000000000E+00 -0.44762752284E+03  0.44762752285E+03  0.25500000920E-02 0. -1.
    10030    2    1    2    0    0  0.00000000000E+00  0.00000000000E+00  0.15607285541E+04  0.24559835998E+04  0.18963074178E+04 0.  0.
        4    1    3    3  502    0 -0.37501693616E+03 -0.87805188969E+02  0.19024716564E+04  0.19410686413E+04  0.12699999809E+01 0.  1.
       -4    1    3    3    0  502  0.37501693616E+03  0.87805188969E+02 -0.34174310234E+03  0.51491495853E+03  0.12699999809E+01 0. -1.
</event>
<event>
 5   0  0.1317527E-04  0.1877435E+04  0.7818609E-02  0.8666171E-01
        1   -1    0    0  501    0  0.00000000000E+00  0.00000000000E+00  0.11821990673E+04  0.11821990673E+04  0.50400001928E-02 0.  1.
       -1   -1    0    0    0  501  0.00000000000E+00  0.00000000000E+00 -0.74538222151E+03  0.74538222153E+03  0.50400001928E-02 0. -1.
    10030    2    1    2    0    0  0.00000000000E+00  0.00000000000E+00  0.43681684576E+03  0.19275812888E+04  0.18774345976E+04 0.  0.
        1    1    3    3  502    0 -0.46567428844E+03  0.72341525471E+03  0.60394869653E+03  0.10511594559E+04  0.50400001928E-02 0.  1.
       -1    1    3    3    0  502  0.46567428844E+03 -0.72341525471E+03 -0.16713185077E+03  0.87642183292E+03  0.50400001928E-02 0. -1.
</event>
<event>
 5   0  0.1255141E-04  0.1896881E+04  0.7818609E-02  0.8656410E-01
       -1   -1    0    0    0  501  0.00000000000E+00  0.00000000000E+00  0.82857883805E+03  0.82857883807E+03  0.50400001928E-02 0.  1.
        1   -1    0    0  501    0  0.00000000000E+00  0.00000000000E+00 -0.10856412664E+04  0.10856412664E+04  0.50400001928E-02 0. -1.
    10030    2    1    2    0    0  0.00000000000E+00  0.00000000000E+00 -0.25706242836E+03  0.19142201045E+04  0.18968809969E+04 0.  0.
        2    1    3    3  502    0  0.41771992898E+03  0.41290188686E+03 -0.88002714663E+03  0.10580291518E+04  0.25500000920E-02 0. -1.
       -2    1    3    3    0  502 -0.41771992898E+03 -0.41290188686E+03  0.62296471828E+03  0.85619095269E+03  0.25500000920E-02 0.  1.
</event>
<event>
 5   0  0.1324058E-04  0.1904239E+04  0.7818609E-02  0.8652749E-01
        1   -1    0    0  501    0  0.00000000000E+00  0.00000000000E+00  0.14381583464E+04  0.14381583464E+04  0.50400001928E-02 0.  1.
       -1   -1    0    0    0  501  0.00000000000E+00  0.00000000000E+00 -0.63034192456E+03  0.63034192458E+03  0.50400001928E-02 0. -1.
    10030    2    1    2    0    0  0.00000000000E+00  0.00000000000E+00  0.80781642181E+03  0.20685002710E+04  0.19042389555E+04 0.  0.
        5    1    3    3  502    0 -0.43609390581E+03  0.84607985379E+03  0.38009960690E+03  0.10249521037E+04  0.46999998093E+01 0.  1.
       -5    1    3    3    0  502  0.43609390581E+03 -0.84607985379E+03  0.42771681491E+03  0.10435481673E+04  0.46999998093E+01 0. -1.
</event>
<event>
 5   0  0.1239615E-04  0.1988996E+04  0.7818609E-02  0.8611783E-01
       -1   -1    0    0    0  501  0.00000000000E+00  0.00000000000E+00  0.53686656822E+03  0.53686656825E+03  0.50400001928E-02 0. -1.
        1   -1    0    0  501    0  0.00000000000E+00  0.00000000000E+00 -0.18422205453E+04  0.18422205453E+04  0.50400001928E-02 0.  1.
    10030    2    1    2    0    0  0.00000000000E+00  0.00000000000E+00 -0.13053539771E+04  0.23790871135E+04  0.19889963520E+04 0.  0.
        3    1    3    3  502    0 -0.54728960694E+03 -0.16280422167E+03  0.32126175595E+03  0.65516429580E+03  0.10100000352E+00 0. -1.
       -3    1    3    3    0  502  0.54728960694E+03  0.16280422167E+03 -0.16266157330E+04  0.17239228177E+04  0.10100000352E+00 0.  1.
</event>
<event>
 5   0  0.2562925E-04  0.1906044E+04  0.7818609E-02  0.8651854E-01
        2   -1    0    0  501    0  0.00000000000E+00  0.00000000000E+00  0.20349897486E+04  0.20349897486E+04  0.25500000920E-02 0. -1.
       -2   -1    0    0    0  501  0.00000000000E+00  0.00000000000E+00 -0.44631732878E+03  0.44631732879E+03  0.25500000920E-02 0.  1.
    10030    2    1    2    0    0  0.00000000000E+00  0.00000000000E+00  0.15886724198E+04  0.24813070774E+04  0.19060442689E+04 0.  0.
        4    1    3    3  502    0  0.29597929572E+03 -0.64006111619E+03 -0.40211794839E+02  0.70632894412E+03  0.12699999809E+01 0.  1.
       -4    1    3    3    0  502 -0.29597929572E+03  0.64006111619E+03  0.16288842147E+04  0.17749781333E+04  0.12699999809E+01 0. -1.
</event>
<event>
 5   0  0.1317527E-04  0.1954962E+04  0.7818609E-02  0.8627972E-01
        1   -1    0    0  501    0  0.00000000000E+00  0.00000000000E+00  0.20140642364E+04  0.20140642364E+04  0.50400001928E-02 0.  1.
       -1   -1    0    0    0  501  0.00000000000E+00  0.00000000000E+00 -0.47439861329E+03  0.47439861332E+03  0.50400001928E-02 0. -1.
    10030    2    1    2    0    0  0.00000000000E+00  0.00000000000E+00  0.15396656231E+04  0.24884628497E+04  0.19549621795E+04 0.  0.
        1    1    3    3  502    0 -0.94344013072E+03 -0.13260294405E+01  0.10953265459E+04  0.14456214168E+04  0.50400001928E-02 0. -1.
       -1    1    3    3    0  502  0.94344013072E+03  0.13260294405E+01  0.44433907720E+03  0.10428414329E+04  0.50400001928E-02 0.  1.
</event>
<event>
 5   0  0.2541124E-04  0.1911781E+04  0.7818609E-02  0.8649015E-01
       -2   -1    0    0    0  501  0.00000000000E+00  0.00000000000E+00  0.95497650787E+03  0.95497650787E+03  0.25500000920E-02 0. -1.
        2   -1    0    0  501    0  0.00000000000E+00  0.00000000000E+00 -0.95680497046E+03  0.95680497046E+03  0.25500000920E-02 0.  1.
    10030    2    1    2    0    0  0.00000000000E+00  0.00000000000E+00 -0.18284625924E+01  0.19117814783E+04  0.19117806039E+04 0.  0.
        5    1    3    3  502    0  0.43993390688E+03  0.42613959691E+03 -0.73478606859E+03  0.95659262754E+03  0.46999998093E+01 0.  1.
       -5    1    3    3    0  502 -0.43993390688E+03 -0.42613959691E+03  0.73295760600E+03  0.95518885079E+03  0.46999998093E+01 0. -1.
</event>
<event>
 5   0  0.2541124E-04  0.1924416E+04  0.7818609E-02  0.8642798E-01
        2   -1    0    0  501    0  0.00000000000E+00  0.00000000000E+00  0.13293090644E+04  0.13293090644E+04  0.25500000920E-02 0.  1.
       -2   -1    0    0    0  501  0.00000000000E+00  0.00000000000E+00 -0.69648510278E+03  0.69648510279E+03  0.25500000920E-02 0. -1.
    10030    2    1    2    0    0  0.00000000000E+00  0.00000000000E+00  0.63282396157E+03  0.20257941671E+04  0.19244157143E+04 0.  0.
        5    1    3    3  502    0  0.81982853646E+03 -0.45271554918E+03  0.54884144556E+03  0.10855041317E+04  0.46999998093E+01 0.  1.
       -5    1    3    3    0  502 -0.81982853646E+03  0.45271554918E+03  0.83982516004E+02  0.94029003540E+03  0.46999998093E+01 0. -1.
</event>
<event>
 5   0  0.2541124E-04  0.1911969E+04  0.7818609E-02  0.8648922E-01
       -2   -1    0    0    0  501  0.00000000000E+00  0.00000000000E+00  0.12029079240E+04  0.12029079240E+04  0.25500000920E-02 0.  1.
        2   -1    0    0  501    0  0.00000000000E+00  0.00000000000E+00 -0.75974723384E+03  0.75974723384E+03  0.25500000920E-02 0. -1.
    10030    2    1    2    0    0  0.00000000000E+00  0.00000000000E+00  0.44316069011E+03  0.19626551578E+04  0.19119685853E+04 0.  0.
        5    1    3    3  502    0  0.63144138333E+03  0.29574771753E+03 -0.44974390758E+03  0.82974490381E+03  0.46999998093E+01 0. -1.
       -5    1    3    3    0  502 -0.63144138333E+03 -0.29574771753E+03  0.89290459769E+03  0.11329102540E+04  0.46999998093E+01 0.  1.
</event>
<event>
 5   0  0.2608744E-04  0.1895273E+04  0.7818609E-02  0.8657213E-01
        2   -1    0    0  501    0  0.00000000000E+00  0.00000000000E+00  0.74667314929E+03  0.74667314930E+03  0.25500000920E-02 0. -1.
       -2   -1    0    0    0  501  0.00000000000E+00  0.00000000000E+00 -0.12026879992E+04  0.12026879992E+04  0.25500000920E-02 0.  1.
    10030    2    1    2    0    0  0.00000000000E+00  0.00000000000E+00 -0.45601484988E+03  0.19493611485E+04  0.18952728943E+04 0.  0.
        2    1    3    3  502    0 -0.71770011573E+03 -0.27607925687E+03  0.34160386984E+03  0.84143117133E+03  0.25500000920E-02 0. -1.
       -2    1    3    3    0  502  0.71770011573E+03  0.27607925687E+03 -0.79761871973E+03  0.11079299771E+04  0.25500000920E-02 0.  1.
</event>
<event>
 5   0  0.1277709E-04  0.1942181E+04  0.7818609E-02  0.8634140E-01
        1   -1    0    0  501    0  0.00000000000E+00  0.00000000000E+00  0.17312298056E+04  0.17312298056E+04  0.50400001928E-02 0. -1.
       -1   -1    0    0    0  501  0.00000000000E+00  0.00000000000E+00 -0.54470944713E+03  0.54470944715E+03  0.50400001928E-02 0.  1.
    10030    2    1    2    0    0  0.00000000000E+00  0.00000000000E+00  0.11865203584E+04  0.22759392527E+04  0.19421814851E+04 0.  0.
        4    1    3    3  502    0  0.19593862857E+03  0.90254677688E+03  0.24164170483E+03  0.95465960270E+03  0.12699999809E+01 0.  1.
       -4    1    3    3    0  502 -0.19593862857E+03 -0.90254677688E+03  0.94487865360E+03  0.13212796500E+04  0.12699999809E+01 0. -1.
</event>
<event>
 5   0  0.2595012E-04  0.1940733E+04  0.7818609E-02  0.8634843E-01
       -2   -1    0    0    0  501  0.00000000000E+00  0.00000000000E+00  0.16656270587E+04  0.16656270587E+04  0.25500000920E-02 0.  1.
        2   -1    0    0  501    0  0.00000000000E+00  0.00000000000E+00 -0.56531924078E+03  0.56531924078E+03  0.25500000920E-02 0. -1.
    10030    2    1    2    0    0  0.00000000000E+00  0.00000000000E+00  0.11003078179E+04  0.22309462994E+04  0.19407328762E+04 0.  0.
        1    1    3    3  502    0 -0.40077634663E+03  0.46486854732E+03  0.14141344904E+04  0.15415903488E+04  0.50400001928E-02 0.  1.
       -1    1    3    3    0  502  0.40077634663E+03 -0.46486854732E+03 -0.31382667256E+03  0.68935595068E+03  0.50400001928E-02 0. -1.
</event>
<event>
 5   0  0.2541124E-04  0.1917166E+04  0.7818609E-02  0.8646359E-01
       -2   -1    0    0    0  501  0.00000000000E+00  0.00000000000E+00  0.55623492104E+03  0.55623492105E+03  0.25500000920E-02 0. -1.
        2   -1    0    0  501    0  0.00000000000E+00  0.00000000000E+00 -0.16519665672E+04  0.16519665672E+04  0.25500000920E-02 0.  1.
    10030    2    1    2    0    0  0.00000000000E+00  0.00000000000E+00 -0.10957316461E+04  0.22082014882E+04  0.19171661306E+04 0.  0.
        5    1    3    3  502    0 -0.13009478230E+03  0.19354449127E+03  0.52304976443E+03  0.57270172739E+03  0.46999998093E+01 0. -1.
       -5    1    3    3    0  502  0.13009478230E+03 -0.19354449127E+03 -0.16187814106E+04  0.16354997608E+04  0.46999998093E+01 0.  1.
</event>
<event>
 5   0  0.2562925E-04  0.1875499E+04  0.7818609E-02  0.8667149E-01
       -2   -1    0    0    0  501  0.00000000000E+00  0.00000000000E+00  0.11482603586E+04  0.11482603586E+04  0.25500000920E-02 0. -1.
        2   -1    0    0  501    0  0.00000000000E+00  0.00000000000E+00 -0.76583200971E+03  0.76583200971E+03  0.25500000920E-02 0.  1.
    10030    2    1    2    0    0  0.00000000000E+00  0.00000000000E+00  0.38242834892E+03  0.19140923683E+04  0.18754994408E+04 0.  0.
        4    1    3    3  502    0  0.86368254683E+03  0.32480261585E+03  0.20656651610E+02  0.92296944214E+03  0.12699999809E+01 0.  1.
       -4    1    3    3    0  502 -0.86368254683E+03 -0.32480261585E+03  0.36177169731E+03  0.99112292620E+03  0.12699999809E+01 0. -1.
</event>
<event>
 5   0  0.2541124E-04  0.1893199E+04  0.7818609E-02  0.8658249E-01
        2   -1    0    0  501    0  0.00000000000E+00  0.00000000000E+00  0.10089950273E+04  0.10089950273E+04  0.25500000920E-02 0. -1.
       -2   -1    0    0    0  501  0.00000000000E+00  0.00000000000E+00 -0.88806253171E+03  0.88806253172E+03  0.25500000920E-02 0.  1.
    10030    2    1    2    0    0  0.00000000000E+00  0.00000000000E+00  0.12093249557E+03  0.18970575590E+04  0.18931990687E+04 0.  0.
        5    1    3    3  502    0  0.53672751086E+03  0.74079492464E+03  0.30422124739E+03  0.96406752806E+03  0.46999998093E+01 0.  1.
       -5    1    3    3    0  502 -0.53672751086E+03 -0.74079492464E+03 -0.18328875182E+03  0.93299003094E+03  0.46999998093E+01 0. -1.
</event>
<event>
 5   0  0.2541124E-04  0.1921835E+04  0.7818609E-02  0.8644063E-01
       -2   -1    0    0    0  501  0.00000000000E+00  0.00000000000E+00  0.60202019951E+03  0.60202019951E+03  0.25500000920E-02 0.  1.
        2   -1    0    0  501    0  0.00000000000E+00  0.00000000000E+00 -0.15337734355E+04  0.15337734355E+04  0.25500000920E-02 0. -1.
    10030    2    1    2    0    0  0.00000000000E+00  0.00000000000E+00 -0.93175323596E+03  0.21357936350E+04  0.19218351538E+04 0.  0.
        5    1    3    3  502    0 -0.54937452516E+03 -0.34122456870E+03  0.32394538291E+03  0.72333206502E+03  0.46999998093E+01 0.  1.
       -5    1    3    3    0  502  0.54937452516E+03  0.34122456870E+03 -0.12556986189E+04  0.14124615700E+04  0.46999998093E+01 0. -1.
</event>
<event>
 5   0  0.1277709E-04  0.1911921E+04  0.7818609E-02  0.8648945E-01
       -1   -1    0    0    0  501  0.00000000000E+00  0.00000000000E+00  0.94507559293E+03  0.94507559295E+03  0.50400001928E-02 0.  1.
        1   -1    0    0  501    0  0.00000000000E+00  0.00000000000E+00 -0.96697077693E+03  0.96697077694E+03  0.50400001928E-02 0. -1.
    10030    2    1    2    0    0  0.00000000000E+00  0.00000000000E+00 -0.21895183995E+02  0.19120463699E+04  0.19119210030E+04 0.  0.
        4    1    3    3  502    0  0.20418222787E+03  0.93349258741E+03 -0.38518849532E+02  0.95633890833E+03  0.12699999809E+01 0. -1.
       -4    1    3    3    0  502 -0.20418222787E+03 -0.93349258741E+03  0.16623665538E+02  0.95570746156E+03  0.12699999809E+01 0.  1.
</event>
<event>
 5   0  0.1239615E-04  0.1898268E+04  0.7818609E-02  0.8655719E-01
       -1   -1    0    0    0  501  0.00000000000E+00  0.00000000000E+00  0.56514049972E+03  0.56514049974E+03  0.50400001928E-02 0. -1.
        1   -1    0    0  501    0  0.00000000000E+00  0.00000000000E+00 -0.15940372176E+04  0.15940372176E+04  0.50400001928E-02 0.  1.
    10030    2    1    2    0    0  0.00000000000E+00  0.00000000000E+00 -0.10288967179E+04  0.21591777174E+04  0.18982676205E+04 0.  0.
        3    1    3    3  502    0 -0.10625193546E+03  0.11591627430E+03  0.55022149847E+03  0.57224973920E+03  0.10100000352E+00 0. -1.
       -3    1    3    3    0  502  0.10625193546E+03 -0.11591627430E+03 -0.15791182164E+04  0.15869279782E+04  0.10100000352E+00 0.  1.
</event>
<event>
 5   0  0.1324058E-04  0.1897792E+04  0.7818609E-02  0.8655956E-01
        1   -1    0    0  501    0  0.00000000000E+00  0.00000000000E+00  0.15094494436E+04  0.15094494436E+04  0.50400001928E-02 0. -1.
       -1   -1    0    0    0  501  0.00000000000E+00  0.00000000000E+00 -0.59651123963E+03  0.59651123965E+03  0.50400001928E-02 0.  1.
    10030    2    1    2    0    0  0.00000000000E+00  0.00000000000E+00  0.91293820401E+03  0.21059606833E+04  0.18977919368E+04 0.  0.
        5    1    3    3  502    0  0.54797065233E+03  0.77443362436E+03  0.47758806370E+03  0.10621354541E+04  0.46999998093E+01 0.  1.
       -5    1    3    3    0  502 -0.54797065233E+03 -0.77443362436E+03  0.43535014031E+03  0.10438252292E+04  0.46999998093E+01 0. -1.
</event>
<event>
 5   0  0.2595012E-04  0.1927181E+04  0.7818609E-02  0.8641444E-01
        2   -1    0    0  501    0  0.00000000000E+00  0.00000000000E+00  0.25007726849E+04  0.25007726849E+04  0.25500000920E-02 0.  1.
       -2   -1    0    0    0  501  0.00000000000E+00  0.00000000000E+00 -0.37128791592E+03  0.37128791592E+03  0.25500000920E-02 0. -1.
    10030    2    1    2    0    0  0.00000000000E+00  0.00000000000E+00  0.21294847689E+04  0.28720606008E+04  0.19271810277E+04 0.  0.
        1    1    3    3  502    0 -0.50532399269E+03  0.79740696258E+03  0.13525517961E+04  0.16494261313E+04  0.50400001928E-02 0. -1.
       -1    1    3    3    0  502  0.50532399269E+03 -0.79740696258E+03  0.77693297283E+03  0.12226344694E+04  0.50400001928E-02 0.  1.
</event>
<event>
 5   0  0.2541124E-04  0.1910075E+04  0.7818609E-02  0.8649857E-01
       -2   -1    0    0    0  501  0.00000000000E+00  0.00000000000E+00  0.36950079011E+03  0.36950079012E+03  0.25500000920E-02 0. -1.
        2   -1    0    0  501    0  0.00000000000E+00  0.00000000000E+00 -0.24684574095E+04  0.24684574095E+04  0.25500000920E-02 0.  1.
    10030    2    1    2    0    0  0.00000000000E+00  0.00000000000E+00 -0.20989566194E+04  0.28379581996E+04  0.19100753526E+04 0.  0.
        5    1    3    3  502    0 -0.37677323133E+03  0.38616014208E+03 -0.22203257138E+04  0.22849389683E+04  0.46999998093E+01 0.  1.
       -5    1    3    3    0  502  0.37677323133E+03 -0.38616014208E+03  0.12136909444E+03  0.55301923137E+03  0.46999998093E+01 0. -1.
</event>
<event>
 5   0  0.1324058E-04  0.1927019E+04  0.7818609E-02  0.8641523E-01
        1   -1    0    0  501    0  0.00000000000E+00  0.00000000000E+00  0.80335686283E+03  0.80335686284E+03  0.50400001928E-02 0. -1.
       -1   -1    0    0    0  501  0.00000000000E+00  0.00000000000E+00 -0.11555889940E+04  0.11555889940E+04  0.50400001928E-02 0.  1.
    10030    2    1    2    0    0  0.00000000000E+00  0.00000000000E+00 -0.35223213120E+03  0.19589458569E+04  0.19270187845E+04 0.  0.
        5    1    3    3  502    0  0.49770908470E+02 -0.58753545585E+03 -0.95074710987E+03  0.11187569942E+04  0.46999998093E+01 0.  1.
       -5    1    3    3    0  502 -0.49770908470E+02  0.58753545585E+03  0.59851497868E+03  0.84018886264E+03  0.46999998093E+01 0. -1.
</event>
<event>
 5   0  0.1317527E-04  0.1889070E+04  0.7818609E-02  0.8660316E-01
       -1   -1    0    0    0  501  0.00000000000E+00  0.00000000000E+00  0.45883926588E+03  0.45883926591E+03  0.50400001928E-02 0. -1.
        1   -1    0    0  501    0  0.00000000000E+00  0.00000000000E+00 -0.19443545514E+04  0.19443545514E+04  0.50400001928E-02 0.  1.
    10030    2    1    2    0    0  0.00000000000E+00  0.00000000000E+00 -0.14855152855E+04  0.24031938173E+04  0.18890698399E+04 0.  0.
        1    1    3    3  502    0 -0.28453731878E+03 -0.64889091717E+03  0.51831900222E+02  0.71042765577E+03  0.50400001928E-02 0. -1.
       -1    1    3    3    0  502  0.28453731878E+03  0.64889091717E+03 -0.15373471858E+04  0.16927661616E+04  0.50400001928E-02 0.  1.
</event>
<event>
 5   0  0.2562925E-04  0.1902669E+04  0.7818609E-02  0.8653529E-01
        2   -1    0    0  501    0  0.00000000000E+00  0.00000000000E+00  0.18001025602E+04  0.18001025602E+04  0.25500000920E-02 0. -1.
       -2   -1    0    0    0  501  0.00000000000E+00  0.00000000000E+00 -0.50277003444E+03  0.50277003445E+03  0.25500000920E-02 0.  1.
    10030    2    1    2    0    0  0.00000000000E+00  0.00000000000E+00  0.12973325257E+04  0.23028725946E+04  0.19026693104E+04 0.  0.
        4    1    3    3  502    0  0.79194624903E+03  0.84065190720E+01  0.10752235022E+02  0.79206486753E+03  0.12699999809E+01 0.  1.
       -4    1    3    3    0  502 -0.79194624903E+03 -0.84065190720E+01  0.12865802907E+04  0.15108077271E+04  0.12699999809E+01 0. -1.
</event>
<event>
 5   0  0.1317527E-04  0.1425117E+04  0.7818609E-02  0.8935836E-01
       -1   -1    0    0    0  501  0.00000000000E+00  0.00000000000E+00  0.58932772281E+03  0.58932772283E+03  0.50400001928E-02 0.  1.
        1   -1    0    0  501    0  0.00000000000E+00  0.00000000000E+00 -0.86155708859E+03  0.86155708860E+03  0.50400001928E-02 0. -1.
    10030    2    1    2    0    0  0.00000000000E+00  0.00000000000E+00 -0.27222936578E+03  0.14508848114E+04  0.14251168052E+04 0.  0.
        1    1    3    3  502    0  0.18378327458E+03 -0.68646754272E+03 -0.18926494329E+03  0.73541498353E+03  0.50400001928E-02 0.  1.
       -1    1    3    3    0  502 -0.18378327458E+03  0.68646754272E+03 -0.82964422490E+02  0.71546982790E+03  0.50400001928E-02 0. -1.
</event>
<event>
 5   0  0.2562925E-04  0.1925671E+04  0.7818609E-02  0.8642183E-01
        2   -1    0    0  501    0  0.00000000000E+00  0.00000000000E+00  0.12823242570E+04  0.12823242570E+04  0.25500000920E-02 0. -1.
       -2   -1    0    0    0  501  0.00000000000E+00  0.00000000000E+00 -0.72294678532E+03  0.72294678533E+03  0.25500000920E-02 0.  1.
    10030    2    1    2    0    0  0.00000000000E+00  0.00000000000E+00  0.55937747165E+03  0.20052710423E+04  0.19256709992E+04 0.  0.
        4    1    3    3  502    0 -0.73353231864E+03  0.28897164889E+03 -0.29585689365E+03  0.84208502586E+03  0.12699999809E+01 0.  1.
       -4    1    3    3    0  502  0.73353231864E+03 -0.28897164889E+03  0.85523436530E+03  0.11631860164E+04  0.12699999809E+01 0. -1.
</event>
<event>
 5   0  0.2595012E-04  0.1895658E+04  0.7818609E-02  0.8657021E-01
        2   -1    0    0  501    0  0.00000000000E+00  0.00000000000E+00  0.23212361038E+04  0.23212361038E+04  0.25500000920E-02 0.  1.
       -2   -1    0    0    0  501  0.00000000000E+00  0.00000000000E+00 -0.38702648712E+03  0.38702648713E+03  0.25500000920E-02 0. -1.
    10030    2    1    2    0    0  0.00000000000E+00  0.00000000000E+00  0.19342096167E+04  0.27082625909E+04  0.18956580441E+04 0.  0.
        1    1    3    3  502    0 -0.22184251696E+03 -0.41764904511E+03  0.21406434679E+04  0.21922589454E+04  0.50400001928E-02 0.  1.
       -1    1    3    3    0  502  0.22184251696E+03  0.41764904511E+03 -0.20643385121E+03  0.51600364550E+03  0.50400001928E-02 0. -1.
</event>
<event>
 5   0  0.9266125E-05  0.1895635E+04  0.7818609E-02  0.8657032E-01
        4   -1    0    0  501    0  0.00000000000E+00  0.00000000000E+00  0.12636070170E+04  0.12636076552E+04  0.12699999809E+01 0. -1.
       -4   -1    0    0    0  501  0.00000000000E+00  0.00000000000E+00 -0.71094585508E+03  0.71094698941E+03  0.12699999809E+01 0.  1.
    10030    2    1    2    0    0  0.00000000000E+00  0.00000000000E+00  0.55266116194E+03  0.19745546446E+04  0.18956349028E+04 0.  0.
        5    1    3    3  502    0 -0.18510391592E+03  0.36824748494E+03 -0.61270501923E+03  0.73844376932E+03  0.46999998093E+01 0.  1.
       -5    1    3    3    0  502  0.18510391592E+03 -0.36824748494E+03  0.11653661812E+04  0.12361108753E+04  0.46999998093E+01 0. -1.
</event>
<event>
 5   0  0.1317527E-04  0.1903712E+04  0.7818609E-02  0.8653011E-01
       -1   -1    0    0    0  501  0.00000000000E+00  0.00000000000E+00  0.79169237938E+03  0.79169237940E+03  0.50400001928E-02 0. -1.
        1   -1    0    0  501    0  0.00000000000E+00  0.00000000000E+00 -0.11444215472E+04  0.11444215472E+04  0.50400001928E-02 0.  1.
    10030    2    1    2    0    0  0.00000000000E+00  0.00000000000E+00 -0.35272916784E+03  0.19361139266E+04  0.19037119717E+04 0.  0.
        1    1    3    3  502    0  0.76985306128E+03  0.46276163499E+02 -0.74372580448E+03  0.10714211551E+04  0.50400001928E-02 0.  1.
       -1    1    3    3    0  502 -0.76985306128E+03 -0.46276163499E+02  0.39099663664E+03  0.86469277155E+03  0.50400001928E-02 0. -1.
</event>
<event>
 5   0  0.9266125E-05  0.1428322E+04  0.7818609E-02  0.8933569E-01
        3   -1    0    0  501    0  0.00000000000E+00  0.00000000000E+00  0.45242481171E+03  0.45242482299E+03  0.10100000352E+00 0.  1.
       -3   -1    0    0    0  501  0.00000000000E+00  0.00000000000E+00 -0.11273159682E+04  0.11273159727E+04  0.10100000352E+00 0. -1.
    10030    2    1    2    0    0  0.00000000000E+00  0.00000000000E+00 -0.67489115651E+03  0.15797407957E+04  0.14283217105E+04 0.  0.
        3    1    3    3  502    0  0.36759388860E+03  0.21120266270E+03  0.29819272981E+03  0.51831529591E+03  0.10100000352E+00 0.  1.
       -3    1    3    3    0  502 -0.36759388860E+03 -0.21120266270E+03 -0.97308388632E+03  0.10614254998E+04  0.10100000352E+00 0. -1.
</event>
<event>
 5   0  0.2562925E-04  0.1670663E+04  0.7818609E-02  0.8778276E-01
       -2   -1    0    0    0  501  0.00000000000E+00  0.00000000000E+00  0.52208432537E+03  0.52208432537E+03  0.25500000920E-02 0.  1.
        2   -1    0    0  501    0  0.00000000000E+00  0.00000000000E+00 -0.13365246946E+04  0.13365246946E+04  0.25500000920E-02 0. -1.
    10030    2    1    2    0    0  0.00000000000E+00  0.00000000000E+00 -0.81444036923E+03  0.18586090200E+04  0.16706628547E+04 0.  0.
        4    1    3    3  502    0  0.41495314571E+03 -0.71913997204E+03 -0.30508482464E+03  0.88454891083E+03  0.12699999809E+01 0.  1.
       -4    1    3    3    0  502 -0.41495314571E+03  0.71913997204E+03 -0.50935554459E+03  0.97406010914E+03  0.12699999809E+01 0. -1.
</event>
<event>
 5   0  0.1277709E-04  0.1885098E+04  0.7818609E-02  0.8662310E-01
       -1   -1    0    0    0  501  0.00000000000E+00  0.00000000000E+00  0.15990024798E+04  0.15990024798E+04  0.50400001928E-02 0.  1.
        1   -1    0    0  501    0  0.00000000000E+00  0.00000000000E+00 -0.55559555805E+03  0.55559555807E+03  0.50400001928E-02 0. -1.
    10030    2    1    2    0    0  0.00000000000E+00  0.00000000000E+00  0.10434069218E+04  0.21545980379E+04  0.18850980613E+04 0.  0.
        4    1    3    3  502    0  0.54479777240E+03  0.42997333994E+03  0.12506196721E+04  0.14302911812E+04  0.12699999809E+01 0.  1.
       -4    1    3    3    0  502 -0.54479777240E+03 -0.42997333994E+03 -0.20721275033E+03  0.72430685670E+03  0.12699999809E+01 0. -1.
</event>
<event>
 5   0  0.2562925E-04  0.1895959E+04  0.7818609E-02  0.8656870E-01
       -2   -1    0    0    0  501  0.00000000000E+00  0.00000000000E+00  0.25049521501E+04  0.25049521501E+04  0.25500000920E-02 0. -1.
        2   -1    0    0  501    0  0.00000000000E+00  0.00000000000E+00 -0.35875552889E+03  0.35875552890E+03  0.25500000920E-02 0.  1.
    10030    2    1    2    0    0  0.00000000000E+00  0.00000000000E+00  0.21461966212E+04  0.28637076790E+04  0.18959593176E+04 0.  0.
        4    1    3    3  502    0 -0.46297325269E+03 -0.80359692077E+03  0.77653273183E+03  0.12095937088E+04  0.12699999809E+01 0.  1.
       -4    1    3    3    0  502  0.46297325269E+03  0.80359692077E+03  0.13696638894E+04  0.16541139703E+04  0.12699999809E+01 0. -1.
</event>
<event>
 5   0  0.1255141E-04  0.1971916E+04  0.7818609E-02  0.8619864E-01
        1   -1    0    0  501    0  0.00000000000E+00  0.00000000000E+00  0.12958747838E+04  0.12958747838E+04  0.50400001928E-02 0.  1.
       -1   -1    0    0    0  501  0.00000000000E+00  0.00000000000E+00 -0.75016007138E+03  0.75016007140E+03  0.50400001928E-02 0. -1.
    10030    2    1    2    0    0  0.00000000000E+00  0.00000000000E+00  0.54571471245E+03  0.20460348552E+04  0.19719163475E+04 0.  0.
        2    1    3    3  502    0 -0.52253801822E+03 -0.60465434044E+03  0.87202292520E+03  0.11828257834E+04  0.25500000920E-02 0.  1.
       -2    1    3    3    0  502  0.52253801822E+03  0.60465434044E+03 -0.32630821276E+03  0.86320907179E+03  0.25500000920E-02 0. -1.
</event>
<event>
 5   0  0.2595012E-04  0.1783127E+04  0.7818609E-02  0.8715324E-01
       -2   -1    0    0    0  501  0.00000000000E+00  0.00000000000E+00  0.60486827475E+03  0.60486827475E+03  0.25500000920E-02 0. -1.
        2   -1    0    0  501    0  0.00000000000E+00  0.00000000000E+00 -0.13141466375E+04  0.13141466375E+04  0.25500000920E-02 0.  1.
    10030    2    1    2    0    0  0.00000000000E+00  0.00000000000E+00 -0.70927836277E+03  0.19190149123E+04  0.17831271513E+04 0.  0.
        1    1    3    3  502    0  0.17979125217E+03 -0.63595460647E+03 -0.99867765524E+03  0.11975475836E+04  0.50400001928E-02 0.  1.
       -1    1    3    3    0  502 -0.17979125217E+03  0.63595460647E+03  0.28939929248E+03  0.72146732869E+03  0.50400001928E-02 0. -1.
</event>
<event>
 5   0  0.1239615E-04  0.1886330E+04  0.7818609E-02  0.8661691E-01
       -1   -1    0    0    0  501  0.00000000000E+00  0.00000000000E+00  0.13196273029E+04  0.13196273029E+04  0.50400001928E-02 0.  1.
        1   -1    0    0  501    0  0.00000000000E+00  0.00000000000E+00 -0.67409948005E+03  0.67409948006E+03  0.50400001928E-02 0. -1.
    10030    2    1    2    0    0  0.00000000000E+00  0.00000000000E+00  0.64552782281E+03  0.19937267829E+04  0.18863298532E+04 0.  0.
        3    1    3    3  502    0  0.65072176894E+03 -0.25793514292E+03  0.99088579451E+03  0.12131875479E+04  0.10100000352E+00 0.  1.
       -3    1    3    3    0  502 -0.65072176894E+03  0.25793514292E+03 -0.34535797170E+03  0.78053923498E+03  0.10100000352E+00 0. -1.
</event>
<event>
 5   0  0.1317527E-04  0.1858118E+04  0.7818609E-02  0.8675989E-01
       -1   -1    0    0    0  501  0.00000000000E+00  0.00000000000E+00  0.38961531662E+03  0.38961531665E+03  0.50400001928E-02 0. -1.
        1   -1    0    0  501    0  0.00000000000E+00  0.00000000000E+00 -0.22153915241E+04  0.22153915241E+04  0.50400001928E-02 0.  1.
    10030    2    1    2    0    0  0.00000000000E+00  0.00000000000E+00 -0.18257762075E+04  0.26050068408E+04  0.18581178328E+04 0.  0.
        1    1    3    3  502    0 -0.26741475340E+03  0.46621927603E+03 -0.19753105512E+04  0.20471255060E+04  0.50400001928E-02 0.  1.
       -1    1    3    3    0  502  0.26741475340E+03 -0.46621927603E+03  0.14953434372E+03  0.55788133474E+03  0.50400001928E-02 0. -1.
</event>
<event>
 5   0  0.1239615E-04  0.1909106E+04  0.7818609E-02  0.8650337E-01
        1   -1    0    0  501    0  0.00000000000E+00  0.00000000000E+00  0.11453577531E+04  0.11453577531E+04  0.50400001928E-02 0.  1.
       -1   -1    0    0    0  501  0.00000000000E+00  0.00000000000E+00 -0.79553441758E+03  0.79553441759E+03  0.50400001928E-02 0. -1.
    10030    2    1    2    0    0  0.00000000000E+00  0.00000000000E+00  0.34982333548E+03  0.19408921707E+04  0.19091060872E+04 0.  0.
        3    1    3    3  502    0 -0.59044386843E+03  0.60109233385E+03 -0.28115013047E+03  0.88824622805E+03  0.10100000352E+00 0.  1.
       -3    1    3    3    0  502  0.59044386843E+03 -0.60109233385E+03  0.63097346594E+03  0.10526459426E+04  0.10100000352E+00 0. -1.
</event>
<event>
 5   0  0.2651828E-04  0.1894904E+04  0.7818609E-02  0.8657397E-01
        2   -1    0    0  501    0  0.00000000000E+00  0.00000000000E+00  0.94775011925E+03  0.94775011925E+03  0.25500000920E-02 0. -1.
       -2   -1    0    0    0  501  0.00000000000E+00  0.00000000000E+00 -0.94715398569E+03  0.94715398569E+03  0.25500000920E-02 0.  1.
    10030    2    1    2    0    0  0.00000000000E+00  0.00000000000E+00  0.59613355975E+00  0.18949041049E+04  0.18949040112E+04 0.  0.
        3    1    3    3  502    0  0.76138829633E+03 -0.29081737569E+03  0.48339063761E+03  0.94760403256E+03  0.10100000352E+00 0. -1.
       -3    1    3    3    0  502 -0.76138829633E+03  0.29081737569E+03 -0.48279450405E+03  0.94730007238E+03  0.10100000352E+00 0.  1.
</event>
<event>
 5   0  0.2608744E-04  0.1937302E+04  0.7818609E-02  0.8636509E-01
        2   -1    0    0  501    0  0.00000000000E+00  0.00000000000E+00  0.17952201067E+04  0.17952201067E+04  0.25500000920E-02 0. -1.
       -2   -1    0    0    0  501  0.00000000000E+00  0.00000000000E+00 -0.52265708359E+03  0.52265708360E+03  0.25500000920E-02 0.  1.
    10030    2    1    2    0    0  0.00000000000E+00  0.00000000000E+00  0.12725630231E+04  0.23178771903E+04  0.19373017374E+04 0.  0.
        2    1    3    3  502    0 -0.14594542567E+03 -0.75216818788E+03 -0.72785665704E+02  0.76964589472E+03  0.25500000920E-02 0.  1.
       -2    1    3    3    0  502  0.14594542567E+03  0.75216818788E+03  0.13453486888E+04  0.15482312956E+04  0.25500000920E-02 0. -1.
</event>
<event>
 5   0  0.1277709E-04  0.1887356E+04  0.7818609E-02  0.8661176E-01
        1   -1    0    0  501    0  0.00000000000E+00  0.00000000000E+00  0.14057191165E+04  0.14057191165E+04  0.50400001928E-02 0. -1.
       -1   -1    0    0    0  501  0.00000000000E+00  0.00000000000E+00 -0.63350368903E+03  0.63350368905E+03  0.50400001928E-02 0.  1.
    10030    2    1    2    0    0  0.00000000000E+00  0.00000000000E+00  0.77221542746E+03  0.20392228055E+04  0.18873560831E+04 0.  0.
        4    1    3    3  502    0  0.65053640680E+02 -0.71201766688E+03  0.10515598952E+04  0.12716056622E+04  0.12699999809E+01 0. -1.
       -4    1    3    3    0  502 -0.65053640680E+02  0.71201766688E+03 -0.27934446777E+03  0.76761714330E+03  0.12699999809E+01 0.  1.
</event>
<event>
 5   0  0.2595012E-04  0.1894869E+04  0.7818609E-02  0.8657415E-01
        2   -1    0    0  501    0  0.00000000000E+00  0.00000000000E+00  0.13311936599E+04  0.13311936599E+04  0.25500000920E-02 0.  1.
       -2   -1    0    0    0  501  0.00000000000E+00  0.00000000000E+00 -0.67430597304E+03  0.67430597305E+03  0.25500000920E-02 0. -1.
    10030    2    1    2    0    0  0.00000000000E+00  0.00000000000E+00  0.65688768690E+03  0.20054996330E+04  0.18948686880E+04 0.  0.
        1    1    3    3  502    0  0.46727201385E+03 -0.22044030130E+03  0.11689735826E+04  0.12780595832E+04  0.50400001928E-02 0.  1.
       -1    1    3    3    0  502 -0.46727201385E+03  0.22044030130E+03 -0.51208589574E+03  0.72744004976E+03  0.50400001928E-02 0. -1.
</event>
<event>
 5   0  0.2541124E-04  0.1898983E+04  0.7818609E-02  0.8655363E-01
       -2   -1    0    0    0  501  0.00000000000E+00  0.00000000000E+00  0.11276924055E+04  0.11276924055E+04  0.25500000920E-02 0.  1.
        2   -1    0    0  501    0  0.00000000000E+00  0.00000000000E+00 -0.79945008223E+03  0.79945008224E+03  0.25500000920E-02 0. -1.
    10030    2    1    2    0    0  0.00000000000E+00  0.00000000000E+00  0.32824232324E+03  0.19271424877E+04  0.18989826606E+04 0.  0.
        5    1    3    3  502    0 -0.79176889314E+03 -0.51112236327E+03  0.46788129491E+02  0.94358638684E+03  0.46999998093E+01 0. -1.
       -5    1    3    3    0  502  0.79176889314E+03  0.51112236327E+03  0.28145419375E+03  0.98355610087E+03  0.46999998093E+01 0.  1.
</event>
<event>
 5   0  0.1277709E-04  0.1924363E+04  0.7818609E-02  0.8642823E-01
        1   -1    0    0  501    0  0.00000000000E+00  0.00000000000E+00  0.91723720168E+03  0.91723720169E+03  0.50400001928E-02 0.  1.
       -1   -1    0    0    0  501  0.00000000000E+00  0.00000000000E+00 -0.10093280970E+04  0.10093280970E+04  0.50400001928E-02 0. -1.
    10030    2    1    2    0    0  0.00000000000E+00  0.00000000000E+00 -0.92090895302E+02  0.19265652987E+04  0.19243630419E+04 0.  0.
        4    1    3    3  502    0  0.72177005284E+03  0.63380513814E+03  0.99712799728E+01  0.96060501853E+03  0.12699999809E+01 0. -1.
       -4    1    3    3    0  502 -0.72177005284E+03 -0.63380513814E+03 -0.10206217528E+03  0.96596028015E+03  0.12699999809E+01 0.  1.
</event>
<event>
 5   0  0.2595012E-04  0.1898286E+04  0.7818609E-02  0.8655710E-01
        2   -1    0    0  501    0  0.00000000000E+00  0.00000000000E+00  0.11120071692E+04  0.11120071692E+04  0.25500000920E-02 0. -1.
       -2   -1    0    0    0  501  0.00000000000E+00  0.00000000000E+00 -0.81013173769E+03  0.81013173769E+03  0.25500000920E-02 0.  1.
    10030    2    1    2    0    0  0.00000000000E+00  0.00000000000E+00  0.30187543152E+03  0.19221389069E+04  0.18982858587E+04 0.  0.
        1    1    3    3  502    0  0.41613076243E+03  0.70669328303E+03  0.63474075422E+03  0.10370516057E+04  0.50400001928E-02 0. -1.
       -1    1    3    3    0  502 -0.41613076243E+03 -0.70669328303E+03 -0.33286532270E+03  0.88508730124E+03  0.50400001928E-02 0.  1.
</event>
<event>
 5   0  0.1317527E-04  0.1817933E+04  0.7818609E-02  0.8696821E-01
        1   -1    0    0  501    0  0.00000000000E+00  0.00000000000E+00  0.92880545308E+03  0.92880545309E+03  0.50400001928E-02 0. -1.
       -1   -1    0    0    0  501  0.00000000000E+00  0.00000000000E+00 -0.88955131036E+03  0.88955131037E+03  0.50400001928E-02 0.  1.
    10030    2    1    2    0    0  0.00000000000E+00  0.00000000000E+00  0.39254142724E+02  0.18183567635E+04  0.18179330107E+04 0.  0.
        1    1    3    3  502    0  0.18837600244E+03 -0.27671658977E+03 -0.82565128162E+03  0.89093076511E+03  0.50400001928E-02 0.  1.
       -1    1    3    3    0  502 -0.18837600244E+03  0.27671658977E+03  0.86490542434E+03  0.92742599836E+03  0.50400001928E-02 0. -1.
</event>
<event>
 5   0  0.2595012E-04  0.1742100E+04  0.7818609E-02  0.8737711E-01
       -2   -1    0    0    0  501  0.00000000000E+00  0.00000000000E+00  0.74074282351E+03  0.74074282352E+03  0.25500000920E-02 0. -1.
        2   -1    0    0  501    0  0.00000000000E+00  0.00000000000E+00 -0.10242803712E+04  0.10242803712E+04  0.25500000920E-02 0.  1.
    10030    2    1    2    0    0  0.00000000000E+00  0.00000000000E+00 -0.28353754768E+03  0.17650231947E+04  0.17421002660E+04 0.  0.
        1    1    3    3  502    0 -0.21547002294E+03  0.90596233834E+02  0.70837501008E+03  0.74594246648E+03  0.50400001928E-02 0. -1.
       -1    1    3    3    0  502  0.21547002294E+03 -0.90596233834E+02 -0.99191255777E+03  0.10190807282E+04  0.50400001928E-02 0.  1.
</event>
<event>
 5   0  0.1277709E-04  0.1910432E+04  0.7818609E-02  0.8649681E-01
       -1   -1    0    0    0  501  0.00000000000E+00  0.00000000000E+00  0.35150228538E+03  0.35150228541E+03  0.50400001928E-02 0.  1.
        1   -1    0    0  501    0  0.00000000000E+00  0.00000000000E+00 -0.25958237515E+04  0.25958237515E+04  0.50400001928E-02 0. -1.
    10030    2    1    2    0    0  0.00000000000E+00  0.00000000000E+00 -0.22443214661E+04  0.29473260369E+04  0.19104323920E+04 0.  0.
        4    1    3    3  502    0 -0.73422364622E+03 -0.31493789770E+03 -0.19299599083E+04  0.20887836419E+04  0.12699999809E+01 0. -1.
       -4    1    3    3    0  502  0.73422364622E+03  0.31493789770E+03 -0.31436155778E+03  0.85854239498E+03  0.12699999809E+01 0.  1.
</event>
<event>
 5   0  0.2608744E-04  0.1870401E+04  0.7818609E-02  0.8669731E-01
        2   -1    0    0  501    0  0.00000000000E+00  0.00000000000E+00  0.11875508905E+04  0.11875508905E+04  0.25500000920E-02 0. -1.
       -2   -1    0    0    0  501  0.00000000000E+00  0.00000000000E+00 -0.73647382343E+03  0.73647382344E+03  0.25500000920E-02 0.  1.
    10030    2    1    2    0    0  0.00000000000E+00  0.00000000000E+00  0.45107706711E+03  0.19240247140E+04  0.18704011814E+04 0.  0.
        2    1    3    3  502    0  0.83293619024E+03  0.40533555291E+03  0.35775573592E+03  0.99300995668E+03  0.25500000920E-02 0. -1.
       -2    1    3    3    0  502 -0.83293619024E+03 -0.40533555291E+03  0.93321331192E+02  0.93101475731E+03  0.25500000920E-02 0.  1.
</event>
<event>
 5   0  0.2608744E-04  0.1850856E+04  0.7818609E-02  0.8679713E-01
        2   -1    0    0  501    0  0.00000000000E+00  0.00000000000E+00  0.14661486420E+04  0.14661486420E+04  0.25500000920E-02 0. -1.
       -2   -1    0    0    0  501  0.00000000000E+00  0.00000000000E+00 -0.58412679670E+03  0.58412679671E+03  0.25500000920E-02 0.  1.
    10030    2    1    2    0    0  0.00000000000E+00  0.00000000000E+00  0.88202184531E+03  0.20502754387E+04  0.18508557045E+04 0.  0.
        2    1    3    3  502    0 -0.60417514196E+02 -0.53686625541E+03  0.12733253322E+04  0.13831966794E+04  0.25500000920E-02 0. -1.
       -2    1    3    3    0  502  0.60417514196E+02  0.53686625541E+03 -0.39130348693E+03  0.66707875930E+03  0.25500000920E-02 0.  1.
</event>
<event>
 5   0  0.1277709E-04  0.1906323E+04  0.7818609E-02  0.8651715E-01
       -1   -1    0    0    0  501  0.00000000000E+00  0.00000000000E+00  0.90001440957E+03  0.90001440959E+03  0.50400001928E-02 0.  1.
        1   -1    0    0  501    0  0.00000000000E+00  0.00000000000E+00 -0.10094474980E+04  0.10094474980E+04  0.50400001928E-02 0. -1.
    10030    2    1    2    0    0  0.00000000000E+00  0.00000000000E+00 -0.10943308841E+03  0.19094619076E+04  0.19063234709E+04 0.  0.
        4    1    3    3  502    0 -0.83344273758E+03  0.44735316577E+03 -0.17222989167E+03  0.96146575614E+03  0.12699999809E+01 0. -1.
       -4    1    3    3    0  502  0.83344273758E+03 -0.44735316577E+03  0.62796803260E+02  0.94799615144E+03  0.12699999809E+01 0.  1.
</event>
<event>
 5   0  0.1324058E-04  0.1877868E+04  0.7818609E-02  0.8665952E-01
       -1   -1    0    0    0  501  0.00000000000E+00  0.00000000000E+00  0.75380299314E+03  0.75380299315E+03  0.50400001928E-02 0. -1.
        1   -1    0    0  501    0  0.00000000000E+00  0.00000000000E+00 -0.11695323052E+04  0.11695323052E+04  0.50400001928E-02 0.  1.
    10030    2    1    2    0    0  0.00000000000E+00  0.00000000000E+00 -0.41572931206E+03  0.19233352984E+04  0.18778678891E+04 0.  0.
        5    1    3    3  502    0  0.93697432490E+03 -0.43829190940E+01 -0.14611589610E+03  0.94832064229E+03  0.46999998093E+01 0. -1.
       -5    1    3    3    0  502 -0.93697432490E+03  0.43829190940E+01 -0.26961341596E+03  0.97501465607E+03  0.46999998093E+01 0.  1.
</event>
<event>
 5   0  0.1255141E-04  0.1978611E+04  0.7818609E-02  0.8616686E-01
        1   -1    0    0  501    0  0.00000000000E+00  0.00000000000E+00  0.99901068707E+03  0.99901068709E+03  0.50400001928E-02 0. -1.
       -1   -1    0    0    0  501  0.00000000000E+00  0.00000000000E+00 -0.97969509149E+03  0.97969509150E+03  0.50400001928E-02 0.  1.
    10030    2    1    2    0    0  0.00000000000E+00  0.00000000000E+00  0.19315595582E+02  0.19787057786E+04  0.19786114995E+04 0.  0.
        2    1    3    3  502    0 -0.27239657828E+03  0.94898857374E+03  0.72483219804E+02  0.98996617423E+03  0.25500000920E-02 0. -1.
       -2    1    3    3    0  502  0.27239657828E+03 -0.94898857374E+03 -0.53167624222E+02  0.98873960436E+03  0.25500000920E-02 0.  1.
</event>
<event>
 5   0  0.2651828E-04  0.1923376E+04  0.7818609E-02  0.8643308E-01
       -2   -1    0    0    0  501  0.00000000000E+00  0.00000000000E+00  0.19286519630E+04  0.19286519630E+04  0.25500000920E-02 0.  1.
        2   -1    0    0  501    0  0.00000000000E+00  0.00000000000E+00 -0.47952838448E+03  0.47952838448E+03  0.25500000920E-02 0. -1.
    10030    2    1    2    0    0  0.00000000000E+00  0.00000000000E+00  0.14491235785E+04  0.24081803475E+04  0.19233755328E+04 0.  0.
        3    1    3    3  502    0 -0.89088309209E+03 -0.23015360513E+03  0.10746909262E+04  0.14147805352E+04  0.10100000352E+00 0.  1.
       -3    1    3    3    0  502  0.89088309209E+03  0.23015360513E+03  0.37443265234E+03  0.99339981229E+03  0.10100000352E+00 0. -1.
</event>
<event>
 5   0  0.1255141E-04  0.1860026E+04  0.7818609E-02  0.8675014E-01
        1   -1    0    0  501    0  0.00000000000E+00  0.00000000000E+00  0.14202869091E+04  0.14202869091E+04  0.50400001928E-02 0.  1.
       -1   -1    0    0    0  501  0.00000000000E+00  0.00000000000E+00 -0.60897847407E+03  0.60897847409E+03  0.50400001928E-02 0. -1.
    10030    2    1    2    0    0  0.00000000000E+00  0.00000000000E+00  0.81130843504E+03  0.20292653832E+04  0.18600259726E+04 0.  0.
        2    1    3    3  502    0 -0.63822791382E+03  0.43158039927E+03  0.97394009037E+03  0.12418356617E+04  0.25500000920E-02 0.  1.
       -2    1    3    3    0  502  0.63822791382E+03 -0.43158039927E+03 -0.16263165533E+03  0.78742972152E+03  0.25500000920E-02 0. -1.
</event>
<event>
 5   0  0.1317527E-04  0.1893935E+04  0.7818609E-02  0.8657881E-01
       -1   -1    0    0    0  501  0.00000000000E+00  0.00000000000E+00  0.35266547721E+03  0.35266547725E+03  0.50400001928E-02 0.  1.
        1   -1    0    0  501    0  0.00000000000E+00  0.00000000000E+00 -0.25427708840E+04  0.25427708840E+04  0.50400001928E-02 0. -1.
    10030    2    1    2    0    0  0.00000000000E+00  0.00000000000E+00 -0.21901054068E+04  0.28954363613E+04  0.18939350647E+04 0.  0.
        1    1    3    3  502    0 -0.91433113736E+02  0.31589650485E+02 -0.25351973136E+04  0.25370422423E+04  0.50400001928E-02 0. -1.
       -1    1    3    3    0  502  0.91433113736E+02 -0.31589650485E+02  0.34509190683E+03  0.35839411894E+03  0.50400001928E-02 0.  1.
</event>
<event>
 5   0  0.2595012E-04  0.1894610E+04  0.7818609E-02  0.8657544E-01
       -2   -1    0    0    0  501  0.00000000000E+00  0.00000000000E+00  0.14573287562E+04  0.14573287562E+04  0.25500000920E-02 0.  1.
        2   -1    0    0  501    0  0.00000000000E+00  0.00000000000E+00 -0.61577512911E+03  0.61577512912E+03  0.25500000920E-02 0. -1.
    10030    2    1    2    0    0  0.00000000000E+00  0.00000000000E+00  0.84155362704E+03  0.20731038853E+04  0.18946100422E+04 0.  0.
        1    1    3    3  502    0  0.28175310917E+03 -0.26751121781E+03  0.13661398254E+04  0.14203116168E+04  0.50400001928E-02 0.  1.
       -1    1    3    3    0  502 -0.28175310917E+03  0.26751121781E+03 -0.52458619840E+03  0.65279226846E+03  0.50400001928E-02 0. -1.
</event>
<event>
 5   0  0.9266125E-05  0.1610233E+04  0.7818609E-02  0.8814286E-01
        3   -1    0    0  501    0  0.00000000000E+00  0.00000000000E+00  0.24067758732E+04  0.24067758753E+04  0.10100000352E+00 0. -1.
       -3   -1    0    0    0  501  0.00000000000E+00  0.00000000000E+00 -0.26932822599E+03  0.26932824492E+03  0.10100000352E+00 0.  1.
    10030    2    1    2    0    0  0.00000000000E+00  0.00000000000E+00  0.21374476472E+04  0.26761041202E+04  0.16102331563E+04 0.  0.
        4    1    3    3  502    0 -0.20417619571E+03 -0.62959056495E+02  0.23587964179E+04  0.23684539083E+04  0.12699999809E+01 0. -1.
       -4    1    3    3    0  502  0.20417619571E+03  0.62959056495E+02 -0.22134877073E+03  0.30765021191E+03  0.12699999809E+01 0.  1.
</event>
<event>
 5   0  0.1324058E-04  0.1884537E+04  0.7818609E-02  0.8662592E-01
        1   -1    0    0  501    0  0.00000000000E+00  0.00000000000E+00  0.11501285228E+04  0.11501285228E+04  0.50400001928E-02 0.  1.
       -1   -1    0    0    0  501  0.00000000000E+00  0.00000000000E+00 -0.77197425666E+03  0.77197425668E+03  0.50400001928E-02 0. -1.
    10030    2    1    2    0    0  0.00000000000E+00  0.00000000000E+00  0.37815426617E+03  0.19221027795E+04  0.18845366661E+04 0.  0.
        5    1    3    3  502    0 -0.26689673454E+03 -0.56456938979E+03  0.90874514665E+03  0.11026387869E+04  0.46999998093E+01 0.  1.
       -5    1    3    3    0  502  0.26689673454E+03  0.56456938979E+03 -0.53059088047E+03  0.81946399264E+03  0.46999998093E+01 0. -1.
</event>
<event>
 5   0  0.2608744E-04  0.2003299E+04  0.7818609E-02  0.8605080E-01
        2   -1    0    0  501    0  0.00000000000E+00  0.00000000000E+00  0.12322478946E+04  0.12322478946E+04  0.25500000920E-02 0.  1.
       -2   -1    0    0    0  501  0.00000000000E+00  0.00000000000E+00 -0.81420423687E+03  0.81420423687E+03  0.25500000920E-02 0. -1.
    10030    2    1    2    0    0  0.00000000000E+00  0.00000000000E+00  0.41804365771E+03  0.20464521314E+04  0.20032987362E+04 0.  0.
        2    1    3    3  502    0  0.46061186452E+03 -0.76692196294E+03  0.66924723539E+03  0.11172396561E+04  0.25500000920E-02 0.  1.
       -2    1    3    3    0  502 -0.46061186452E+03  0.76692196294E+03 -0.25120357768E+03  0.92921247539E+03  0.25500000920E-02 0. -1.
</event>
<event>
 5   0  0.2608744E-04  0.2269736E+04  0.7818609E-02  0.8489950E-01
        2   -1    0    0  501    0  0.00000000000E+00  0.00000000000E+00  0.15622646220E+04  0.15622646220E+04  0.25500000920E-02 0.  1.
       -2   -1    0    0    0  501  0.00000000000E+00  0.00000000000E+00 -0.82439643696E+03  0.82439643697E+03  0.25500000920E-02 0. -1.
    10030    2    1    2    0    0  0.00000000000E+00  0.00000000000E+00  0.73786818503E+03  0.23866610590E+04  0.22697360093E+04 0.  0.
        2    1    3    3  502    0  0.87171182729E+02  0.92113845376E+03 -0.32205639217E+03  0.97970157999E+03  0.25500000920E-02 0. -1.
       -2    1    3    3    0  502 -0.87171182729E+02 -0.92113845376E+03  0.10599245772E+04  0.14069594790E+04  0.25500000920E-02 0.  1.
</event>
<event>
 5   0  0.1239615E-04  0.1873382E+04  0.7818609E-02  0.8668220E-01
       -1   -1    0    0    0  501  0.00000000000E+00  0.00000000000E+00  0.60945958897E+03  0.60945958899E+03  0.50400001928E-02 0. -1.
        1   -1    0    0  501    0  0.00000000000E+00  0.00000000000E+00 -0.14396202566E+04  0.14396202566E+04  0.50400001928E-02 0.  1.
    10030    2    1    2    0    0  0.00000000000E+00  0.00000000000E+00 -0.83016066761E+03  0.20490798456E+04  0.18733823634E+04 0.  0.
        3    1    3    3  502    0  0.22549692767E+03 -0.46935579402E+03  0.43656177074E+03  0.67950711229E+03  0.10100000352E+00 0. -1.
       -3    1    3    3    0  502 -0.22549692767E+03  0.46935579402E+03 -0.12667224384E+04  0.13695727333E+04  0.10100000352E+00 0.  1.
</event>
<event>
 5   0  0.2541124E-04  0.1909250E+04  0.7818609E-02  0.8650266E-01
       -2   -1    0    0    0  501  0.00000000000E+00  0.00000000000E+00  0.42524928856E+03  0.42524928856E+03  0.25500000920E-02 0.  1.
        2   -1    0    0  501    0  0.00000000000E+00  0.00000000000E+00 -0.21429994750E+04  0.21429994750E+04  0.25500000920E-02 0. -1.
    10030    2    1    2    0    0  0.00000000000E+00  0.00000000000E+00 -0.17177501864E+04  0.25682487636E+04  0.19092501168E+04 0.  0.
        5    1    3    3  502    0 -0.48344638033E+03  0.74117441584E+03 -0.37718912657E+03  0.96195303656E+03  0.46999998093E+01 0.  1.
       -5    1    3    3    0  502  0.48344638033E+03 -0.74117441584E+03 -0.13405610599E+04  0.16062957270E+04  0.46999998093E+01 0. -1.
</event>
<event>
 5   0  0.1277709E-04  0.1920853E+04  0.7818609E-02  0.8644546E-01
        1   -1    0    0  501    0  0.00000000000E+00  0.00000000000E+00  0.92718912543E+03  0.92718912544E+03  0.50400001928E-02 0. -1.
       -1   -1    0    0    0  501  0.00000000000E+00  0.00000000000E+00 -0.99485514703E+03  0.99485514705E+03  0.50400001928E-02 0.  1.
    10030    2    1    2    0    0  0.00000000000E+00  0.00000000000E+00 -0.67666021604E+02  0.19220442725E+04  0.19208528041E+04 0.  0.
        4    1    3    3  502    0 -0.38534433943E+01  0.24593835415E+03  0.89513756487E+03  0.92831750819E+03  0.12699999809E+01 0. -1.
       -4    1    3    3    0  502  0.38534433943E+01 -0.24593835415E+03 -0.96280358647E+03  0.99372676430E+03  0.12699999809E+01 0.  1.
</event>
<event>
 5   0  0.2608744E-04  0.1902265E+04  0.7818609E-02  0.8653730E-01
        2   -1    0    0  501    0  0.00000000000E+00  0.00000000000E+00  0.19564043081E+04  0.19564043081E+04  0.25500000920E-02 0. -1.
       -2   -1    0    0    0  501  0.00000000000E+00  0.00000000000E+00 -0.46240579576E+03  0.46240579577E+03  0.25500000920E-02 0.  1.
    10030    2    1    2    0    0  0.00000000000E+00  0.00000000000E+00  0.14939985124E+04  0.24188101039E+04  0.19022646408E+04 0.  0.
        2    1    3    3  502    0 -0.39341078654E+03 -0.28984336338E+03  0.17845898882E+04  0.18502816789E+04  0.25500000920E-02 0. -1.
       -2    1    3    3    0  502  0.39341078654E+03  0.28984336338E+03 -0.29059137586E+03  0.56852842496E+03  0.25500000920E-02 0.  1.
</event>
<event>
 5   0  0.1324058E-04  0.1868719E+04  0.7818609E-02  0.8670586E-01
       -1   -1    0    0    0  501  0.00000000000E+00  0.00000000000E+00  0.76492852779E+03  0.76492852781E+03  0.50400001928E-02 0. -1.
        1   -1    0    0  501    0  0.00000000000E+00  0.00000000000E+00 -0.11413192013E+04  0.11413192013E+04  0.50400001928E-02 0.  1.
    10030    2    1    2    0    0  0.00000000000E+00  0.00000000000E+00 -0.37639067348E+03  0.19062477291E+04  0.18687189370E+04 0.  0.
        5    1    3    3  502    0 -0.73269699059E+03 -0.72490959772E+02 -0.77499179169E+03  0.10689874585E+04  0.46999998093E+01 0.  1.
       -5    1    3    3    0  502  0.73269699059E+03  0.72490959772E+02  0.39860111821E+03  0.83726027059E+03  0.46999998093E+01 0. -1.
</event>
<event>
 5   0  0.9266125E-05  0.1933532E+04  0.7818609E-02  0.8638343E-01
        3   -1    0    0  501    0  0.00000000000E+00  0.00000000000E+00  0.11431550615E+04  0.11431550660E+04  0.10100000352E+00 0. -1.
       -3   -1    0    0    0  501  0.00000000000E+00  0.00000000000E+00 -0.81759338004E+03  0.81759338628E+03  0.10100000352E+00 0.  1.
    10030    2    1    2    0    0  0.00000000000E+00  0.00000000000E+00  0.32556168148E+03  0.19607484523E+04  0.19335315060E+04 0.  0.
        4    1    3    3  502    0  0.58087511561E+03  0.14491012132E+03 -0.60699562250E+03  0.85256093145E+03  0.12699999809E+01 0. -1.
       -4    1    3    3    0  502 -0.58087511561E+03 -0.14491012132E+03  0.93255730398E+03  0.11081875208E+04  0.12699999809E+01 0.  1.
</event>
<event>
 5   0  0.1255141E-04  0.1906592E+04  0.7818609E-02  0.8651582E-01
       -1   -1    0    0    0  501  0.00000000000E+00  0.00000000000E+00  0.76164759684E+03  0.76164759686E+03  0.50400001928E-02 0.  1.
        1   -1    0    0  501    0  0.00000000000E+00  0.00000000000E+00 -0.11931682222E+04  0.11931682222E+04  0.50400001928E-02 0. -1.
    10030    2    1    2    0    0  0.00000000000E+00  0.00000000000E+00 -0.43152062533E+03  0.19548158190E+04  0.19065924673E+04 0.  0.
        2    1    3    3  502    0  0.68291140945E+01 -0.94996858293E+03 -0.29705488315E+03  0.99535347941E+03  0.25500000920E-02 0.  1.
       -2    1    3    3    0  502 -0.68291140945E+01  0.94996858293E+03 -0.13446574218E+03  0.95946233964E+03  0.25500000920E-02 0. -1.
</event>
<event>
 5   0  0.1324058E-04  0.1916631E+04  0.7818609E-02  0.8646622E-01
       -1   -1    0    0    0  501  0.00000000000E+00  0.00000000000E+00  0.56399335531E+03  0.56399335533E+03  0.50400001928E-02 0. -1.
        1   -1    0    0  501    0  0.00000000000E+00  0.00000000000E+00 -0.16283322630E+04  0.16283322630E+04  0.50400001928E-02 0.  1.
    10030    2    1    2    0    0  0.00000000000E+00  0.00000000000E+00 -0.10643389077E+04  0.21923256183E+04  0.19166309781E+04 0.  0.
        5    1    3    3  502    0 -0.38521785625E+03  0.48664625132E+03 -0.13673545893E+04  0.15016317903E+04  0.46999998093E+01 0.  1.
       -5    1    3    3    0  502  0.38521785625E+03 -0.48664625132E+03  0.30301568167E+03  0.69069382800E+03  0.46999998093E+01 0. -1.
</event>
<event>
 5   0  0.2608744E-04  0.1847804E+04  0.7818609E-02  0.8681283E-01
        2   -1    0    0  501    0  0.00000000000E+00  0.00000000000E+00  0.18231103981E+04  0.18231103981E+04  0.25500000920E-02 0. -1.
       -2   -1    0    0    0  501  0.00000000000E+00  0.00000000000E+00 -0.46820789048E+03  0.46820789049E+03  0.25500000920E-02 0.  1.
    10030    2    1    2    0    0  0.00000000000E+00  0.00000000000E+00  0.13549025076E+04  0.22913182886E+04  0.18478037489E+04 0.  0.
        2    1    3    3  502    0 -0.41541394590E+03  0.33752783816E+03 -0.25636136939E+03  0.59347699173E+03  0.25500000920E-02 0.  1.
       -2    1    3    3    0  502  0.41541394590E+03 -0.33752783816E+03  0.16112638770E+04  0.16978412969E+04  0.25500000920E-02 0. -1.
</event>
<event>
 5   0  0.2608744E-04  0.1888159E+04  0.7818609E-02  0.8660773E-01
       -2   -1    0    0    0  501  0.00000000000E+00  0.00000000000E+00  0.63406194566E+03  0.63406194567E+03  0.25500000920E-02 0. -1.
        2   -1    0    0  501    0  0.00000000000E+00  0.00000000000E+00 -0.14056772581E+04  0.14056772581E+04  0.25500000920E-02 0.  1.
    10030    2    1    2    0    0  0.00000000000E+00  0.00000000000E+00 -0.77161531242E+03  0.20397392037E+04  0.18881593759E+04 0.  0.
        2    1    3    3  502    0 -0.14174519418E+03 -0.35145171976E+03 -0.13199065187E+04  0.13732309455E+04  0.25500000920E-02 0.  1.
       -2    1    3    3    0  502  0.14174519418E+03  0.35145171976E+03  0.54829120633E+03  0.66650825827E+03  0.25500000920E-02 0. -1.
</event>
<event>
 5   0  0.1277709E-04  0.1938824E+04  0.7818609E-02  0.8635769E-01
       -1   -1    0    0    0  501  0.00000000000E+00  0.00000000000E+00  0.70823851863E+03  0.70823851865E+03  0.50400001928E-02 0.  1.
        1   -1    0    0  501    0  0.00000000000E+00  0.00000000000E+00 -0.13268973614E+04  0.13268973614E+04  0.50400001928E-02 0. -1.
    10030    2    1    2    0    0  0.00000000000E+00  0.00000000000E+00 -0.61865884275E+03  0.20351358800E+04  0.19388242021E+04 0.  0.
        4    1    3    3  502    0  0.56356662203E+03  0.14713563968E+03  0.50408561961E+03  0.77029874641E+03  0.12699999809E+01 0.  1.
       -4    1    3    3    0  502 -0.56356662203E+03 -0.14713563968E+03 -0.11227444624E+04  0.12648371336E+04  0.12699999809E+01 0. -1.
</event>
<event>
 5   0  0.2562925E-04  0.1869506E+04  0.7818609E-02  0.8670186E-01
        2   -1    0    0  501    0  0.00000000000E+00  0.00000000000E+00  0.81471427955E+03  0.81471427955E+03  0.25500000920E-02 0.  1.
       -2   -1    0    0    0  501  0.00000000000E+00  0.00000000000E+00 -0.10724774682E+04  0.10724774682E+04  0.25500000920E-02 0. -1.
    10030    2    1    2    0    0  0.00000000000E+00  0.00000000000E+00 -0.25776318868E+03  0.18871917478E+04  0.18695055045E+04 0.  0.
        4    1    3    3  502    0 -0.24994867987E+03  0.18194597078E+03  0.76161033391E+03  0.82196751303E+03  0.12699999809E+01 0.  1.
       -4    1    3    3    0  502  0.24994867987E+03 -0.18194597078E+03 -0.10193735226E+04  0.10652242348E+04  0.12699999809E+01 0. -1.
</event>
<event>
 5   0  0.9266125E-05  0.1933401E+04  0.7818609E-02  0.8638407E-01
        3   -1    0    0  501    0  0.00000000000E+00  0.00000000000E+00  0.10807711803E+04  0.10807711850E+04  0.10100000352E+00 0.  1.
       -3   -1    0    0    0  501  0.00000000000E+00  0.00000000000E+00 -0.86466979973E+03  0.86466980563E+03  0.10100000352E+00 0. -1.
    10030    2    1    2    0    0  0.00000000000E+00  0.00000000000E+00  0.21610138059E+03  0.19454409907E+04  0.19334013659E+04 0.  0.
        5    1    3    3  502    0 -0.65143910810E+03 -0.28639757382E+03  0.76641217179E+03  0.10458518963E+04  0.46999998093E+01 0.  1.
       -5    1    3    3    0  502  0.65143910810E+03  0.28639757382E+03 -0.55031079120E+03  0.89958909440E+03  0.46999998093E+01 0. -1.
</event>
<event>
 5   0  0.9266125E-05  0.1912992E+04  0.7818609E-02  0.8648416E-01
        3   -1    0    0  501    0  0.00000000000E+00  0.00000000000E+00  0.59456983610E+03  0.59456984467E+03  0.10100000352E+00 0.  1.
       -3   -1    0    0    0  501  0.00000000000E+00  0.00000000000E+00 -0.15387331422E+04  0.15387331455E+04  0.10100000352E+00 0. -1.
    10030    2    1    2    0    0  0.00000000000E+00  0.00000000000E+00 -0.94416330613E+03  0.21333029902E+04  0.19129917144E+04 0.  0.
        4    1    3    3  502    0  0.69811424393E+02 -0.36688417448E+03  0.50990090496E+03  0.63204286108E+03  0.12699999809E+01 0.  1.
       -4    1    3    3    0  502 -0.69811424393E+02  0.36688417448E+03 -0.14540642111E+04  0.15012601291E+04  0.12699999809E+01 0. -1.
</event>
<event>
 5   0  0.1239615E-04  0.1920552E+04  0.7818609E-02  0.8644693E-01
        1   -1    0    0  501    0  0.00000000000E+00  0.00000000000E+00  0.68182366078E+03  0.68182366080E+03  0.50400001928E-02 0. -1.
       -1   -1    0    0    0  501  0.00000000000E+00  0.00000000000E+00 -0.13524465953E+04  0.13524465953E+04  0.50400001928E-02 0.  1.
    10030    2    1    2    0    0  0.00000000000E+00  0.00000000000E+00 -0.67062293451E+03  0.20342702561E+04  0.19205520963E+04 0.  0.
        3    1    3    3  502    0  0.38698632353E+03 -0.36962714736E+03  0.50923755901E+03  0.73871885341E+03  0.10100000352E+00 0. -1.
       -3    1    3    3    0  502 -0.38698632353E+03  0.36962714736E+03 -0.11798604935E+04  0.12955514027E+04  0.10100000352E+00 0.  1.
</event>
<event>
 5   0  0.2608744E-04  0.1894877E+04  0.7818609E-02  0.8657411E-01
        2   -1    0    0  501    0  0.00000000000E+00  0.00000000000E+00  0.53091796470E+03  0.53091796471E+03  0.25500000920E-02 0.  1.
       -2   -1    0    0    0  501  0.00000000000E+00  0.00000000000E+00 -0.16907318769E+04  0.16907318769E+04  0.25500000920E-02 0. -1.
    10030    2    1    2    0    0  0.00000000000E+00  0.00000000000E+00 -0.11598139122E+04  0.22216498416E+04  0.18948772276E+04 0.  0.
        2    1    3    3  502    0 -0.88988008501E+03 -0.28155162258E+03 -0.77070340766E+03  0.12104303468E+04  0.25500000920E-02 0. -1.
       -2    1    3    3    0  502  0.88988008501E+03  0.28155162258E+03 -0.38911050450E+03  0.10112194948E+04  0.25500000920E-02 0.  1.
</event>
<event>
 5   0  0.1317527E-04  0.1907926E+04  0.7818609E-02  0.8650921E-01
        1   -1    0    0  501    0  0.00000000000E+00  0.00000000000E+00  0.18718293430E+04  0.18718293430E+04  0.50400001928E-02 0. -1.
       -1   -1    0    0    0  501  0.00000000000E+00  0.00000000000E+00 -0.48617989181E+03  0.48617989183E+03  0.50400001928E-02 0.  1.
    10030    2    1    2    0    0  0.00000000000E+00  0.00000000000E+00  0.13856494512E+04  0.23580092348E+04  0.19079264006E+04 0.  0.
        1    1    3    3  502    0 -0.29853774074E+03 -0.40691528104E+03  0.16933257559E+04  0.17669343350E+04  0.50400001928E-02 0. -1.
       -1    1    3    3    0  502  0.29853774074E+03  0.40691528104E+03 -0.30767630477E+03  0.59107489977E+03  0.50400001928E-02 0.  1.
</event>
<event>
 5   0  0.2608744E-04  0.1927421E+04  0.7818609E-02  0.8641326E-01
       -2   -1    0    0    0  501  0.00000000000E+00  0.00000000000E+00  0.53628231786E+03  0.53628231786E+03  0.25500000920E-02 0. -1.
        2   -1    0    0  501    0  0.00000000000E+00  0.00000000000E+00 -0.17318079918E+04  0.17318079918E+04  0.25500000920E-02 0.  1.
    10030    2    1    2    0    0  0.00000000000E+00  0.00000000000E+00 -0.11955256739E+04  0.22680903097E+04  0.19274210790E+04 0.  0.
        2    1    3    3  502    0 -0.58285535102E+03 -0.67565346586E+03 -0.10261220655E+04  0.13598361884E+04  0.25500000920E-02 0.  1.
       -2    1    3    3    0  502  0.58285535102E+03  0.67565346586E+03 -0.16940360847E+03  0.90825412122E+03  0.25500000920E-02 0. -1.
</event>
<event>
 5   0  0.2608744E-04  0.1922142E+04  0.7818609E-02  0.8643913E-01
        2   -1    0    0  501    0  0.00000000000E+00  0.00000000000E+00  0.11502291245E+04  0.11502291245E+04  0.25500000920E-02 0.  1.
       -2   -1    0    0    0  501  0.00000000000E+00  0.00000000000E+00 -0.80302067289E+03  0.80302067290E+03  0.25500000920E-02 0. -1.
    10030    2    1    2    0    0  0.00000000000E+00  0.00000000000E+00  0.34720845157E+03  0.19532497974E+04  0.19221423106E+04 0.  0.
        2    1    3    3  502    0  0.70889631222E+03  0.64237998985E+03  0.26713582731E+03  0.99325101715E+03  0.25500000920E-02 0. -1.
       -2    1    3    3    0  502 -0.70889631222E+03 -0.64237998985E+03  0.80072624252E+02  0.95999878021E+03  0.25500000920E-02 0.  1.
</event>
<event>
 5   0  0.1239615E-04  0.1937890E+04  0.7818609E-02  0.8636223E-01
        1   -1    0    0  501    0  0.00000000000E+00  0.00000000000E+00  0.13362989866E+04  0.13362989866E+04  0.50400001928E-02 0. -1.
       -1   -1    0    0    0  501  0.00000000000E+00  0.00000000000E+00 -0.70257780731E+03  0.70257780733E+03  0.50400001928E-02 0.  1.
    10030    2    1    2    0    0  0.00000000000E+00  0.00000000000E+00  0.63372117929E+03  0.20388767939E+04  0.19378895861E+04 0.  0.
        3    1    3    3  502    0  0.52234505446E+03 -0.45616131230E+03  0.10288275558E+04  0.12407310944E+04  0.10100000352E+00 0. -1.
       -3    1    3    3    0  502 -0.52234505446E+03  0.45616131230E+03 -0.39510637652E+03  0.79814569956E+03  0.10100000352E+00 0.  1.
</event>
<event>
 5   0  0.1317527E-04  0.2082101E+04  0.7818609E-02  0.8569169E-01
       -1   -1    0    0    0  501  0.00000000000E+00  0.00000000000E+00  0.69673356401E+03  0.69673356403E+03  0.50400001928E-02 0. -1.
        1   -1    0    0  501    0  0.00000000000E+00  0.00000000000E+00 -0.15555246345E+04  0.15555246345E+04  0.50400001928E-02 0.  1.
    10030    2    1    2    0    0  0.00000000000E+00  0.00000000000E+00 -0.85879107046E+03  0.22522581985E+04  0.20821010758E+04 0.  0.
        1    1    3    3  502    0  0.86131448899E+03 -0.17005672617E+02 -0.10616576401E+04  0.13672120489E+04  0.50400001928E-02 0.  1.
       -1    1    3    3    0  502 -0.86131448899E+03  0.17005672617E+02  0.20286656963E+03  0.88504614962E+03  0.50400001928E-02 0. -1.
</event>
<event>
 5   0  0.1239615E-04  0.1838432E+04  0.7818609E-02  0.8686125E-01
        1   -1    0    0  501    0  0.00000000000E+00  0.00000000000E+00  0.13026748603E+04  0.13026748603E+04  0.50400001928E-02 0. -1.
       -1   -1    0    0    0  501  0.00000000000E+00  0.00000000000E+00 -0.64863287241E+03  0.64863287243E+03  0.50400001928E-02 0.  1.
    10030    2    1    2    0    0  0.00000000000E+00  0.00000000000E+00  0.65404198790E+03  0.19513077327E+04  0.18384316539E+04 0.  0.
        3    1    3    3  502    0 -0.62774840170E+03  0.52457137618E+03 -0.11789921108E+03  0.82652490508E+03  0.10100000352E+00 0.  1.
       -3    1    3    3    0  502  0.62774840170E+03 -0.52457137618E+03  0.77194119898E+03  0.11247828277E+04  0.10100000352E+00 0. -1.
</event>
<event>
 5   0  0.9266125E-05  0.1805942E+04  0.7818609E-02  0.8703146E-01
       -3   -1    0    0    0  501  0.00000000000E+00  0.00000000000E+00  0.66161463413E+03  0.66161464184E+03  0.10100000352E+00 0. -1.
        3   -1    0    0  501    0  0.00000000000E+00  0.00000000000E+00 -0.12323745006E+04  0.12323745048E+04  0.10100000352E+00 0.  1.
    10030    2    1    2    0    0  0.00000000000E+00  0.00000000000E+00 -0.57075986651E+03  0.18939891466E+04  0.18059424305E+04 0.  0.
        3    1    3    3  502    0 -0.54371555539E+03 -0.51295265450E+03  0.24588402149E+03  0.78689643102E+03  0.10100000352E+00 0. -1.
       -3    1    3    3    0  502  0.54371555539E+03  0.51295265450E+03 -0.81664388800E+03  0.11070927156E+04  0.10100000352E+00 0.  1.
</event>
<event>
 5   0  0.1277709E-04  0.1863607E+04  0.7818609E-02  0.8673186E-01
        1   -1    0    0  501    0  0.00000000000E+00  0.00000000000E+00  0.20142691654E+04  0.20142691654E+04  0.50400001928E-02 0.  1.
       -1   -1    0    0    0  501  0.00000000000E+00  0.00000000000E+00 -0.43105365265E+03  0.43105365268E+03  0.50400001928E-02 0. -1.
    10030    2    1    2    0    0  0.00000000000E+00  0.00000000000E+00  0.15832155127E+04  0.24453228180E+04  0.18636073419E+04 0.  0.
        4    1    3    3  502    0  0.42896981811E+03  0.59008376482E+03  0.15522473012E+04  0.17151347619E+04  0.12699999809E+01 0.  1.
       -4    1    3    3    0  502 -0.42896981811E+03 -0.59008376482E+03  0.30968211493E+02  0.73018805617E+03  0.12699999809E+01 0. -1.
</event>
<event>
 5   0  0.1277709E-04  0.1904068E+04  0.7818609E-02  0.8652834E-01
       -1   -1    0    0    0  501  0.00000000000E+00  0.00000000000E+00  0.83276727109E+03  0.83276727111E+03  0.50400001928E-02 0.  1.
        1   -1    0    0  501    0  0.00000000000E+00  0.00000000000E+00 -0.10883812502E+04  0.10883812502E+04  0.50400001928E-02 0. -1.
    10030    2    1    2    0    0  0.00000000000E+00  0.00000000000E+00 -0.25561397912E+03  0.19211485213E+04  0.19040675237E+04 0.  0.
        4    1    3    3  502    0  0.70419710141E+03 -0.64027551462E+03 -0.10479054300E+03  0.95751186053E+03  0.12699999809E+01 0. -1.
       -4    1    3    3    0  502 -0.70419710141E+03  0.64027551462E+03 -0.15082343611E+03  0.96363666080E+03  0.12699999809E+01 0.  1.
</event>
<event>
 5   0  0.2595012E-04  0.1916655E+04  0.7818609E-02  0.8646611E-01
       -2   -1    0    0    0  501  0.00000000000E+00  0.00000000000E+00  0.95572148235E+03  0.95572148235E+03  0.25500000920E-02 0.  1.
        2   -1    0    0  501    0  0.00000000000E+00  0.00000000000E+00 -0.96094012838E+03  0.96094012838E+03  0.25500000920E-02 0. -1.
    10030    2    1    2    0    0  0.00000000000E+00  0.00000000000E+00 -0.52186460323E+01  0.19166616107E+04  0.19166545061E+04 0.  0.
        1    1    3    3  502    0  0.93733746577E+03 -0.44095947661E+02 -0.19714833494E+03  0.95886049211E+03  0.50400001928E-02 0.  1.
       -1    1    3    3    0  502 -0.93733746577E+03  0.44095947661E+02  0.19192968890E+03  0.95780111863E+03  0.50400001928E-02 0. -1.
</event>
<event>
 5   0  0.2651828E-04  0.1653507E+04  0.7818609E-02  0.8788334E-01
        2   -1    0    0  501    0  0.00000000000E+00  0.00000000000E+00  0.16047820636E+04  0.16047820636E+04  0.25500000920E-02 0. -1.
       -2   -1    0    0    0  501  0.00000000000E+00  0.00000000000E+00 -0.42592800081E+03  0.42592800082E+03  0.25500000920E-02 0.  1.
    10030    2    1    2    0    0  0.00000000000E+00  0.00000000000E+00  0.11788540627E+04  0.20307100644E+04  0.16535073221E+04 0.  0.
        3    1    3    3  502    0 -0.75891731608E+03  0.24518548743E+03  0.32190424656E+03  0.86005451574E+03  0.10100000352E+00 0.  1.
       -3    1    3    3    0  502  0.75891731608E+03 -0.24518548743E+03  0.85694981619E+03  0.11706555486E+04  0.10100000352E+00 0. -1.
</event>
<event>
 5   0  0.9266125E-05  0.1907923E+04  0.7818609E-02  0.8650923E-01
        3   -1    0    0  501    0  0.00000000000E+00  0.00000000000E+00  0.12963913487E+04  0.12963913526E+04  0.10100000352E+00 0. -1.
       -3   -1    0    0    0  501  0.00000000000E+00  0.00000000000E+00 -0.70198106409E+03  0.70198107136E+03  0.10100000352E+00 0.  1.
    10030    2    1    2    0    0  0.00000000000E+00  0.00000000000E+00  0.59441028462E+03  0.19983724240E+04  0.19079226291E+04 0.  0.
        4    1    3    3  502    0  0.45498512215E+03 -0.98608020078E+02  0.11693286944E+04  0.12585969217E+04  0.12699999809E+01 0. -1.
       -4    1    3    3    0  502 -0.45498512215E+03  0.98608020078E+02 -0.57491840974E+03  0.73977550228E+03  0.12699999809E+01 0.  1.
</event>
<event>
 5   0  0.2608744E-04  0.1846578E+04  0.7818609E-02  0.8681915E-01
       -2   -1    0    0    0  501  0.00000000000E+00  0.00000000000E+00  0.12549158045E+04  0.12549158045E+04  0.25500000920E-02 0. -1.
        2   -1    0    0  501    0  0.00000000000E+00  0.00000000000E+00 -0.67929874439E+03  0.67929874440E+03  0.25500000920E-02 0.  1.
    10030    2    1    2    0    0  0.00000000000E+00  0.00000000000E+00  0.57561706007E+03  0.19342145489E+04  0.18465781655E+04 0.  0.
        2    1    3    3  502    0  0.78706270238E+03  0.31868440541E+03  0.66755428804E+03  0.10801185931E+04  0.25500000920E-02 0. -1.
       -2    1    3    3    0  502 -0.78706270238E+03 -0.31868440541E+03 -0.91937227970E+02  0.85409595574E+03  0.25500000920E-02 0.  1.
</event>
<event>
 5   0  0.2562925E-04  0.1887337E+04  0.7818609E-02  0.8661185E-01
       -2   -1    0    0    0  501  0.00000000000E+00  0.00000000000E+00  0.11195697835E+04  0.11195697835E+04  0.25500000920E-02 0.  1.
        2   -1    0    0  501    0  0.00000000000E+00  0.00000000000E+00 -0.79540405368E+03  0.79540405368E+03  0.25500000920E-02 0. -1.
    10030    2    1    2    0    0  0.00000000000E+00  0.00000000000E+00  0.32416572984E+03  0.19149738372E+04  0.18873371126E+04 0.  0.
        4    1    3    3  502    0 -0.27980042060E+03 -0.45785730494E+03  0.94971476264E+03  0.10908168179E+04  0.12699999809E+01 0.  1.
       -4    1    3    3    0  502  0.27980042060E+03  0.45785730494E+03 -0.62554903280E+03  0.82415701926E+03  0.12699999809E+01 0. -1.
</event>
<event>
 5   0  0.1277709E-04  0.1908437E+04  0.7818609E-02  0.8650668E-01
        1   -1    0    0  501    0  0.00000000000E+00  0.00000000000E+00  0.10201477281E+04  0.10201477281E+04  0.50400001928E-02 0.  1.
       -1   -1    0    0    0  501  0.00000000000E+00  0.00000000000E+00 -0.89255046772E+03  0.89255046774E+03  0.50400001928E-02 0. -1.
    10030    2    1    2    0    0  0.00000000000E+00  0.00000000000E+00  0.12759726040E+03  0.19126981959E+04  0.19084374047E+04 0.  0.
        4    1    3    3  502    0 -0.66341509345E+03  0.62381493343E+03 -0.22191161037E+03  0.93728919395E+03  0.12699999809E+01 0.  1.
       -4    1    3    3    0  502  0.66341509345E+03 -0.62381493343E+03  0.34950887077E+03  0.97540900192E+03  0.12699999809E+01 0. -1.
</event>
<event>
 5   0  0.2541124E-04  0.1870361E+04  0.7818609E-02  0.8669752E-01
       -2   -1    0    0    0  501  0.00000000000E+00  0.00000000000E+00  0.58898989427E+03  0.58898989428E+03  0.25500000920E-02 0. -1.
        2   -1    0    0  501    0  0.00000000000E+00  0.00000000000E+00 -0.14848523016E+04  0.14848523016E+04  0.25500000920E-02 0.  1.
    10030    2    1    2    0    0  0.00000000000E+00  0.00000000000E+00 -0.89586240733E+03  0.20738421959E+04  0.18703614625E+04 0.  0.
        5    1    3    3  502    0  0.88367611278E+03  0.30588968201E+03 -0.43747438903E+03  0.10324039427E+04  0.46999998093E+01 0.  1.
       -5    1    3    3    0  502 -0.88367611278E+03 -0.30588968201E+03 -0.45838801830E+03  0.10414382532E+04  0.46999998093E+01 0. -1.
</event>
<event>
 5   0  0.2651828E-04  0.1895078E+04  0.7818609E-02  0.8657310E-01
       -2   -1    0    0    0  501  0.00000000000E+00  0.00000000000E+00  0.64274345589E+03  0.64274345590E+03  0.25500000920E-02 0.  1.
        2   -1    0    0  501    0  0.00000000000E+00  0.00000000000E+00 -0.13968714317E+04  0.13968714317E+04  0.25500000920E-02 0. -1.
    10030    2    1    2    0    0  0.00000000000E+00  0.00000000000E+00 -0.75412797584E+03  0.20396148876E+04  0.18950778047E+04 0.  0.
        3    1    3    3  502    0  0.28525193520E+03  0.12216089256E+02  0.59534560608E+03  0.66026835472E+03  0.10100000352E+00 0.  1.
       -3    1    3    3    0  502 -0.28525193520E+03 -0.12216089256E+02 -0.13494735819E+04  0.13793465329E+04  0.10100000352E+00 0. -1.
</event>
<event>
 5   0  0.1277709E-04  0.1953009E+04  0.7818609E-02  0.8628911E-01
        1   -1    0    0  501    0  0.00000000000E+00  0.00000000000E+00  0.13558845198E+04  0.13558845198E+04  0.50400001928E-02 0.  1.
       -1   -1    0    0    0  501  0.00000000000E+00  0.00000000000E+00 -0.70327614250E+03  0.70327614252E+03  0.50400001928E-02 0. -1.
    10030    2    1    2    0    0  0.00000000000E+00  0.00000000000E+00  0.65260837732E+03  0.20591606623E+04  0.19530092010E+04 0.  0.
        4    1    3    3  502    0 -0.49884964133E+03 -0.68899749108E+02 -0.55580635798E+03  0.75001364025E+03  0.12699999809E+01 0. -1.
       -4    1    3    3    0  502  0.49884964133E+03  0.68899749108E+02  0.12084147353E+04  0.13091470221E+04  0.12699999809E+01 0.  1.
</event>
<event>
 5   0  0.1239615E-04  0.1906543E+04  0.7818609E-02  0.8651606E-01
       -1   -1    0    0    0  501  0.00000000000E+00  0.00000000000E+00  0.58733717530E+03  0.58733717533E+03  0.50400001928E-02 0.  1.
        1   -1    0    0  501    0  0.00000000000E+00  0.00000000000E+00 -0.15471969346E+04  0.15471969346E+04  0.50400001928E-02 0. -1.
    10030    2    1    2    0    0  0.00000000000E+00  0.00000000000E+00 -0.95985975929E+03  0.21345341099E+04  0.19065427110E+04 0.  0.
        3    1    3    3  502    0  0.44740137376E+03  0.66845105757E+03 -0.10527055013E+04  0.13248334568E+04  0.10100000352E+00 0.  1.
       -3    1    3    3    0  502 -0.44740137376E+03 -0.66845105757E+03  0.92845742044E+02  0.80970065309E+03  0.10100000352E+00 0. -1.
</event>
<event>
 5   0  0.2562925E-04  0.1907897E+04  0.7818609E-02  0.8650935E-01
        2   -1    0    0  501    0  0.00000000000E+00  0.00000000000E+00  0.12892194820E+04  0.12892194820E+04  0.25500000920E-02 0.  1.
       -2   -1    0    0    0  501  0.00000000000E+00  0.00000000000E+00 -0.70586751501E+03  0.70586751502E+03  0.25500000920E-02 0. -1.
    10030    2    1    2    0    0  0.00000000000E+00  0.00000000000E+00  0.58335196700E+03  0.19950869970E+04  0.19078974313E+04 0.  0.
        4    1    3    3  502    0  0.48891798956E+03 -0.50741862502E+02  0.11465957549E+04  0.12475171242E+04  0.12699999809E+01 0.  1.
       -4    1    3    3    0  502 -0.48891798956E+03  0.50741862502E+02 -0.56324378795E+03  0.74756987278E+03  0.12699999809E+01 0. -1.
</event>
<event>
 5   0  0.2651828E-04  0.1466740E+04  0.7818609E-02  0.8906877E-01
        2   -1    0    0  501    0  0.00000000000E+00  0.00000000000E+00  0.75724245799E+03  0.75724245800E+03  0.25500000920E-02 0. -1.
       -2   -1    0    0    0  501  0.00000000000E+00  0.00000000000E+00 -0.71025037333E+03  0.71025037333E+03  0.25500000920E-02 0.  1.
    10030    2    1    2    0    0  0.00000000000E+00  0.00000000000E+00  0.46992084663E+02  0.14674928313E+04  0.14667402476E+04 0.  0.
        3    1    3    3  502    0  0.49300677344E+03 -0.54070035026E+03 -0.25714363699E+02  0.73217059906E+03  0.10100000352E+00 0. -1.
       -3    1    3    3    0  502 -0.49300677344E+03  0.54070035026E+03  0.72706448362E+02  0.73532223227E+03  0.10100000352E+00 0.  1.
</event>
<event>
 5   0  0.2608744E-04  0.1914495E+04  0.7818609E-02  0.8647675E-01
       -2   -1    0    0    0  501  0.00000000000E+00  0.00000000000E+00  0.17189795133E+04  0.17189795133E+04  0.25500000920E-02 0.  1.
        2   -1    0    0  501    0  0.00000000000E+00  0.00000000000E+00 -0.53306202863E+03  0.53306202864E+03  0.25500000920E-02 0. -1.
    10030    2    1    2    0    0  0.00000000000E+00  0.00000000000E+00  0.11859174847E+04  0.22520415420E+04  0.19144949272E+04 0.  0.
        2    1    3    3  502    0  0.91440596453E+03 -0.44370297184E+02  0.92193850895E+03  0.12992604071E+04  0.25500000920E-02 0.  1.
       -2    1    3    3    0  502 -0.91440596453E+03  0.44370297184E+02  0.26397897573E+03  0.95278113483E+03  0.25500000920E-02 0. -1.
</event>
<event>
 5   0  0.2608744E-04  0.1884152E+04  0.7818609E-02  0.8662785E-01
        2   -1    0    0  501    0  0.00000000000E+00  0.00000000000E+00  0.11149263007E+04  0.11149263007E+04  0.25500000920E-02 0. -1.
       -2   -1    0    0    0  501  0.00000000000E+00  0.00000000000E+00 -0.79602309245E+03  0.79602309245E+03  0.25500000920E-02 0.  1.
    10030    2    1    2    0    0  0.00000000000E+00  0.00000000000E+00  0.31890320826E+03  0.19109493932E+04  0.18841518853E+04 0.  0.
        2    1    3    3  502    0  0.12262624544E+03 -0.96391125703E+02  0.11017395127E+04  0.11127256621E+04  0.25500000920E-02 0. -1.
       -2    1    3    3    0  502 -0.12262624544E+03  0.96391125703E+02 -0.78283630448E+03  0.79822373105E+03  0.25500000920E-02 0.  1.
</event>
<event>
 5   0  0.2562925E-04  0.1856976E+04  0.7818609E-02  0.8676574E-01
       -2   -1    0    0    0  501  0.00000000000E+00  0.00000000000E+00  0.44827901165E+03  0.44827901166E+03  0.25500000920E-02 0.  1.
        2   -1    0    0  501    0  0.00000000000E+00  0.00000000000E+00 -0.19231105587E+04  0.19231105587E+04  0.25500000920E-02 0. -1.
    10030    2    1    2    0    0  0.00000000000E+00  0.00000000000E+00 -0.14748315471E+04  0.23713895704E+04  0.18569761448E+04 0.  0.
        4    1    3    3  502    0 -0.19675995417E+03 -0.65745774383E+03 -0.15360601498E+04  0.16823934026E+04  0.12699999809E+01 0. -1.
       -4    1    3    3    0  502  0.19675995417E+03  0.65745774383E+03  0.61228602730E+02  0.68899616775E+03  0.12699999809E+01 0.  1.
</event>
<event>
 5   0  0.2541124E-04  0.1838283E+04  0.7818609E-02  0.8686202E-01
        2   -1    0    0  501    0  0.00000000000E+00  0.00000000000E+00  0.93062039019E+03  0.93062039020E+03  0.25500000920E-02 0. -1.
       -2   -1    0    0    0  501  0.00000000000E+00  0.00000000000E+00 -0.90780428339E+03  0.90780428340E+03  0.25500000920E-02 0.  1.
    10030    2    1    2    0    0  0.00000000000E+00  0.00000000000E+00  0.22816106799E+02  0.18384246736E+04  0.18382830864E+04 0.  0.
        5    1    3    3  502    0  0.46357805273E+03  0.69840398991E+03 -0.36561745864E+03  0.91453319249E+03  0.46999998093E+01 0.  1.
       -5    1    3    3    0  502 -0.46357805273E+03 -0.69840398991E+03  0.38843356544E+03  0.92389148111E+03  0.46999998093E+01 0. -1.
</event>
<event>
 5   0  0.2541124E-04  0.1899897E+04  0.7818609E-02  0.8654908E-01
        2   -1    0    0  501    0  0.00000000000E+00  0.00000000000E+00  0.11162343992E+04  0.11162343992E+04  0.25500000920E-02 0.  1.
       -2   -1    0    0    0  501  0.00000000000E+00  0.00000000000E+00 -0.80843415621E+03  0.80843415622E+03  0.25500000920E-02 0. -1.
    10030    2    1    2    0    0  0.00000000000E+00  0.00000000000E+00  0.30780024300E+03  0.19246685554E+04  0.18998968547E+04 0.  0.
        5    1    3    3  502    0  0.56357003429E+03 -0.24307048912E+03 -0.58059500302E+03  0.84487105156E+03  0.46999998093E+01 0. -1.
       -5    1    3    3    0  502 -0.56357003429E+03  0.24307048912E+03  0.88839524602E+03  0.10797975039E+04  0.46999998093E+01 0.  1.
</event>
<event>
 5   0  0.2651828E-04  0.1957916E+04  0.7818609E-02  0.8626553E-01
       -2   -1    0    0    0  501  0.00000000000E+00  0.00000000000E+00  0.92944047941E+03  0.92944047942E+03  0.25500000920E-02 0. -1.
        2   -1    0    0  501    0  0.00000000000E+00  0.00000000000E+00 -0.10311131413E+04  0.10311131413E+04  0.25500000920E-02 0.  1.
    10030    2    1    2    0    0  0.00000000000E+00  0.00000000000E+00 -0.10167266190E+03  0.19605536207E+04  0.19579155165E+04 0.  0.
        3    1    3    3  502    0 -0.59373039795E+03 -0.28888208517E+03  0.67290279771E+03  0.94274430783E+03  0.10100000352E+00 0. -1.
       -3    1    3    3    0  502  0.59373039795E+03  0.28888208517E+03 -0.77457545961E+03  0.10178093129E+04  0.10100000352E+00 0.  1.
</event>
<event>
 5   0  0.1317527E-04  0.1921074E+04  0.7818609E-02  0.8644437E-01
       -1   -1    0    0    0  501  0.00000000000E+00  0.00000000000E+00  0.39628934247E+03  0.39628934250E+03  0.50400001928E-02 0.  1.
        1   -1    0    0  501    0  0.00000000000E+00  0.00000000000E+00 -0.23281765669E+04  0.23281765669E+04  0.50400001928E-02 0. -1.
    10030    2    1    2    0    0  0.00000000000E+00  0.00000000000E+00 -0.19318872244E+04  0.27244659094E+04  0.19210742421E+04 0.  0.
        1    1    3    3  502    0 -0.25314530807E+03  0.74196800179E+03 -0.17530537356E+04  0.19203636277E+04  0.50400001928E-02 0. -1.
       -1    1    3    3    0  502  0.25314530807E+03 -0.74196800179E+03 -0.17883348881E+03  0.80410228169E+03  0.50400001928E-02 0.  1.
</event>
<event>
 5   0  0.1317527E-04  0.1946822E+04  0.7818609E-02  0.8631895E-01
        1   -1    0    0  501    0  0.00000000000E+00  0.00000000000E+00  0.49392702474E+03  0.49392702476E+03  0.50400001928E-02 0.  1.
       -1   -1    0    0    0  501  0.00000000000E+00  0.00000000000E+00 -0.19183582288E+04  0.19183582288E+04  0.50400001928E-02 0. -1.
    10030    2    1    2    0    0  0.00000000000E+00  0.00000000000E+00 -0.14244312041E+04  0.24122852536E+04  0.19468219974E+04 0.  0.
        1    1    3    3  502    0 -0.30192386237E+02  0.66975567187E+03  0.16223764091E+03  0.68978641066E+03  0.50400001928E-02 0.  1.
       -1    1    3    3    0  502  0.30192386237E+02 -0.66975567187E+03 -0.15866688450E+04  0.17224988429E+04  0.50400001928E-02 0. -1.
</event>
<event>
 5   0  0.2608744E-04  0.1844456E+04  0.7818609E-02  0.8683009E-01
        2   -1    0    0  501    0  0.00000000000E+00  0.00000000000E+00  0.88500380690E+03  0.88500380691E+03  0.25500000920E-02 0. -1.
       -2   -1    0    0    0  501  0.00000000000E+00  0.00000000000E+00 -0.96101788337E+03  0.96101788337E+03  0.25500000920E-02 0.  1.
    10030    2    1    2    0    0  0.00000000000E+00  0.00000000000E+00 -0.76014076465E+02  0.18460216903E+04  0.18444560014E+04 0.  0.
        2    1    3    3  502    0 -0.25462228448E+02 -0.74353029313E+03  0.50744995692E+03  0.90055043205E+03  0.25500000920E-02 0. -1.
       -2    1    3    3    0  502  0.25462228448E+02  0.74353029313E+03 -0.58346403338E+03  0.94547125823E+03  0.25500000920E-02 0.  1.
</event>
<event>
 5   0  0.2562925E-04  0.1887847E+04  0.7818609E-02  0.8660929E-01
        2   -1    0    0  501    0  0.00000000000E+00  0.00000000000E+00  0.12060850927E+04  0.12060850927E+04  0.25500000920E-02 0. -1.
       -2   -1    0    0    0  501  0.00000000000E+00  0.00000000000E+00 -0.73874721526E+03  0.73874721526E+03  0.25500000920E-02 0.  1.
    10030    2    1    2    0    0  0.00000000000E+00  0.00000000000E+00  0.46733787742E+03  0.19448323079E+04  0.18878474553E+04 0.  0.
        4    1    3    3  502    0 -0.17700470611E+03 -0.87701313867E+03  0.54359491384E+03  0.10468905170E+04  0.12699999809E+01 0. -1.
       -4    1    3    3    0  502  0.17700470611E+03  0.87701313867E+03 -0.76257036421E+02  0.89794179092E+03  0.12699999809E+01 0.  1.
</event>
<event>
 5   0  0.1324058E-04  0.1940542E+04  0.7818609E-02  0.8634935E-01
        1   -1    0    0  501    0  0.00000000000E+00  0.00000000000E+00  0.67423696251E+03  0.67423696253E+03  0.50400001928E-02 0.  1.
       -1   -1    0    0    0  501  0.00000000000E+00  0.00000000000E+00 -0.13962828905E+04  0.13962828905E+04  0.50400001928E-02 0. -1.
    10030    2    1    2    0    0  0.00000000000E+00  0.00000000000E+00 -0.72204592801E+03  0.20705198531E+04  0.19405417130E+04 0.  0.
        5    1    3    3  502    0  0.25789501260E+03 -0.47924049294E+03 -0.12180826215E+04  0.13341396667E+04  0.46999998093E+01 0. -1.
       -5    1    3    3    0  502 -0.25789501260E+03  0.47924049294E+03  0.49603669345E+03  0.73638018635E+03  0.46999998093E+01 0.  1.
</event>
<event>
 5   0  0.2595012E-04  0.1936430E+04  0.7818609E-02  0.8636932E-01
        2   -1    0    0  501    0  0.00000000000E+00  0.00000000000E+00  0.88363077182E+03  0.88363077183E+03  0.25500000920E-02 0.  1.
       -2   -1    0    0    0  501  0.00000000000E+00  0.00000000000E+00 -0.10608964091E+04  0.10608964091E+04  0.25500000920E-02 0. -1.
    10030    2    1    2    0    0  0.00000000000E+00  0.00000000000E+00 -0.17726563729E+03  0.19445271809E+04  0.19364304406E+04 0.  0.
        1    1    3    3  502    0  0.19348182197E+03 -0.83500898649E+03  0.36354487839E+03  0.93104248109E+03  0.50400001928E-02 0. -1.
       -1    1    3    3    0  502 -0.19348182197E+03  0.83500898649E+03 -0.54081051568E+03  0.10134846999E+04  0.50400001928E-02 0.  1.
</event>
<event>
 5   0  0.1324058E-04  0.1913984E+04  0.7818609E-02  0.8647927E-01
        1   -1    0    0  501    0  0.00000000000E+00  0.00000000000E+00  0.12106915991E+04  0.12106915991E+04  0.50400001928E-02 0.  1.
       -1   -1    0    0    0  501  0.00000000000E+00  0.00000000000E+00 -0.75645477148E+03  0.75645477149E+03  0.50400001928E-02 0. -1.
    10030    2    1    2    0    0  0.00000000000E+00  0.00000000000E+00  0.45423682764E+03  0.19671463706E+04  0.19139837376E+04 0.  0.
        5    1    3    3  502    0 -0.35565020006E+03 -0.29844343725E+03 -0.63293770283E+03  0.78497628990E+03  0.46999998093E+01 0. -1.
       -5    1    3    3    0  502  0.35565020006E+03  0.29844343725E+03  0.10871745305E+04  0.11821700807E+04  0.46999998093E+01 0.  1.
</event>
<event>
 5   0  0.1277709E-04  0.1886223E+04  0.7818609E-02  0.8661745E-01
        1   -1    0    0  501    0  0.00000000000E+00  0.00000000000E+00  0.86656916300E+03  0.86656916302E+03  0.50400001928E-02 0. -1.
       -1   -1    0    0    0  501  0.00000000000E+00  0.00000000000E+00 -0.10264141513E+04  0.10264141513E+04  0.50400001928E-02 0.  1.
    10030    2    1    2    0    0  0.00000000000E+00  0.00000000000E+00 -0.15984498831E+03  0.18929833143E+04  0.18862225235E+04 0.  0.
        4    1    3    3  502    0 -0.50834548781E+02 -0.57150848464E+03  0.67125961146E+03  0.88306125396E+03  0.12699999809E+01 0. -1.
       -4    1    3    3    0  502  0.50834548781E+02  0.57150848464E+03 -0.83110459978E+03  0.10099220604E+04  0.12699999809E+01 0.  1.
</event>
<event>
 5   0  0.1317527E-04  0.1916528E+04  0.7818609E-02  0.8646673E-01
       -1   -1    0    0    0  501  0.00000000000E+00  0.00000000000E+00  0.26877246860E+04  0.26877246860E+04  0.50400001928E-02 0. -1.
        1   -1    0    0  501    0  0.00000000000E+00  0.00000000000E+00 -0.34165338862E+03  0.34165338866E+03  0.50400001928E-02 0.  1.
    10030    2    1    2    0    0  0.00000000000E+00  0.00000000000E+00  0.23460712974E+04  0.30293780747E+04  0.19165283684E+04 0.  0.
        1    1    3    3  502    0  0.39425706428E+03 -0.84153289284E+03  0.15425652376E+04  0.18008675006E+04  0.50400001928E-02 0. -1.
       -1    1    3    3    0  502 -0.39425706428E+03  0.84153289284E+03  0.80350605981E+03  0.12285105741E+04  0.50400001928E-02 0.  1.
</event>
<event>
 5   0  0.1317527E-04  0.1874150E+04  0.7818609E-02  0.8667832E-01
       -1   -1    0    0    0  501  0.00000000000E+00  0.00000000000E+00  0.61872808449E+03  0.61872808451E+03  0.50400001928E-02 0. -1.
        1   -1    0    0  501    0  0.00000000000E+00  0.00000000000E+00 -0.14192169312E+04  0.14192169312E+04  0.50400001928E-02 0.  1.
    10030    2    1    2    0    0  0.00000000000E+00  0.00000000000E+00 -0.80048884670E+03  0.20379450157E+04  0.18741498055E+04 0.  0.
        1    1    3    3  502    0 -0.39406061283E+03  0.15254955419E+02  0.52410250671E+03  0.65589627062E+03  0.50400001928E-02 0. -1.
       -1    1    3    3    0  502  0.39406061283E+03 -0.15254955419E+02 -0.13245913534E+04  0.13820487451E+04  0.50400001928E-02 0.  1.
</event>
<event>
 5   0  0.1317527E-04  0.1932003E+04  0.7818609E-02  0.8639088E-01
        1   -1    0    0  501    0  0.00000000000E+00  0.00000000000E+00  0.27946586062E+04  0.27946586062E+04  0.50400001928E-02 0.  1.
       -1   -1    0    0    0  501  0.00000000000E+00  0.00000000000E+00 -0.33390802171E+03  0.33390802174E+03  0.50400001928E-02 0. -1.
    10030    2    1    2    0    0  0.00000000000E+00  0.00000000000E+00  0.24607505845E+04  0.31285666280E+04  0.19320030296E+04 0.  0.
        1    1    3    3  502    0  0.18858996887E+03 -0.37469973259E+03  0.26394721958E+04  0.26725979006E+04  0.50400001928E-02 0.  1.
       -1    1    3    3    0  502 -0.18858996887E+03  0.37469973259E+03 -0.17872161128E+03  0.45596872736E+03  0.50400001928E-02 0. -1.
</event>
<event>
 5   0  0.1255141E-04  0.1855039E+04  0.7818609E-02  0.8677566E-01
        1   -1    0    0  501    0  0.00000000000E+00  0.00000000000E+00  0.52950306409E+03  0.52950306411E+03  0.50400001928E-02 0. -1.
       -1   -1    0    0    0  501  0.00000000000E+00  0.00000000000E+00 -0.16247170919E+04  0.16247170920E+04  0.50400001928E-02 0.  1.
    10030    2    1    2    0    0  0.00000000000E+00  0.00000000000E+00 -0.10952140279E+04  0.21542201561E+04  0.18550392756E+04 0.  0.
        2    1    3    3  502    0 -0.32178635903E+02 -0.73080058179E+03  0.11461566050E+03  0.74043345723E+03  0.25500000920E-02 0. -1.
       -2    1    3    3    0  502  0.32178635903E+02  0.73080058179E+03 -0.12098296884E+04  0.14137866988E+04  0.25500000920E-02 0.  1.
</event>
<event>
 5   0  0.1324058E-04  0.1893254E+04  0.7818609E-02  0.8658222E-01
       -1   -1    0    0    0  501  0.00000000000E+00  0.00000000000E+00  0.12919181840E+04  0.12919181840E+04  0.50400001928E-02 0. -1.
        1   -1    0    0  501    0  0.00000000000E+00  0.00000000000E+00 -0.69362174531E+03  0.69362174533E+03  0.50400001928E-02 0.  1.
    10030    2    1    2    0    0  0.00000000000E+00  0.00000000000E+00  0.59829643869E+03  0.19855399293E+04  0.18932538611E+04 0.  0.
        5    1    3    3  502    0  0.52119220526E+03 -0.77660877243E+01 -0.52954513931E+03  0.74306242773E+03  0.46999998093E+01 0.  1.
       -5    1    3    3    0  502 -0.52119220526E+03  0.77660877243E+01  0.11278415780E+04  0.12424775016E+04  0.46999998093E+01 0. -1.
</event>
<event>
 5   0  0.2651828E-04  0.1915661E+04  0.7818609E-02  0.8647100E-01
        2   -1    0    0  501    0  0.00000000000E+00  0.00000000000E+00  0.12964821522E+04  0.12964821522E+04  0.25500000920E-02 0.  1.
       -2   -1    0    0    0  501  0.00000000000E+00  0.00000000000E+00 -0.70763735000E+03  0.70763735000E+03  0.25500000920E-02 0. -1.
    10030    2    1    2    0    0  0.00000000000E+00  0.00000000000E+00  0.58884480216E+03  0.20041195022E+04  0.19156609246E+04 0.  0.
        3    1    3    3  502    0  0.72596923628E+03 -0.30675801631E+03 -0.27505461616E+03  0.83473760228E+03  0.10100000352E+00 0. -1.
       -3    1    3    3    0  502 -0.72596923628E+03  0.30675801631E+03  0.86389941832E+03  0.11693818999E+04  0.10100000352E+00 0.  1.
</event>
<event>
 5   0  0.1239615E-04  0.1929654E+04  0.7818609E-02  0.8640235E-01
       -1   -1    0    0    0  501  0.00000000000E+00  0.00000000000E+00  0.85201981831E+03  0.85201981832E+03  0.50400001928E-02 0. -1.
        1   -1    0    0  501    0  0.00000000000E+00  0.00000000000E+00 -0.10925701426E+04  0.10925701426E+04  0.50400001928E-02 0.  1.
    10030    2    1    2    0    0  0.00000000000E+00  0.00000000000E+00 -0.24055032427E+03  0.19445899609E+04  0.19296542845E+04 0.  0.
        3    1    3    3  502    0  0.51748904551E+03  0.48652677932E+03 -0.77831337211E+03  0.10536958454E+04  0.10100000352E+00 0.  1.
       -3    1    3    3    0  502 -0.51748904551E+03 -0.48652677932E+03  0.53776304784E+03  0.89089411551E+03  0.10100000352E+00 0. -1.
</event>
<event>
 5   0  0.1255141E-04  0.1933013E+04  0.7818609E-02  0.8638596E-01
       -1   -1    0    0    0  501  0.00000000000E+00  0.00000000000E+00  0.65598416677E+03  0.65598416679E+03  0.50400001928E-02 0. -1.
        1   -1    0    0  501    0  0.00000000000E+00  0.00000000000E+00 -0.14240208322E+04  0.14240208322E+04  0.50400001928E-02 0.  1.
    10030    2    1    2    0    0  0.00000000000E+00  0.00000000000E+00 -0.76803666541E+03  0.20800049990E+04  0.19330133151E+04 0.  0.
        2    1    3    3  502    0  0.51070479253E+03 -0.32823929184E+03 -0.11932530765E+04  0.13388104131E+04  0.25500000920E-02 0.  1.
       -2    1    3    3    0  502 -0.51070479253E+03  0.32823929184E+03  0.42521641106E+03  0.74119458583E+03  0.25500000920E-02 0. -1.
</event>
<event>
 5   0  0.2541124E-04  0.1978979E+04  0.7818609E-02  0.8616512E-01
       -2   -1    0    0    0  501  0.00000000000E+00  0.00000000000E+00  0.10705762350E+04  0.10705762350E+04  0.25500000920E-02 0. -1.
        2   -1    0    0  501    0  0.00000000000E+00  0.00000000000E+00 -0.91454413527E+03  0.91454413527E+03  0.25500000920E-02 0.  1.
    10030    2    1    2    0    0  0.00000000000E+00  0.00000000000E+00  0.15603209969E+03  0.19851203702E+04  0.19789787437E+04 0.  0.
        5    1    3    3  502    0  0.72926212891E+03  0.10343173845E+03  0.74078262617E+03  0.10446541851E+04  0.46999998093E+01 0. -1.
       -5    1    3    3    0  502 -0.72926212891E+03 -0.10343173845E+03 -0.58475052648E+03  0.94046618514E+03  0.46999998093E+01 0.  1.
</event>
<event>
 5   0  0.2651828E-04  0.1893589E+04  0.7818609E-02  0.8658054E-01
        2   -1    0    0  501    0  0.00000000000E+00  0.00000000000E+00  0.78211728338E+03  0.78211728339E+03  0.25500000920E-02 0.  1.
       -2   -1    0    0    0  501  0.00000000000E+00  0.00000000000E+00 -0.11461444299E+04  0.11461444299E+04  0.25500000920E-02 0. -1.
    10030    2    1    2    0    0  0.00000000000E+00  0.00000000000E+00 -0.36402714648E+03  0.19282617132E+04  0.18935885169E+04 0.  0.
        3    1    3    3  502    0  0.14807717166E+02 -0.24399805091E+03 -0.11134563479E+04  0.11399734059E+04  0.10100000352E+00 0. -1.
       -3    1    3    3    0  502 -0.14807717166E+02  0.24399805091E+03  0.74942920141E+03  0.78828830733E+03  0.10100000352E+00 0.  1.
</event>
<event>
 5   0  0.1317527E-04  0.1897002E+04  0.7818609E-02  0.8656350E-01
       -1   -1    0    0    0  501  0.00000000000E+00  0.00000000000E+00  0.54537810120E+03  0.54537810123E+03  0.50400001928E-02 0. -1.
        1   -1    0    0  501    0  0.00000000000E+00  0.00000000000E+00 -0.16495966496E+04  0.16495966496E+04  0.50400001928E-02 0.  1.
    10030    2    1    2    0    0  0.00000000000E+00  0.00000000000E+00 -0.11042185484E+04  0.21949747508E+04  0.18970017275E+04 0.  0.
        1    1    3    3  502    0  0.46145301607E+03  0.79869388693E+03 -0.80772372761E+03  0.12260784768E+04  0.50400001928E-02 0.  1.
       -1    1    3    3    0  502 -0.46145301607E+03 -0.79869388693E+03 -0.29649482077E+03  0.96889627403E+03  0.50400001928E-02 0. -1.
</event>
<event>
 5   0  0.2562925E-04  0.1901217E+04  0.7818609E-02  0.8654251E-01
        2   -1    0    0  501    0  0.00000000000E+00  0.00000000000E+00  0.19621960907E+04  0.19621960907E+04  0.25500000920E-02 0.  1.
       -2   -1    0    0    0  501  0.00000000000E+00  0.00000000000E+00 -0.46053308864E+03  0.46053308864E+03  0.25500000920E-02 0. -1.
    10030    2    1    2    0    0  0.00000000000E+00  0.00000000000E+00  0.15016630021E+04  0.24227291794E+04  0.19012166906E+04 0.  0.
        4    1    3    3  502    0 -0.59565571180E+03  0.11521668503E+03  0.16834048396E+04  0.17893948917E+04  0.12699999809E+01 0.  1.
       -4    1    3    3    0  502  0.59565571180E+03 -0.11521668503E+03 -0.18174183754E+03  0.63333428766E+03  0.12699999809E+01 0. -1.
</event>
<event>
 5   0  0.2595012E-04  0.1857208E+04  0.7818609E-02  0.8676455E-01
       -2   -1    0    0    0  501  0.00000000000E+00  0.00000000000E+00  0.37708494000E+03  0.37708494001E+03  0.25500000920E-02 0.  1.
        2   -1    0    0  501    0  0.00000000000E+00  0.00000000000E+00 -0.22867665774E+04  0.22867665774E+04  0.25500000920E-02 0. -1.
    10030    2    1    2    0    0  0.00000000000E+00  0.00000000000E+00 -0.19096816374E+04  0.26638515174E+04  0.18572078372E+04 0.  0.
        1    1    3    3  502    0 -0.92591909611E+03  0.37631803274E+02 -0.10404562565E+04  0.13933023889E+04  0.50400001928E-02 0.  1.
       -1    1    3    3    0  502  0.92591909611E+03 -0.37631803274E+02 -0.86922538085E+03  0.12705491285E+04  0.50400001928E-02 0. -1.
</event>
<event>
 5   0  0.2651828E-04  0.1900170E+04  0.7818609E-02  0.8654772E-01
        2   -1    0    0  501    0  0.00000000000E+00  0.00000000000E+00  0.65250804616E+03  0.65250804617E+03  0.25500000920E-02 0. -1.
       -2   -1    0    0    0  501  0.00000000000E+00  0.00000000000E+00 -0.13833717881E+04  0.13833717881E+04  0.25500000920E-02 0.  1.
    10030    2    1    2    0    0  0.00000000000E+00  0.00000000000E+00 -0.73086374197E+03  0.20358798343E+04  0.19001697004E+04 0.  0.
        3    1    3    3  502    0 -0.28530532416E+03 -0.78630301907E+03 -0.84815343030E+03  0.11912328980E+04  0.10100000352E+00 0.  1.
       -3    1    3    3    0  502  0.28530532416E+03  0.78630301907E+03  0.11728968834E+03  0.84464693629E+03  0.10100000352E+00 0. -1.
</event>
<event>
 5   0  0.1324058E-04  0.1481094E+04  0.7818609E-02  0.8897123E-01
        1   -1    0    0  501    0  0.00000000000E+00  0.00000000000E+00  0.37186135658E+03  0.37186135662E+03  0.50400001928E-02 0. -1.
       -1   -1    0    0    0  501  0.00000000000E+00  0.00000000000E+00 -0.14747702119E+04  0.14747702119E+04  0.50400001928E-02 0.  1.
    10030    2    1    2    0    0  0.00000000000E+00  0.00000000000E+00 -0.11029088553E+04  0.18466315685E+04  0.14810942599E+04 0.  0.
        5    1    3    3  502    0  0.70727134573E+03  0.18120909731E+03 -0.39714046384E+03  0.83115108822E+03  0.46999998093E+01 0. -1.
       -5    1    3    3    0  502 -0.70727134573E+03 -0.18120909731E+03 -0.70576839144E+03  0.10154804803E+04  0.46999998093E+01 0.  1.
</event>
<event>
 5   0  0.1255141E-04  0.1829414E+04  0.7818609E-02  0.8690812E-01
        1   -1    0    0  501    0  0.00000000000E+00  0.00000000000E+00  0.69592596164E+03  0.69592596165E+03  0.50400001928E-02 0. -1.
       -1   -1    0    0    0  501  0.00000000000E+00  0.00000000000E+00 -0.12022673888E+04  0.12022673888E+04  0.50400001928E-02 0.  1.
    10030    2    1    2    0    0  0.00000000000E+00  0.00000000000E+00 -0.50634142713E+03  0.18981933504E+04  0.18294142108E+04 0.  0.
        2    1    3    3  502    0  0.75835004685E+03 -0.32173362686E+03  0.15937235273E+03  0.83905117069E+03  0.25500000920E-02 0. -1.
       -2    1    3    3    0  502 -0.75835004685E+03  0.32173362686E+03 -0.66571377986E+03  0.10591421797E+04  0.25500000920E-02 0.  1.
</event>
<event>
 5   0  0.1239615E-04  0.1877493E+04  0.7818609E-02  0.8666142E-01
        1   -1    0    0  501    0  0.00000000000E+00  0.00000000000E+00  0.15245702541E+04  0.15245702541E+04  0.50400001928E-02 0. -1.
       -1   -1    0    0    0  501  0.00000000000E+00  0.00000000000E+00 -0.57802817835E+03  0.57802817837E+03  0.50400001928E-02 0.  1.
    10030    2    1    2    0    0  0.00000000000E+00  0.00000000000E+00  0.94654207572E+03  0.21025984324E+04  0.18774925478E+04 0.  0.
        3    1    3    3  502    0 -0.70541842779E+03  0.24818018543E+03 -0.16225057127E+03  0.76520181703E+03  0.10100000352E+00 0.  1.
       -3    1    3    3    0  502  0.70541842779E+03 -0.24818018543E+03  0.11087926470E+04  0.13373966154E+04  0.10100000352E+00 0. -1.
</event>
<event>
 5   0  0.2608744E-04  0.1882240E+04  0.7818609E-02  0.8663748E-01
       -2   -1    0    0    0  501  0.00000000000E+00  0.00000000000E+00  0.55109554562E+03  0.55109554562E+03  0.25500000920E-02 0.  1.
        2   -1    0    0  501    0  0.00000000000E+00  0.00000000000E+00 -0.16071746584E+04  0.16071746584E+04  0.25500000920E-02 0. -1.
    10030    2    1    2    0    0  0.00000000000E+00  0.00000000000E+00 -0.10560791127E+04  0.21582702040E+04  0.18822399372E+04 0.  0.
        2    1    3    3  502    0  0.37498444560E+03 -0.37327482017E+03  0.36440429393E+03  0.64244681901E+03  0.25500000920E-02 0.  1.
       -2    1    3    3    0  502 -0.37498444560E+03  0.37327482017E+03 -0.14204834067E+04  0.15158233850E+04  0.25500000920E-02 0. -1.
</event>
<event>
 5   0  0.2562925E-04  0.1871604E+04  0.7818609E-02  0.8669121E-01
       -2   -1    0    0    0  501  0.00000000000E+00  0.00000000000E+00  0.97667823867E+03  0.97667823867E+03  0.25500000920E-02 0. -1.
        2   -1    0    0  501    0  0.00000000000E+00  0.00000000000E+00 -0.89663649869E+03  0.89663649869E+03  0.25500000920E-02 0.  1.
    10030    2    1    2    0    0  0.00000000000E+00  0.00000000000E+00  0.80041739978E+02  0.18733147374E+04  0.18716039712E+04 0.  0.
        4    1    3    3  502    0 -0.86994581944E+03  0.30972884567E+03 -0.11172924511E+03  0.93017349120E+03  0.12699999809E+01 0. -1.
       -4    1    3    3    0  502  0.86994581944E+03 -0.30972884567E+03  0.19177098509E+03  0.94314124617E+03  0.12699999809E+01 0.  1.
</event>
<event>
 5   0  0.1255141E-04  0.1916519E+04  0.7818609E-02  0.8646677E-01
        1   -1    0    0  501    0  0.00000000000E+00  0.00000000000E+00  0.20418656518E+04  0.20418656518E+04  0.50400001928E-02 0. -1.
       -1   -1    0    0    0  501  0.00000000000E+00  0.00000000000E+00 -0.44971685974E+03  0.44971685977E+03  0.50400001928E-02 0.  1.
    10030    2    1    2    0    0  0.00000000000E+00  0.00000000000E+00  0.15921487920E+04  0.24915825115E+04  0.19165191457E+04 0.  0.
        2    1    3    3  502    0  0.23322269006E+03  0.71553455772E+03  0.15672596448E+04  0.17385871622E+04  0.25500000920E-02 0. -1.
       -2    1    3    3    0  502 -0.23322269006E+03 -0.71553455772E+03  0.24889147255E+02  0.75299534933E+03  0.25500000920E-02 0.  1.
</event>
<event>
 5   0  0.1324058E-04  0.1906561E+04  0.7818609E-02  0.8651597E-01
       -1   -1    0    0    0  501  0.00000000000E+00  0.00000000000E+00  0.48350956602E+03  0.48350956605E+03  0.50400001928E-02 0. -1.
        1   -1    0    0  501    0  0.00000000000E+00  0.00000000000E+00 -0.18794750116E+04  0.18794750117E+04  0.50400001928E-02 0.  1.
    10030    2    1    2    0    0  0.00000000000E+00  0.00000000000E+00 -0.13959654456E+04  0.23629845777E+04  0.19065614569E+04 0.  0.
        5    1    3    3  502    0  0.39241254566E+03 -0.68209610845E+03 -0.13648184692E+04  0.15754346229E+04  0.46999998093E+01 0.  1.
       -5    1    3    3    0  502 -0.39241254566E+03  0.68209610845E+03 -0.31146976410E+02  0.78754995479E+03  0.46999998093E+01 0. -1.
</event>
<event>
 5   0  0.1255141E-04  0.1884831E+04  0.7818609E-02  0.8662444E-01
       -1   -1    0    0    0  501  0.00000000000E+00  0.00000000000E+00  0.18840855954E+04  0.18840855954E+04  0.50400001928E-02 0.  1.
        1   -1    0    0  501    0  0.00000000000E+00  0.00000000000E+00 -0.47139403538E+03  0.47139403541E+03  0.50400001928E-02 0. -1.
    10030    2    1    2    0    0  0.00000000000E+00  0.00000000000E+00  0.14126915600E+04  0.23554796308E+04  0.18848307211E+04 0.  0.
        2    1    3    3  502    0 -0.34077469181E+03 -0.87819698069E+03  0.74145743194E+03  0.11987979191E+04  0.25500000920E-02 0.  1.
       -2    1    3    3    0  502  0.34077469181E+03  0.87819698069E+03  0.67123412803E+03  0.11566817117E+04  0.25500000920E-02 0. -1.
</event>
<event>
 5   0  0.2608744E-04  0.1899667E+04  0.7818609E-02  0.8655022E-01
        2   -1    0    0  501    0  0.00000000000E+00  0.00000000000E+00  0.10825842681E+04  0.10825842681E+04  0.25500000920E-02 0.  1.
       -2   -1    0    0    0  501  0.00000000000E+00  0.00000000000E+00 -0.83336134374E+03  0.83336134375E+03  0.25500000920E-02 0. -1.
    10030    2    1    2    0    0  0.00000000000E+00  0.00000000000E+00  0.24922292434E+03  0.19159456118E+04  0.18996672134E+04 0.  0.
        2    1    3    3  502    0 -0.73252840080E+02 -0.41258734100E+03  0.98431800970E+03  0.10698019615E+04  0.25500000920E-02 0.  1.
       -2    1    3    3    0  502  0.73252840080E+02  0.41258734100E+03 -0.73509508535E+03  0.84614365037E+03  0.25500000920E-02 0. -1.
</event>
<event>
 5   0  0.2651828E-04  0.1899119E+04  0.7818609E-02  0.8655295E-01
       -2   -1    0    0    0  501  0.00000000000E+00  0.00000000000E+00  0.22285773912E+04  0.22285773912E+04  0.25500000920E-02 0.  1.
        2   -1    0    0  501    0  0.00000000000E+00  0.00000000000E+00 -0.40459123600E+03  0.40459123601E+03  0.25500000920E-02 0. -1.
    10030    2    1    2    0    0  0.00000000000E+00  0.00000000000E+00  0.18239861552E+04  0.26331686273E+04  0.18991186180E+04 0.  0.
        3    1    3    3  502    0 -0.58911199751E+03  0.37813486015E+03  0.18015564656E+04  0.19327815777E+04  0.10100000352E+00 0.  1.
       -3    1    3    3    0  502  0.58911199751E+03 -0.37813486015E+03  0.22429689661E+02  0.70038704960E+03  0.10100000352E+00 0. -1.
</event>
<event>
 5   0  0.2608744E-04  0.1881451E+04  0.7818609E-02  0.8664145E-01
       -2   -1    0    0    0  501  0.00000000000E+00  0.00000000000E+00  0.12104167840E+04  0.12104167840E+04  0.25500000920E-02 0. -1.
        2   -1    0    0  501    0  0.00000000000E+00  0.00000000000E+00 -0.73112357880E+03  0.73112357881E+03  0.25500000920E-02 0.  1.
    10030    2    1    2    0    0  0.00000000000E+00  0.00000000000E+00  0.47929320522E+03  0.19415403628E+04  0.18814507711E+04 0.  0.
        2    1    3    3  502    0 -0.70478254700E+03  0.61099702475E+03  0.36573086918E+03  0.10018956390E+04  0.25500000920E-02 0. -1.
       -2    1    3    3    0  502  0.70478254700E+03 -0.61099702475E+03  0.11356233604E+03  0.93964472381E+03  0.25500000920E-02 0.  1.
</event>
<event>
 5   0  0.1239615E-04  0.1904223E+04  0.7818609E-02  0.8652757E-01
       -1   -1    0    0    0  501  0.00000000000E+00  0.00000000000E+00  0.83155671058E+03  0.83155671059E+03  0.50400001928E-02 0. -1.
        1   -1    0    0  501    0  0.00000000000E+00  0.00000000000E+00 -0.10901441855E+04  0.10901441855E+04  0.50400001928E-02 0.  1.
    10030    2    1    2    0    0  0.00000000000E+00  0.00000000000E+00 -0.25858747489E+03  0.19217008961E+04  0.19042234249E+04 0.  0.
        3    1    3    3  502    0 -0.46198104662E+03 -0.78176442934E+03  0.15957566156E+03  0.92197967027E+03  0.10100000352E+00 0. -1.
       -3    1    3    3    0  502  0.46198104662E+03  0.78176442934E+03 -0.41816313645E+03  0.99972122580E+03  0.10100000352E+00 0.  1.
</event>
<event>
 5   0  0.1324058E-04  0.1978454E+04  0.7818609E-02  0.8616761E-01
        1   -1    0    0  501    0  0.00000000000E+00  0.00000000000E+00  0.92877065928E+03  0.92877065929E+03  0.50400001928E-02 0.  1.
       -1   -1    0    0    0  501  0.00000000000E+00  0.00000000000E+00 -0.10536189998E+04  0.10536189998E+04  0.50400001928E-02 0. -1.
    10030    2    1    2    0    0  0.00000000000E+00  0.00000000000E+00 -0.12484834054E+03  0.19823896591E+04  0.19784543595E+04 0.  0.
        5    1    3    3  502    0  0.68790412680E+03  0.41368048648E+03  0.51683011852E+03  0.95471414254E+03  0.46999998093E+01 0.  1.
       -5    1    3    3    0  502 -0.68790412680E+03 -0.41368048648E+03 -0.64167845905E+03  0.10276755166E+04  0.46999998093E+01 0. -1.
</event>
<event>
 5   0  0.2541124E-04  0.1901904E+04  0.7818609E-02  0.8653909E-01
       -2   -1    0    0    0  501  0.00000000000E+00  0.00000000000E+00  0.10646817206E+04  0.10646817207E+04  0.25500000920E-02 0. -1.
        2   -1    0    0  501    0  0.00000000000E+00  0.00000000000E+00 -0.84937078539E+03  0.84937078540E+03  0.25500000920E-02 0.  1.
    10030    2    1    2    0    0  0.00000000000E+00  0.00000000000E+00  0.21531093526E+03  0.19140525060E+04  0.19019038349E+04 0.  0.
        5    1    3    3  502    0  0.38543138501E+03 -0.76661260465E+03  0.52019488786E+03  0.10034326333E+04  0.46999998093E+01 0. -1.
       -5    1    3    3    0  502 -0.38543138501E+03  0.76661260465E+03 -0.30488395260E+03  0.91061987278E+03  0.46999998093E+01 0.  1.
</event>
<event>
 5   0  0.1324058E-04  0.1924205E+04  0.7818609E-02  0.8642901E-01
        1   -1    0    0  501    0  0.00000000000E+00  0.00000000000E+00  0.12910825404E+04  0.12910825404E+04  0.50400001928E-02 0. -1.
       -1   -1    0    0    0  501  0.00000000000E+00  0.00000000000E+00 -0.71694991902E+03  0.71694991904E+03  0.50400001928E-02 0.  1.
    10030    2    1    2    0    0  0.00000000000E+00  0.00000000000E+00  0.57413262137E+03  0.20080324594E+04  0.19242053142E+04 0.  0.
        5    1    3    3  502    0 -0.70693138908E+03  0.56102538466E+03 -0.60799263852E+02  0.90455520096E+03  0.46999998093E+01 0.  1.
       -5    1    3    3    0  502  0.70693138908E+03 -0.56102538466E+03  0.63493188522E+03  0.11034772585E+04  0.46999998093E+01 0. -1.
</event>
<event>
 5   0  0.1255141E-04  0.1713279E+04  0.7818609E-02  0.8753827E-01
       -1   -1    0    0    0  501  0.00000000000E+00  0.00000000000E+00  0.89073789157E+03  0.89073789159E+03  0.50400001928E-02 0. -1.
        1   -1    0    0  501    0  0.00000000000E+00  0.00000000000E+00 -0.82384612140E+03  0.82384612142E+03  0.50400001928E-02 0.  1.
    10030    2    1    2    0    0  0.00000000000E+00  0.00000000000E+00  0.66891770171E+02  0.17145840130E+04  0.17132786781E+04 0.  0.
        2    1    3    3  502    0  0.77943883172E+03  0.57618630814E+02  0.38440690020E+03  0.87098419270E+03  0.25500000920E-02 0. -1.
       -2    1    3    3    0  502 -0.77943883172E+03 -0.57618630814E+02 -0.31751513003E+03  0.84359982030E+03  0.25500000920E-02 0.  1.
</event>
<event>
 5   0  0.2541124E-04  0.1876481E+04  0.7818609E-02  0.8666653E-01
        2   -1    0    0  501    0  0.00000000000E+00  0.00000000000E+00  0.23272319597E+04  0.23272319597E+04  0.25500000920E-02 0. -1.
       -2   -1    0    0    0  501  0.00000000000E+00  0.00000000000E+00 -0.37825860074E+03  0.37825860075E+03  0.25500000920E-02 0.  1.
    10030    2    1    2    0    0  0.00000000000E+00  0.00000000000E+00  0.19489733590E+04  0.27054905605E+04  0.18764812866E+04 0.  0.
        5    1    3    3  502    0  0.89732666643E+03 -0.42629106210E+02  0.13647325253E+04  0.16338694387E+04  0.46999998093E+01 0. -1.
       -5    1    3    3    0  502 -0.89732666643E+03  0.42629106210E+02  0.58424083368E+03  0.10716211218E+04  0.46999998093E+01 0.  1.
</event>
<event>
 5   0  0.1317527E-04  0.1796977E+04  0.7818609E-02  0.8707909E-01
        1   -1    0    0  501    0  0.00000000000E+00  0.00000000000E+00  0.11875277797E+04  0.11875277798E+04  0.50400001928E-02 0. -1.
       -1   -1    0    0    0  501  0.00000000000E+00  0.00000000000E+00 -0.67980043162E+03  0.67980043163E+03  0.50400001928E-02 0.  1.
    10030    2    1    2    0    0  0.00000000000E+00  0.00000000000E+00  0.50772734813E+03  0.18673282114E+04  0.17969773479E+04 0.  0.
        1    1    3    3  502    0  0.35567819616E+03 -0.51894227300E+03  0.92043889955E+03  0.11149061977E+04  0.50400001928E-02 0. -1.
       -1    1    3    3    0  502 -0.35567819616E+03  0.51894227300E+03 -0.41271155142E+03  0.75242201365E+03  0.50400001928E-02 0.  1.
</event>
<event>
 5   0  0.2651828E-04  0.1988924E+04  0.7818609E-02  0.8611817E-01
       -2   -1    0    0    0  501  0.00000000000E+00  0.00000000000E+00  0.95871320061E+03  0.95871320061E+03  0.25500000920E-02 0. -1.
        2   -1    0    0  501    0  0.00000000000E+00  0.00000000000E+00 -0.10315433038E+04  0.10315433038E+04  0.25500000920E-02 0.  1.
    10030    2    1    2    0    0  0.00000000000E+00  0.00000000000E+00 -0.72830103213E+02  0.19902565044E+04  0.19889235102E+04 0.  0.
        3    1    3    3  502    0 -0.46767340575E+03 -0.38746315470E+03 -0.82441222412E+03  0.10239636889E+04  0.10100000352E+00 0.  1.
       -3    1    3    3    0  502  0.46767340575E+03  0.38746315470E+03  0.75158212091E+03  0.96629281554E+03  0.10100000352E+00 0. -1.
</event>
<event>
 5   0  0.2595012E-04  0.1906156E+04  0.7818609E-02  0.8651798E-01
        2   -1    0    0  501    0  0.00000000000E+00  0.00000000000E+00  0.60354083974E+03  0.60354083974E+03  0.25500000920E-02 0. -1.
       -2   -1    0    0    0  501  0.00000000000E+00  0.00000000000E+00 -0.15050482383E+04  0.15050482383E+04  0.25500000920E-02 0.  1.
    10030    2    1    2    0    0  0.00000000000E+00  0.00000000000E+00 -0.90150739853E+03  0.21085890780E+04  0.19061564234E+04 0.  0.
        1    1    3    3  502    0  0.40587209686E+02 -0.13555083736E+03 -0.14933645117E+04  0.15000529710E+04  0.50400001928E-02 0.  1.
       -1    1    3    3    0  502 -0.40587209686E+02  0.13555083736E+03  0.59185711315E+03  0.60853610699E+03  0.50400001928E-02 0. -1.
</event>
<event>
 5   0  0.2651828E-04  0.1836074E+04  0.7818609E-02  0.8687348E-01
        2   -1    0    0  501    0  0.00000000000E+00  0.00000000000E+00  0.13958662234E+04  0.13958662234E+04  0.25500000920E-02 0. -1.
       -2   -1    0    0    0  501  0.00000000000E+00  0.00000000000E+00 -0.60377693209E+03  0.60377693210E+03  0.25500000920E-02 0.  1.
    10030    2    1    2    0    0  0.00000000000E+00  0.00000000000E+00  0.79208929128E+03  0.19996431555E+04  0.18360738830E+04 0.  0.
        3    1    3    3  502    0  0.70212490945E+03 -0.16193126151E+03 -0.22348252709E+03  0.75441737257E+03  0.10100000352E+00 0.  1.
       -3    1    3    3    0  502 -0.70212490945E+03  0.16193126151E+03  0.10155718184E+04  0.12452257829E+04  0.10100000352E+00 0. -1.
</event>
<event>
 5   0  0.1255141E-04  0.1578196E+04  0.7818609E-02  0.8834056E-01
        1   -1    0    0  501    0  0.00000000000E+00  0.00000000000E+00  0.59577936792E+03  0.59577936794E+03  0.50400001928E-02 0.  1.
       -1   -1    0    0    0  501  0.00000000000E+00  0.00000000000E+00 -0.10451440757E+04  0.10451440757E+04  0.50400001928E-02 0. -1.
    10030    2    1    2    0    0  0.00000000000E+00  0.00000000000E+00 -0.44936470780E+03  0.16409234437E+04  0.15781955225E+04 0.  0.
        2    1    3    3  502    0  0.69395544960E+03  0.37504878269E+03 -0.20288430962E+03  0.81449235633E+03  0.25500000920E-02 0.  1.
       -2    1    3    3    0  502 -0.69395544960E+03 -0.37504878269E+03 -0.24648039818E+03  0.82643108734E+03  0.25500000920E-02 0. -1.
</event>
<event>
 5   0  0.2562925E-04  0.1910447E+04  0.7818609E-02  0.8649674E-01
       -2   -1    0    0    0  501  0.00000000000E+00  0.00000000000E+00  0.69610826165E+03  0.69610826165E+03  0.25500000920E-02 0.  1.
        2   -1    0    0  501    0  0.00000000000E+00  0.00000000000E+00 -0.13107900398E+04  0.13107900399E+04  0.25500000920E-02 0. -1.
    10030    2    1    2    0    0  0.00000000000E+00  0.00000000000E+00 -0.61468177820E+03  0.20068983015E+04  0.19104468336E+04 0.  0.
        4    1    3    3  502    0 -0.19727270244E+03  0.93276447051E+03 -0.36934705494E+03  0.10224406763E+04  0.12699999809E+01 0. -1.
       -4    1    3    3    0  502  0.19727270244E+03 -0.93276447051E+03 -0.24533472326E+03  0.98445762525E+03  0.12699999809E+01 0.  1.
</event>
<event>
 5   0  0.1324058E-04  0.1772495E+04  0.7818609E-02  0.8721065E-01
       -1   -1    0    0    0  501  0.00000000000E+00  0.00000000000E+00  0.92049641096E+03  0.92049641097E+03  0.50400001928E-02 0.  1.
        1   -1    0    0  501    0  0.00000000000E+00  0.00000000000E+00 -0.85327264790E+03  0.85327264791E+03  0.50400001928E-02 0. -1.
    10030    2    1    2    0    0  0.00000000000E+00  0.00000000000E+00  0.67223763060E+02  0.17737690589E+04  0.17724947503E+04 0.  0.
        5    1    3    3  502    0  0.77996403003E+03 -0.37701949157E+03  0.22062784370E+03  0.89397221466E+03  0.46999998093E+01 0.  1.
       -5    1    3    3    0  502 -0.77996403003E+03  0.37701949157E+03 -0.15340408064E+03  0.87979684423E+03  0.46999998093E+01 0. -1.
</event>
<event>
 5   0  0.1255141E-04  0.1559919E+04  0.7818609E-02  0.8845557E-01
       -1   -1    0    0    0  501  0.00000000000E+00  0.00000000000E+00  0.75924420829E+03  0.75924420830E+03  0.50400001928E-02 0. -1.
        1   -1    0    0  501    0  0.00000000000E+00  0.00000000000E+00 -0.80123949249E+03  0.80123949251E+03  0.50400001928E-02 0.  1.
    10030    2    1    2    0    0  0.00000000000E+00  0.00000000000E+00 -0.41995284204E+02  0.15604837008E+04  0.15599185160E+04 0.  0.
        2    1    3    3  502    0 -0.26074396303E+03 -0.72632708782E+03  0.92171553890E+02  0.77719627386E+03  0.25500000920E-02 0. -1.
       -2    1    3    3    0  502  0.26074396303E+03  0.72632708782E+03 -0.13416683809E+03  0.78328742694E+03  0.25500000920E-02 0.  1.
</event>
<event>
 5   0  0.1255141E-04  0.1839777E+04  0.7818609E-02  0.8685428E-01
       -1   -1    0    0    0  501  0.00000000000E+00  0.00000000000E+00  0.51289443952E+03  0.51289443955E+03  0.50400001928E-02 0.  1.
        1   -1    0    0  501    0  0.00000000000E+00  0.00000000000E+00 -0.16498425081E+04  0.16498425081E+04  0.50400001928E-02 0. -1.
    10030    2    1    2    0    0  0.00000000000E+00  0.00000000000E+00 -0.11369480685E+04  0.21627369476E+04  0.18397772131E+04 0.  0.
        2    1    3    3  502    0  0.66481289079E+02  0.43443556490E+03 -0.15184414242E+04  0.15807651250E+04  0.25500000920E-02 0. -1.
       -2    1    3    3    0  502 -0.66481289079E+02 -0.43443556490E+03  0.38149335565E+03  0.58197182257E+03  0.25500000920E-02 0.  1.
</event>
<event>
 5   0  0.1239615E-04  0.1370493E+04  0.7818609E-02  0.8975459E-01
       -1   -1    0    0    0  501  0.00000000000E+00  0.00000000000E+00  0.92262347041E+03  0.92262347043E+03  0.50400001928E-02 0. -1.
        1   -1    0    0  501    0  0.00000000000E+00  0.00000000000E+00 -0.50894276540E+03  0.50894276542E+03  0.50400001928E-02 0.  1.
    10030    2    1    2    0    0  0.00000000000E+00  0.00000000000E+00  0.41368070502E+03  0.14315662359E+04  0.13704926712E+04 0.  0.
        3    1    3    3  502    0  0.10376111042E+03  0.19057943862E+03  0.88578687072E+03  0.91197877223E+03  0.10100000352E+00 0. -1.
       -3    1    3    3    0  502 -0.10376111042E+03 -0.19057943862E+03 -0.47210616570E+03  0.51958746362E+03  0.10100000352E+00 0.  1.
</event>
<event>
 5   0  0.1324058E-04  0.1910231E+04  0.7818609E-02  0.8649780E-01
       -1   -1    0    0    0  501  0.00000000000E+00  0.00000000000E+00  0.10044634501E+04  0.10044634501E+04  0.50400001928E-02 0. -1.
        1   -1    0    0  501    0  0.00000000000E+00  0.00000000000E+00 -0.90819231833E+03  0.90819231834E+03  0.50400001928E-02 0.  1.
    10030    2    1    2    0    0  0.00000000000E+00  0.00000000000E+00  0.96271131752E+02  0.19126557684E+04  0.19102313885E+04 0.  0.
        5    1    3    3  502    0 -0.21895348214E+02  0.75865677667E+03  0.62868553801E+03  0.98554913970E+03  0.46999998093E+01 0. -1.
       -5    1    3    3    0  502  0.21895348214E+02 -0.75865677667E+03 -0.53241440626E+03  0.92710662874E+03  0.46999998093E+01 0.  1.
</event>
<event>
 5   0  0.2541124E-04  0.1845846E+04  0.7818609E-02  0.8682292E-01
        2   -1    0    0  501    0  0.00000000000E+00  0.00000000000E+00  0.10305465822E+04  0.10305465822E+04  0.25500000920E-02 0. -1.
       -2   -1    0    0    0  501  0.00000000000E+00  0.00000000000E+00 -0.82653865368E+03  0.82653865369E+03  0.25500000920E-02 0.  1.
    10030    2    1    2    0    0  0.00000000000E+00  0.00000000000E+00  0.20400792851E+03  0.18570852359E+04  0.18458456974E+04 0.  0.
        5    1    3    3  502    0  0.92050840218E+02  0.53552160044E+03  0.85254087141E+03  0.10109919728E+04  0.46999998093E+01 0. -1.
       -5    1    3    3    0  502 -0.92050840218E+02 -0.53552160044E+03 -0.64853294291E+03  0.84609326304E+03  0.46999998093E+01 0.  1.
</event>
<event>
 5   0  0.1239615E-04  0.1807327E+04  0.7818609E-02  0.8702413E-01
       -1   -1    0    0    0  501  0.00000000000E+00  0.00000000000E+00  0.68869048606E+03  0.68869048608E+03  0.50400001928E-02 0. -1.
        1   -1    0    0  501    0  0.00000000000E+00  0.00000000000E+00 -0.11857392624E+04  0.11857392624E+04  0.50400001928E-02 0.  1.
    10030    2    1    2    0    0  0.00000000000E+00  0.00000000000E+00 -0.49704877636E+03  0.18744297485E+04  0.18073265881E+04 0.  0.
        3    1    3    3  502    0 -0.68822531115E+03  0.53708932791E+03 -0.49061849318E+03  0.10014117740E+04  0.10100000352E+00 0. -1.
       -3    1    3    3    0  502  0.68822531115E+03 -0.53708932791E+03 -0.64302831794E+01  0.87301797450E+03  0.10100000352E+00 0.  1.
</event>
<event>
 5   0  0.1324058E-04  0.1916494E+04  0.7818609E-02  0.8646690E-01
       -1   -1    0    0    0  501  0.00000000000E+00  0.00000000000E+00  0.10661795284E+04  0.10661795285E+04  0.50400001928E-02 0. -1.
        1   -1    0    0  501    0  0.00000000000E+00  0.00000000000E+00 -0.86124084388E+03  0.86124084389E+03  0.50400001928E-02 0.  1.
    10030    2    1    2    0    0  0.00000000000E+00  0.00000000000E+00  0.20493868457E+03  0.19274203724E+04  0.19164940457E+04 0.  0.
        5    1    3    3  502    0  0.32535112492E+03  0.89869875959E+03  0.17143472485E+03  0.97104313491E+03  0.46999998093E+01 0. -1.
       -5    1    3    3    0  502 -0.32535112492E+03 -0.89869875959E+03  0.33503959726E+02  0.95637723744E+03  0.46999998093E+01 0.  1.
</event>
<event>
 5   0  0.1277709E-04  0.1880312E+04  0.7818609E-02  0.8664719E-01
        1   -1    0    0  501    0  0.00000000000E+00  0.00000000000E+00  0.68046590411E+03  0.68046590413E+03  0.50400001928E-02 0. -1.
       -1   -1    0    0    0  501  0.00000000000E+00  0.00000000000E+00 -0.12989532985E+04  0.12989532985E+04  0.50400001928E-02 0.  1.
    10030    2    1    2    0    0  0.00000000000E+00  0.00000000000E+00 -0.61848739436E+03  0.19794192026E+04  0.18803121344E+04 0.  0.
        4    1    3    3  502    0 -0.34066241217E+03 -0.83765360898E+03 -0.38435015919E+02  0.90509298476E+03  0.12699999809E+01 0. -1.
       -4    1    3    3    0  502  0.34066241217E+03  0.83765360898E+03 -0.58005237844E+03  0.10743262178E+04  0.12699999809E+01 0.  1.
</event>
<event>
 5   0  0.1255141E-04  0.1908953E+04  0.7818609E-02  0.8650413E-01
        1   -1    0    0  501    0  0.00000000000E+00  0.00000000000E+00  0.12859527339E+04  0.12859527339E+04  0.50400001928E-02 0.  1.
       -1   -1    0    0    0  501  0.00000000000E+00  0.00000000000E+00 -0.70844373199E+03  0.70844373201E+03  0.50400001928E-02 0. -1.
    10030    2    1    2    0    0  0.00000000000E+00  0.00000000000E+00  0.57750900190E+03  0.19943964659E+04  0.19089527537E+04 0.  0.
        2    1    3    3  502    0  0.76348062445E+03  0.61283533031E+02  0.88377856075E+03  0.11694968490E+04  0.25500000920E-02 0.  1.
       -2    1    3    3    0  502 -0.76348062445E+03 -0.61283533031E+02 -0.30626955885E+03  0.82489961693E+03  0.25500000920E-02 0. -1.
</event>
<event>
 5   0  0.2608744E-04  0.2001900E+04  0.7818609E-02  0.8605733E-01
        2   -1    0    0  501    0  0.00000000000E+00  0.00000000000E+00  0.11345237805E+04  0.11345237805E+04  0.25500000920E-02 0. -1.
       -2   -1    0    0    0  501  0.00000000000E+00  0.00000000000E+00 -0.88310268259E+03  0.88310268259E+03  0.25500000920E-02 0.  1.
    10030    2    1    2    0    0  0.00000000000E+00  0.00000000000E+00  0.25142109793E+03  0.20176264631E+04  0.20019000915E+04 0.  0.
        2    1    3    3  502    0 -0.25999801892E+02 -0.69287430454E+03  0.85328898917E+03  0.10994784630E+04  0.25500000920E-02 0. -1.
       -2    1    3    3    0  502  0.25999801892E+02  0.69287430454E+03 -0.60186789123E+03  0.91814800011E+03  0.25500000920E-02 0.  1.
</event>
<event>
 5   0  0.2651828E-04  0.1752487E+04  0.7818609E-02  0.8731983E-01
       -2   -1    0    0    0  501  0.00000000000E+00  0.00000000000E+00  0.42972049991E+03  0.42972049991E+03  0.25500000920E-02 0.  1.
        2   -1    0    0  501    0  0.00000000000E+00  0.00000000000E+00 -0.17867489847E+04  0.17867489847E+04  0.25500000920E-02 0. -1.
    10030    2    1    2    0    0  0.00000000000E+00  0.00000000000E+00 -0.13570284848E+04  0.22164694847E+04  0.17524869950E+04 0.  0.
        3    1    3    3  502    0 -0.60963151578E+03 -0.45990329253E+03 -0.13504988875E+03  0.77549990726E+03  0.10100000352E+00 0.  1.
       -3    1    3    3    0  502  0.60963151578E+03  0.45990329253E+03 -0.12219785961E+04  0.14409695774E+04  0.10100000352E+00 0. -1.
</event>
<event>
 5   0  0.2562925E-04  0.1888424E+04  0.7818609E-02  0.8660640E-01
       -2   -1    0    0    0  501  0.00000000000E+00  0.00000000000E+00  0.71486881101E+03  0.71486881101E+03  0.25500000920E-02 0.  1.
        2   -1    0    0  501    0  0.00000000000E+00  0.00000000000E+00 -0.12471333054E+04  0.12471333054E+04  0.25500000920E-02 0. -1.
    10030    2    1    2    0    0  0.00000000000E+00  0.00000000000E+00 -0.53226449438E+03  0.19620021164E+04  0.18884244260E+04 0.  0.
        4    1    3    3  502    0 -0.86929683212E+03 -0.17721418548E+03 -0.60191688334E+03  0.10720948639E+04  0.12699999809E+01 0.  1.
       -4    1    3    3    0  502  0.86929683212E+03  0.17721418548E+03  0.69652388964E+02  0.88990725250E+03  0.12699999809E+01 0. -1.
</event>
<event>
 5   0  0.1324058E-04  0.1891619E+04  0.7818609E-02  0.8659040E-01
       -1   -1    0    0    0  501  0.00000000000E+00  0.00000000000E+00  0.43531133369E+03  0.43531133372E+03  0.50400001928E-02 0.  1.
        1   -1    0    0  501    0  0.00000000000E+00  0.00000000000E+00 -0.20549784820E+04  0.20549784820E+04  0.50400001928E-02 0. -1.
    10030    2    1    2    0    0  0.00000000000E+00  0.00000000000E+00 -0.16196671483E+04  0.24902898157E+04  0.18916188028E+04 0.  0.
        5    1    3    3  502    0 -0.66345943133E+03 -0.22848504101E+03  0.25019476071E+02  0.70216229974E+03  0.46999998093E+01 0.  1.
       -5    1    3    3    0  502  0.66345943133E+03  0.22848504101E+03 -0.16446866244E+04  0.17881275160E+04  0.46999998093E+01 0. -1.
</event>
<event>
 5   0  0.2595012E-04  0.1897495E+04  0.7818609E-02  0.8656104E-01
       -2   -1    0    0    0  501  0.00000000000E+00  0.00000000000E+00  0.95151079162E+03  0.95151079163E+03  0.25500000920E-02 0.  1.
        2   -1    0    0  501    0  0.00000000000E+00  0.00000000000E+00 -0.94599249347E+03  0.94599249348E+03  0.25500000920E-02 0. -1.
    10030    2    1    2    0    0  0.00000000000E+00  0.00000000000E+00  0.55182981516E+01  0.18975032851E+04  0.18974952610E+04 0.  0.
        1    1    3    3  502    0  0.24816232938E+03  0.35392738274E+03 -0.84179929470E+03  0.94629550699E+03  0.50400001928E-02 0. -1.
       -1    1    3    3    0  502 -0.24816232938E+03 -0.35392738274E+03  0.84731759285E+03  0.95120777812E+03  0.50400001928E-02 0.  1.
</event>
<event>
 5   0  0.2541124E-04  0.1893971E+04  0.7818609E-02  0.8657863E-01
       -2   -1    0    0    0  501  0.00000000000E+00  0.00000000000E+00  0.59528803063E+03  0.59528803063E+03  0.25500000920E-02 0. -1.
        2   -1    0    0  501    0  0.00000000000E+00  0.00000000000E+00 -0.15064673805E+04  0.15064673805E+04  0.25500000920E-02 0.  1.
    10030    2    1    2    0    0  0.00000000000E+00  0.00000000000E+00 -0.91117934983E+03  0.21017554111E+04  0.18939714888E+04 0.  0.
        5    1    3    3  502    0  0.85586888329E+03  0.22245704754E+03 -0.83151910663E+03  0.12138553448E+04  0.46999998093E+01 0.  1.
       -5    1    3    3    0  502 -0.85586888329E+03 -0.22245704754E+03 -0.79660243194E+02  0.88790006630E+03  0.46999998093E+01 0. -1.
</event>
<event>
 5   0  0.1277709E-04  0.1934064E+04  0.7818609E-02  0.8638084E-01
       -1   -1    0    0    0  501  0.00000000000E+00  0.00000000000E+00  0.58862875127E+03  0.58862875130E+03  0.50400001928E-02 0. -1.
        1   -1    0    0  501    0  0.00000000000E+00  0.00000000000E+00 -0.15886942016E+04  0.15886942016E+04  0.50400001928E-02 0.  1.
    10030    2    1    2    0    0  0.00000000000E+00  0.00000000000E+00 -0.10000654503E+04  0.21773229529E+04  0.19340642017E+04 0.  0.
        4    1    3    3  502    0  0.17843995456E+03 -0.46041468361E+03  0.43600578179E+03  0.65872995448E+03  0.12699999809E+01 0. -1.
       -4    1    3    3    0  502 -0.17843995456E+03  0.46041468361E+03 -0.14360712321E+04  0.15185929984E+04  0.12699999809E+01 0.  1.
</event>
<event>
 5   0  0.1255141E-04  0.1832087E+04  0.7818609E-02  0.8689420E-01
       -1   -1    0    0    0  501  0.00000000000E+00  0.00000000000E+00  0.54622549520E+03  0.54622549523E+03  0.50400001928E-02 0. -1.
        1   -1    0    0  501    0  0.00000000000E+00  0.00000000000E+00 -0.15362443780E+04  0.15362443780E+04  0.50400001928E-02 0.  1.
    10030    2    1    2    0    0  0.00000000000E+00  0.00000000000E+00 -0.99001888278E+03  0.20824698732E+04  0.18320871662E+04 0.  0.
        2    1    3    3  502    0  0.43649981427E+03  0.46373825806E+03 -0.12434416753E+04  0.13970441868E+04  0.25500000920E-02 0.  1.
       -2    1    3    3    0  502 -0.43649981427E+03 -0.46373825806E+03  0.25342279255E+03  0.68542568644E+03  0.25500000920E-02 0. -1.
</event>
<event>
 5   0  0.1255141E-04  0.1881337E+04  0.7818609E-02  0.8664202E-01
        1   -1    0    0  501    0  0.00000000000E+00  0.00000000000E+00  0.14109422917E+04  0.14109422917E+04  0.50400001928E-02 0. -1.
       -1   -1    0    0    0  501  0.00000000000E+00  0.00000000000E+00 -0.62713910639E+03  0.62713910641E+03  0.50400001928E-02 0.  1.
    10030    2    1    2    0    0  0.00000000000E+00  0.00000000000E+00  0.78380318532E+03  0.20380813981E+04  0.18813368524E+04 0.  0.
        2    1    3    3  502    0  0.79074445002E+03  0.37208819040E+03  0.14866267092E+02  0.87404085292E+03  0.25500000920E-02 0.  1.
       -2    1    3    3    0  502 -0.79074445002E+03 -0.37208819040E+03  0.76893691822E+03  0.11640405452E+04  0.25500000920E-02 0. -1.
</event>
<event>
 5   0  0.1324058E-04  0.1925084E+04  0.7818609E-02  0.8642470E-01
       -1   -1    0    0    0  501  0.00000000000E+00  0.00000000000E+00  0.90688594892E+03  0.90688594894E+03  0.50400001928E-02 0.  1.
        1   -1    0    0  501    0  0.00000000000E+00  0.00000000000E+00 -0.10216134318E+04  0.10216134318E+04  0.50400001928E-02 0. -1.
    10030    2    1    2    0    0  0.00000000000E+00  0.00000000000E+00 -0.11472748283E+03  0.19284993807E+04  0.19250837556E+04 0.  0.
        5    1    3    3  502    0 -0.73736202465E+02  0.72683409686E+03 -0.68516533199E+03  0.10015979503E+04  0.46999998093E+01 0. -1.
       -5    1    3    3    0  502  0.73736202465E+02 -0.72683409686E+03  0.57043784915E+03  0.92690143039E+03  0.46999998093E+01 0.  1.
</event>
<event>
 5   0  0.1255141E-04  0.1917274E+04  0.7818609E-02  0.8646305E-01
        1   -1    0    0  501    0  0.00000000000E+00  0.00000000000E+00  0.13385109374E+04  0.13385109374E+04  0.50400001928E-02 0. -1.
       -1   -1    0    0    0  501  0.00000000000E+00  0.00000000000E+00 -0.68657292589E+03  0.68657292590E+03  0.50400001928E-02 0.  1.
    10030    2    1    2    0    0  0.00000000000E+00  0.00000000000E+00  0.65193801152E+03  0.20250838633E+04  0.19172744933E+04 0.  0.
        2    1    3    3  502    0  0.41957588685E+03  0.22886398196E+03  0.12036976755E+04  0.12951103200E+04  0.25500000920E-02 0. -1.
       -2    1    3    3    0  502 -0.41957588685E+03 -0.22886398196E+03 -0.55175966399E+03  0.72997354327E+03  0.25500000920E-02 0.  1.
</event>
<event>
 5   0  0.2608744E-04  0.1871244E+04  0.7818609E-02  0.8669304E-01
       -2   -1    0    0    0  501  0.00000000000E+00  0.00000000000E+00  0.48032045272E+03  0.48032045272E+03  0.25500000920E-02 0.  1.
        2   -1    0    0  501    0  0.00000000000E+00  0.00000000000E+00 -0.18225097620E+04  0.18225097620E+04  0.25500000920E-02 0. -1.
    10030    2    1    2    0    0  0.00000000000E+00  0.00000000000E+00 -0.13421893093E+04  0.23028302147E+04  0.18712442000E+04 0.  0.
        2    1    3    3  502    0 -0.20617086058E+03  0.69436376422E+03 -0.13999223652E+04  0.15762075020E+04  0.25500000920E-02 0.  1.
       -2    1    3    3    0  502  0.20617086058E+03 -0.69436376422E+03  0.57733055959E+02  0.72662271267E+03  0.25500000920E-02 0. -1.
</event>
<event>
 5   0  0.2608744E-04  0.1888333E+04  0.7818609E-02  0.8660686E-01
        2   -1    0    0  501    0  0.00000000000E+00  0.00000000000E+00  0.17312444365E+04  0.17312444365E+04  0.25500000920E-02 0. -1.
       -2   -1    0    0    0  501  0.00000000000E+00  0.00000000000E+00 -0.51491863983E+03  0.51491863984E+03  0.25500000920E-02 0.  1.
    10030    2    1    2    0    0  0.00000000000E+00  0.00000000000E+00  0.12163257966E+04  0.22461630763E+04  0.18883326301E+04 0.  0.
        2    1    3    3  502    0 -0.25138855056E+03 -0.90110417218E+03  0.45646096074E+03  0.10409330147E+04  0.25500000920E-02 0. -1.
       -2    1    3    3    0  502  0.25138855056E+03  0.90110417218E+03  0.75986483589E+03  0.12052300616E+04  0.25500000920E-02 0.  1.
</event>
<event>
 5   0  0.2651828E-04  0.1849425E+04  0.7818609E-02  0.8680448E-01
       -2   -1    0    0    0  501  0.00000000000E+00  0.00000000000E+00  0.89832598759E+03  0.89832598759E+03  0.25500000920E-02 0. -1.
        2   -1    0    0  501    0  0.00000000000E+00  0.00000000000E+00 -0.95187445591E+03  0.95187445592E+03  0.25500000920E-02 0.  1.
    10030    2    1    2    0    0  0.00000000000E+00  0.00000000000E+00 -0.53548468324E+02  0.18502004435E+04  0.18494253818E+04 0.  0.
        3    1    3    3  502    0 -0.67849813502E+03 -0.37591539763E+03  0.47684655429E+03  0.91052443786E+03  0.10100000352E+00 0. -1.
       -3    1    3    3    0  502  0.67849813502E+03  0.37591539763E+03 -0.53039502261E+03  0.93967600566E+03  0.10100000352E+00 0.  1.
</event>
<event>
 5   0  0.1317527E-04  0.1816717E+04  0.7818609E-02  0.8697460E-01
        1   -1    0    0  501    0  0.00000000000E+00  0.00000000000E+00  0.12103249696E+04  0.12103249696E+04  0.50400001928E-02 0.  1.
       -1   -1    0    0    0  501  0.00000000000E+00  0.00000000000E+00 -0.68173011789E+03  0.68173011791E+03  0.50400001928E-02 0. -1.
    10030    2    1    2    0    0  0.00000000000E+00  0.00000000000E+00  0.52859485175E+03  0.18920550876E+04  0.18167168015E+04 0.  0.
        1    1    3    3  502    0  0.75482823487E+03  0.44615581556E+03  0.17193987926E+02  0.87699276460E+03  0.50400001928E-02 0.  1.
       -1    1    3    3    0  502 -0.75482823487E+03 -0.44615581556E+03  0.51140086382E+03  0.10150623229E+04  0.50400001928E-02 0. -1.
</event>
<event>
 5   0  0.1255141E-04  0.1874473E+04  0.7818609E-02  0.8667668E-01
       -1   -1    0    0    0  501  0.00000000000E+00  0.00000000000E+00  0.81937983062E+03  0.81937983063E+03  0.50400001928E-02 0. -1.
        1   -1    0    0  501    0  0.00000000000E+00  0.00000000000E+00 -0.10720452638E+04  0.10720452638E+04  0.50400001928E-02 0.  1.
    10030    2    1    2    0    0  0.00000000000E+00  0.00000000000E+00 -0.25266543321E+03  0.18914250945E+04  0.18744730104E+04 0.  0.
        2    1    3    3  502    0  0.14704200792E+03 -0.40875474045E+03 -0.96433145852E+03  0.10576563486E+04  0.25500000920E-02 0.  1.
       -2    1    3    3    0  502 -0.14704200792E+03  0.40875474045E+03  0.71166602531E+03  0.83376874583E+03  0.25500000920E-02 0. -1.
</event>
<event>
 5   0  0.1255141E-04  0.2160112E+04  0.7818609E-02  0.8535216E-01
       -1   -1    0    0    0  501  0.00000000000E+00  0.00000000000E+00  0.12954840629E+04  0.12954840629E+04  0.50400001928E-02 0. -1.
        1   -1    0    0  501    0  0.00000000000E+00  0.00000000000E+00 -0.90045188230E+03  0.90045188231E+03  0.50400001928E-02 0.  1.
    10030    2    1    2    0    0  0.00000000000E+00  0.00000000000E+00  0.39503218063E+03  0.21959359453E+04  0.21601120924E+04 0.  0.
        2    1    3    3  502    0  0.68404865618E+03 -0.49675151439E+03  0.88085162017E+03  0.12208948390E+04  0.25500000920E-02 0. -1.
       -2    1    3    3    0  502 -0.68404865618E+03  0.49675151439E+03 -0.48581943954E+03  0.97504110627E+03  0.25500000920E-02 0.  1.
</event>
<event>
 5   0  0.2651828E-04  0.1884143E+04  0.7818609E-02  0.8662790E-01
       -2   -1    0    0    0  501  0.00000000000E+00  0.00000000000E+00  0.50328740930E+03  0.50328740931E+03  0.25500000920E-02 0. -1.
        2   -1    0    0  501    0  0.00000000000E+00  0.00000000000E+00 -0.17634028334E+04  0.17634028334E+04  0.25500000920E-02 0.  1.
    10030    2    1    2    0    0  0.00000000000E+00  0.00000000000E+00 -0.12601154241E+04  0.22666902427E+04  0.18841427160E+04 0.  0.
        3    1    3    3  502    0  0.57192519198E+03 -0.35412034630E+03  0.16339747416E+03  0.69224156886E+03  0.10100000352E+00 0.  1.
       -3    1    3    3    0  502 -0.57192519198E+03  0.35412034630E+03 -0.14235128982E+04  0.15744486738E+04  0.10100000352E+00 0. -1.
</event>
<event>
 5   0  0.2608744E-04  0.2129293E+04  0.7818609E-02  0.8548448E-01
        2   -1    0    0  501    0  0.00000000000E+00  0.00000000000E+00  0.72863734507E+03  0.72863734508E+03  0.25500000920E-02 0. -1.
       -2   -1    0    0    0  501  0.00000000000E+00  0.00000000000E+00 -0.15556051087E+04  0.15556051087E+04  0.25500000920E-02 0.  1.
    10030    2    1    2    0    0  0.00000000000E+00  0.00000000000E+00 -0.82696776366E+03  0.22842424538E+04  0.21292928182E+04 0.  0.
        2    1    3    3  502    0  0.88508389487E+03  0.31801442365E+03  0.12179020777E+03  0.94833513555E+03  0.25500000920E-02 0. -1.
       -2    1    3    3    0  502 -0.88508389487E+03 -0.31801442365E+03 -0.94875797144E+03  0.13359073183E+04  0.25500000920E-02 0.  1.
</event>
<event>
 5   0  0.2608744E-04  0.1886975E+04  0.7818609E-02  0.8661367E-01
        2   -1    0    0  501    0  0.00000000000E+00  0.00000000000E+00  0.24751629571E+04  0.24751629571E+04  0.25500000920E-02 0. -1.
       -2   -1    0    0    0  501  0.00000000000E+00  0.00000000000E+00 -0.35964029040E+03  0.35964029041E+03  0.25500000920E-02 0.  1.
    10030    2    1    2    0    0  0.00000000000E+00  0.00000000000E+00  0.21155226667E+04  0.28348032475E+04  0.18869746418E+04 0.  0.
        2    1    3    3  502    0  0.71905707926E+03 -0.45775695673E+03  0.16653742776E+04  0.18708436597E+04  0.25500000920E-02 0.  1.
       -2    1    3    3    0  502 -0.71905707926E+03  0.45775695673E+03  0.45014838911E+03  0.96395958779E+03  0.25500000920E-02 0. -1.
</event>
<event>
 5   0  0.1277709E-04  0.1848392E+04  0.7818609E-02  0.8680980E-01
       -1   -1    0    0    0  501  0.00000000000E+00  0.00000000000E+00  0.33297229300E+04  0.33297229300E+04  0.50400001928E-02 0. -1.
        1   -1    0    0  501    0  0.00000000000E+00  0.00000000000E+00 -0.25651941312E+03  0.25651941317E+03  0.50400001928E-02 0.  1.
    10030    2    1    2    0    0  0.00000000000E+00  0.00000000000E+00  0.30732035169E+04  0.35862423432E+04  0.18483923523E+04 0.  0.
        4    1    3    3  502    0  0.36728853677E+03 -0.80841353153E+03  0.10392768339E+04  0.13669423022E+04  0.12699999809E+01 0.  1.
       -4    1    3    3    0  502 -0.36728853677E+03  0.80841353153E+03  0.20339266830E+04  0.22193000410E+04  0.12699999809E+01 0. -1.
</event>
<event>
 5   0  0.9266125E-05  0.1923419E+04  0.7818609E-02  0.8643286E-01
       -3   -1    0    0    0  501  0.00000000000E+00  0.00000000000E+00  0.20235236853E+04  0.20235236878E+04  0.10100000352E+00 0. -1.
        3   -1    0    0  501    0  0.00000000000E+00  0.00000000000E+00 -0.45706653188E+03  0.45706654304E+03  0.10100000352E+00 0.  1.
    10030    2    1    2    0    0  0.00000000000E+00  0.00000000000E+00  0.15664571534E+04  0.24805902308E+04  0.19234187999E+04 0.  0.
        3    1    3    3  502    0 -0.68073424798E+03 -0.47334394949E+03  0.14116488718E+04  0.16371335188E+04  0.10100000352E+00 0. -1.
       -3    1    3    3    0  502  0.68073424798E+03  0.47334394949E+03  0.15480828163E+03  0.84345671208E+03  0.10100000352E+00 0.  1.
</event>
<event>
 5   0  0.2595012E-04  0.1455139E+04  0.7818609E-02  0.8914846E-01
        2   -1    0    0  501    0  0.00000000000E+00  0.00000000000E+00  0.26431911889E+04  0.26431911889E+04  0.25500000920E-02 0. -1.
       -2   -1    0    0    0  501  0.00000000000E+00  0.00000000000E+00 -0.20027198960E+03  0.20027198962E+03  0.25500000920E-02 0.  1.
    10030    2    1    2    0    0  0.00000000000E+00  0.00000000000E+00  0.24429191993E+04  0.28434631785E+04  0.14551386990E+04 0.  0.
        1    1    3    3  502    0  0.41933026576E+02  0.54751156568E+03  0.21541737044E+04  0.22230590730E+04  0.50400001928E-02 0. -1.
       -1    1    3    3    0  502 -0.41933026576E+02 -0.54751156568E+03  0.28874549487E+03  0.62040410549E+03  0.50400001928E-02 0.  1.
</event>
<event>
 5   0  0.2651828E-04  0.1892880E+04  0.7818609E-02  0.8658408E-01
       -2   -1    0    0    0  501  0.00000000000E+00  0.00000000000E+00  0.97058047521E+03  0.97058047521E+03  0.25500000920E-02 0.  1.
        2   -1    0    0  501    0  0.00000000000E+00  0.00000000000E+00 -0.92290026018E+03  0.92290026018E+03  0.25500000920E-02 0. -1.
    10030    2    1    2    0    0  0.00000000000E+00  0.00000000000E+00  0.47680215030E+02  0.18934807354E+04  0.18928803164E+04 0.  0.
        3    1    3    3  502    0 -0.62305207104E+02  0.94210708099E+03 -0.41764779227E+02  0.94508835453E+03  0.10100000352E+00 0. -1.
       -3    1    3    3    0  502  0.62305207104E+02 -0.94210708099E+03  0.89444994257E+02  0.94839238086E+03  0.10100000352E+00 0.  1.
</event>
<event>
 5   0  0.1255141E-04  0.1893495E+04  0.7818609E-02  0.8658101E-01
        1   -1    0    0  501    0  0.00000000000E+00  0.00000000000E+00  0.82947931171E+03  0.82947931173E+03  0.50400001928E-02 0.  1.
       -1   -1    0    0    0  501  0.00000000000E+00  0.00000000000E+00 -0.10805949688E+04  0.10805949689E+04  0.50400001928E-02 0. -1.
    10030    2    1    2    0    0  0.00000000000E+00  0.00000000000E+00 -0.25111565713E+03  0.19100742806E+04  0.18934953615E+04 0.  0.
        2    1    3    3  502    0  0.39807378441E+03 -0.96776121523E+02  0.73543915213E+03  0.84184268247E+03  0.25500000920E-02 0.  1.
       -2    1    3    3    0  502 -0.39807378441E+03  0.96776121523E+02 -0.98655480926E+03  0.10682315981E+04  0.25500000920E-02 0. -1.
</event>
<event>
 5   0  0.2651828E-04  0.1889947E+04  0.7818609E-02  0.8659877E-01
       -2   -1    0    0    0  501  0.00000000000E+00  0.00000000000E+00  0.89178046210E+03  0.89178046211E+03  0.25500000920E-02 0. -1.
        2   -1    0    0  501    0  0.00000000000E+00  0.00000000000E+00 -0.10013390251E+04  0.10013390251E+04  0.25500000920E-02 0.  1.
    10030    2    1    2    0    0  0.00000000000E+00  0.00000000000E+00 -0.10955856296E+03  0.18931194872E+04  0.18899466432E+04 0.  0.
        3    1    3    3  502    0  0.91210994816E+03  0.68452947117E+02  0.18298855695E+03  0.93279964927E+03  0.10100000352E+00 0. -1.
       -3    1    3    3    0  502 -0.91210994816E+03 -0.68452947117E+02 -0.29254711990E+03  0.96031983790E+03  0.10100000352E+00 0.  1.
</event>
<event>
 5   0  0.2608744E-04  0.1889719E+04  0.7818609E-02  0.8659991E-01
       -2   -1    0    0    0  501  0.00000000000E+00  0.00000000000E+00  0.54739398591E+03  0.54739398591E+03  0.25500000920E-02 0.  1.
        2   -1    0    0  501    0  0.00000000000E+00  0.00000000000E+00 -0.16309265132E+04  0.16309265132E+04  0.25500000920E-02 0. -1.
    10030    2    1    2    0    0  0.00000000000E+00  0.00000000000E+00 -0.10835325273E+04  0.21783204991E+04  0.18897188836E+04 0.  0.
        2    1    3    3  502    0  0.30345044597E+03 -0.56081320057E+03 -0.13455084307E+04  0.14889548537E+04  0.25500000920E-02 0. -1.
       -2    1    3    3    0  502 -0.30345044597E+03  0.56081320057E+03  0.26197590346E+03  0.68936564542E+03  0.25500000920E-02 0.  1.
</event>
<event>
 5   0  0.2541124E-04  0.2010686E+04  0.7818609E-02  0.8601641E-01
        2   -1    0    0  501    0  0.00000000000E+00  0.00000000000E+00  0.16428149855E+04  0.16428149855E+04  0.25500000920E-02 0. -1.
       -2   -1    0    0    0  501  0.00000000000E+00  0.00000000000E+00 -0.61523331840E+03  0.61523331841E+03  0.25500000920E-02 0.  1.
    10030    2    1    2    0    0  0.00000000000E+00  0.00000000000E+00  0.10275816671E+04  0.22580483039E+04  0.20106859676E+04 0.  0.
        5    1    3    3  502    0 -0.44897453130E+03 -0.12921589629E+03  0.15134823879E+04  0.15839589344E+04  0.46999998093E+01 0. -1.
       -5    1    3    3    0  502  0.44897453130E+03  0.12921589629E+03 -0.48590072076E+03  0.67408936948E+03  0.46999998093E+01 0.  1.
</event>
<event>
 5   0  0.1324058E-04  0.1910972E+04  0.7818609E-02  0.8649414E-01
       -1   -1    0    0    0  501  0.00000000000E+00  0.00000000000E+00  0.11854570289E+04  0.11854570289E+04  0.50400001928E-02 0.  1.
        1   -1    0    0  501    0  0.00000000000E+00  0.00000000000E+00 -0.77012748899E+03  0.77012748901E+03  0.50400001928E-02 0. -1.
    10030    2    1    2    0    0  0.00000000000E+00  0.00000000000E+00  0.41532953991E+03  0.19555845179E+04  0.19109715278E+04 0.  0.
        5    1    3    3  502    0 -0.24469065209E+03  0.66842350952E+03  0.85993624872E+03  0.11163225095E+04  0.46999998093E+01 0.  1.
       -5    1    3    3    0  502  0.24469065209E+03 -0.66842350952E+03 -0.44460670882E+03  0.83926200845E+03  0.46999998093E+01 0. -1.
</event>
<event>
 5   0  0.1324058E-04  0.1898771E+04  0.7818609E-02  0.8655468E-01
       -1   -1    0    0    0  501  0.00000000000E+00  0.00000000000E+00  0.40029367870E+03  0.40029367873E+03  0.50400001928E-02 0.  1.
        1   -1    0    0  501    0  0.00000000000E+00  0.00000000000E+00 -0.22516782958E+04  0.22516782958E+04  0.50400001928E-02 0. -1.
    10030    2    1    2    0    0  0.00000000000E+00  0.00000000000E+00 -0.18513846171E+04  0.26519719745E+04  0.18987707479E+04 0.  0.
        5    1    3    3  502    0 -0.62982317839E+03 -0.68179656815E+03 -0.64710240826E+03  0.11314978626E+04  0.46999998093E+01 0.  1.
       -5    1    3    3    0  502  0.62982317839E+03  0.68179656815E+03 -0.12042822088E+04  0.15204741119E+04  0.46999998093E+01 0. -1.
</event>
<event>
 5   0  0.2595012E-04  0.1949705E+04  0.7818609E-02  0.8630503E-01
        2   -1    0    0  501    0  0.00000000000E+00  0.00000000000E+00  0.14022119485E+04  0.14022119485E+04  0.25500000920E-02 0.  1.
       -2   -1    0    0    0  501  0.00000000000E+00  0.00000000000E+00 -0.67774164446E+03  0.67774164446E+03  0.25500000920E-02 0. -1.
    10030    2    1    2    0    0  0.00000000000E+00  0.00000000000E+00  0.72447030405E+03  0.20799535930E+04  0.19497050360E+04 0.  0.
        1    1    3    3  502    0 -0.18568619160E+03  0.37942121506E+03 -0.57503455446E+03  0.71351563335E+03  0.50400001928E-02 0. -1.
       -1    1    3    3    0  502  0.18568619160E+03 -0.37942121506E+03  0.12995048585E+04  0.13664379596E+04  0.50400001928E-02 0.  1.
</event>
<event>
 5   0  0.1277709E-04  0.1918360E+04  0.7818609E-02  0.8645771E-01
        1   -1    0    0  501    0  0.00000000000E+00  0.00000000000E+00  0.91917541436E+03  0.91917541437E+03  0.50400001928E-02 0. -1.
       -1   -1    0    0    0  501  0.00000000000E+00  0.00000000000E+00 -0.10009253169E+04  0.10009253169E+04  0.50400001928E-02 0.  1.
    10030    2    1    2    0    0  0.00000000000E+00  0.00000000000E+00 -0.81749902503E+02  0.19201007312E+04  0.19183596565E+04 0.  0.
        4    1    3    3  502    0  0.42570609852E+03  0.83272604637E+03 -0.25406116965E+03  0.96912694805E+03  0.12699999809E+01 0. -1.
       -4    1    3    3    0  502 -0.42570609852E+03 -0.83272604637E+03  0.17231126715E+03  0.95097378319E+03  0.12699999809E+01 0.  1.
</event>
<event>
 5   0  0.2608744E-04  0.1939758E+04  0.7818609E-02  0.8635316E-01
        2   -1    0    0  501    0  0.00000000000E+00  0.00000000000E+00  0.10351504224E+04  0.10351504224E+04  0.25500000920E-02 0. -1.
       -2   -1    0    0    0  501  0.00000000000E+00  0.00000000000E+00 -0.90872286855E+03  0.90872286855E+03  0.25500000920E-02 0.  1.
    10030    2    1    2    0    0  0.00000000000E+00  0.00000000000E+00  0.12642755385E+03  0.19438732910E+04  0.19397575737E+04 0.  0.
        2    1    3    3  502    0  0.55361983440E+03 -0.62848318866E+03 -0.42688301236E+03  0.94006124572E+03  0.25500000920E-02 0.  1.
       -2    1    3    3    0  502 -0.55361983440E+03  0.62848318866E+03  0.55331056621E+03  0.10038120452E+04  0.25500000920E-02 0. -1.
</event>
<event>
 5   0  0.1317527E-04  0.1878402E+04  0.7818609E-02  0.8665682E-01
        1   -1    0    0  501    0  0.00000000000E+00  0.00000000000E+00  0.10156084112E+04  0.10156084112E+04  0.50400001928E-02 0.  1.
       -1   -1    0    0    0  501  0.00000000000E+00  0.00000000000E+00 -0.86854204023E+03  0.86854204024E+03  0.50400001928E-02 0. -1.
    10030    2    1    2    0    0  0.00000000000E+00  0.00000000000E+00  0.14706637100E+03  0.18841504515E+04  0.18784020886E+04 0.  0.
        1    1    3    3  502    0 -0.54246527550E+03 -0.34341671063E+03 -0.61405344442E+03  0.88840601354E+03  0.50400001928E-02 0. -1.
       -1    1    3    3    0  502  0.54246527550E+03  0.34341671063E+03  0.76111981542E+03  0.99574443795E+03  0.50400001928E-02 0.  1.
</event>
<event>
 5   0  0.2562925E-04  0.1890311E+04  0.7818609E-02  0.8659694E-01
       -2   -1    0    0    0  501  0.00000000000E+00  0.00000000000E+00  0.53964728689E+03  0.53964728690E+03  0.25500000920E-02 0.  1.
        2   -1    0    0  501    0  0.00000000000E+00  0.00000000000E+00 -0.16553752511E+04  0.16553752511E+04  0.25500000920E-02 0. -1.
    10030    2    1    2    0    0  0.00000000000E+00  0.00000000000E+00 -0.11157279642E+04  0.21950225380E+04  0.18903108348E+04 0.  0.
        4    1    3    3  502    0  0.57988167113E+03  0.16866773553E+03 -0.14021150857E+04  0.15266433389E+04  0.12699999809E+01 0. -1.
       -4    1    3    3    0  502 -0.57988167113E+03 -0.16866773553E+03  0.28638712156E+03  0.66837919912E+03  0.12699999809E+01 0.  1.
</event>
<event>
 5   0  0.1277709E-04  0.1903783E+04  0.7818609E-02  0.8652975E-01
        1   -1    0    0  501    0  0.00000000000E+00  0.00000000000E+00  0.21934961972E+04  0.21934961972E+04  0.50400001928E-02 0.  1.
       -1   -1    0    0    0  501  0.00000000000E+00  0.00000000000E+00 -0.41308381400E+03  0.41308381403E+03  0.50400001928E-02 0. -1.
    10030    2    1    2    0    0  0.00000000000E+00  0.00000000000E+00  0.17804123832E+04  0.26065800112E+04  0.19037833650E+04 0.  0.
        4    1    3    3  502    0  0.69738374782E+03  0.58626521410E+03  0.51264326101E+03  0.10453973976E+04  0.12699999809E+01 0.  1.
       -4    1    3    3    0  502 -0.69738374782E+03 -0.58626521410E+03  0.12677691222E+04  0.15611826136E+04  0.12699999809E+01 0. -1.
</event>
<event>
 5   0  0.9266125E-05  0.1865259E+04  0.7818609E-02  0.8672345E-01
       -4   -1    0    0    0  501  0.00000000000E+00  0.00000000000E+00  0.64653602873E+03  0.64653727607E+03  0.12699999809E+01 0. -1.
        4   -1    0    0  501    0  0.00000000000E+00  0.00000000000E+00 -0.13453171526E+04  0.13453177521E+04  0.12699999809E+01 0.  1.
    10030    2    1    2    0    0  0.00000000000E+00  0.00000000000E+00 -0.69878112389E+03  0.19918550281E+04  0.18652590689E+04 0.  0.
        2    1    3    3  502    0 -0.52216682001E+03 -0.33474400198E+03  0.39436116531E+03  0.73500507719E+03  0.25500000920E-02 0. -1.
       -2    1    3    3    0  502  0.52216682001E+03  0.33474400198E+03 -0.10931422892E+04  0.12568499510E+04  0.25500000920E-02 0.  1.
</event>
<event>
 5   0  0.1277709E-04  0.1964304E+04  0.7818609E-02  0.8623494E-01
        1   -1    0    0  501    0  0.00000000000E+00  0.00000000000E+00  0.96866321702E+03  0.96866321704E+03  0.50400001928E-02 0. -1.
       -1   -1    0    0    0  501  0.00000000000E+00  0.00000000000E+00 -0.99582883260E+03  0.99582883261E+03  0.50400001928E-02 0.  1.
    10030    2    1    2    0    0  0.00000000000E+00  0.00000000000E+00 -0.27165615579E+02  0.19644920496E+04  0.19643042133E+04 0.  0.
        4    1    3    3  502    0 -0.38059020859E+03  0.89451663184E+03  0.12647427778E+03  0.98030927128E+03  0.12699999809E+01 0. -1.
       -4    1    3    3    0  502  0.38059020859E+03 -0.89451663184E+03 -0.15363989336E+03  0.98418277837E+03  0.12699999809E+01 0.  1.
</event>
<event>
 5   0  0.1324058E-04  0.1733536E+04  0.7818609E-02  0.8742466E-01
        1   -1    0    0  501    0  0.00000000000E+00  0.00000000000E+00  0.75827815776E+03  0.75827815777E+03  0.50400001928E-02 0.  1.
       -1   -1    0    0    0  501  0.00000000000E+00  0.00000000000E+00 -0.99077946781E+03  0.99077946782E+03  0.50400001928E-02 0. -1.
    10030    2    1    2    0    0  0.00000000000E+00  0.00000000000E+00 -0.23250131005E+03  0.17490576256E+04  0.17335356121E+04 0.  0.
        5    1    3    3  502    0  0.49769023446E+03 -0.68082638254E+03 -0.31815292385E+03  0.90136757518E+03  0.46999998093E+01 0. -1.
       -5    1    3    3    0  502 -0.49769023446E+03  0.68082638254E+03  0.85651613797E+02  0.84769005042E+03  0.46999998093E+01 0.  1.
</event>
<event>
 5   0  0.2595012E-04  0.1976481E+04  0.7818609E-02  0.8617696E-01
       -2   -1    0    0    0  501  0.00000000000E+00  0.00000000000E+00  0.66499148028E+03  0.66499148028E+03  0.25500000920E-02 0.  1.
        2   -1    0    0  501    0  0.00000000000E+00  0.00000000000E+00 -0.14686192418E+04  0.14686192418E+04  0.25500000920E-02 0. -1.
    10030    2    1    2    0    0  0.00000000000E+00  0.00000000000E+00 -0.80362776152E+03  0.21336107221E+04  0.19764809977E+04 0.  0.
        1    1    3    3  502    0  0.12755484659E+03 -0.49250861091E+03  0.51276153501E+03  0.72232912341E+03  0.50400001928E-02 0.  1.
       -1    1    3    3    0  502 -0.12755484659E+03  0.49250861091E+03 -0.13163892965E+04  0.14112815987E+04  0.50400001928E-02 0. -1.
</event>
<event>
 5   0  0.1324058E-04  0.1895535E+04  0.7818609E-02  0.8657082E-01
        1   -1    0    0  501    0  0.00000000000E+00  0.00000000000E+00  0.15398057613E+04  0.15398057613E+04  0.50400001928E-02 0.  1.
       -1   -1    0    0    0  501  0.00000000000E+00  0.00000000000E+00 -0.58336154101E+03  0.58336154103E+03  0.50400001928E-02 0. -1.
    10030    2    1    2    0    0  0.00000000000E+00  0.00000000000E+00  0.95644422031E+03  0.21231673024E+04  0.18955352403E+04 0.  0.
        5    1    3    3  502    0 -0.88034821734E+03  0.19314624647E+03  0.14989491481E+03  0.91367884499E+03  0.46999998093E+01 0. -1.
       -5    1    3    3    0  502  0.88034821734E+03 -0.19314624647E+03  0.80654930550E+03  0.12094884574E+04  0.46999998093E+01 0.  1.
</event>
<event>
 5   0  0.2595012E-04  0.1923231E+04  0.7818609E-02  0.8643379E-01
       -2   -1    0    0    0  501  0.00000000000E+00  0.00000000000E+00  0.58734600840E+03  0.58734600840E+03  0.25500000920E-02 0. -1.
        2   -1    0    0  501    0  0.00000000000E+00  0.00000000000E+00 -0.15743771384E+04  0.15743771384E+04  0.25500000920E-02 0.  1.
    10030    2    1    2    0    0  0.00000000000E+00  0.00000000000E+00 -0.98703113005E+03  0.21617231469E+04  0.19232307485E+04 0.  0.
        1    1    3    3  502    0 -0.33175001715E+03 -0.46809037005E+03  0.37389203091E+03  0.68480794330E+03  0.50400001928E-02 0. -1.
       -1    1    3    3    0  502  0.33175001715E+03  0.46809037005E+03 -0.13609231610E+04  0.14769152035E+04  0.50400001928E-02 0.  1.
</event>
<event>
 5   0  0.1239615E-04  0.1891913E+04  0.7818609E-02  0.8658892E-01
       -1   -1    0    0    0  501  0.00000000000E+00  0.00000000000E+00  0.46166332774E+03  0.46166332777E+03  0.50400001928E-02 0.  1.
        1   -1    0    0  501    0  0.00000000000E+00  0.00000000000E+00 -0.19382816410E+04  0.19382816410E+04  0.50400001928E-02 0. -1.
    10030    2    1    2    0    0  0.00000000000E+00  0.00000000000E+00 -0.14766183133E+04  0.23999449688E+04  0.18919128442E+04 0.  0.
        3    1    3    3  502    0 -0.60787290200E+03 -0.41418655799E+03  0.16197110259E+02  0.73574610185E+03  0.10100000352E+00 0.  1.
       -3    1    3    3    0  502  0.60787290200E+03  0.41418655799E+03 -0.14928154235E+04  0.16641988669E+04  0.10100000352E+00 0. -1.
</event>
<event>
 5   0  0.1324058E-04  0.1907337E+04  0.7818609E-02  0.8651213E-01
        1   -1    0    0  501    0  0.00000000000E+00  0.00000000000E+00  0.10891416986E+04  0.10891416986E+04  0.50400001928E-02 0.  1.
       -1   -1    0    0    0  501  0.00000000000E+00  0.00000000000E+00 -0.83504648793E+03  0.83504648794E+03  0.50400001928E-02 0. -1.
    10030    2    1    2    0    0  0.00000000000E+00  0.00000000000E+00  0.25409521068E+03  0.19241881866E+04  0.19073373591E+04 0.  0.
        5    1    3    3  502    0  0.72546166205E+03 -0.47658355729E+03  0.52555054415E+03  0.10147176822E+04  0.46999998093E+01 0.  1.
       -5    1    3    3    0  502 -0.72546166205E+03  0.47658355729E+03 -0.27145533347E+03  0.90947050433E+03  0.46999998093E+01 0. -1.
</event>
<event>
 5   0  0.2562925E-04  0.1912507E+04  0.7818609E-02  0.8648656E-01
        2   -1    0    0  501    0  0.00000000000E+00  0.00000000000E+00  0.16844959784E+04  0.16844959784E+04  0.25500000920E-02 0. -1.
       -2   -1    0    0    0  501  0.00000000000E+00  0.00000000000E+00 -0.54284557396E+03  0.54284557396E+03  0.25500000920E-02 0.  1.
    10030    2    1    2    0    0  0.00000000000E+00  0.00000000000E+00  0.11416504044E+04  0.22273415523E+04  0.19125074496E+04 0.  0.
        4    1    3    3  502    0  0.94400805938E+03  0.14196540559E+03  0.50583384712E+03  0.10803586841E+04  0.12699999809E+01 0.  1.
       -4    1    3    3    0  502 -0.94400805938E+03 -0.14196540559E+03  0.63581655729E+03  0.11469828682E+04  0.12699999809E+01 0. -1.
</event>
<event>
 5   0  0.2608744E-04  0.1919081E+04  0.7818609E-02  0.8645417E-01
        2   -1    0    0  501    0  0.00000000000E+00  0.00000000000E+00  0.10432733876E+04  0.10432733876E+04  0.25500000920E-02 0.  1.
       -2   -1    0    0    0  501  0.00000000000E+00  0.00000000000E+00 -0.88252756000E+03  0.88252756000E+03  0.25500000920E-02 0. -1.
    10030    2    1    2    0    0  0.00000000000E+00  0.00000000000E+00  0.16074582761E+03  0.19258009476E+04  0.19190805269E+04 0.  0.
        2    1    3    3  502    0  0.67008557789E+02  0.95394596508E+03  0.12649678847E+01  0.95629736550E+03  0.25500000920E-02 0. -1.
       -2    1    3    3    0  502 -0.67008557789E+02 -0.95394596508E+03  0.15948085973E+03  0.96950358212E+03  0.25500000920E-02 0.  1.
</event>
<event>
 5   0  0.1277709E-04  0.1850699E+04  0.7818609E-02  0.8679793E-01
       -1   -1    0    0    0  501  0.00000000000E+00  0.00000000000E+00  0.47431900148E+03  0.47431900150E+03  0.50400001928E-02 0. -1.
        1   -1    0    0  501    0  0.00000000000E+00  0.00000000000E+00 -0.18052655359E+04  0.18052655359E+04  0.50400001928E-02 0.  1.
    10030    2    1    2    0    0  0.00000000000E+00  0.00000000000E+00 -0.13309465345E+04  0.22795845374E+04  0.18506990533E+04 0.  0.
        4    1    3    3  502    0  0.63925423713E+03 -0.79764802781E+02  0.15274285263E+03  0.66207280218E+03  0.12699999809E+01 0. -1.
       -4    1    3    3    0  502 -0.63925423713E+03  0.79764802781E+02 -0.14836893871E+04  0.16175117353E+04  0.12699999809E+01 0.  1.
</event>
<event>
 5   0  0.2541124E-04  0.1909408E+04  0.7818609E-02  0.8650188E-01
        2   -1    0    0  501    0  0.00000000000E+00  0.00000000000E+00  0.68142267033E+03  0.68142267034E+03  0.25500000920E-02 0. -1.
       -2   -1    0    0    0  501  0.00000000000E+00  0.00000000000E+00 -0.13375834093E+04  0.13375834093E+04  0.25500000920E-02 0.  1.
    10030    2    1    2    0    0  0.00000000000E+00  0.00000000000E+00 -0.65616073896E+03  0.20190060796E+04  0.19094079277E+04 0.  0.
        5    1    3    3  502    0 -0.29114319900E+03 -0.17491175411E+03 -0.12715262928E+04  0.13161153777E+04  0.46999998093E+01 0.  1.
       -5    1    3    3    0  502  0.29114319900E+03  0.17491175411E+03  0.61536555384E+03  0.70289070196E+03  0.46999998093E+01 0. -1.
</event>
<event>
 5   0  0.1317527E-04  0.1916740E+04  0.7818609E-02  0.8646569E-01
       -1   -1    0    0    0  501  0.00000000000E+00  0.00000000000E+00  0.46365582854E+03  0.46365582856E+03  0.50400001928E-02 0.  1.
        1   -1    0    0  501    0  0.00000000000E+00  0.00000000000E+00 -0.19809365446E+04  0.19809365446E+04  0.50400001928E-02 0. -1.
    10030    2    1    2    0    0  0.00000000000E+00  0.00000000000E+00 -0.15172807161E+04  0.24445923732E+04  0.19167397058E+04 0.  0.
        1    1    3    3  502    0 -0.20788230130E+03 -0.38111708945E+03 -0.18483404070E+04  0.18986383403E+04  0.50400001928E-02 0. -1.
       -1    1    3    3    0  502  0.20788230130E+03  0.38111708945E+03  0.33105969091E+03  0.54595403290E+03  0.50400001928E-02 0.  1.
</event>
<event>
 5   0  0.2562925E-04  0.1841499E+04  0.7818609E-02  0.8684537E-01
        2   -1    0    0  501    0  0.00000000000E+00  0.00000000000E+00  0.15004343159E+04  0.15004343159E+04  0.25500000920E-02 0.  1.
       -2   -1    0    0    0  501  0.00000000000E+00  0.00000000000E+00 -0.56502268116E+03  0.56502268116E+03  0.25500000920E-02 0. -1.
    10030    2    1    2    0    0  0.00000000000E+00  0.00000000000E+00  0.93541163476E+03  0.20654569971E+04  0.18414987593E+04 0.  0.
        4    1    3    3  502    0  0.26010803197E+03  0.51754073959E+03 -0.33507233665E+03  0.66916342482E+03  0.12699999809E+01 0. -1.
       -4    1    3    3    0  502 -0.26010803197E+03 -0.51754073959E+03  0.12704839714E+04  0.13962935723E+04  0.12699999809E+01 0.  1.
</event>
<event>
 5   0  0.1255141E-04  0.1908423E+04  0.7818609E-02  0.8650675E-01
       -1   -1    0    0    0  501  0.00000000000E+00  0.00000000000E+00  0.82353722968E+03  0.82353722969E+03  0.50400001928E-02 0. -1.
        1   -1    0    0  501    0  0.00000000000E+00  0.00000000000E+00 -0.11056200807E+04  0.11056200808E+04  0.50400001928E-02 0.  1.
    10030    2    1    2    0    0  0.00000000000E+00  0.00000000000E+00 -0.28208285106E+03  0.19291573105E+04  0.19084226978E+04 0.  0.
        2    1    3    3  502    0 -0.47440052691E+03 -0.50443839373E+03  0.52260139130E+03  0.86754029716E+03  0.25500000920E-02 0. -1.
       -2    1    3    3    0  502  0.47440052691E+03  0.50443839373E+03 -0.80468424237E+03  0.10616170133E+04  0.25500000920E-02 0.  1.
</event>
<event>
 5   0  0.1255141E-04  0.1918359E+04  0.7818609E-02  0.8645772E-01
       -1   -1    0    0    0  501  0.00000000000E+00  0.00000000000E+00  0.72157781341E+03  0.72157781343E+03  0.50400001928E-02 0. -1.
        1   -1    0    0  501    0  0.00000000000E+00  0.00000000000E+00 -0.12750183553E+04  0.12750183553E+04  0.50400001928E-02 0.  1.
    10030    2    1    2    0    0  0.00000000000E+00  0.00000000000E+00 -0.55344054189E+03  0.19965961687E+04  0.19183586285E+04 0.  0.
        2    1    3    3  502    0 -0.37606538124E+03  0.39041569261E+03 -0.11003052651E+04  0.12265892795E+04  0.25500000920E-02 0.  1.
       -2    1    3    3    0  502  0.37606538124E+03 -0.39041569261E+03  0.54686472324E+03  0.77000688928E+03  0.25500000920E-02 0. -1.
</event>
<event>
 5   0  0.2608744E-04  0.1897902E+04  0.7818609E-02  0.8655901E-01
       -2   -1    0    0    0  501  0.00000000000E+00  0.00000000000E+00  0.58316428858E+03  0.58316428859E+03  0.25500000920E-02 0. -1.
        2   -1    0    0  501    0  0.00000000000E+00  0.00000000000E+00 -0.15441757717E+04  0.15441757717E+04  0.25500000920E-02 0.  1.
    10030    2    1    2    0    0  0.00000000000E+00  0.00000000000E+00 -0.96101148307E+03  0.21273400603E+04  0.18979021738E+04 0.  0.
        2    1    3    3  502    0 -0.45597307163E+03  0.73023526858E+03 -0.92795465390E+03  0.12658020498E+04  0.25500000920E-02 0.  1.
       -2    1    3    3    0  502  0.45597307163E+03 -0.73023526858E+03 -0.33056829176E+02  0.86153801047E+03  0.25500000920E-02 0. -1.
</event>
<event>
 5   0  0.1324058E-04  0.1903101E+04  0.7818609E-02  0.8653315E-01
        1   -1    0    0  501    0  0.00000000000E+00  0.00000000000E+00  0.94645998337E+03  0.94645998338E+03  0.50400001928E-02 0.  1.
       -1   -1    0    0    0  501  0.00000000000E+00  0.00000000000E+00 -0.95666809122E+03  0.95666809124E+03  0.50400001928E-02 0. -1.
    10030    2    1    2    0    0  0.00000000000E+00  0.00000000000E+00 -0.10208107856E+02  0.19031280746E+04  0.19031006970E+04 0.  0.
        5    1    3    3  502    0  0.29186181767E+03  0.30594391252E+02  0.90006455538E+03  0.94670884185E+03  0.46999998093E+01 0.  1.
       -5    1    3    3    0  502 -0.29186181767E+03 -0.30594391252E+02 -0.91027266323E+03  0.95641923277E+03  0.46999998093E+01 0. -1.
</event>
<event>
 5   0  0.1317527E-04  0.1935235E+04  0.7818609E-02  0.8637514E-01
        1   -1    0    0  501    0  0.00000000000E+00  0.00000000000E+00  0.23830635170E+04  0.23830635170E+04  0.50400001928E-02 0.  1.
       -1   -1    0    0    0  501  0.00000000000E+00  0.00000000000E+00 -0.39289055951E+03  0.39289055954E+03  0.50400001928E-02 0. -1.
    10030    2    1    2    0    0  0.00000000000E+00  0.00000000000E+00  0.19901729575E+04  0.27759540766E+04  0.19352345166E+04 0.  0.
        1    1    3    3  502    0 -0.11341143661E+03  0.76162244073E+03  0.18356076023E+04  0.19905743307E+04  0.50400001928E-02 0.  1.
       -1    1    3    3    0  502  0.11341143661E+03 -0.76162244073E+03  0.15456535515E+03  0.78537974587E+03  0.50400001928E-02 0. -1.
</event>
<event>
 5   0  0.1324058E-04  0.1645220E+04  0.7818609E-02  0.8793239E-01
        1   -1    0    0  501    0  0.00000000000E+00  0.00000000000E+00  0.88703727587E+03  0.88703727588E+03  0.50400001928E-02 0.  1.
       -1   -1    0    0    0  501  0.00000000000E+00  0.00000000000E+00 -0.76286246793E+03  0.76286246795E+03  0.50400001928E-02 0. -1.
    10030    2    1    2    0    0  0.00000000000E+00  0.00000000000E+00  0.12417480793E+03  0.16498997438E+04  0.16452202837E+04 0.  0.
        5    1    3    3  502    0 -0.55363464882E+02 -0.90845240104E+02 -0.75592092730E+03  0.76338490241E+03  0.46999998093E+01 0. -1.
       -5    1    3    3    0  502  0.55363464882E+02  0.90845240104E+02  0.88009573523E+03  0.88651484143E+03  0.46999998093E+01 0.  1.
</event>
<event>
 5   0  0.2608744E-04  0.1909547E+04  0.7818609E-02  0.8650119E-01
        2   -1    0    0  501    0  0.00000000000E+00  0.00000000000E+00  0.61771608572E+03  0.61771608573E+03  0.25500000920E-02 0.  1.
       -2   -1    0    0    0  501  0.00000000000E+00  0.00000000000E+00 -0.14757471234E+04  0.14757471234E+04  0.25500000920E-02 0. -1.
    10030    2    1    2    0    0  0.00000000000E+00  0.00000000000E+00 -0.85803103767E+03  0.20934632091E+04  0.19095473145E+04 0.  0.
        2    1    3    3  502    0  0.56820110196E+03 -0.74526387041E+03 -0.22889091286E+03  0.96470813141E+03  0.25500000920E-02 0.  1.
       -2    1    3    3    0  502 -0.56820110196E+03  0.74526387041E+03 -0.62914012481E+03  0.11287550777E+04  0.25500000920E-02 0. -1.
</event>
<event>
 5   0  0.2608744E-04  0.1823242E+04  0.7818609E-02  0.8694036E-01
       -2   -1    0    0    0  501  0.00000000000E+00  0.00000000000E+00  0.65965843469E+03  0.65965843470E+03  0.25500000920E-02 0.  1.
        2   -1    0    0  501    0  0.00000000000E+00  0.00000000000E+00 -0.12598229940E+04  0.12598229940E+04  0.25500000920E-02 0. -1.
    10030    2    1    2    0    0  0.00000000000E+00  0.00000000000E+00 -0.60016455930E+03  0.19194814287E+04  0.18232420182E+04 0.  0.
        2    1    3    3  502    0  0.62190073354E+03  0.44491304433E+03 -0.82261227652E+03  0.11231202504E+04  0.25500000920E-02 0. -1.
       -2    1    3    3    0  502 -0.62190073354E+03 -0.44491304433E+03  0.22244771722E+03  0.79636117829E+03  0.25500000920E-02 0.  1.
</event>
<event>
 5   0  0.1317527E-04  0.1935575E+04  0.7818609E-02  0.8637348E-01
        1   -1    0    0  501    0  0.00000000000E+00  0.00000000000E+00  0.12070307806E+04  0.12070307806E+04  0.50400001928E-02 0.  1.
       -1   -1    0    0    0  501  0.00000000000E+00  0.00000000000E+00 -0.77596387444E+03  0.77596387445E+03  0.50400001928E-02 0. -1.
    10030    2    1    2    0    0  0.00000000000E+00  0.00000000000E+00  0.43106690613E+03  0.19829946550E+04  0.19355746238E+04 0.  0.
        1    1    3    3  502    0 -0.64612848734E+03 -0.44333574785E+03 -0.36634572351E+03  0.86500739687E+03  0.50400001928E-02 0. -1.
       -1    1    3    3    0  502  0.64612848734E+03  0.44333574785E+03  0.79741262964E+03  0.11179872582E+04  0.50400001928E-02 0.  1.
</event>
<event>
 5   0  0.2651828E-04  0.1908760E+04  0.7818609E-02  0.8650508E-01
       -2   -1    0    0    0  501  0.00000000000E+00  0.00000000000E+00  0.10638495561E+04  0.10638495561E+04  0.25500000920E-02 0. -1.
        2   -1    0    0  501    0  0.00000000000E+00  0.00000000000E+00 -0.85617457028E+03  0.85617457028E+03  0.25500000920E-02 0.  1.
    10030    2    1    2    0    0  0.00000000000E+00  0.00000000000E+00  0.20767498583E+03  0.19200241264E+04  0.19087597403E+04 0.  0.
        3    1    3    3  502    0 -0.69575583720E+03 -0.48797823466E+03  0.54073000077E+03  0.10072675347E+04  0.10100000352E+00 0.  1.
       -3    1    3    3    0  502  0.69575583720E+03  0.48797823466E+03 -0.33305501495E+03  0.91275659169E+03  0.10100000352E+00 0. -1.
</event>
<event>
 5   0  0.2651828E-04  0.1908096E+04  0.7818609E-02  0.8650837E-01
        2   -1    0    0  501    0  0.00000000000E+00  0.00000000000E+00  0.17259086812E+04  0.17259086812E+04  0.25500000920E-02 0. -1.
       -2   -1    0    0    0  501  0.00000000000E+00  0.00000000000E+00 -0.52737867234E+03  0.52737867235E+03  0.25500000920E-02 0.  1.
    10030    2    1    2    0    0  0.00000000000E+00  0.00000000000E+00  0.11985300088E+04  0.22532873535E+04  0.19080958350E+04 0.  0.
        3    1    3    3  502    0 -0.33763700486E+03  0.23894682399E+02  0.16526183443E+04  0.16869253407E+04  0.10100000352E+00 0. -1.
       -3    1    3    3    0  502  0.33763700486E+03 -0.23894682399E+02 -0.45408833552E+03  0.56636201280E+03  0.10100000352E+00 0.  1.
</event>
<event>
 5   0  0.2562925E-04  0.1901154E+04  0.7818609E-02  0.8654282E-01
        2   -1    0    0  501    0  0.00000000000E+00  0.00000000000E+00  0.15018238092E+04  0.15018238092E+04  0.25500000920E-02 0.  1.
       -2   -1    0    0    0  501  0.00000000000E+00  0.00000000000E+00 -0.60166631839E+03  0.60166631839E+03  0.25500000920E-02 0. -1.
    10030    2    1    2    0    0  0.00000000000E+00  0.00000000000E+00  0.90015749078E+03  0.21034901276E+04  0.19011541780E+04 0.  0.
        4    1    3    3  502    0 -0.79272794610E+03  0.10006652956E+03 -0.11966642424E+03  0.80793104462E+03  0.12699999809E+01 0. -1.
       -4    1    3    3    0  502  0.79272794610E+03 -0.10006652956E+03  0.10198239150E+04  0.12955590829E+04  0.12699999809E+01 0.  1.
</event>
<event>
 5   0  0.1277709E-04  0.1576678E+04  0.7818609E-02  0.8835005E-01
       -1   -1    0    0    0  501  0.00000000000E+00  0.00000000000E+00  0.54517931136E+03  0.54517931139E+03  0.50400001928E-02 0. -1.
        1   -1    0    0  501    0  0.00000000000E+00  0.00000000000E+00 -0.11399520119E+04  0.11399520120E+04  0.50400001928E-02 0.  1.
    10030    2    1    2    0    0  0.00000000000E+00  0.00000000000E+00 -0.59477270058E+03  0.16851313233E+04  0.15766778401E+04 0.  0.
        4    1    3    3  502    0  0.44208744660E+02  0.50660541698E+03  0.34643922111E+03  0.61532528669E+03  0.12699999809E+01 0. -1.
       -4    1    3    3    0  502 -0.44208744660E+02 -0.50660541698E+03 -0.94121192169E+03  0.10698060366E+04  0.12699999809E+01 0.  1.
</event>
<event>
 5   0  0.1277709E-04  0.1918701E+04  0.7818609E-02  0.8645603E-01
        1   -1    0    0  501    0  0.00000000000E+00  0.00000000000E+00  0.87167590587E+03  0.87167590588E+03  0.50400001928E-02 0. -1.
       -1   -1    0    0    0  501  0.00000000000E+00  0.00000000000E+00 -0.10558434433E+04  0.10558434433E+04  0.50400001928E-02 0.  1.
    10030    2    1    2    0    0  0.00000000000E+00  0.00000000000E+00 -0.18416753744E+03  0.19275193492E+04  0.19187009042E+04 0.  0.
        4    1    3    3  502    0  0.60908704897E+03  0.13096664165E+03 -0.82496559696E+03  0.10337838959E+04  0.12699999809E+01 0.  1.
       -4    1    3    3    0  502 -0.60908704897E+03 -0.13096664165E+03  0.64079805952E+03  0.89373545327E+03  0.12699999809E+01 0. -1.
</event>
<event>
 5   0  0.2541124E-04  0.1927868E+04  0.7818609E-02  0.8641108E-01
       -2   -1    0    0    0  501  0.00000000000E+00  0.00000000000E+00  0.61932938344E+03  0.61932938345E+03  0.25500000920E-02 0. -1.
        2   -1    0    0  501    0  0.00000000000E+00  0.00000000000E+00 -0.15002815671E+04  0.15002815671E+04  0.25500000920E-02 0.  1.
    10030    2    1    2    0    0  0.00000000000E+00  0.00000000000E+00 -0.88095218369E+03  0.21196109506E+04  0.19278676905E+04 0.  0.
        5    1    3    3  502    0 -0.39614676149E+03  0.11030553471E+03 -0.13989914968E+04  0.14581834129E+04  0.46999998093E+01 0.  1.
       -5    1    3    3    0  502  0.39614676149E+03 -0.11030553471E+03  0.51803931312E+03  0.66142753765E+03  0.46999998093E+01 0. -1.
</event>
<event>
 5   0  0.1277709E-04  0.1895997E+04  0.7818609E-02  0.8656851E-01
        1   -1    0    0  501    0  0.00000000000E+00  0.00000000000E+00  0.83054945773E+03  0.83054945774E+03  0.50400001928E-02 0.  1.
       -1   -1    0    0    0  501  0.00000000000E+00  0.00000000000E+00 -0.10820564334E+04  0.10820564334E+04  0.50400001928E-02 0. -1.
    10030    2    1    2    0    0  0.00000000000E+00  0.00000000000E+00 -0.25150697571E+03  0.19126058912E+04  0.18959972406E+04 0.  0.
        4    1    3    3  502    0  0.77076727655E+03 -0.29635018394E+03  0.34393678128E+03  0.89453884686E+03  0.12699999809E+01 0.  1.
       -4    1    3    3    0  502 -0.77076727655E+03  0.29635018394E+03 -0.59544375699E+03  0.10180670443E+04  0.12699999809E+01 0. -1.
</event>
<event>
 5   0  0.2651828E-04  0.1912757E+04  0.7818609E-02  0.8648532E-01
        2   -1    0    0  501    0  0.00000000000E+00  0.00000000000E+00  0.13784676958E+04  0.13784676958E+04  0.25500000920E-02 0.  1.
       -2   -1    0    0    0  501  0.00000000000E+00  0.00000000000E+00 -0.66353369504E+03  0.66353369505E+03  0.25500000920E-02 0. -1.
    10030    2    1    2    0    0  0.00000000000E+00  0.00000000000E+00  0.71493400074E+03  0.20420013908E+04  0.19127569252E+04 0.  0.
        3    1    3    3  502    0  0.40995055536E+03  0.82498330034E+03  0.83197450183E+02  0.92497498864E+03  0.10100000352E+00 0. -1.
       -3    1    3    3    0  502 -0.40995055536E+03 -0.82498330034E+03  0.63173655056E+03  0.11170264022E+04  0.10100000352E+00 0.  1.
</event>
<event>
 5   0  0.2541124E-04  0.1938777E+04  0.7818609E-02  0.8635792E-01
        2   -1    0    0  501    0  0.00000000000E+00  0.00000000000E+00  0.19646799528E+04  0.19646799528E+04  0.25500000920E-02 0.  1.
       -2   -1    0    0    0  501  0.00000000000E+00  0.00000000000E+00 -0.47830394459E+03  0.47830394459E+03  0.25500000920E-02 0. -1.
    10030    2    1    2    0    0  0.00000000000E+00  0.00000000000E+00  0.14863760082E+04  0.24429838974E+04  0.19387771107E+04 0.  0.
        5    1    3    3  502    0 -0.83485945353E+02  0.16570571915E+03  0.19420806491E+04  0.19509299388E+04  0.46999998093E+01 0.  1.
       -5    1    3    3    0  502  0.83485945353E+02 -0.16570571915E+03 -0.45570464090E+03  0.49205395860E+03  0.46999998093E+01 0. -1.
</event>
<event>
 5   0  0.1277709E-04  0.1841562E+04  0.7818609E-02  0.8684504E-01
        1   -1    0    0  501    0  0.00000000000E+00  0.00000000000E+00  0.12665471259E+04  0.12665471259E+04  0.50400001928E-02 0. -1.
       -1   -1    0    0    0  501  0.00000000000E+00  0.00000000000E+00 -0.66940878390E+03  0.66940878392E+03  0.50400001928E-02 0.  1.
    10030    2    1    2    0    0  0.00000000000E+00  0.00000000000E+00  0.59713834198E+03  0.19359559098E+04  0.18415621318E+04 0.  0.
        4    1    3    3  502    0  0.50392980029E+03 -0.72233991955E+03  0.58087819928E+03  0.10550551162E+04  0.12699999809E+01 0. -1.
       -4    1    3    3    0  502 -0.50392980029E+03  0.72233991955E+03  0.16260142693E+02  0.88090079358E+03  0.12699999809E+01 0.  1.
</event>
<event>
 5   0  0.1239615E-04  0.1870501E+04  0.7818609E-02  0.8669681E-01
       -1   -1    0    0    0  501  0.00000000000E+00  0.00000000000E+00  0.11169807163E+04  0.11169807163E+04  0.50400001928E-02 0.  1.
        1   -1    0    0  501    0  0.00000000000E+00  0.00000000000E+00 -0.78308713608E+03  0.78308713609E+03  0.50400001928E-02 0. -1.
    10030    2    1    2    0    0  0.00000000000E+00  0.00000000000E+00  0.33389358024E+03  0.19000678524E+04  0.18705007139E+04 0.  0.
        3    1    3    3  502    0 -0.13627216954E+03  0.13099736709E+03 -0.76348081152E+03  0.78653250037E+03  0.10100000352E+00 0. -1.
       -3    1    3    3    0  502  0.13627216954E+03 -0.13099736709E+03  0.10973743918E+04  0.11135353521E+04  0.10100000352E+00 0.  1.
</event>
<event>
 5   0  0.1277709E-04  0.1950840E+04  0.7818609E-02  0.8629956E-01
       -1   -1    0    0    0  501  0.00000000000E+00  0.00000000000E+00  0.10246994077E+04  0.10246994077E+04  0.50400001928E-02 0. -1.
        1   -1    0    0  501    0  0.00000000000E+00  0.00000000000E+00 -0.92851054717E+03  0.92851054718E+03  0.50400001928E-02 0.  1.
    10030    2    1    2    0    0  0.00000000000E+00  0.00000000000E+00  0.96188860506E+02  0.19532099549E+04  0.19508400321E+04 0.  0.
        4    1    3    3  502    0 -0.63961059676E+03  0.65566776849E+03 -0.28763464702E+03  0.96007147713E+03  0.12699999809E+01 0. -1.
       -4    1    3    3    0  502  0.63961059676E+03 -0.65566776849E+03  0.38382350752E+03  0.99313847774E+03  0.12699999809E+01 0.  1.
</event>
<event>
 5   0  0.2541124E-04  0.1760307E+04  0.7818609E-02  0.8727697E-01
        2   -1    0    0  501    0  0.00000000000E+00  0.00000000000E+00  0.78655511934E+03  0.78655511935E+03  0.25500000920E-02 0. -1.
       -2   -1    0    0    0  501  0.00000000000E+00  0.00000000000E+00 -0.98489036594E+03  0.98489036594E+03  0.25500000920E-02 0.  1.
    10030    2    1    2    0    0  0.00000000000E+00  0.00000000000E+00 -0.19833524659E+03  0.17714454853E+04  0.17603074269E+04 0.  0.
        5    1    3    3  502    0 -0.64001147012E+03 -0.50146574612E+03 -0.43829529675E+03  0.92369228294E+03  0.46999998093E+01 0.  1.
       -5    1    3    3    0  502  0.64001147012E+03  0.50146574612E+03  0.23996005015E+03  0.84775320235E+03  0.46999998093E+01 0. -1.
</event>
<event>
 5   0  0.1277709E-04  0.1887123E+04  0.7818609E-02  0.8661293E-01
       -1   -1    0    0    0  501  0.00000000000E+00  0.00000000000E+00  0.13016458899E+04  0.13016458899E+04  0.50400001928E-02 0.  1.
        1   -1    0    0  501    0  0.00000000000E+00  0.00000000000E+00 -0.68398641230E+03  0.68398641232E+03  0.50400001928E-02 0. -1.
    10030    2    1    2    0    0  0.00000000000E+00  0.00000000000E+00  0.61765947762E+03  0.19856323023E+04  0.18871227860E+04 0.  0.
        4    1    3    3  502    0  0.34980260343E+03 -0.77887607392E+03 -0.11375265391E+03  0.86136582186E+03  0.12699999809E+01 0. -1.
       -4    1    3    3    0  502 -0.34980260343E+03  0.77887607392E+03  0.73141213153E+03  0.11242664804E+04  0.12699999809E+01 0.  1.
</event>
<event>
 5   0  0.1255141E-04  0.1892252E+04  0.7818609E-02  0.8658723E-01
       -1   -1    0    0    0  501  0.00000000000E+00  0.00000000000E+00  0.14883682289E+04  0.14883682289E+04  0.50400001928E-02 0.  1.
        1   -1    0    0  501    0  0.00000000000E+00  0.00000000000E+00 -0.60143312524E+03  0.60143312527E+03  0.50400001928E-02 0. -1.
    10030    2    1    2    0    0  0.00000000000E+00  0.00000000000E+00  0.88693510362E+03  0.20898013541E+04  0.18922515218E+04 0.  0.
        2    1    3    3  502    0 -0.45724804794E+03  0.79427607552E+03  0.70295132997E+03  0.11550284991E+04  0.25500000920E-02 0. -1.
       -2    1    3    3    0  502  0.45724804794E+03 -0.79427607552E+03  0.18398377365E+03  0.93477285501E+03  0.25500000920E-02 0.  1.
</event>
<event>
 5   0  0.1324058E-04  0.1936968E+04  0.7818609E-02  0.8636671E-01
        1   -1    0    0  501    0  0.00000000000E+00  0.00000000000E+00  0.23846746712E+04  0.23846746712E+04  0.50400001928E-02 0.  1.
       -1   -1    0    0    0  501  0.00000000000E+00  0.00000000000E+00 -0.39332876086E+03  0.39332876090E+03  0.50400001928E-02 0. -1.
    10030    2    1    2    0    0  0.00000000000E+00  0.00000000000E+00  0.19913459103E+04  0.27780034321E+04  0.19369678712E+04 0.  0.
        5    1    3    3  502    0  0.21085211804E+03  0.15307249727E+03 -0.34209958297E+03  0.43005118273E+03  0.46999998093E+01 0. -1.
       -5    1    3    3    0  502 -0.21085211804E+03 -0.15307249727E+03  0.23334454933E+04  0.23479522494E+04  0.46999998093E+01 0.  1.
</event>
<event>
 5   0  0.2608744E-04  0.1944939E+04  0.7818609E-02  0.8632805E-01
       -2   -1    0    0    0  501  0.00000000000E+00  0.00000000000E+00  0.62978178323E+03  0.62978178324E+03  0.25500000920E-02 0.  1.
        2   -1    0    0  501    0  0.00000000000E+00  0.00000000000E+00 -0.15016262695E+04  0.15016262695E+04  0.25500000920E-02 0. -1.
    10030    2    1    2    0    0  0.00000000000E+00  0.00000000000E+00 -0.87184448622E+03  0.21314080527E+04  0.19449389396E+04 0.  0.
        2    1    3    3  502    0  0.77838399269E+02 -0.41297304361E+03 -0.13969802148E+04  0.14588211925E+04  0.25500000920E-02 0. -1.
       -2    1    3    3    0  502 -0.77838399269E+02  0.41297304361E+03  0.52513572854E+03  0.67258686023E+03  0.25500000920E-02 0.  1.
</event>
<event>
 5   0  0.2562925E-04  0.1861917E+04  0.7818609E-02  0.8674048E-01
       -2   -1    0    0    0  501  0.00000000000E+00  0.00000000000E+00  0.11920764038E+04  0.11920764038E+04  0.25500000920E-02 0.  1.
        2   -1    0    0  501    0  0.00000000000E+00  0.00000000000E+00 -0.72703721803E+03  0.72703721803E+03  0.25500000920E-02 0. -1.
    10030    2    1    2    0    0  0.00000000000E+00  0.00000000000E+00  0.46503918576E+03  0.19191136218E+04  0.18619171972E+04 0.  0.
        4    1    3    3  502    0 -0.64075665648E+03 -0.61805187536E+03 -0.48103191721E+02  0.89155636020E+03  0.12699999809E+01 0. -1.
       -4    1    3    3    0  502  0.64075665648E+03  0.61805187536E+03  0.51314237748E+03  0.10275572616E+04  0.12699999809E+01 0.  1.
</event>
<event>
 5   0  0.2651828E-04  0.1789376E+04  0.7818609E-02  0.8711970E-01
       -2   -1    0    0    0  501  0.00000000000E+00  0.00000000000E+00  0.60712574510E+03  0.60712574511E+03  0.25500000920E-02 0. -1.
        2   -1    0    0  501    0  0.00000000000E+00  0.00000000000E+00 -0.13184528628E+04  0.13184528628E+04  0.25500000920E-02 0.  1.
    10030    2    1    2    0    0  0.00000000000E+00  0.00000000000E+00 -0.71132711773E+03  0.19255786079E+04  0.17893760664E+04 0.  0.
        3    1    3    3  502    0 -0.97638017316E+02  0.87689626981E+03 -0.19609884792E+03  0.90384457668E+03  0.10100000352E+00 0. -1.
       -3    1    3    3    0  502  0.97638017316E+02 -0.87689626981E+03 -0.51522826981E+03  0.10217340313E+04  0.10100000352E+00 0.  1.
</event>
<event>
 5   0  0.1317527E-04  0.1892124E+04  0.7818609E-02  0.8658787E-01
       -1   -1    0    0    0  501  0.00000000000E+00  0.00000000000E+00  0.37827741637E+03  0.37827741640E+03  0.50400001928E-02 0.  1.
        1   -1    0    0  501    0  0.00000000000E+00  0.00000000000E+00 -0.23660772046E+04  0.23660772046E+04  0.50400001928E-02 0. -1.
    10030    2    1    2    0    0  0.00000000000E+00  0.00000000000E+00 -0.19877997882E+04  0.27443546210E+04  0.18921242792E+04 0.  0.
        1    1    3    3  502    0 -0.16296619175E+03 -0.89654787193E+03 -0.13627646846E+04  0.16393546449E+04  0.50400001928E-02 0. -1.
       -1    1    3    3    0  502  0.16296619175E+03  0.89654787193E+03 -0.62503510369E+03  0.11049999761E+04  0.50400001928E-02 0.  1.
</event>
<event>
 5   0  0.1239615E-04  0.1950343E+04  0.7818609E-02  0.8630195E-01
        1   -1    0    0  501    0  0.00000000000E+00  0.00000000000E+00  0.78181817321E+03  0.78181817323E+03  0.50400001928E-02 0. -1.
       -1   -1    0    0    0  501  0.00000000000E+00  0.00000000000E+00 -0.12163436116E+04  0.12163436117E+04  0.50400001928E-02 0.  1.
    10030    2    1    2    0    0  0.00000000000E+00  0.00000000000E+00 -0.43452543843E+03  0.19981617849E+04  0.19503430883E+04 0.  0.
        3    1    3    3  502    0 -0.29111775438E+03  0.93032071415E+03 -0.18989922006E+03  0.99313035502E+03  0.10100000352E+00 0.  1.
       -3    1    3    3    0  502  0.29111775438E+03 -0.93032071415E+03 -0.24462621837E+03  0.10050314299E+04  0.10100000352E+00 0. -1.
</event>
<event>
 5   0  0.1324058E-04  0.1876743E+04  0.7818609E-02  0.8666520E-01
       -1   -1    0    0    0  501  0.00000000000E+00  0.00000000000E+00  0.67263465281E+03  0.67263465283E+03  0.50400001928E-02 0.  1.
        1   -1    0    0  501    0  0.00000000000E+00  0.00000000000E+00 -0.13090929664E+04  0.13090929664E+04  0.50400001928E-02 0. -1.
    10030    2    1    2    0    0  0.00000000000E+00  0.00000000000E+00 -0.63645831359E+03  0.19817276192E+04  0.18767432355E+04 0.  0.
        5    1    3    3  502    0  0.33589292551E+03  0.55387791617E+03 -0.10351137404E+04  0.12211008758E+04  0.46999998093E+01 0. -1.
       -5    1    3    3    0  502 -0.33589292551E+03 -0.55387791617E+03  0.39865542681E+03  0.76062674339E+03  0.46999998093E+01 0.  1.
</event>
<event>
 5   0  0.1324058E-04  0.1909477E+04  0.7818609E-02  0.8650153E-01
       -1   -1    0    0    0  501  0.00000000000E+00  0.00000000000E+00  0.56786107689E+03  0.56786107691E+03  0.50400001928E-02 0. -1.
        1   -1    0    0  501    0  0.00000000000E+00  0.00000000000E+00 -0.16051919337E+04  0.16051919338E+04  0.50400001928E-02 0.  1.
    10030    2    1    2    0    0  0.00000000000E+00  0.00000000000E+00 -0.10373308569E+04  0.21730530107E+04  0.19094774365E+04 0.  0.
        5    1    3    3  502    0  0.17761776818E+03 -0.90587015363E+03 -0.24140691147E+03  0.95417408983E+03  0.46999998093E+01 0. -1.
       -5    1    3    3    0  502 -0.17761776818E+03  0.90587015363E+03 -0.79592394539E+03  0.12188789208E+04  0.46999998093E+01 0.  1.
</event>
<event>
 5   0  0.2608744E-04  0.1911379E+04  0.7818609E-02  0.8649213E-01
        2   -1    0    0  501    0  0.00000000000E+00  0.00000000000E+00  0.16364975739E+04  0.16364975739E+04  0.25500000920E-02 0.  1.
       -2   -1    0    0    0  501  0.00000000000E+00  0.00000000000E+00 -0.55810804681E+03  0.55810804682E+03  0.25500000920E-02 0. -1.
    10030    2    1    2    0    0  0.00000000000E+00  0.00000000000E+00  0.10783895271E+04  0.21946056208E+04  0.19113790463E+04 0.  0.
        2    1    3    3  502    0 -0.49117068810E+02  0.69319741585E+02 -0.55376371473E+03  0.56024277307E+03  0.25500000920E-02 0. -1.
       -2    1    3    3    0  502  0.49117068810E+02 -0.69319741585E+02  0.16321532418E+04  0.16343628477E+04  0.25500000920E-02 0.  1.
</event>
<event>
 5   0  0.2608744E-04  0.1881569E+04  0.7818609E-02  0.8664085E-01
       -2   -1    0    0    0  501  0.00000000000E+00  0.00000000000E+00  0.11810327223E+04  0.11810327223E+04  0.25500000920E-02 0. -1.
        2   -1    0    0  501    0  0.00000000000E+00  0.00000000000E+00 -0.74940842443E+03  0.74940842444E+03  0.25500000920E-02 0.  1.
    10030    2    1    2    0    0  0.00000000000E+00  0.00000000000E+00  0.43162429790E+03  0.19304411468E+04  0.18815694212E+04 0.  0.
        2    1    3    3  502    0  0.88460453441E+03  0.31880805326E+03  0.18482647096E+03  0.95829253441E+03  0.25500000920E-02 0.  1.
       -2    1    3    3    0  502 -0.88460453441E+03 -0.31880805326E+03  0.24679782694E+03  0.97214861236E+03  0.25500000920E-02 0. -1.
</event>
<event>
 5   0  0.1239615E-04  0.1900032E+04  0.7818609E-02  0.8654841E-01
       -1   -1    0    0    0  501  0.00000000000E+00  0.00000000000E+00  0.12435427092E+04  0.12435427092E+04  0.50400001928E-02 0.  1.
        1   -1    0    0  501    0  0.00000000000E+00  0.00000000000E+00 -0.72577343984E+03  0.72577343986E+03  0.50400001928E-02 0. -1.
    10030    2    1    2    0    0  0.00000000000E+00  0.00000000000E+00  0.51776926932E+03  0.19693161490E+04  0.19000318625E+04 0.  0.
        3    1    3    3  502    0 -0.10759129986E+03 -0.79209894694E+03 -0.27319003048E+03  0.84476590396E+03  0.10100000352E+00 0. -1.
       -3    1    3    3    0  502  0.10759129986E+03  0.79209894694E+03  0.79095929980E+03  0.11245502451E+04  0.10100000352E+00 0.  1.
</event>
<event>
 5   0  0.1317527E-04  0.1924352E+04  0.7818609E-02  0.8642829E-01
       -1   -1    0    0    0  501  0.00000000000E+00  0.00000000000E+00  0.12775227547E+04  0.12775227547E+04  0.50400001928E-02 0.  1.
        1   -1    0    0  501    0  0.00000000000E+00  0.00000000000E+00 -0.72466984546E+03  0.72466984547E+03  0.50400001928E-02 0. -1.
    10030    2    1    2    0    0  0.00000000000E+00  0.00000000000E+00  0.55285290925E+03  0.20021926002E+04  0.19243515451E+04 0.  0.
        1    1    3    3  502    0 -0.79308442094E+03  0.31274525065E+03 -0.18770047390E+03  0.87293983669E+03  0.50400001928E-02 0. -1.
       -1    1    3    3    0  502  0.79308442094E+03 -0.31274525065E+03  0.74055338316E+03  0.11292527635E+04  0.50400001928E-02 0.  1.
</event>
<event>
 5   0  0.2595012E-04  0.1921532E+04  0.7818609E-02  0.8644212E-01
       -2   -1    0    0    0  501  0.00000000000E+00  0.00000000000E+00  0.11558696437E+04  0.11558696437E+04  0.25500000920E-02 0.  1.
        2   -1    0    0  501    0  0.00000000000E+00  0.00000000000E+00 -0.79859474887E+03  0.79859474888E+03  0.25500000920E-02 0. -1.
    10030    2    1    2    0    0  0.00000000000E+00  0.00000000000E+00  0.35727489479E+03  0.19544643925E+04  0.19215321260E+04 0.  0.
        1    1    3    3  502    0 -0.20261213880E+03  0.32143240548E+03  0.10762015340E+04  0.11413063620E+04  0.50400001928E-02 0.  1.
       -1    1    3    3    0  502  0.20261213880E+03 -0.32143240548E+03 -0.71892663921E+03  0.81315803056E+03  0.50400001928E-02 0. -1.
</event>
<event>
 5   0  0.2541124E-04  0.1583169E+04  0.7818609E-02  0.8830955E-01
        2   -1    0    0  501    0  0.00000000000E+00  0.00000000000E+00  0.68252529728E+03  0.68252529728E+03  0.25500000920E-02 0. -1.
       -2   -1    0    0    0  501  0.00000000000E+00  0.00000000000E+00 -0.91807059667E+03  0.91807059668E+03  0.25500000920E-02 0.  1.
    10030    2    1    2    0    0  0.00000000000E+00  0.00000000000E+00 -0.23554529939E+03  0.16005958940E+04  0.15831694880E+04 0.  0.
        5    1    3    3  502    0 -0.36306515939E+03  0.41488383382E+03 -0.69203850606E+03  0.88480748720E+03  0.46999998093E+01 0.  1.
       -5    1    3    3    0  502  0.36306515939E+03 -0.41488383382E+03  0.45649320667E+03  0.71578840676E+03  0.46999998093E+01 0. -1.
</event>
<event>
 5   0  0.1255141E-04  0.1921812E+04  0.7818609E-02  0.8644075E-01
        1   -1    0    0  501    0  0.00000000000E+00  0.00000000000E+00  0.14426359575E+04  0.14426359576E+04  0.50400001928E-02 0.  1.
       -1   -1    0    0    0  501  0.00000000000E+00  0.00000000000E+00 -0.64003686675E+03  0.64003686677E+03  0.50400001928E-02 0. -1.
    10030    2    1    2    0    0  0.00000000000E+00  0.00000000000E+00  0.80259909079E+03  0.20826728243E+04  0.19218118515E+04 0.  0.
        2    1    3    3  502    0 -0.91303180265E+03 -0.29592176588E+03  0.35112710338E+03  0.10220014711E+04  0.25500000920E-02 0.  1.
       -2    1    3    3    0  502  0.91303180265E+03  0.29592176588E+03  0.45147198742E+03  0.10606713532E+04  0.25500000920E-02 0. -1.
</event>
<event>
 5   0  0.1255141E-04  0.1861833E+04  0.7818609E-02  0.8674091E-01
        1   -1    0    0  501    0  0.00000000000E+00  0.00000000000E+00  0.68539728105E+03  0.68539728107E+03  0.50400001928E-02 0. -1.
       -1   -1    0    0    0  501  0.00000000000E+00  0.00000000000E+00 -0.12643846873E+04  0.12643846873E+04  0.50400001928E-02 0.  1.
    10030    2    1    2    0    0  0.00000000000E+00  0.00000000000E+00 -0.57898740624E+03  0.19497819684E+04  0.18618333190E+04 0.  0.
        2    1    3    3  502    0 -0.43155427312E+03 -0.83435270420E+02  0.56988287711E+03  0.71969926263E+03  0.25500000920E-02 0. -1.
       -2    1    3    3    0  502  0.43155427312E+03  0.83435270420E+02 -0.11488702833E+04  0.12300827057E+04  0.25500000920E-02 0.  1.
</event>
<event>
 5   0  0.1239615E-04  0.1880489E+04  0.7818609E-02  0.8664630E-01
       -1   -1    0    0    0  501  0.00000000000E+00  0.00000000000E+00  0.82344051829E+03  0.82344051831E+03  0.50400001928E-02 0.  1.
        1   -1    0    0  501    0  0.00000000000E+00  0.00000000000E+00 -0.10736171326E+04  0.10736171327E+04  0.50400001928E-02 0. -1.
    10030    2    1    2    0    0  0.00000000000E+00  0.00000000000E+00 -0.25017661435E+03  0.18970576510E+04  0.18804891366E+04 0.  0.
        3    1    3    3  502    0 -0.69659071681E+03  0.53830214014E+03  0.20805151676E+03  0.90459563599E+03  0.10100000352E+00 0.  1.
       -3    1    3    3    0  502  0.69659071681E+03 -0.53830214014E+03 -0.45822813111E+03  0.99246201498E+03  0.10100000352E+00 0. -1.
</event>
<event>
 5   0  0.2651828E-04  0.1888264E+04  0.7818609E-02  0.8660720E-01
       -2   -1    0    0    0  501  0.00000000000E+00  0.00000000000E+00  0.11460961232E+04  0.11460961232E+04  0.25500000920E-02 0. -1.
        2   -1    0    0  501    0  0.00000000000E+00  0.00000000000E+00 -0.77775780597E+03  0.77775780597E+03  0.25500000920E-02 0.  1.
    10030    2    1    2    0    0  0.00000000000E+00  0.00000000000E+00  0.36833831728E+03  0.19238539292E+04  0.18882639712E+04 0.  0.
        3    1    3    3  502    0  0.53055574069E+03  0.77950422867E+03  0.23270055249E+03  0.97121871575E+03  0.10100000352E+00 0. -1.
       -3    1    3    3    0  502 -0.53055574069E+03 -0.77950422867E+03  0.13563776478E+03  0.95263521347E+03  0.10100000352E+00 0.  1.
</event>
<event>
 5   0  0.1324058E-04  0.1819457E+04  0.7818609E-02  0.8696020E-01
       -1   -1    0    0    0  501  0.00000000000E+00  0.00000000000E+00  0.75837002135E+03  0.75837002137E+03  0.50400001928E-02 0. -1.
        1   -1    0    0  501    0  0.00000000000E+00  0.00000000000E+00 -0.10912957694E+04  0.10912957694E+04  0.50400001928E-02 0.  1.
    10030    2    1    2    0    0  0.00000000000E+00  0.00000000000E+00 -0.33292574806E+03  0.18496657908E+04  0.18194570574E+04 0.  0.
        5    1    3    3  502    0 -0.33123900559E+03  0.38543329245E+03  0.60058816109E+03  0.78676955393E+03  0.46999998093E+01 0. -1.
       -5    1    3    3    0  502  0.33123900559E+03 -0.38543329245E+03 -0.93351390915E+03  0.10628962369E+04  0.46999998093E+01 0.  1.
</event>
<event>
 5   0  0.1255141E-04  0.1871495E+04  0.7818609E-02  0.8669176E-01
        1   -1    0    0  501    0  0.00000000000E+00  0.00000000000E+00  0.13880040929E+04  0.13880040929E+04  0.50400001928E-02 0. -1.
       -1   -1    0    0    0  501  0.00000000000E+00  0.00000000000E+00 -0.63085099927E+03  0.63085099929E+03  0.50400001928E-02 0.  1.
    10030    2    1    2    0    0  0.00000000000E+00  0.00000000000E+00  0.75715309359E+03  0.20188550922E+04  0.18714954117E+04 0.  0.
        2    1    3    3  502    0 -0.15662168354E+03  0.47842410797E+03 -0.47233164963E+03  0.69030222808E+03  0.25500000920E-02 0.  1.
       -2    1    3    3    0  502  0.15662168354E+03 -0.47842410797E+03  0.12294847432E+04  0.13285528641E+04  0.25500000920E-02 0. -1.
</event>
<event>
 5   0  0.2651828E-04  0.1892737E+04  0.7818609E-02  0.8658480E-01
        2   -1    0    0  501    0  0.00000000000E+00  0.00000000000E+00  0.95801199946E+03  0.95801199946E+03  0.25500000920E-02 0.  1.
       -2   -1    0    0    0  501  0.00000000000E+00  0.00000000000E+00 -0.93486658625E+03  0.93486658626E+03  0.25500000920E-02 0. -1.
    10030    2    1    2    0    0  0.00000000000E+00  0.00000000000E+00  0.23145413208E+02  0.18928785857E+04  0.18927370737E+04 0.  0.
        3    1    3    3  502    0  0.75588285225E+03 -0.50430122718E+03 -0.25289891972E+03  0.94320543247E+03  0.10100000352E+00 0. -1.
       -3    1    3    3    0  502 -0.75588285225E+03  0.50430122718E+03  0.27604433293E+03  0.94967315325E+03  0.10100000352E+00 0.  1.
</event>
<event>
 5   0  0.2541124E-04  0.1901993E+04  0.7818609E-02  0.8653865E-01
        2   -1    0    0  501    0  0.00000000000E+00  0.00000000000E+00  0.15336973208E+04  0.15336973208E+04  0.25500000920E-02 0.  1.
       -2   -1    0    0    0  501  0.00000000000E+00  0.00000000000E+00 -0.58968215208E+03  0.58968215209E+03  0.25500000920E-02 0. -1.
    10030    2    1    2    0    0  0.00000000000E+00  0.00000000000E+00  0.94401516867E+03  0.21233794728E+04  0.19019925728E+04 0.  0.
        5    1    3    3  502    0 -0.67738987054E+03  0.44069033077E+03  0.10316633144E+04  0.13105023039E+04  0.46999998093E+01 0.  1.
       -5    1    3    3    0  502  0.67738987054E+03 -0.44069033077E+03 -0.87648145696E+02  0.81287716894E+03  0.46999998093E+01 0. -1.
</event>
<event>
 5   0  0.2541124E-04  0.1901647E+04  0.7818609E-02  0.8654037E-01
        2   -1    0    0  501    0  0.00000000000E+00  0.00000000000E+00  0.16351820880E+04  0.16351820880E+04  0.25500000920E-02 0.  1.
       -2   -1    0    0    0  501  0.00000000000E+00  0.00000000000E+00 -0.55288380120E+03  0.55288380121E+03  0.25500000920E-02 0. -1.
    10030    2    1    2    0    0  0.00000000000E+00  0.00000000000E+00  0.10822982868E+04  0.21880658892E+04  0.19016473790E+04 0.  0.
        5    1    3    3  502    0 -0.29404155285E+03 -0.78019657779E+02 -0.49536116156E+03  0.58133662553E+03  0.46999998093E+01 0. -1.
       -5    1    3    3    0  502  0.29404155285E+03  0.78019657779E+02  0.15776594484E+04  0.16067292637E+04  0.46999998093E+01 0.  1.
</event>
<event>
 5   0  0.2541124E-04  0.1881998E+04  0.7818609E-02  0.8663869E-01
       -2   -1    0    0    0  501  0.00000000000E+00  0.00000000000E+00  0.49549256398E+03  0.49549256399E+03  0.25500000920E-02 0.  1.
        2   -1    0    0  501    0  0.00000000000E+00  0.00000000000E+00 -0.17870682151E+04  0.17870682151E+04  0.25500000920E-02 0. -1.
    10030    2    1    2    0    0  0.00000000000E+00  0.00000000000E+00 -0.12915756511E+04  0.22825607791E+04  0.18819978873E+04 0.  0.
        5    1    3    3  502    0  0.32974722076E+03  0.73133508531E+03 -0.12422688498E+04  0.14787962070E+04  0.46999998093E+01 0. -1.
       -5    1    3    3    0  502 -0.32974722076E+03 -0.73133508531E+03 -0.49306801231E+02  0.80376457203E+03  0.46999998093E+01 0.  1.
</event>
<event>
 5   0  0.2608744E-04  0.1958092E+04  0.7818609E-02  0.8626468E-01
       -2   -1    0    0    0  501  0.00000000000E+00  0.00000000000E+00  0.10317590182E+04  0.10317590182E+04  0.25500000920E-02 0.  1.
        2   -1    0    0  501    0  0.00000000000E+00  0.00000000000E+00 -0.92902652546E+03  0.92902652547E+03  0.25500000920E-02 0. -1.
    10030    2    1    2    0    0  0.00000000000E+00  0.00000000000E+00  0.10273249271E+03  0.19607855436E+04  0.19580924348E+04 0.  0.
        2    1    3    3  502    0  0.91673870378E+03 -0.33918635831E+03 -0.41560142677E+01  0.97748376413E+03  0.25500000920E-02 0. -1.
       -2    1    3    3    0  502 -0.91673870378E+03  0.33918635831E+03  0.10688850698E+03  0.98330177952E+03  0.25500000920E-02 0.  1.
</event>
<event>
 5   0  0.2562925E-04  0.2000338E+04  0.7818609E-02  0.8606463E-01
       -2   -1    0    0    0  501  0.00000000000E+00  0.00000000000E+00  0.11686024685E+04  0.11686024685E+04  0.25500000920E-02 0. -1.
        2   -1    0    0  501    0  0.00000000000E+00  0.00000000000E+00 -0.85601212811E+03  0.85601212812E+03  0.25500000920E-02 0.  1.
    10030    2    1    2    0    0  0.00000000000E+00  0.00000000000E+00  0.31259034035E+03  0.20246145966E+04  0.20003378574E+04 0.  0.
        4    1    3    3  502    0 -0.45015394535E+03 -0.87911833692E+03 -0.32524730662E+01  0.98767394230E+03  0.12699999809E+01 0.  1.
       -4    1    3    3    0  502  0.45015394535E+03  0.87911833692E+03  0.31584281342E+03  0.10369406543E+04  0.12699999809E+01 0. -1.
</event>
<event>
 5   0  0.2541124E-04  0.1949632E+04  0.7818609E-02  0.8630538E-01
       -2   -1    0    0    0  501  0.00000000000E+00  0.00000000000E+00  0.15279912456E+04  0.15279912456E+04  0.25500000920E-02 0. -1.
        2   -1    0    0  501    0  0.00000000000E+00  0.00000000000E+00 -0.62190564576E+03  0.62190564577E+03  0.25500000920E-02 0.  1.
    10030    2    1    2    0    0  0.00000000000E+00  0.00000000000E+00  0.90608559981E+03  0.21498968913E+04  0.19496321523E+04 0.  0.
        5    1    3    3  502    0  0.91569439033E+03 -0.30921009854E+03  0.31296190099E+03  0.10159105979E+04  0.46999998093E+01 0.  1.
       -5    1    3    3    0  502 -0.91569439033E+03  0.30921009854E+03  0.59312369882E+03  0.11339862934E+04  0.46999998093E+01 0. -1.
</event>
<event>
 5   0  0.2541124E-04  0.1903876E+04  0.7818609E-02  0.8652929E-01
       -2   -1    0    0    0  501  0.00000000000E+00  0.00000000000E+00  0.80215449986E+03  0.80215449987E+03  0.25500000920E-02 0.  1.
        2   -1    0    0  501    0  0.00000000000E+00  0.00000000000E+00 -0.11296899425E+04  0.11296899425E+04  0.25500000920E-02 0. -1.
    10030    2    1    2    0    0  0.00000000000E+00  0.00000000000E+00 -0.32753544259E+03  0.19318444423E+04  0.19038759107E+04 0.  0.
        5    1    3    3  502    0  0.65184729649E+03 -0.42988188774E+02 -0.86633426583E+03  0.10850391848E+04  0.46999998093E+01 0. -1.
       -5    1    3    3    0  502 -0.65184729649E+03  0.42988188774E+02  0.53879882324E+03  0.84680525756E+03  0.46999998093E+01 0.  1.
</event>
<event>
 5   0  0.2595012E-04  0.1905270E+04  0.7818609E-02  0.8652238E-01
        2   -1    0    0  501    0  0.00000000000E+00  0.00000000000E+00  0.10791423034E+04  0.10791423034E+04  0.25500000920E-02 0.  1.
       -2   -1    0    0    0  501  0.00000000000E+00  0.00000000000E+00 -0.84095766768E+03  0.84095766769E+03  0.25500000920E-02 0. -1.
    10030    2    1    2    0    0  0.00000000000E+00  0.00000000000E+00  0.23818463575E+03  0.19200999711E+04  0.19052695291E+04 0.  0.
        1    1    3    3  502    0 -0.30328736786E+03  0.26402618807E+03  0.98942324044E+03  0.10680128296E+04  0.50400001928E-02 0.  1.
       -1    1    3    3    0  502  0.30328736786E+03 -0.26402618807E+03 -0.75123860469E+03  0.85208714149E+03  0.50400001928E-02 0. -1.
</event>
<event>
 5   0  0.2595012E-04  0.1880318E+04  0.7818609E-02  0.8664716E-01
        2   -1    0    0  501    0  0.00000000000E+00  0.00000000000E+00  0.12253888966E+04  0.12253888966E+04  0.25500000920E-02 0.  1.
       -2   -1    0    0    0  501  0.00000000000E+00  0.00000000000E+00 -0.72132091443E+03  0.72132091443E+03  0.25500000920E-02 0. -1.
    10030    2    1    2    0    0  0.00000000000E+00  0.00000000000E+00  0.50406798220E+03  0.19467098111E+04  0.18803176747E+04 0.  0.
        1    1    3    3  502    0  0.93444689064E+03  0.89216439510E+02  0.30630704674E+03  0.98740800656E+03  0.50400001928E-02 0. -1.
       -1    1    3    3    0  502 -0.93444689064E+03 -0.89216439510E+02  0.19776093546E+03  0.95930180451E+03  0.50400001928E-02 0.  1.
</event>
<event>
 5   0  0.1255141E-04  0.1856573E+04  0.7818609E-02  0.8676780E-01
       -1   -1    0    0    0  501  0.00000000000E+00  0.00000000000E+00  0.54512278113E+03  0.54512278115E+03  0.50400001928E-02 0. -1.
        1   -1    0    0  501    0  0.00000000000E+00  0.00000000000E+00 -0.15807741369E+04  0.15807741369E+04  0.50400001928E-02 0.  1.
    10030    2    1    2    0    0  0.00000000000E+00  0.00000000000E+00 -0.10356513557E+04  0.21258969180E+04  0.18565731807E+04 0.  0.
        2    1    3    3  502    0 -0.77910587427E+03  0.68772920103E+02  0.54684268432E+02  0.78404467161E+03  0.25500000920E-02 0. -1.
       -2    1    3    3    0  502  0.77910587427E+03 -0.68772920103E+02 -0.10903356242E+04  0.13418522464E+04  0.25500000920E-02 0.  1.
</event>
<event>
 5   0  0.2651828E-04  0.2006723E+04  0.7818609E-02  0.8603484E-01
        2   -1    0    0  501    0  0.00000000000E+00  0.00000000000E+00  0.11885119666E+04  0.11885119666E+04  0.25500000920E-02 0.  1.
       -2   -1    0    0    0  501  0.00000000000E+00  0.00000000000E+00 -0.84705417272E+03  0.84705417272E+03  0.25500000920E-02 0. -1.
    10030    2    1    2    0    0  0.00000000000E+00  0.00000000000E+00  0.34145779390E+03  0.20355661393E+04  0.20067227219E+04 0.  0.
        3    1    3    3  502    0  0.38119909853E+03  0.66868782465E+03  0.82362444480E+03  0.11273035952E+04  0.10100000352E+00 0.  1.
       -3    1    3    3    0  502 -0.38119909853E+03 -0.66868782465E+03 -0.48216665091E+03  0.90826254410E+03  0.10100000352E+00 0. -1.
</event>
<event>
 5   0  0.1277709E-04  0.1825542E+04  0.7818609E-02  0.8692833E-01
       -1   -1    0    0    0  501  0.00000000000E+00  0.00000000000E+00  0.71587559013E+03  0.71587559015E+03  0.50400001928E-02 0.  1.
        1   -1    0    0  501    0  0.00000000000E+00  0.00000000000E+00 -0.11638208645E+04  0.11638208645E+04  0.50400001928E-02 0. -1.
    10030    2    1    2    0    0  0.00000000000E+00  0.00000000000E+00 -0.44794527440E+03  0.18796964547E+04  0.18255420546E+04 0.  0.
        4    1    3    3  502    0  0.10173939590E+03  0.86705291627E+03 -0.49836946930E+03  0.10052389791E+04  0.12699999809E+01 0. -1.
       -4    1    3    3    0  502 -0.10173939590E+03 -0.86705291627E+03  0.50424194900E+02  0.87445747559E+03  0.12699999809E+01 0.  1.
</event>
<event>
 5   0  0.1317527E-04  0.1905101E+04  0.7818609E-02  0.8652321E-01
        1   -1    0    0  501    0  0.00000000000E+00  0.00000000000E+00  0.84032444572E+03  0.84032444573E+03  0.50400001928E-02 0.  1.
       -1   -1    0    0    0  501  0.00000000000E+00  0.00000000000E+00 -0.10797646502E+04  0.10797646502E+04  0.50400001928E-02 0. -1.
    10030    2    1    2    0    0  0.00000000000E+00  0.00000000000E+00 -0.23944020451E+03  0.19200890960E+04  0.19051011850E+04 0.  0.
        1    1    3    3  502    0 -0.23949351937E+03  0.57484904849E+03 -0.84618481667E+03  0.10506366253E+04  0.50400001928E-02 0. -1.
       -1    1    3    3    0  502  0.23949351937E+03 -0.57484904849E+03  0.60674461217E+03  0.86945247069E+03  0.50400001928E-02 0.  1.
</event>
<event>
 5   0  0.1324058E-04  0.1949163E+04  0.7818609E-02  0.8630764E-01
       -1   -1    0    0    0  501  0.00000000000E+00  0.00000000000E+00  0.85674035213E+03  0.85674035215E+03  0.50400001928E-02 0. -1.
        1   -1    0    0  501    0  0.00000000000E+00  0.00000000000E+00 -0.11086315542E+04  0.11086315542E+04  0.50400001928E-02 0.  1.
    10030    2    1    2    0    0  0.00000000000E+00  0.00000000000E+00 -0.25189120204E+03  0.19653719063E+04  0.19491632955E+04 0.  0.
        5    1    3    3  502    0 -0.44133279306E+03 -0.65966727977E+03  0.44431173464E+03  0.90959912146E+03  0.46999998093E+01 0. -1.
       -5    1    3    3    0  502  0.44133279306E+03  0.65966727977E+03 -0.69620293668E+03  0.10557727849E+04  0.46999998093E+01 0.  1.
</event>
<event>
 5   0  0.2562925E-04  0.1685511E+04  0.7818609E-02  0.8769672E-01
       -2   -1    0    0    0  501  0.00000000000E+00  0.00000000000E+00  0.44264587777E+03  0.44264587778E+03  0.25500000920E-02 0. -1.
        2   -1    0    0  501    0  0.00000000000E+00  0.00000000000E+00 -0.16045254005E+04  0.16045254005E+04  0.25500000920E-02 0.  1.
    10030    2    1    2    0    0  0.00000000000E+00  0.00000000000E+00 -0.11618795227E+04  0.20471712783E+04  0.16855106696E+04 0.  0.
        4    1    3    3  502    0  0.53347010734E+03 -0.50294733392E+03 -0.76215170732E+02  0.73712735756E+03  0.12699999809E+01 0. -1.
       -4    1    3    3    0  502 -0.53347010734E+03  0.50294733392E+03 -0.10856643520E+04  0.13100439207E+04  0.12699999809E+01 0.  1.
</event>
<event>
 5   0  0.1255141E-04  0.1822161E+04  0.7818609E-02  0.8694602E-01
       -1   -1    0    0    0  501  0.00000000000E+00  0.00000000000E+00  0.12334099333E+04  0.12334099333E+04  0.50400001928E-02 0. -1.
        1   -1    0    0  501    0  0.00000000000E+00  0.00000000000E+00 -0.67298637703E+03  0.67298637705E+03  0.50400001928E-02 0.  1.
    10030    2    1    2    0    0  0.00000000000E+00  0.00000000000E+00  0.56042355631E+03  0.19063963104E+04  0.18221614445E+04 0.  0.
        2    1    3    3  502    0  0.27593706237E+03  0.28027049197E+03  0.11400146933E+04  0.12059545232E+04  0.25500000920E-02 0. -1.
       -2    1    3    3    0  502 -0.27593706237E+03 -0.28027049197E+03 -0.57959113704E+03  0.70044178716E+03  0.25500000920E-02 0.  1.
</event>
<event>
 5   0  0.2608744E-04  0.1879921E+04  0.7818609E-02  0.8664916E-01
       -2   -1    0    0    0  501  0.00000000000E+00  0.00000000000E+00  0.78837647202E+03  0.78837647203E+03  0.25500000920E-02 0.  1.
        2   -1    0    0  501    0  0.00000000000E+00  0.00000000000E+00 -0.11206906641E+04  0.11206906641E+04  0.25500000920E-02 0. -1.
    10030    2    1    2    0    0  0.00000000000E+00  0.00000000000E+00 -0.33231419208E+03  0.19090671361E+04  0.18799214367E+04 0.  0.
        2    1    3    3  502    0  0.30931348440E+03 -0.84035768767E+03  0.12401813101E+03  0.90402232919E+03  0.25500000920E-02 0.  1.
       -2    1    3    3    0  502 -0.30931348440E+03  0.84035768767E+03 -0.45633232309E+03  0.10050448069E+04  0.25500000920E-02 0. -1.
</event>
<event>
 5   0  0.2595012E-04  0.1871196E+04  0.7818609E-02  0.8669328E-01
       -2   -1    0    0    0  501  0.00000000000E+00  0.00000000000E+00  0.43500640086E+03  0.43500640086E+03  0.25500000920E-02 0.  1.
        2   -1    0    0  501    0  0.00000000000E+00  0.00000000000E+00 -0.20122548805E+04  0.20122548805E+04  0.25500000920E-02 0. -1.
    10030    2    1    2    0    0  0.00000000000E+00  0.00000000000E+00 -0.15772484796E+04  0.24472612813E+04  0.18711961449E+04 0.  0.
        1    1    3    3  502    0  0.68359318280E+03 -0.41431846795E+03 -0.15275127826E+03  0.81381348323E+03  0.50400001928E-02 0.  1.
       -1    1    3    3    0  502 -0.68359318280E+03  0.41431846795E+03 -0.14244972014E+04  0.16334477981E+04  0.50400001928E-02 0. -1.
</event>
<event>
 5   0  0.2541124E-04  0.1885487E+04  0.7818609E-02  0.8662114E-01
        2   -1    0    0  501    0  0.00000000000E+00  0.00000000000E+00  0.20820699791E+04  0.20820699791E+04  0.25500000920E-02 0. -1.
       -2   -1    0    0    0  501  0.00000000000E+00  0.00000000000E+00 -0.42686639264E+03  0.42686639265E+03  0.25500000920E-02 0.  1.
    10030    2    1    2    0    0  0.00000000000E+00  0.00000000000E+00  0.16552035865E+04  0.25089363718E+04  0.18854874184E+04 0.  0.
        5    1    3    3  502    0 -0.69145841477E+03  0.40640935077E+03  0.16834191000E+03  0.81953913171E+03  0.46999998093E+01 0.  1.
       -5    1    3    3    0  502  0.69145841477E+03 -0.40640935077E+03  0.14868616765E+04  0.16893972401E+04  0.46999998093E+01 0. -1.
</event>
<event>
 5   0  0.1255141E-04  0.1784949E+04  0.7818609E-02  0.8714344E-01
       -1   -1    0    0    0  501  0.00000000000E+00  0.00000000000E+00  0.64851234255E+03  0.64851234257E+03  0.50400001928E-02 0.  1.
        1   -1    0    0  501    0  0.00000000000E+00  0.00000000000E+00 -0.12282126165E+04  0.12282126165E+04  0.50400001928E-02 0. -1.
    10030    2    1    2    0    0  0.00000000000E+00  0.00000000000E+00 -0.57970027394E+03  0.18767249591E+04  0.17849493450E+04 0.  0.
        2    1    3    3  502    0 -0.10596245593E+03 -0.86429648593E+03 -0.49554809021E+03  0.10019003780E+04  0.25500000920E-02 0.  1.
       -2    1    3    3    0  502  0.10596245593E+03  0.86429648593E+03 -0.84152183725E+02  0.87482458110E+03  0.25500000920E-02 0. -1.
</event>
<event>
 5   0  0.1277709E-04  0.1921023E+04  0.7818609E-02  0.8644462E-01
       -1   -1    0    0    0  501  0.00000000000E+00  0.00000000000E+00  0.17943817953E+04  0.17943817953E+04  0.50400001928E-02 0. -1.
        1   -1    0    0  501    0  0.00000000000E+00  0.00000000000E+00 -0.51415032424E+03  0.51415032426E+03  0.50400001928E-02 0.  1.
    10030    2    1    2    0    0  0.00000000000E+00  0.00000000000E+00  0.12802314711E+04  0.23085321196E+04  0.19210226255E+04 0.  0.
        4    1    3    3  502    0 -0.82198905617E+03  0.49633488578E+03  0.66870662376E+03  0.11701215701E+04  0.12699999809E+01 0.  1.
       -4    1    3    3    0  502  0.82198905617E+03 -0.49633488578E+03  0.61152484731E+03  0.11384105494E+04  0.12699999809E+01 0. -1.
</event>
<event>
 5   0  0.2562925E-04  0.1955496E+04  0.7818609E-02  0.8627715E-01
        2   -1    0    0  501    0  0.00000000000E+00  0.00000000000E+00  0.16579803212E+04  0.16579803212E+04  0.25500000920E-02 0. -1.
       -2   -1    0    0    0  501  0.00000000000E+00  0.00000000000E+00 -0.57659967803E+03  0.57659967803E+03  0.25500000920E-02 0.  1.
    10030    2    1    2    0    0  0.00000000000E+00  0.00000000000E+00  0.10813806432E+04  0.22345799993E+04  0.19554957626E+04 0.  0.
        4    1    3    3  502    0  0.73925870731E+03  0.85228879660E+02 -0.18403241920E+03  0.76657481206E+03  0.12699999809E+01 0.  1.
       -4    1    3    3    0  502 -0.73925870731E+03 -0.85228879660E+02  0.12654130624E+04  0.14680051872E+04  0.12699999809E+01 0. -1.
</event>
<event>
 5   0  0.2651828E-04  0.1780623E+04  0.7818609E-02  0.8716672E-01
        2   -1    0    0  501    0  0.00000000000E+00  0.00000000000E+00  0.19892144152E+04  0.19892144152E+04  0.25500000920E-02 0. -1.
       -2   -1    0    0    0  501  0.00000000000E+00  0.00000000000E+00 -0.39847620470E+03  0.39847620471E+03  0.25500000920E-02 0.  1.
    10030    2    1    2    0    0  0.00000000000E+00  0.00000000000E+00  0.15907382105E+04  0.23876906199E+04  0.17806230488E+04 0.  0.
        3    1    3    3  502    0 -0.27558674641E+03 -0.49971010304E+03  0.17117221128E+04  0.18043422191E+04  0.10100000352E+00 0. -1.
       -3    1    3    3    0  502  0.27558674641E+03  0.49971010304E+03 -0.12098390235E+03  0.58334840079E+03  0.10100000352E+00 0.  1.
</event>
<event>
 5   0  0.1317527E-04  0.1908219E+04  0.7818609E-02  0.8650776E-01
        1   -1    0    0  501    0  0.00000000000E+00  0.00000000000E+00  0.12793336129E+04  0.12793336129E+04  0.50400001928E-02 0.  1.
       -1   -1    0    0    0  501  0.00000000000E+00  0.00000000000E+00 -0.71156162227E+03  0.71156162229E+03  0.50400001928E-02 0. -1.
    10030    2    1    2    0    0  0.00000000000E+00  0.00000000000E+00  0.56777199063E+03  0.19908952352E+04  0.19082187517E+04 0.  0.
        1    1    3    3  502    0 -0.29108366808E+03  0.97263925832E+02 -0.65865701482E+03  0.72664918378E+03  0.50400001928E-02 0. -1.
       -1    1    3    3    0  502  0.29108366808E+03 -0.97263925832E+02  0.12264290054E+04  0.12642460514E+04  0.50400001928E-02 0.  1.
</event>
<event>
 5   0  0.1239615E-04  0.1891368E+04  0.7818609E-02  0.8659165E-01
       -1   -1    0    0    0  501  0.00000000000E+00  0.00000000000E+00  0.72286842555E+03  0.72286842557E+03  0.50400001928E-02 0.  1.
        1   -1    0    0  501    0  0.00000000000E+00  0.00000000000E+00 -0.12371793171E+04  0.12371793171E+04  0.50400001928E-02 0. -1.
    10030    2    1    2    0    0  0.00000000000E+00  0.00000000000E+00 -0.51431089152E+03  0.19600477426E+04  0.18913676164E+04 0.  0.
        3    1    3    3  502    0 -0.89549683991E+03 -0.13083753691E+02 -0.57188077933E+03  0.10626068939E+04  0.10100000352E+00 0. -1.
       -3    1    3    3    0  502  0.89549683991E+03  0.13083753691E+02  0.57569887810E+02  0.89744084879E+03  0.10100000352E+00 0.  1.
</event>
<event>
 5   0  0.1255141E-04  0.2083009E+04  0.7818609E-02  0.8568765E-01
        1   -1    0    0  501    0  0.00000000000E+00  0.00000000000E+00  0.10342203239E+04  0.10342203239E+04  0.50400001928E-02 0.  1.
       -1   -1    0    0    0  501  0.00000000000E+00  0.00000000000E+00 -0.10488399198E+04  0.10488399198E+04  0.50400001928E-02 0. -1.
    10030    2    1    2    0    0  0.00000000000E+00  0.00000000000E+00 -0.14619595932E+02  0.20830602438E+04  0.20830089406E+04 0.  0.
        2    1    3    3  502    0 -0.25017172343E+03  0.20270440229E+03 -0.99781720425E+03  0.10484818258E+04  0.25500000920E-02 0. -1.
       -2    1    3    3    0  502  0.25017172343E+03 -0.20270440229E+03  0.98319760832E+03  0.10345784180E+04  0.25500000920E-02 0.  1.
</event>
<event>
 5   0  0.1255141E-04  0.1886521E+04  0.7818609E-02  0.8661595E-01
       -1   -1    0    0    0  501  0.00000000000E+00  0.00000000000E+00  0.90370187414E+03  0.90370187415E+03  0.50400001928E-02 0.  1.
        1   -1    0    0  501    0  0.00000000000E+00  0.00000000000E+00 -0.98455103747E+03  0.98455103749E+03  0.50400001928E-02 0. -1.
    10030    2    1    2    0    0  0.00000000000E+00  0.00000000000E+00 -0.80849163337E+02  0.18882529116E+04  0.18865212618E+04 0.  0.
        2    1    3    3  502    0 -0.11480975909E+03  0.93357959284E+03  0.30269427582E+02  0.94109955647E+03  0.25500000920E-02 0. -1.
       -2    1    3    3    0  502  0.11480975909E+03 -0.93357959284E+03 -0.11111859092E+03  0.94715335516E+03  0.25500000920E-02 0.  1.
</event>
<event>
 5   0  0.2541124E-04  0.1947077E+04  0.7818609E-02  0.8631771E-01
        2   -1    0    0  501    0  0.00000000000E+00  0.00000000000E+00  0.14417696960E+04  0.14417696960E+04  0.25500000920E-02 0.  1.
       -2   -1    0    0    0  501  0.00000000000E+00  0.00000000000E+00 -0.65737095582E+03  0.65737095582E+03  0.25500000920E-02 0. -1.
    10030    2    1    2    0    0  0.00000000000E+00  0.00000000000E+00  0.78439874021E+03  0.20991406519E+04  0.19470773207E+04 0.  0.
        5    1    3    3  502    0  0.57536736450E+02  0.55154517833E+03  0.12548416054E+04  0.13719191319E+04  0.46999998093E+01 0.  1.
       -5    1    3    3    0  502 -0.57536736450E+02 -0.55154517833E+03 -0.47044286516E+03  0.72722152000E+03  0.46999998093E+01 0. -1.
</event>
<event>
 5   0  0.1324058E-04  0.1965570E+04  0.7818609E-02  0.8622889E-01
        1   -1    0    0  501    0  0.00000000000E+00  0.00000000000E+00  0.15256660485E+04  0.15256660485E+04  0.50400001928E-02 0.  1.
       -1   -1    0    0    0  501  0.00000000000E+00  0.00000000000E+00 -0.63307867677E+03  0.63307867679E+03  0.50400001928E-02 0. -1.
    10030    2    1    2    0    0  0.00000000000E+00  0.00000000000E+00  0.89258737170E+03  0.21587447253E+04  0.19655702920E+04 0.  0.
        5    1    3    3  502    0  0.15458629610E+03  0.96838824468E+03  0.51723127389E+03  0.11087032949E+04  0.46999998093E+01 0.  1.
       -5    1    3    3    0  502 -0.15458629610E+03 -0.96838824468E+03  0.37535609782E+03  0.10500414304E+04  0.46999998093E+01 0. -1.
</event>
<event>
 5   0  0.1239615E-04  0.1790268E+04  0.7818609E-02  0.8711492E-01
       -1   -1    0    0    0  501  0.00000000000E+00  0.00000000000E+00  0.61766701019E+03  0.61766701021E+03  0.50400001928E-02 0.  1.
        1   -1    0    0  501    0  0.00000000000E+00  0.00000000000E+00 -0.12972441949E+04  0.12972441949E+04  0.50400001928E-02 0. -1.
    10030    2    1    2    0    0  0.00000000000E+00  0.00000000000E+00 -0.67957718474E+03  0.19149112052E+04  0.17902680731E+04 0.  0.
        3    1    3    3  502    0  0.51523814892E+03  0.27549824269E+03 -0.10651593774E+04  0.12148802992E+04  0.10100000352E+00 0. -1.
       -3    1    3    3    0  502 -0.51523814892E+03 -0.27549824269E+03  0.38558219267E+03  0.70003090598E+03  0.10100000352E+00 0.  1.
</event>
<event>
 5   0  0.1324058E-04  0.1892532E+04  0.7818609E-02  0.8658582E-01
       -1   -1    0    0    0  501  0.00000000000E+00  0.00000000000E+00  0.52994415569E+03  0.52994415571E+03  0.50400001928E-02 0.  1.
        1   -1    0    0  501    0  0.00000000000E+00  0.00000000000E+00 -0.16896492329E+04  0.16896492329E+04  0.50400001928E-02 0. -1.
    10030    2    1    2    0    0  0.00000000000E+00  0.00000000000E+00 -0.11597050773E+04  0.22195933887E+04  0.18925324158E+04 0.  0.
        5    1    3    3  502    0  0.38419450718E+03  0.76390684846E+03 -0.10551523606E+04  0.13581338986E+04  0.46999998093E+01 0. -1.
       -5    1    3    3    0  502 -0.38419450718E+03 -0.76390684846E+03 -0.10455271667E+03  0.86145949007E+03  0.46999998093E+01 0.  1.
</event>
<event>
 5   0  0.1317527E-04  0.1942613E+04  0.7818609E-02  0.8633931E-01
        1   -1    0    0  501    0  0.00000000000E+00  0.00000000000E+00  0.14948813766E+04  0.14948813766E+04  0.50400001928E-02 0.  1.
       -1   -1    0    0    0  501  0.00000000000E+00  0.00000000000E+00 -0.63111109884E+03  0.63111109886E+03  0.50400001928E-02 0. -1.
    10030    2    1    2    0    0  0.00000000000E+00  0.00000000000E+00  0.86377027776E+03  0.21259924755E+04  0.19426129087E+04 0.  0.
        1    1    3    3  502    0 -0.23356795651E+03  0.38697319189E+02 -0.59905021842E+03  0.64413712595E+03  0.50400001928E-02 0. -1.
       -1    1    3    3    0  502  0.23356795651E+03 -0.38697319189E+02  0.14628204962E+04  0.14818553495E+04  0.50400001928E-02 0.  1.
</event>
<event>
 5   0  0.2608744E-04  0.1817911E+04  0.7818609E-02  0.8696832E-01
       -2   -1    0    0    0  501  0.00000000000E+00  0.00000000000E+00  0.72696706466E+03  0.72696706466E+03  0.25500000920E-02 0. -1.
        2   -1    0    0  501    0  0.00000000000E+00  0.00000000000E+00 -0.11365026561E+04  0.11365026561E+04  0.25500000920E-02 0.  1.
    10030    2    1    2    0    0  0.00000000000E+00  0.00000000000E+00 -0.40953559142E+03  0.18634697207E+04  0.18179108888E+04 0.  0.
        2    1    3    3  502    0 -0.84445947983E+03 -0.29555724485E+03 -0.36920657978E+03  0.96787364703E+03  0.25500000920E-02 0. -1.
       -2    1    3    3    0  502  0.84445947983E+03  0.29555724485E+03 -0.40329011642E+02  0.89559607371E+03  0.25500000920E-02 0.  1.
</event>
<event>
 5   0  0.2595012E-04  0.1865685E+04  0.7818609E-02  0.8672128E-01
        2   -1    0    0  501    0  0.00000000000E+00  0.00000000000E+00  0.16641476090E+04  0.16641476090E+04  0.25500000920E-02 0.  1.
       -2   -1    0    0    0  501  0.00000000000E+00  0.00000000000E+00 -0.52290731548E+03  0.52290731549E+03  0.25500000920E-02 0. -1.
    10030    2    1    2    0    0  0.00000000000E+00  0.00000000000E+00  0.11412402935E+04  0.21870549245E+04  0.18656848167E+04 0.  0.
        1    1    3    3  502    0 -0.15186560050E+03  0.73200694605E+02 -0.50490117910E+03  0.53230320588E+03  0.50400001928E-02 0. -1.
       -1    1    3    3    0  502  0.15186560050E+03 -0.73200694605E+02  0.16461414726E+04  0.16547517186E+04  0.50400001928E-02 0.  1.
</event>
<event>
 5   0  0.9266125E-05  0.1909468E+04  0.7818609E-02  0.8650158E-01
       -3   -1    0    0    0  501  0.00000000000E+00  0.00000000000E+00  0.97061098079E+03  0.97061098604E+03  0.10100000352E+00 0. -1.
        3   -1    0    0  501    0  0.00000000000E+00  0.00000000000E+00 -0.93911667576E+03  0.93911668119E+03  0.10100000352E+00 0.  1.
    10030    2    1    2    0    0  0.00000000000E+00  0.00000000000E+00  0.31494305027E+02  0.19097276672E+04  0.19094679551E+04 0.  0.
        4    1    3    3  502    0  0.24302891632E+03  0.91480714506E+03  0.14058475384E+03  0.95692259496E+03  0.12699999809E+01 0.  1.
       -4    1    3    3    0  502 -0.24302891632E+03 -0.91480714506E+03 -0.10909044881E+03  0.95280507227E+03  0.12699999809E+01 0. -1.
</event>
<event>
 5   0  0.1255141E-04  0.1903729E+04  0.7818609E-02  0.8653002E-01
        1   -1    0    0  501    0  0.00000000000E+00  0.00000000000E+00  0.18494715693E+04  0.18494715693E+04  0.50400001928E-02 0. -1.
       -1   -1    0    0    0  501  0.00000000000E+00  0.00000000000E+00 -0.48989476236E+03  0.48989476239E+03  0.50400001928E-02 0.  1.
    10030    2    1    2    0    0  0.00000000000E+00  0.00000000000E+00  0.13595768070E+04  0.23393663317E+04  0.19037294293E+04 0.  0.
        2    1    3    3  502    0  0.35621793568E+03 -0.57984837582E+03  0.14976147332E+04  0.16449818376E+04  0.25500000920E-02 0. -1.
       -2    1    3    3    0  502 -0.35621793568E+03  0.57984837582E+03 -0.13803792627E+03  0.69438449417E+03  0.25500000920E-02 0.  1.
</event>
<event>
 5   0  0.1239615E-04  0.1895623E+04  0.7818609E-02  0.8657038E-01
       -1   -1    0    0    0  501  0.00000000000E+00  0.00000000000E+00  0.66008499945E+03  0.66008499947E+03  0.50400001928E-02 0. -1.
        1   -1    0    0  501    0  0.00000000000E+00  0.00000000000E+00 -0.13609561371E+04  0.13609561371E+04  0.50400001928E-02 0.  1.
    10030    2    1    2    0    0  0.00000000000E+00  0.00000000000E+00 -0.70087113760E+03  0.20210411365E+04  0.18956230965E+04 0.  0.
        3    1    3    3  502    0 -0.10225635842E+03 -0.51722892819E+03  0.48930795533E+03  0.71930828742E+03  0.10100000352E+00 0. -1.
       -3    1    3    3    0  502  0.10225635842E+03  0.51722892819E+03 -0.11901790929E+04  0.13017328491E+04  0.10100000352E+00 0.  1.
</event>
<event>
 5   0  0.2608744E-04  0.1864578E+04  0.7818609E-02  0.8672692E-01
       -2   -1    0    0    0  501  0.00000000000E+00  0.00000000000E+00  0.80377490111E+03  0.80377490112E+03  0.25500000920E-02 0. -1.
        2   -1    0    0  501    0  0.00000000000E+00  0.00000000000E+00 -0.10813515353E+04  0.10813515353E+04  0.25500000920E-02 0.  1.
    10030    2    1    2    0    0  0.00000000000E+00  0.00000000000E+00 -0.27757663416E+03  0.18851264364E+04  0.18645784761E+04 0.  0.
        2    1    3    3  502    0  0.69884022132E+03 -0.28714108673E+03  0.41343193735E+03  0.86125119765E+03  0.25500000920E-02 0. -1.
       -2    1    3    3    0  502 -0.69884022132E+03  0.28714108673E+03 -0.69100857152E+03  0.10238752388E+04  0.25500000920E-02 0.  1.
</event>
<event>
 5   0  0.2595012E-04  0.1908820E+04  0.7818609E-02  0.8650478E-01
       -2   -1    0    0    0  501  0.00000000000E+00  0.00000000000E+00  0.43484329472E+03  0.43484329472E+03  0.25500000920E-02 0. -1.
        2   -1    0    0  501    0  0.00000000000E+00  0.00000000000E+00 -0.20947745339E+04  0.20947745339E+04  0.25500000920E-02 0.  1.
    10030    2    1    2    0    0  0.00000000000E+00  0.00000000000E+00 -0.16599312392E+04  0.25296178287E+04  0.19088202221E+04 0.  0.
        1    1    3    3  502    0 -0.39575038838E+03 -0.58290808863E+03  0.23235352930E+02  0.70493977852E+03  0.50400001928E-02 0. -1.
       -1    1    3    3    0  502  0.39575038838E+03  0.58290808863E+03 -0.16831665922E+04  0.18246780501E+04  0.50400001928E-02 0.  1.
</event>
<event>
 5   0  0.1317527E-04  0.1917477E+04  0.7818609E-02  0.8646206E-01
        1   -1    0    0  501    0  0.00000000000E+00  0.00000000000E+00  0.61502896892E+03  0.61502896894E+03  0.50400001928E-02 0. -1.
       -1   -1    0    0    0  501  0.00000000000E+00  0.00000000000E+00 -0.14945304487E+04  0.14945304488E+04  0.50400001928E-02 0.  1.
    10030    2    1    2    0    0  0.00000000000E+00  0.00000000000E+00 -0.87950147983E+03  0.21095594177E+04  0.19174770100E+04 0.  0.
        1    1    3    3  502    0  0.74600724516E+03  0.55878789038E+03 -0.68676088809E+03  0.11577613026E+04  0.50400001928E-02 0.  1.
       -1    1    3    3    0  502 -0.74600724516E+03 -0.55878789038E+03 -0.19274059174E+03  0.95179811514E+03  0.50400001928E-02 0. -1.
</event>
<event>
 5   0  0.2608744E-04  0.1890593E+04  0.7818609E-02  0.8659553E-01
       -2   -1    0    0    0  501  0.00000000000E+00  0.00000000000E+00  0.73773729107E+03  0.73773729107E+03  0.25500000920E-02 0.  1.
        2   -1    0    0  501    0  0.00000000000E+00  0.00000000000E+00 -0.12112514410E+04  0.12112514410E+04  0.25500000920E-02 0. -1.
    10030    2    1    2    0    0  0.00000000000E+00  0.00000000000E+00 -0.47351414995E+03  0.19489887321E+04  0.18905928773E+04 0.  0.
        2    1    3    3  502    0  0.50249524116E+03  0.65718306148E+03 -0.70826201592E+03  0.10890482666E+04  0.25500000920E-02 0. -1.
       -2    1    3    3    0  502 -0.50249524116E+03 -0.65718306148E+03  0.23474786598E+03  0.85994046554E+03  0.25500000920E-02 0.  1.
</event>
<event>
 5   0  0.1277709E-04  0.1931466E+04  0.7818609E-02  0.8639350E-01
        1   -1    0    0  501    0  0.00000000000E+00  0.00000000000E+00  0.21788985863E+04  0.21788985863E+04  0.50400001928E-02 0. -1.
       -1   -1    0    0    0  501  0.00000000000E+00  0.00000000000E+00 -0.42803287081E+03  0.42803287084E+03  0.50400001928E-02 0.  1.
    10030    2    1    2    0    0  0.00000000000E+00  0.00000000000E+00  0.17508657155E+04  0.26069314571E+04  0.19314659895E+04 0.  0.
        4    1    3    3  502    0 -0.18296321163E+03  0.90300422057E+03  0.12660270107E+04  0.15657963354E+04  0.12699999809E+01 0. -1.
       -4    1    3    3    0  502  0.18296321163E+03 -0.90300422057E+03  0.48483870476E+03  0.10411351217E+04  0.12699999809E+01 0.  1.
</event>
<event>
 5   0  0.1239615E-04  0.1917332E+04  0.7818609E-02  0.8646277E-01
        1   -1    0    0  501    0  0.00000000000E+00  0.00000000000E+00  0.16818835294E+04  0.16818835294E+04  0.50400001928E-02 0.  1.
       -1   -1    0    0    0  501  0.00000000000E+00  0.00000000000E+00 -0.54643550581E+03  0.54643550583E+03  0.50400001928E-02 0. -1.
    10030    2    1    2    0    0  0.00000000000E+00  0.00000000000E+00  0.11354480235E+04  0.22283190352E+04  0.19173323938E+04 0.  0.
        3    1    3    3  502    0 -0.32189325290E+03  0.40970778911E+03  0.15029610270E+04  0.15907129212E+04  0.10100000352E+00 0.  1.
       -3    1    3    3    0  502  0.32189325290E+03 -0.40970778911E+03 -0.36751300345E+03  0.63760611401E+03  0.10100000352E+00 0. -1.
</event>
<event>
 5   0  0.2541124E-04  0.1885971E+04  0.7818609E-02  0.8661871E-01
       -2   -1    0    0    0  501  0.00000000000E+00  0.00000000000E+00  0.87165029715E+03  0.87165029715E+03  0.25500000920E-02 0. -1.
        2   -1    0    0  501    0  0.00000000000E+00  0.00000000000E+00 -0.10201590216E+04  0.10201590217E+04  0.25500000920E-02 0.  1.
    10030    2    1    2    0    0  0.00000000000E+00  0.00000000000E+00 -0.14850872450E+03  0.18918093188E+04  0.18859712769E+04 0.  0.
        5    1    3    3  502    0  0.17364996757E+03 -0.29895957228E+03  0.80576898729E+03  0.87682203893E+03  0.46999998093E+01 0. -1.
       -5    1    3    3    0  502 -0.17364996757E+03  0.29895957228E+03 -0.95427771178E+03  0.10149872799E+04  0.46999998093E+01 0.  1.
</event>
<event>
 5   0  0.2608744E-04  0.1862930E+04  0.7818609E-02  0.8673532E-01
       -2   -1    0    0    0  501  0.00000000000E+00  0.00000000000E+00  0.60272968436E+03  0.60272968437E+03  0.25500000920E-02 0.  1.
        2   -1    0    0  501    0  0.00000000000E+00  0.00000000000E+00 -0.14394957070E+04  0.14394957070E+04  0.25500000920E-02 0. -1.
    10030    2    1    2    0    0  0.00000000000E+00  0.00000000000E+00 -0.83676602264E+03  0.20422253914E+04  0.18629297283E+04 0.  0.
        2    1    3    3  502    0  0.46994183679E+03  0.73185856586E+03 -0.78388543676E+03  0.11708709017E+04  0.25500000920E-02 0. -1.
       -2    1    3    3    0  502 -0.46994183679E+03 -0.73185856586E+03 -0.52880585886E+02  0.87135448972E+03  0.25500000920E-02 0.  1.
</event>
<event>
 5   0  0.9266125E-05  0.1916804E+04  0.7818609E-02  0.8646537E-01
       -3   -1    0    0    0  501  0.00000000000E+00  0.00000000000E+00  0.94760293522E+03  0.94760294060E+03  0.10100000352E+00 0.  1.
        3   -1    0    0  501    0  0.00000000000E+00  0.00000000000E+00 -0.96932427788E+03  0.96932428314E+03  0.10100000352E+00 0. -1.
    10030    2    1    2    0    0  0.00000000000E+00  0.00000000000E+00 -0.21721342663E+02  0.19169272237E+04  0.19168041539E+04 0.  0.
        5    1    3    3  502    0 -0.63889651001E+03  0.24154473025E+02  0.70314613581E+03  0.95037296225E+03  0.46999998093E+01 0.  1.
       -5    1    3    3    0  502  0.63889651001E+03 -0.24154473025E+02 -0.72486747847E+03  0.96655426150E+03  0.46999998093E+01 0. -1.
</event>
<event>
 5   0  0.9266125E-05  0.1612745E+04  0.7818609E-02  0.8812756E-01
       -3   -1    0    0    0  501  0.00000000000E+00  0.00000000000E+00  0.80893576065E+03  0.80893576696E+03  0.10100000352E+00 0.  1.
        3   -1    0    0  501    0  0.00000000000E+00  0.00000000000E+00 -0.80381756938E+03  0.80381757573E+03  0.10100000352E+00 0. -1.
    10030    2    1    2    0    0  0.00000000000E+00  0.00000000000E+00  0.51181912691E+01  0.16127533427E+04  0.16127452212E+04 0.  0.
        2    1    3    3  502    0  0.58899067243E+03 -0.29310576825E+03  0.46884009809E+03  0.80785644837E+03  0.25500000920E-02 0.  1.
       -2    1    3    3    0  502 -0.58899067243E+03  0.29310576825E+03 -0.46372190683E+03  0.80489689431E+03  0.25500000920E-02 0. -1.
</event>
<event>
 5   0  0.1255141E-04  0.1867488E+04  0.7818609E-02  0.8671211E-01
        1   -1    0    0  501    0  0.00000000000E+00  0.00000000000E+00  0.61236024486E+03  0.61236024488E+03  0.50400001928E-02 0. -1.
       -1   -1    0    0    0  501  0.00000000000E+00  0.00000000000E+00 -0.14237991088E+04  0.14237991088E+04  0.50400001928E-02 0.  1.
    10030    2    1    2    0    0  0.00000000000E+00  0.00000000000E+00 -0.81143886396E+03  0.20361593537E+04  0.18674881214E+04 0.  0.
        2    1    3    3  502    0 -0.23962375891E+03  0.23995339674E+03  0.54284679475E+03  0.64006235713E+03  0.25500000920E-02 0. -1.
       -2    1    3    3    0  502  0.23962375891E+03 -0.23995339674E+03 -0.13542856587E+04  0.13960969966E+04  0.25500000920E-02 0.  1.
</event>
<event>
 5   0  0.1317527E-04  0.1893988E+04  0.7818609E-02  0.8657855E-01
       -1   -1    0    0    0  501  0.00000000000E+00  0.00000000000E+00  0.50523294436E+03  0.50523294439E+03  0.50400001928E-02 0.  1.
        1   -1    0    0  501    0  0.00000000000E+00  0.00000000000E+00 -0.17750187828E+04  0.17750187828E+04  0.50400001928E-02 0. -1.
    10030    2    1    2    0    0  0.00000000000E+00  0.00000000000E+00 -0.12697858384E+04  0.22802517272E+04  0.18939883484E+04 0.  0.
        1    1    3    3  502    0 -0.64164414699E+03  0.31834024670E+03 -0.13807057001E+04  0.15554407589E+04  0.50400001928E-02 0. -1.
       -1    1    3    3    0  502  0.64164414699E+03 -0.31834024670E+03  0.11091986168E+03  0.72481096831E+03  0.50400001928E-02 0.  1.
</event>
<event>
 5   0  0.2608744E-04  0.1898563E+04  0.7818609E-02  0.8655572E-01
       -2   -1    0    0    0  501  0.00000000000E+00  0.00000000000E+00  0.54252032957E+03  0.54252032957E+03  0.25500000920E-02 0. -1.
        2   -1    0    0  501    0  0.00000000000E+00  0.00000000000E+00 -0.16610169443E+04  0.16610169443E+04  0.25500000920E-02 0.  1.
    10030    2    1    2    0    0  0.00000000000E+00  0.00000000000E+00 -0.11184966147E+04  0.22035372739E+04  0.18985630988E+04 0.  0.
        2    1    3    3  502    0  0.15121871594E+03  0.91835780662E+03 -0.77603321290E+03  0.12118067951E+04  0.25500000920E-02 0.  1.
       -2    1    3    3    0  502 -0.15121871594E+03 -0.91835780662E+03 -0.34246340185E+03  0.99173047883E+03  0.25500000920E-02 0. -1.
</event>
<event>
 5   0  0.1317527E-04  0.1927023E+04  0.7818609E-02  0.8641521E-01
       -1   -1    0    0    0  501  0.00000000000E+00  0.00000000000E+00  0.80370709103E+03  0.80370709104E+03  0.50400001928E-02 0. -1.
        1   -1    0    0  501    0  0.00000000000E+00  0.00000000000E+00 -0.11550910132E+04  0.11550910132E+04  0.50400001928E-02 0.  1.
    10030    2    1    2    0    0  0.00000000000E+00  0.00000000000E+00 -0.35138392216E+03  0.19587981042E+04  0.19270234437E+04 0.  0.
        1    1    3    3  502    0 -0.70099770509E+03  0.10162123220E+03 -0.83963139583E+03  0.10985014967E+04  0.50400001928E-02 0.  1.
       -1    1    3    3    0  502  0.70099770509E+03 -0.10162123220E+03  0.48824747367E+03  0.86029660754E+03  0.50400001928E-02 0. -1.
</event>
<event>
 5   0  0.2541124E-04  0.1894336E+04  0.7818609E-02  0.8657681E-01
        2   -1    0    0  501    0  0.00000000000E+00  0.00000000000E+00  0.14244171382E+04  0.14244171382E+04  0.25500000920E-02 0.  1.
       -2   -1    0    0    0  501  0.00000000000E+00  0.00000000000E+00 -0.62982036708E+03  0.62982036709E+03  0.25500000920E-02 0. -1.
    10030    2    1    2    0    0  0.00000000000E+00  0.00000000000E+00  0.79459677112E+03  0.20542375053E+04  0.18943356882E+04 0.  0.
        5    1    3    3  502    0  0.28504996128E+03 -0.50143225012E+03  0.12119909945E+04  0.13422488751E+04  0.46999998093E+01 0.  1.
       -5    1    3    3    0  502 -0.28504996128E+03  0.50143225012E+03 -0.41739422337E+03  0.71198863023E+03  0.46999998093E+01 0. -1.
</event>
<event>
 5   0  0.1239615E-04  0.1905867E+04  0.7818609E-02  0.8651941E-01
        1   -1    0    0  501    0  0.00000000000E+00  0.00000000000E+00  0.96416686028E+03  0.96416686029E+03  0.50400001928E-02 0.  1.
       -1   -1    0    0    0  501  0.00000000000E+00  0.00000000000E+00 -0.94183147811E+03  0.94183147812E+03  0.50400001928E-02 0. -1.
    10030    2    1    2    0    0  0.00000000000E+00  0.00000000000E+00  0.22335382172E+02  0.19059983384E+04  0.19058674657E+04 0.  0.
        3    1    3    3  502    0 -0.40895793388E+02  0.93956908431E+03  0.16486675712E+03  0.95480028692E+03  0.10100000352E+00 0. -1.
       -3    1    3    3    0  502  0.40895793388E+02 -0.93956908431E+03 -0.14253137495E+03  0.95119805149E+03  0.10100000352E+00 0.  1.
</event>
<event>
 5   0  0.9266125E-05  0.1922659E+04  0.7818609E-02  0.8643659E-01
        3   -1    0    0  501    0  0.00000000000E+00  0.00000000000E+00  0.12647105024E+04  0.12647105065E+04  0.10100000352E+00 0. -1.
       -3   -1    0    0    0  501  0.00000000000E+00  0.00000000000E+00 -0.73072415691E+03  0.73072416389E+03  0.10100000352E+00 0.  1.
    10030    2    1    2    0    0  0.00000000000E+00  0.00000000000E+00  0.53398634553E+03  0.19954346704E+04  0.19226591238E+04 0.  0.
        3    1    3    3  502    0  0.95841874013E+03 -0.57643515591E+02  0.31638945434E+03  0.10109359789E+04  0.10100000352E+00 0.  1.
       -3    1    3    3    0  502 -0.95841874013E+03  0.57643515591E+02  0.21759689119E+03  0.98449869151E+03  0.10100000352E+00 0. -1.
</event>
<event>
 5   0  0.1324058E-04  0.1879176E+04  0.7818609E-02  0.8665292E-01
       -1   -1    0    0    0  501  0.00000000000E+00  0.00000000000E+00  0.55086209681E+03  0.55086209683E+03  0.50400001928E-02 0.  1.
        1   -1    0    0  501    0  0.00000000000E+00  0.00000000000E+00 -0.16026251394E+04  0.16026251395E+04  0.50400001928E-02 0. -1.
    10030    2    1    2    0    0  0.00000000000E+00  0.00000000000E+00 -0.10517630426E+04  0.21534872363E+04  0.18791758244E+04 0.  0.
        5    1    3    3  502    0  0.10765834971E+03 -0.32759249085E+03 -0.15274763156E+04  0.15659224582E+04  0.46999998093E+01 0. -1.
       -5    1    3    3    0  502 -0.10765834971E+03  0.32759249085E+03  0.47571327299E+03  0.58756477807E+03  0.46999998093E+01 0.  1.
</event>
<event>
 5   0  0.2608744E-04  0.1876390E+04  0.7818609E-02  0.8666699E-01
        2   -1    0    0  501    0  0.00000000000E+00  0.00000000000E+00  0.94197722101E+03  0.94197722102E+03  0.25500000920E-02 0. -1.
       -2   -1    0    0    0  501  0.00000000000E+00  0.00000000000E+00 -0.93442775015E+03  0.93442775015E+03  0.25500000920E-02 0.  1.
    10030    2    1    2    0    0  0.00000000000E+00  0.00000000000E+00  0.75494708667E+01  0.18764049712E+04  0.18763897840E+04 0.  0.
        2    1    3    3  502    0  0.16211419151E+03 -0.87238969774E+03  0.30851456345E+03  0.93942856657E+03  0.25500000920E-02 0. -1.
       -2    1    3    3    0  502 -0.16211419151E+03  0.87238969774E+03 -0.30096509258E+03  0.93697640460E+03  0.25500000920E-02 0.  1.
</event>
<event>
 5   0  0.9266125E-05  0.1962539E+04  0.7818609E-02  0.8624338E-01
       -3   -1    0    0    0  501  0.00000000000E+00  0.00000000000E+00  0.40658225509E+03  0.40658226763E+03  0.10100000352E+00 0.  1.
        3   -1    0    0  501    0  0.00000000000E+00  0.00000000000E+00 -0.23682542479E+04  0.23682542501E+04  0.10100000352E+00 0. -1.
    10030    2    1    2    0    0  0.00000000000E+00  0.00000000000E+00 -0.19616719928E+04  0.27748365177E+04  0.19625393480E+04 0.  0.
        5    1    3    3  502    0 -0.88589262980E+03 -0.32805119869E+03 -0.60556645042E+03  0.11221212752E+04  0.46999998093E+01 0. -1.
       -5    1    3    3    0  502  0.88589262980E+03  0.32805119869E+03 -0.13561055424E+04  0.16527152425E+04  0.46999998093E+01 0.  1.
</event>
<event>
 5   0  0.1317527E-04  0.1915428E+04  0.7818609E-02  0.8647215E-01
       -1   -1    0    0    0  501  0.00000000000E+00  0.00000000000E+00  0.10678074169E+04  0.10678074169E+04  0.50400001928E-02 0.  1.
        1   -1    0    0  501    0  0.00000000000E+00  0.00000000000E+00 -0.85897130178E+03  0.85897130179E+03  0.50400001928E-02 0. -1.
    10030    2    1    2    0    0  0.00000000000E+00  0.00000000000E+00  0.20883611510E+03  0.19267787187E+04  0.19154278133E+04 0.  0.
        1    1    3    3  502    0 -0.20046039080E+03  0.33714520370E+03 -0.77446699755E+03  0.86813039745E+03  0.50400001928E-02 0. -1.
       -1    1    3    3    0  502  0.20046039080E+03 -0.33714520370E+03  0.98330311265E+03  0.10586483212E+04  0.50400001928E-02 0.  1.
</event>
<event>
 5   0  0.2608744E-04  0.1938796E+04  0.7818609E-02  0.8635782E-01
        2   -1    0    0  501    0  0.00000000000E+00  0.00000000000E+00  0.14080839087E+04  0.14080839087E+04  0.25500000920E-02 0. -1.
       -2   -1    0    0    0  501  0.00000000000E+00  0.00000000000E+00 -0.66738395574E+03  0.66738395575E+03  0.25500000920E-02 0.  1.
    10030    2    1    2    0    0  0.00000000000E+00  0.00000000000E+00  0.74069995294E+03  0.20754678644E+04  0.19387961306E+04 0.  0.
        2    1    3    3  502    0 -0.23652104933E+02  0.80964036962E+03  0.94048746070E+03  0.12412065154E+04  0.25500000920E-02 0. -1.
       -2    1    3    3    0  502  0.23652104933E+02 -0.80964036962E+03 -0.19978750776E+03  0.83426134901E+03  0.25500000920E-02 0.  1.
</event>
<event>
 5   0  0.1255141E-04  0.1809386E+04  0.7818609E-02  0.8701324E-01
       -1   -1    0    0    0  501  0.00000000000E+00  0.00000000000E+00  0.51461789940E+03  0.51461789943E+03  0.50400001928E-02 0. -1.
        1   -1    0    0  501    0  0.00000000000E+00  0.00000000000E+00 -0.15904402266E+04  0.15904402266E+04  0.50400001928E-02 0.  1.
    10030    2    1    2    0    0  0.00000000000E+00  0.00000000000E+00 -0.10758223272E+04  0.21050581260E+04  0.18093855405E+04 0.  0.
        2    1    3    3  502    0 -0.40375670452E+03 -0.61084504110E+03  0.80250630462E+02  0.73660797198E+03  0.25500000920E-02 0. -1.
       -2    1    3    3    0  502  0.40375670452E+03  0.61084504110E+03 -0.11560729576E+04  0.13684501540E+04  0.25500000920E-02 0.  1.
</event>
<event>
 5   0  0.1255141E-04  0.1889772E+04  0.7818609E-02  0.8659964E-01
       -1   -1    0    0    0  501  0.00000000000E+00  0.00000000000E+00  0.12269075484E+04  0.12269075484E+04  0.50400001928E-02 0. -1.
        1   -1    0    0  501    0  0.00000000000E+00  0.00000000000E+00 -0.72769083441E+03  0.72769083443E+03  0.50400001928E-02 0.  1.
    10030    2    1    2    0    0  0.00000000000E+00  0.00000000000E+00  0.49921671395E+03  0.19545983828E+04  0.18897718144E+04 0.  0.
        2    1    3    3  502    0 -0.21988522912E+03 -0.37634739910E+03 -0.61749525576E+03  0.75583547792E+03  0.25500000920E-02 0.  1.
       -2    1    3    3    0  502  0.21988522912E+03  0.37634739910E+03  0.11167119697E+04  0.11987629049E+04  0.25500000920E-02 0. -1.
</event>
<event>
 5   0  0.1277709E-04  0.1578128E+04  0.7818609E-02  0.8834099E-01
       -1   -1    0    0    0  501  0.00000000000E+00  0.00000000000E+00  0.18568188409E+04  0.18568188409E+04  0.50400001928E-02 0. -1.
        1   -1    0    0  501    0  0.00000000000E+00  0.00000000000E+00 -0.33531635326E+03  0.33531635330E+03  0.50400001928E-02 0.  1.
    10030    2    1    2    0    0  0.00000000000E+00  0.00000000000E+00  0.15215024876E+04  0.21921351942E+04  0.15781276532E+04 0.  0.
        4    1    3    3  502    0  0.69872982320E+03  0.33911143974E+03  0.95422765811E+03  0.12303544086E+04  0.12699999809E+01 0. -1.
       -4    1    3    3    0  502 -0.69872982320E+03 -0.33911143974E+03  0.56727482950E+03  0.96178078556E+03  0.12699999809E+01 0.  1.
</event>
<event>
 5   0  0.1277709E-04  0.1954814E+04  0.7818609E-02  0.8628043E-01
        1   -1    0    0  501    0  0.00000000000E+00  0.00000000000E+00  0.14108217318E+04  0.14108217318E+04  0.50400001928E-02 0. -1.
       -1   -1    0    0    0  501  0.00000000000E+00  0.00000000000E+00 -0.67714044134E+03  0.67714044136E+03  0.50400001928E-02 0.  1.
    10030    2    1    2    0    0  0.00000000000E+00  0.00000000000E+00  0.73368129049E+03  0.20879621732E+04  0.19548140067E+04 0.  0.
        4    1    3    3  502    0  0.49153753893E+03  0.14431796256E+03 -0.52225417647E+03  0.73156535199E+03  0.12699999809E+01 0.  1.
       -4    1    3    3    0  502 -0.49153753893E+03 -0.14431796256E+03  0.12559354670E+04  0.13563968212E+04  0.12699999809E+01 0. -1.
</event>
<event>
 5   0  0.1324058E-04  0.1903769E+04  0.7818609E-02  0.8652983E-01
       -1   -1    0    0    0  501  0.00000000000E+00  0.00000000000E+00  0.57111658976E+03  0.57111658979E+03  0.50400001928E-02 0.  1.
        1   -1    0    0  501    0  0.00000000000E+00  0.00000000000E+00 -0.15865131849E+04  0.15865131849E+04  0.50400001928E-02 0. -1.
    10030    2    1    2    0    0  0.00000000000E+00  0.00000000000E+00 -0.10153965951E+04  0.21576297747E+04  0.19037688933E+04 0.  0.
        5    1    3    3  502    0  0.92875269641E+03  0.15406765567E+03 -0.66694657028E+03  0.11537583071E+04  0.46999998093E+01 0. -1.
       -5    1    3    3    0  502 -0.92875269641E+03 -0.15406765567E+03 -0.34845002485E+03  0.10038714676E+04  0.46999998093E+01 0.  1.
</event>
<event>
 5   0  0.1239615E-04  0.1897797E+04  0.7818609E-02  0.8655953E-01
        1   -1    0    0  501    0  0.00000000000E+00  0.00000000000E+00  0.17522589241E+04  0.17522589241E+04  0.50400001928E-02 0. -1.
       -1   -1    0    0    0  501  0.00000000000E+00  0.00000000000E+00 -0.51385603268E+03  0.51385603271E+03  0.50400001928E-02 0.  1.
    10030    2    1    2    0    0  0.00000000000E+00  0.00000000000E+00  0.12384028914E+04  0.22661149568E+04  0.18977974802E+04 0.  0.
        3    1    3    3  502    0 -0.11904588955E+03 -0.94067623853E+03  0.57508361152E+03  0.11089476453E+04  0.10100000352E+00 0. -1.
       -3    1    3    3    0  502  0.11904588955E+03  0.94067623853E+03  0.66331927988E+03  0.11571673115E+04  0.10100000352E+00 0.  1.
</event>
<event>
 5   0  0.2541124E-04  0.1860708E+04  0.7818609E-02  0.8674665E-01
        2   -1    0    0  501    0  0.00000000000E+00  0.00000000000E+00  0.17212418517E+04  0.17212418517E+04  0.25500000920E-02 0.  1.
       -2   -1    0    0    0  501  0.00000000000E+00  0.00000000000E+00 -0.50286886900E+03  0.50286886900E+03  0.25500000920E-02 0. -1.
    10030    2    1    2    0    0  0.00000000000E+00  0.00000000000E+00  0.12183729827E+04  0.22241107207E+04  0.18607084062E+04 0.  0.
        5    1    3    3  502    0 -0.60347939624E+03 -0.31334224529E+03  0.13681485969E+04  0.15278165523E+04  0.46999998093E+01 0.  1.
       -5    1    3    3    0  502  0.60347939624E+03  0.31334224529E+03 -0.14977561416E+03  0.69629416841E+03  0.46999998093E+01 0. -1.
</event>
<event>
 5   0  0.1324058E-04  0.1406658E+04  0.7818609E-02  0.8949013E-01
       -1   -1    0    0    0  501  0.00000000000E+00  0.00000000000E+00  0.57375320384E+03  0.57375320387E+03  0.50400001928E-02 0.  1.
        1   -1    0    0  501    0  0.00000000000E+00  0.00000000000E+00 -0.86216756671E+03  0.86216756673E+03  0.50400001928E-02 0. -1.
    10030    2    1    2    0    0  0.00000000000E+00  0.00000000000E+00 -0.28841436287E+03  0.14359207706E+04  0.14066576039E+04 0.  0.
        5    1    3    3  502    0 -0.56799148152E+03  0.16050755523E+03 -0.53461917183E+03  0.79637726440E+03  0.46999998093E+01 0. -1.
       -5    1    3    3    0  502  0.56799148152E+03 -0.16050755523E+03  0.24620480896E+03  0.63954350620E+03  0.46999998093E+01 0.  1.
</event>
<event>
 5   0  0.2595012E-04  0.2027439E+04  0.7818609E-02  0.8593898E-01
       -2   -1    0    0    0  501  0.00000000000E+00  0.00000000000E+00  0.11540606868E+04  0.11540606868E+04  0.25500000920E-02 0.  1.
        2   -1    0    0  501    0  0.00000000000E+00  0.00000000000E+00 -0.89044504564E+03  0.89044504565E+03  0.25500000920E-02 0. -1.
    10030    2    1    2    0    0  0.00000000000E+00  0.00000000000E+00  0.26361564117E+03  0.20445057325E+04  0.20274393909E+04 0.  0.
        1    1    3    3  502    0  0.22582465142E+03  0.68486761710E+03  0.85025655014E+03  0.11148886165E+04  0.50400001928E-02 0.  1.
       -1    1    3    3    0  502 -0.22582465142E+03 -0.68486761710E+03 -0.58664090898E+03  0.92961711595E+03  0.50400001928E-02 0. -1.
</event>
<event>
 5   0  0.1239615E-04  0.1810949E+04  0.7818609E-02  0.8700498E-01
        1   -1    0    0  501    0  0.00000000000E+00  0.00000000000E+00  0.10439937857E+04  0.10439937857E+04  0.50400001928E-02 0. -1.
       -1   -1    0    0    0  501  0.00000000000E+00  0.00000000000E+00 -0.78533442252E+03  0.78533442253E+03  0.50400001928E-02 0.  1.
    10030    2    1    2    0    0  0.00000000000E+00  0.00000000000E+00  0.25865936322E+03  0.18293282083E+04  0.18109492062E+04 0.  0.
        3    1    3    3  502    0  0.42429900638E+03 -0.17027242246E+03 -0.66017894910E+03  0.80303088340E+03  0.10100000352E+00 0.  1.
       -3    1    3    3    0  502 -0.42429900638E+03  0.17027242246E+03  0.91883831232E+03  0.10262973249E+04  0.10100000352E+00 0. -1.
</event>
<event>
 5   0  0.1277709E-04  0.1922615E+04  0.7818609E-02  0.8643681E-01
        1   -1    0    0  501    0  0.00000000000E+00  0.00000000000E+00  0.17029253870E+04  0.17029253870E+04  0.50400001928E-02 0. -1.
       -1   -1    0    0    0  501  0.00000000000E+00  0.00000000000E+00 -0.54266143186E+03  0.54266143188E+03  0.50400001928E-02 0.  1.
    10030    2    1    2    0    0  0.00000000000E+00  0.00000000000E+00  0.11602639551E+04  0.22455868189E+04  0.19226148121E+04 0.  0.
        4    1    3    3  502    0 -0.27502979163E+03 -0.88105676792E+03  0.89398761095E+03  0.12849583168E+04  0.12699999809E+01 0.  1.
       -4    1    3    3    0  502  0.27502979163E+03  0.88105676792E+03  0.26627634420E+03  0.96062850206E+03  0.12699999809E+01 0. -1.
</event>
<event>
 5   0  0.2595012E-04  0.1869837E+04  0.7818609E-02  0.8670018E-01
       -2   -1    0    0    0  501  0.00000000000E+00  0.00000000000E+00  0.51942604848E+03  0.51942604849E+03  0.25500000920E-02 0. -1.
        2   -1    0    0  501    0  0.00000000000E+00  0.00000000000E+00 -0.16827671002E+04  0.16827671002E+04  0.25500000920E-02 0.  1.
    10030    2    1    2    0    0  0.00000000000E+00  0.00000000000E+00 -0.11633410517E+04  0.22021931487E+04  0.18698374960E+04 0.  0.
        1    1    3    3  502    0  0.43105607592E+02  0.27238901278E+03  0.47043236098E+03  0.54530768743E+03  0.50400001928E-02 0. -1.
       -1    1    3    3    0  502 -0.43105607592E+02 -0.27238901278E+03 -0.16337734127E+04  0.16568854612E+04  0.50400001928E-02 0.  1.
</event>
<event>
 5   0  0.2651828E-04  0.1888706E+04  0.7818609E-02  0.8660499E-01
        2   -1    0    0  501    0  0.00000000000E+00  0.00000000000E+00  0.11479254484E+04  0.11479254484E+04  0.25500000920E-02 0. -1.
       -2   -1    0    0    0  501  0.00000000000E+00  0.00000000000E+00 -0.77688162129E+03  0.77688162129E+03  0.25500000920E-02 0.  1.
    10030    2    1    2    0    0  0.00000000000E+00  0.00000000000E+00  0.37104382711E+03  0.19248070697E+04  0.18887055710E+04 0.  0.
        3    1    3    3  502    0 -0.34575602808E+03  0.60748627249E+03 -0.46160801201E+03  0.83765671320E+03  0.10100000352E+00 0.  1.
       -3    1    3    3    0  502  0.34575602808E+03 -0.60748627249E+03  0.83265183912E+03  0.10871503565E+04  0.10100000352E+00 0. -1.
</event>
<event>
 5   0  0.2595012E-04  0.1900271E+04  0.7818609E-02  0.8654722E-01
        2   -1    0    0  501    0  0.00000000000E+00  0.00000000000E+00  0.18271539568E+04  0.18271539568E+04  0.25500000920E-02 0.  1.
       -2   -1    0    0    0  501  0.00000000000E+00  0.00000000000E+00 -0.49407839853E+03  0.49407839854E+03  0.25500000920E-02 0. -1.
    10030    2    1    2    0    0  0.00000000000E+00  0.00000000000E+00  0.13330755582E+04  0.23212323553E+04  0.19002708237E+04 0.  0.
        1    1    3    3  502    0  0.25829744864E+03  0.45770643594E+03 -0.30035672691E+03  0.60533207159E+03  0.50400001928E-02 0. -1.
       -1    1    3    3    0  502 -0.25829744864E+03 -0.45770643594E+03  0.16334322851E+04  0.17159002837E+04  0.50400001928E-02 0.  1.
</event>
<event>
 5   0  0.2651828E-04  0.1944610E+04  0.7818609E-02  0.8632964E-01
        2   -1    0    0  501    0  0.00000000000E+00  0.00000000000E+00  0.67083878334E+03  0.67083878334E+03  0.25500000920E-02 0. -1.
       -2   -1    0    0    0  501  0.00000000000E+00  0.00000000000E+00 -0.14092461494E+04  0.14092461494E+04  0.25500000920E-02 0.  1.
    10030    2    1    2    0    0  0.00000000000E+00  0.00000000000E+00 -0.73840736603E+03  0.20800849327E+04  0.19446099581E+04 0.  0.
        3    1    3    3  502    0 -0.71039796183E+03 -0.62070055331E+02 -0.10762033504E+04  0.12910196039E+04  0.10100000352E+00 0.  1.
       -3    1    3    3    0  502  0.71039796183E+03  0.62070055331E+02  0.33779598437E+03  0.78906532885E+03  0.10100000352E+00 0. -1.
</event>
<event>
 5   0  0.2608744E-04  0.1909852E+04  0.7818609E-02  0.8649968E-01
        2   -1    0    0  501    0  0.00000000000E+00  0.00000000000E+00  0.62585414444E+03  0.62585414444E+03  0.25500000920E-02 0. -1.
       -2   -1    0    0    0  501  0.00000000000E+00  0.00000000000E+00 -0.14570226541E+04  0.14570226541E+04  0.25500000920E-02 0.  1.
    10030    2    1    2    0    0  0.00000000000E+00  0.00000000000E+00 -0.83116850968E+03  0.20828767986E+04  0.19098520012E+04 0.  0.
        2    1    3    3  502    0  0.35069758494E+03 -0.37677268177E+03  0.46160829842E+03  0.69139617513E+03  0.25500000920E-02 0. -1.
       -2    1    3    3    0  502 -0.35069758494E+03  0.37677268177E+03 -0.12927768081E+04  0.13914806234E+04  0.25500000920E-02 0.  1.
</event>
<event>
 5   0  0.2595012E-04  0.1910024E+04  0.7818609E-02  0.8649883E-01
        2   -1    0    0  501    0  0.00000000000E+00  0.00000000000E+00  0.62444124520E+03  0.62444124520E+03  0.25500000920E-02 0. -1.
       -2   -1    0    0    0  501  0.00000000000E+00  0.00000000000E+00 -0.14605822314E+04  0.14605822314E+04  0.25500000920E-02 0.  1.
    10030    2    1    2    0    0  0.00000000000E+00  0.00000000000E+00 -0.83614098621E+03  0.20850234766E+04  0.19100238609E+04 0.  0.
        1    1    3    3  502    0  0.15475266119E+03  0.85184022805E+03  0.21932443766E+02  0.86606073250E+03  0.50400001928E-02 0. -1.
       -1    1    3    3    0  502 -0.15475266119E+03 -0.85184022805E+03 -0.85807342997E+03  0.12189627441E+04  0.50400001928E-02 0.  1.
</event>
<event>
 5   0  0.1324058E-04  0.1934257E+04  0.7818609E-02  0.8637990E-01
        1   -1    0    0  501    0  0.00000000000E+00  0.00000000000E+00  0.93666162453E+03  0.93666162455E+03  0.50400001928E-02 0. -1.
       -1   -1    0    0    0  501  0.00000000000E+00  0.00000000000E+00 -0.99858631018E+03  0.99858631019E+03  0.50400001928E-02 0.  1.
    10030    2    1    2    0    0  0.00000000000E+00  0.00000000000E+00 -0.61924685648E+02  0.19352479347E+04  0.19342569380E+04 0.  0.
        5    1    3    3  502    0  0.70616731432E+03  0.47363572881E+03  0.43004732512E+03  0.95287243179E+03  0.46999998093E+01 0. -1.
       -5    1    3    3    0  502 -0.70616731432E+03 -0.47363572881E+03 -0.49197201077E+03  0.98237550295E+03  0.46999998093E+01 0.  1.
</event>
<event>
 5   0  0.1324058E-04  0.1910361E+04  0.7818609E-02  0.8649716E-01
        1   -1    0    0  501    0  0.00000000000E+00  0.00000000000E+00  0.21245935177E+04  0.21245935177E+04  0.50400001928E-02 0. -1.
       -1   -1    0    0    0  501  0.00000000000E+00  0.00000000000E+00 -0.42943249287E+03  0.42943249290E+03  0.50400001928E-02 0.  1.
    10030    2    1    2    0    0  0.00000000000E+00  0.00000000000E+00  0.16951610248E+04  0.25540260106E+04  0.19103606892E+04 0.  0.
        5    1    3    3  502    0  0.78984501682E+02 -0.65447865754E+03  0.17716780368E+04  0.18903560566E+04  0.46999998093E+01 0. -1.
       -5    1    3    3    0  502 -0.78984501682E+02  0.65447865754E+03 -0.76517012003E+02  0.66366995397E+03  0.46999998093E+01 0.  1.
</event>
<event>
 5   0  0.2608744E-04  0.1884819E+04  0.7818609E-02  0.8662450E-01
        2   -1    0    0  501    0  0.00000000000E+00  0.00000000000E+00  0.12077882637E+04  0.12077882637E+04  0.25500000920E-02 0. -1.
       -2   -1    0    0    0  501  0.00000000000E+00  0.00000000000E+00 -0.73534037734E+03  0.73534037735E+03  0.25500000920E-02 0.  1.
    10030    2    1    2    0    0  0.00000000000E+00  0.00000000000E+00  0.47244788635E+03  0.19431286411E+04  0.18848188004E+04 0.  0.
        2    1    3    3  502    0 -0.31027557343E+03 -0.86558485696E+03  0.23372608415E+02  0.91981213022E+03  0.25500000920E-02 0.  1.
       -2    1    3    3    0  502  0.31027557343E+03  0.86558485696E+03  0.44907527794E+03  0.10233165108E+04  0.25500000920E-02 0. -1.
</event>
<event>
 5   0  0.1239615E-04  0.1849629E+04  0.7818609E-02  0.8680344E-01
       -1   -1    0    0    0  501  0.00000000000E+00  0.00000000000E+00  0.87702483842E+03  0.87702483844E+03  0.50400001928E-02 0. -1.
        1   -1    0    0  501    0  0.00000000000E+00  0.00000000000E+00 -0.97520809799E+03  0.97520809800E+03  0.50400001928E-02 0.  1.
    10030    2    1    2    0    0  0.00000000000E+00  0.00000000000E+00 -0.98183259564E+02  0.18522329364E+04  0.18496288542E+04 0.  0.
        3    1    3    3  502    0  0.38570746606E+03  0.61700342800E+03  0.52251690415E+03  0.89581661341E+03  0.10100000352E+00 0. -1.
       -3    1    3    3    0  502 -0.38570746606E+03 -0.61700342800E+03 -0.62070016371E+03  0.95641632303E+03  0.10100000352E+00 0.  1.
</event>
<event>
 5   0  0.1324058E-04  0.1877763E+04  0.7818609E-02  0.8666005E-01
        1   -1    0    0  501    0  0.00000000000E+00  0.00000000000E+00  0.13393664771E+04  0.13393664772E+04  0.50400001928E-02 0. -1.
       -1   -1    0    0    0  501  0.00000000000E+00  0.00000000000E+00 -0.65814615839E+03  0.65814615841E+03  0.50400001928E-02 0.  1.
    10030    2    1    2    0    0  0.00000000000E+00  0.00000000000E+00  0.68122031875E+03  0.19975126356E+04  0.18777634586E+04 0.  0.
        5    1    3    3  502    0 -0.78980061316E+03  0.56158527329E+02  0.87730199047E+03  0.11817866395E+04  0.46999998093E+01 0. -1.
       -5    1    3    3    0  502  0.78980061316E+03 -0.56158527329E+02 -0.19608167172E+03  0.81572599610E+03  0.46999998093E+01 0.  1.
</event>
<event>
 5   0  0.9266125E-05  0.1925839E+04  0.7818609E-02  0.8642101E-01
       -4   -1    0    0    0  501  0.00000000000E+00  0.00000000000E+00  0.78001012533E+03  0.78001115922E+03  0.12699999809E+01 0. -1.
        4   -1    0    0  501    0  0.00000000000E+00  0.00000000000E+00 -0.11887178912E+04  0.11887185696E+04  0.12699999809E+01 0.  1.
    10030    2    1    2    0    0  0.00000000000E+00  0.00000000000E+00 -0.40870776585E+03  0.19687297288E+04  0.19258387023E+04 0.  0.
        4    1    3    3  502    0  0.10186524356E+03  0.88483510827E+03  0.16972252285E+03  0.90670670249E+03  0.12699999809E+01 0. -1.
       -4    1    3    3    0  502 -0.10186524356E+03 -0.88483510827E+03 -0.57843028870E+03  0.10620230263E+04  0.12699999809E+01 0.  1.
</event>
<event>
 5   0  0.2651828E-04  0.1977601E+04  0.7818609E-02  0.8617165E-01
       -2   -1    0    0    0  501  0.00000000000E+00  0.00000000000E+00  0.84149158752E+03  0.84149158753E+03  0.25500000920E-02 0.  1.
        2   -1    0    0  501    0  0.00000000000E+00  0.00000000000E+00 -0.11618965852E+04  0.11618965852E+04  0.25500000920E-02 0. -1.
    10030    2    1    2    0    0  0.00000000000E+00  0.00000000000E+00 -0.32040499769E+03  0.20033881727E+04  0.19776007707E+04 0.  0.
        3    1    3    3  502    0 -0.68094663599E+03  0.36007492104E+03  0.46786900531E+03  0.90124563031E+03  0.10100000352E+00 0.  1.
       -3    1    3    3    0  502  0.68094663599E+03 -0.36007492104E+03 -0.78827400300E+03  0.11021425424E+04  0.10100000352E+00 0. -1.
</event>
<event>
 5   0  0.9266125E-05  0.1923970E+04  0.7818609E-02  0.8643016E-01
        3   -1    0    0  501    0  0.00000000000E+00  0.00000000000E+00  0.57989872330E+03  0.57989873210E+03  0.10100000352E+00 0.  1.
       -3   -1    0    0    0  501  0.00000000000E+00  0.00000000000E+00 -0.15958213565E+04  0.15958213597E+04  0.10100000352E+00 0. -1.
    10030    2    1    2    0    0  0.00000000000E+00  0.00000000000E+00 -0.10159226332E+04  0.21757200918E+04  0.19239696258E+04 0.  0.
        2    1    3    3  502    0 -0.69577618102E+03 -0.64639786643E+03 -0.33467884324E+03  0.10069481734E+04  0.25500000920E-02 0. -1.
       -2    1    3    3    0  502  0.69577618102E+03  0.64639786643E+03 -0.68124378992E+03  0.11687719183E+04  0.25500000920E-02 0.  1.
</event>
<event>
 5   0  0.2608744E-04  0.1902034E+04  0.7818609E-02  0.8653845E-01
        2   -1    0    0  501    0  0.00000000000E+00  0.00000000000E+00  0.16877139151E+04  0.16877139151E+04  0.25500000920E-02 0. -1.
       -2   -1    0    0    0  501  0.00000000000E+00  0.00000000000E+00 -0.53589234695E+03  0.53589234695E+03  0.25500000920E-02 0.  1.
    10030    2    1    2    0    0  0.00000000000E+00  0.00000000000E+00  0.11518215682E+04  0.22236062621E+04  0.19020336180E+04 0.  0.
        2    1    3    3  502    0 -0.93180612717E+03  0.18453823649E+03  0.62968728791E+03  0.11396592034E+04  0.25500000920E-02 0. -1.
       -2    1    3    3    0  502  0.93180612717E+03 -0.18453823649E+03  0.52213428027E+03  0.10839470587E+04  0.25500000920E-02 0.  1.
</event>
<event>
 5   0  0.1317527E-04  0.1862190E+04  0.7818609E-02  0.8673909E-01
        1   -1    0    0  501    0  0.00000000000E+00  0.00000000000E+00  0.11199209091E+04  0.11199209091E+04  0.50400001928E-02 0.  1.
       -1   -1    0    0    0  501  0.00000000000E+00  0.00000000000E+00 -0.77410648649E+03  0.77410648650E+03  0.50400001928E-02 0. -1.
    10030    2    1    2    0    0  0.00000000000E+00  0.00000000000E+00  0.34581442259E+03  0.18940273956E+04  0.18621901515E+04 0.  0.
        1    1    3    3  502    0  0.22840610439E+03 -0.42921015186E+03 -0.63473884899E+03  0.79955244320E+03  0.50400001928E-02 0. -1.
       -1    1    3    3    0  502 -0.22840610439E+03  0.42921015186E+03  0.98055327158E+03  0.10944749524E+04  0.50400001928E-02 0.  1.
</event>
<event>
 5   0  0.2651828E-04  0.1889878E+04  0.7818609E-02  0.8659911E-01
        2   -1    0    0  501    0  0.00000000000E+00  0.00000000000E+00  0.17061090015E+04  0.17061090015E+04  0.25500000920E-02 0.  1.
       -2   -1    0    0    0  501  0.00000000000E+00  0.00000000000E+00 -0.52336025753E+03  0.52336025754E+03  0.25500000920E-02 0. -1.
    10030    2    1    2    0    0  0.00000000000E+00  0.00000000000E+00  0.11827487440E+04  0.22294692591E+04  0.18898779288E+04 0.  0.
        3    1    3    3  502    0  0.90440023479E+02 -0.93149871236E+03  0.43737907225E+03  0.10330390661E+04  0.10100000352E+00 0. -1.
       -3    1    3    3    0  502 -0.90440023479E+02  0.93149871236E+03  0.74536967175E+03  0.11964301930E+04  0.10100000352E+00 0.  1.
</event>
<event>
 5   0  0.1255141E-04  0.1861777E+04  0.7818609E-02  0.8674120E-01
       -1   -1    0    0    0  501  0.00000000000E+00  0.00000000000E+00  0.94721759225E+03  0.94721759226E+03  0.50400001928E-02 0. -1.
        1   -1    0    0  501    0  0.00000000000E+00  0.00000000000E+00 -0.91484047806E+03  0.91484047808E+03  0.50400001928E-02 0.  1.
    10030    2    1    2    0    0  0.00000000000E+00  0.00000000000E+00  0.32377114185E+02  0.18620580703E+04  0.18617765655E+04 0.  0.
        2    1    3    3  502    0 -0.63038930962E+03  0.45763397983E+03 -0.49352901596E+03  0.92216616224E+03  0.25500000920E-02 0.  1.
       -2    1    3    3    0  502  0.63038930962E+03 -0.45763397983E+03  0.52590613014E+03  0.93989190810E+03  0.25500000920E-02 0. -1.
</event>
<event>
 5   0  0.1239615E-04  0.1786357E+04  0.7818609E-02  0.8713589E-01
       -1   -1    0    0    0  501  0.00000000000E+00  0.00000000000E+00  0.12256058736E+04  0.12256058736E+04  0.50400001928E-02 0.  1.
        1   -1    0    0  501    0  0.00000000000E+00  0.00000000000E+00 -0.65091690091E+03  0.65091690093E+03  0.50400001928E-02 0. -1.
    10030    2    1    2    0    0  0.00000000000E+00  0.00000000000E+00  0.57468897265E+03  0.18765227745E+04  0.17863567135E+04 0.  0.
        3    1    3    3  502    0  0.55922959591E+03  0.21421929134E+03  0.98346929713E+03  0.11514510473E+04  0.10100000352E+00 0.  1.
       -3    1    3    3    0  502 -0.55922959591E+03 -0.21421929134E+03 -0.40878032448E+03  0.72507172721E+03  0.10100000352E+00 0. -1.
</event>
<event>
 5   0  0.1324058E-04  0.1894402E+04  0.7818609E-02  0.8657648E-01
        1   -1    0    0  501    0  0.00000000000E+00  0.00000000000E+00  0.75140876333E+03  0.75140876335E+03  0.50400001928E-02 0.  1.
       -1   -1    0    0    0  501  0.00000000000E+00  0.00000000000E+00 -0.11940096020E+04  0.11940096021E+04  0.50400001928E-02 0. -1.
    10030    2    1    2    0    0  0.00000000000E+00  0.00000000000E+00 -0.44260083871E+03  0.19454183654E+04  0.18944015187E+04 0.  0.
        5    1    3    3  502    0  0.93400764330E+03  0.53281943097E+02 -0.37347314783E+03  0.10073298990E+04  0.46999998093E+01 0. -1.
       -5    1    3    3    0  502 -0.93400764330E+03 -0.53281943097E+02 -0.69127690887E+02  0.93808846643E+03  0.46999998093E+01 0.  1.
</event>
<event>
 5   0  0.1255141E-04  0.1902531E+04  0.7818609E-02  0.8653598E-01
        1   -1    0    0  501    0  0.00000000000E+00  0.00000000000E+00  0.16517877116E+04  0.16517877116E+04  0.50400001928E-02 0. -1.
       -1   -1    0    0    0  501  0.00000000000E+00  0.00000000000E+00 -0.54783429542E+03  0.54783429545E+03  0.50400001928E-02 0.  1.
    10030    2    1    2    0    0  0.00000000000E+00  0.00000000000E+00  0.11039534162E+04  0.21996220070E+04  0.19025309009E+04 0.  0.
        2    1    3    3  502    0 -0.88713883638E+03 -0.33298704749E+03  0.64877855846E+03  0.11483942297E+04  0.25500000920E-02 0. -1.
       -2    1    3    3    0  502  0.88713883638E+03  0.33298704749E+03  0.45517485770E+03  0.10512277774E+04  0.25500000920E-02 0.  1.
</event>
<event>
 5   0  0.2562925E-04  0.1640571E+04  0.7818609E-02  0.8796004E-01
       -2   -1    0    0    0  501  0.00000000000E+00  0.00000000000E+00  0.48995923639E+03  0.48995923639E+03  0.25500000920E-02 0. -1.
        2   -1    0    0  501    0  0.00000000000E+00  0.00000000000E+00 -0.13733146564E+04  0.13733146564E+04  0.25500000920E-02 0.  1.
    10030    2    1    2    0    0  0.00000000000E+00  0.00000000000E+00 -0.88335542005E+03  0.18632738928E+04  0.16405708767E+04 0.  0.
        4    1    3    3  502    0  0.79768009074E+03  0.13153224546E+03 -0.28400780766E+03  0.85688756933E+03  0.12699999809E+01 0.  1.
       -4    1    3    3    0  502 -0.79768009074E+03 -0.13153224546E+03 -0.59934761239E+03  0.10063863235E+04  0.12699999809E+01 0. -1.
</event>
<event>
 5   0  0.1277709E-04  0.1734581E+04  0.7818609E-02  0.8741884E-01
       -1   -1    0    0    0  501  0.00000000000E+00  0.00000000000E+00  0.74221736237E+03  0.74221736239E+03  0.50400001928E-02 0.  1.
        1   -1    0    0  501    0  0.00000000000E+00  0.00000000000E+00 -0.10134403637E+04  0.10134403637E+04  0.50400001928E-02 0. -1.
    10030    2    1    2    0    0  0.00000000000E+00  0.00000000000E+00 -0.27122300134E+03  0.17556577261E+04  0.17345812563E+04 0.  0.
        4    1    3    3  502    0 -0.64928451096E+03  0.14871502437E+03 -0.69779258173E+03  0.96467747702E+03  0.12699999809E+01 0. -1.
       -4    1    3    3    0  502  0.64928451096E+03 -0.14871502437E+03  0.42656958038E+03  0.79098024910E+03  0.12699999809E+01 0.  1.
</event>
<event>
 5   0  0.1324058E-04  0.1898601E+04  0.7818609E-02  0.8655553E-01
        1   -1    0    0  501    0  0.00000000000E+00  0.00000000000E+00  0.78250946461E+03  0.78250946463E+03  0.50400001928E-02 0. -1.
       -1   -1    0    0    0  501  0.00000000000E+00  0.00000000000E+00 -0.11516432030E+04  0.11516432030E+04  0.50400001928E-02 0.  1.
    10030    2    1    2    0    0  0.00000000000E+00  0.00000000000E+00 -0.36913373835E+03  0.19341526676E+04  0.18986012812E+04 0.  0.
        5    1    3    3  502    0  0.80911249393E+03 -0.12109288479E+03 -0.67506271948E+03  0.10606876448E+04  0.46999998093E+01 0.  1.
       -5    1    3    3    0  502 -0.80911249393E+03  0.12109288479E+03  0.30592898113E+03  0.87346502281E+03  0.46999998093E+01 0. -1.
</event>
<event>
 5   0  0.1255141E-04  0.1905091E+04  0.7818609E-02  0.8652326E-01
       -1   -1    0    0    0  501  0.00000000000E+00  0.00000000000E+00  0.13974361467E+04  0.13974361467E+04  0.50400001928E-02 0.  1.
        1   -1    0    0  501    0  0.00000000000E+00  0.00000000000E+00 -0.64929108505E+03  0.64929108507E+03  0.50400001928E-02 0. -1.
    10030    2    1    2    0    0  0.00000000000E+00  0.00000000000E+00  0.74814506162E+03  0.20467272317E+04  0.19050908976E+04 0.  0.
        2    1    3    3  502    0  0.66644528880E+03 -0.67580676646E+03  0.28759784627E+03  0.99175431924E+03  0.25500000920E-02 0.  1.
       -2    1    3    3    0  502 -0.66644528880E+03  0.67580676646E+03  0.46054721535E+03  0.10549729125E+04  0.25500000920E-02 0. -1.
</event>
<event>
 5   0  0.2595012E-04  0.1597218E+04  0.7818609E-02  0.8822259E-01
       -2   -1    0    0    0  501  0.00000000000E+00  0.00000000000E+00  0.64943238847E+03  0.64943238848E+03  0.25500000920E-02 0. -1.
        2   -1    0    0  501    0  0.00000000000E+00  0.00000000000E+00 -0.98205220567E+03  0.98205220567E+03  0.25500000920E-02 0.  1.
    10030    2    1    2    0    0  0.00000000000E+00  0.00000000000E+00 -0.33261981719E+03  0.16314845942E+04  0.15972182187E+04 0.  0.
        1    1    3    3  502    0  0.20094768465E+03 -0.73879907537E+03  0.65657868951E+02  0.76844973909E+03  0.50400001928E-02 0. -1.
       -1    1    3    3    0  502 -0.20094768465E+03  0.73879907537E+03 -0.39827768615E+03  0.86303485506E+03  0.50400001928E-02 0.  1.
</event>
<event>
 5   0  0.2651828E-04  0.1976560E+04  0.7818609E-02  0.8617659E-01
       -2   -1    0    0    0  501  0.00000000000E+00  0.00000000000E+00  0.79979855259E+03  0.79979855259E+03  0.25500000920E-02 0.  1.
        2   -1    0    0  501    0  0.00000000000E+00  0.00000000000E+00 -0.12211790124E+04  0.12211790124E+04  0.25500000920E-02 0. -1.
    10030    2    1    2    0    0  0.00000000000E+00  0.00000000000E+00 -0.42138045977E+03  0.20209775650E+04  0.19765598463E+04 0.  0.
        3    1    3    3  502    0  0.31368949414E+03  0.81772474447E+03  0.25744390120E+03  0.91288127866E+03  0.10100000352E+00 0.  1.
       -3    1    3    3    0  502 -0.31368949414E+03 -0.81772474447E+03 -0.67882436097E+03  0.11080962863E+04  0.10100000352E+00 0. -1.
</event>
<event>
 5   0  0.2651828E-04  0.2038949E+04  0.7818609E-02  0.8588624E-01
       -2   -1    0    0    0  501  0.00000000000E+00  0.00000000000E+00  0.87268924206E+03  0.87268924206E+03  0.25500000920E-02 0.  1.
        2   -1    0    0  501    0  0.00000000000E+00  0.00000000000E+00 -0.11909494135E+04  0.11909494135E+04  0.25500000920E-02 0. -1.
    10030    2    1    2    0    0  0.00000000000E+00  0.00000000000E+00 -0.31826017148E+03  0.20636386556E+04  0.20389494756E+04 0.  0.
        3    1    3    3  502    0  0.14289816921E+03 -0.10070896257E+04 -0.89896150079E+02  0.10211418751E+04  0.10100000352E+00 0.  1.
       -3    1    3    3    0  502 -0.14289816921E+03  0.10070896257E+04 -0.22836402140E+03  0.10424967806E+04  0.10100000352E+00 0. -1.
</event>
<event>
 5   0  0.1277709E-04  0.1877254E+04  0.7818609E-02  0.8666262E-01
        1   -1    0    0  501    0  0.00000000000E+00  0.00000000000E+00  0.11047996049E+04  0.11047996049E+04  0.50400001928E-02 0.  1.
       -1   -1    0    0    0  501  0.00000000000E+00  0.00000000000E+00 -0.79744839762E+03  0.79744839764E+03  0.50400001928E-02 0. -1.
    10030    2    1    2    0    0  0.00000000000E+00  0.00000000000E+00  0.30735120728E+03  0.19022480026E+04  0.18772540315E+04 0.  0.
        4    1    3    3  502    0  0.14818169037E+03  0.62340616634E+03 -0.54133230980E+03  0.83882974681E+03  0.12699999809E+01 0. -1.
       -4    1    3    3    0  502 -0.14818169037E+03 -0.62340616634E+03  0.84868351708E+03  0.10634182557E+04  0.12699999809E+01 0.  1.
</event>
<event>
 5   0  0.2595012E-04  0.1760168E+04  0.7818609E-02  0.8727773E-01
       -2   -1    0    0    0  501  0.00000000000E+00  0.00000000000E+00  0.11358734670E+04  0.11358734670E+04  0.25500000920E-02 0. -1.
        2   -1    0    0  501    0  0.00000000000E+00  0.00000000000E+00 -0.68189599468E+03  0.68189599468E+03  0.25500000920E-02 0.  1.
    10030    2    1    2    0    0  0.00000000000E+00  0.00000000000E+00  0.45397747227E+03  0.18177694616E+04  0.17601676825E+04 0.  0.
        1    1    3    3  502    0  0.14885236771E+03  0.86606257062E+03  0.17718006879E+03  0.89644530251E+03  0.50400001928E-02 0.  1.
       -1    1    3    3    0  502 -0.14885236771E+03 -0.86606257062E+03  0.27679740349E+03  0.92132415913E+03  0.50400001928E-02 0. -1.
</event>
<event>
 5   0  0.1255141E-04  0.1981949E+04  0.7818609E-02  0.8615107E-01
       -1   -1    0    0    0  501  0.00000000000E+00  0.00000000000E+00  0.87760056119E+03  0.87760056120E+03  0.50400001928E-02 0. -1.
        1   -1    0    0  501    0  0.00000000000E+00  0.00000000000E+00 -0.11189953447E+04  0.11189953447E+04  0.50400001928E-02 0.  1.
    10030    2    1    2    0    0  0.00000000000E+00  0.00000000000E+00 -0.24139478353E+03  0.19965959059E+04  0.19819494873E+04 0.  0.
        2    1    3    3  502    0  0.30211158355E+03 -0.93392273368E+03  0.16499575717E+02  0.98171040404E+03  0.25500000920E-02 0. -1.
       -2    1    3    3    0  502 -0.30211158355E+03  0.93392273368E+03 -0.25789435925E+03  0.10148855019E+04  0.25500000920E-02 0.  1.
</event>
<event>
 5   0  0.1239615E-04  0.1908590E+04  0.7818609E-02  0.8650593E-01
       -1   -1    0    0    0  501  0.00000000000E+00  0.00000000000E+00  0.96603631703E+03  0.96603631704E+03  0.50400001928E-02 0. -1.
        1   -1    0    0  501    0  0.00000000000E+00  0.00000000000E+00 -0.94269612119E+03  0.94269612120E+03  0.50400001928E-02 0.  1.
    10030    2    1    2    0    0  0.00000000000E+00  0.00000000000E+00  0.23340195844E+02  0.19087324382E+04  0.19085897296E+04 0.  0.
        3    1    3    3  502    0  0.78091008835E+02 -0.53136971187E+03 -0.77720236066E+03  0.94471979760E+03  0.10100000352E+00 0.  1.
       -3    1    3    3    0  502 -0.78091008835E+02  0.53136971187E+03  0.80054255651E+03  0.96401264065E+03  0.10100000352E+00 0. -1.
</event>
<event>
 5   0  0.1324058E-04  0.1821934E+04  0.7818609E-02  0.8694721E-01
       -1   -1    0    0    0  501  0.00000000000E+00  0.00000000000E+00  0.53968498000E+03  0.53968498002E+03  0.50400001928E-02 0. -1.
        1   -1    0    0  501    0  0.00000000000E+00  0.00000000000E+00 -0.15376766487E+04  0.15376766487E+04  0.50400001928E-02 0.  1.
    10030    2    1    2    0    0  0.00000000000E+00  0.00000000000E+00 -0.99799166865E+03  0.20773616287E+04  0.18219341277E+04 0.  0.
        5    1    3    3  502    0  0.80996869460E+03 -0.82409995066E+02 -0.33050100400E+02  0.81483439584E+03  0.46999998093E+01 0. -1.
       -5    1    3    3    0  502 -0.80996869460E+03  0.82409995066E+02 -0.96494156825E+03  0.12625272328E+04  0.46999998093E+01 0.  1.
</event>
<event>
 5   0  0.2608744E-04  0.1866153E+04  0.7818609E-02  0.8671890E-01
       -2   -1    0    0    0  501  0.00000000000E+00  0.00000000000E+00  0.25771811644E+03  0.25771811646E+03  0.25500000920E-02 0.  1.
        2   -1    0    0  501    0  0.00000000000E+00  0.00000000000E+00 -0.33782309368E+04  0.33782309368E+04  0.25500000920E-02 0. -1.
    10030    2    1    2    0    0  0.00000000000E+00  0.00000000000E+00 -0.31205128203E+04  0.36359490532E+04  0.18661525275E+04 0.  0.
        2    1    3    3  502    0  0.73973857711E+03 -0.38976570908E+03 -0.23671268073E+04  0.25104620675E+04  0.25500000920E-02 0. -1.
       -2    1    3    3    0  502 -0.73973857711E+03  0.38976570908E+03 -0.75338601301E+03  0.11254869857E+04  0.25500000920E-02 0.  1.
</event>
<event>
 5   0  0.2595012E-04  0.1875482E+04  0.7818609E-02  0.8667158E-01
       -2   -1    0    0    0  501  0.00000000000E+00  0.00000000000E+00  0.70490638137E+03  0.70490638137E+03  0.25500000920E-02 0.  1.
        2   -1    0    0  501    0  0.00000000000E+00  0.00000000000E+00 -0.12474820480E+04  0.12474820480E+04  0.25500000920E-02 0. -1.
    10030    2    1    2    0    0  0.00000000000E+00  0.00000000000E+00 -0.54257566664E+03  0.19523884294E+04  0.18754818648E+04 0.  0.
        1    1    3    3  502    0 -0.24218392838E+03 -0.58091042815E+02  0.66984774333E+03  0.71464930119E+03  0.50400001928E-02 0.  1.
       -1    1    3    3    0  502  0.24218392838E+03  0.58091042815E+02 -0.12124234100E+04  0.12377391282E+04  0.50400001928E-02 0. -1.
</event>
<event>
 5   0  0.2541124E-04  0.1711512E+04  0.7818609E-02  0.8754826E-01
       -2   -1    0    0    0  501  0.00000000000E+00  0.00000000000E+00  0.85605606115E+03  0.85605606115E+03  0.25500000920E-02 0. -1.
        2   -1    0    0  501    0  0.00000000000E+00  0.00000000000E+00 -0.85545565687E+03  0.85545565688E+03  0.25500000920E-02 0.  1.
    10030    2    1    2    0    0  0.00000000000E+00  0.00000000000E+00  0.60040427292E+00  0.17115117180E+04  0.17115116127E+04 0.  0.
        5    1    3    3  502    0 -0.67326574100E+03 -0.24449039055E+02 -0.52734686823E+03  0.85557075858E+03  0.46999998093E+01 0.  1.
       -5    1    3    3    0  502  0.67326574100E+03  0.24449039055E+02  0.52794727250E+03  0.85594095944E+03  0.46999998093E+01 0. -1.
</event>
<event>
 5   0  0.1255141E-04  0.1913728E+04  0.7818609E-02  0.8648053E-01
       -1   -1    0    0    0  501  0.00000000000E+00  0.00000000000E+00  0.17390481816E+04  0.17390481816E+04  0.50400001928E-02 0.  1.
        1   -1    0    0  501    0  0.00000000000E+00  0.00000000000E+00 -0.52648860047E+03  0.52648860050E+03  0.50400001928E-02 0. -1.
    10030    2    1    2    0    0  0.00000000000E+00  0.00000000000E+00  0.12125595811E+04  0.22655367821E+04  0.19137283437E+04 0.  0.
        2    1    3    3  502    0 -0.72355987831E+03 -0.31040201115E+03  0.12500294794E+04  0.14773158110E+04  0.25500000920E-02 0. -1.
       -2    1    3    3    0  502  0.72355987831E+03  0.31040201115E+03 -0.37469898278E+02  0.78822097112E+03  0.25500000920E-02 0.  1.
</event>
<event>
 5   0  0.2562925E-04  0.1893298E+04  0.7818609E-02  0.8658200E-01
        2   -1    0    0  501    0  0.00000000000E+00  0.00000000000E+00  0.12573222990E+04  0.12573222990E+04  0.25500000920E-02 0.  1.
       -2   -1    0    0    0  501  0.00000000000E+00  0.00000000000E+00 -0.71274009043E+03  0.71274009044E+03  0.25500000920E-02 0. -1.
    10030    2    1    2    0    0  0.00000000000E+00  0.00000000000E+00  0.54458220853E+03  0.19700623894E+04  0.18932976618E+04 0.  0.
        4    1    3    3  502    0  0.91582249290E+03  0.75867074568E+02  0.50878525012E+03  0.10504050148E+04  0.12699999809E+01 0. -1.
       -4    1    3    3    0  502 -0.91582249290E+03 -0.75867074568E+02  0.35796958411E+02  0.91965737459E+03  0.12699999809E+01 0.  1.
</event>
<event>
 5   0  0.2595012E-04  0.1637193E+04  0.7818609E-02  0.8798019E-01
        2   -1    0    0  501    0  0.00000000000E+00  0.00000000000E+00  0.36260072658E+04  0.36260072658E+04  0.25500000920E-02 0. -1.
       -2   -1    0    0    0  501  0.00000000000E+00  0.00000000000E+00 -0.18480387947E+03  0.18480387949E+03  0.25500000920E-02 0.  1.
    10030    2    1    2    0    0  0.00000000000E+00  0.00000000000E+00  0.34412033864E+04  0.38108111453E+04  0.16371929755E+04 0.  0.
        1    1    3    3  502    0  0.23613453893E+02  0.37323554702E+03  0.34155361680E+04  0.34359496044E+04  0.50400001928E-02 0. -1.
       -1    1    3    3    0  502 -0.23613453893E+02 -0.37323554702E+03  0.25667218360E+02  0.37486154096E+03  0.50400001928E-02 0.  1.
</event>
<event>
 5   0  0.1317527E-04  0.1920613E+04  0.7818609E-02  0.8644663E-01
        1   -1    0    0  501    0  0.00000000000E+00  0.00000000000E+00  0.21360332308E+04  0.21360332308E+04  0.50400001928E-02 0. -1.
       -1   -1    0    0    0  501  0.00000000000E+00  0.00000000000E+00 -0.43172954588E+03  0.43172954591E+03  0.50400001928E-02 0.  1.
    10030    2    1    2    0    0  0.00000000000E+00  0.00000000000E+00  0.17043036849E+04  0.25677627767E+04  0.19206130862E+04 0.  0.
        1    1    3    3  502    0 -0.27581178010E+03 -0.84173477932E+03  0.35621910220E+03  0.95471546838E+03  0.50400001928E-02 0.  1.
       -1    1    3    3    0  502  0.27581178010E+03  0.84173477932E+03  0.13480845827E+04  0.16130473083E+04  0.50400001928E-02 0. -1.
</event>
<event>
 5   0  0.1324058E-04  0.1882428E+04  0.7818609E-02  0.8663653E-01
       -1   -1    0    0    0  501  0.00000000000E+00  0.00000000000E+00  0.12326804569E+04  0.12326804569E+04  0.50400001928E-02 0.  1.
        1   -1    0    0  501    0  0.00000000000E+00  0.00000000000E+00 -0.71866481438E+03  0.71866481440E+03  0.50400001928E-02 0. -1.
    10030    2    1    2    0    0  0.00000000000E+00  0.00000000000E+00  0.51401564252E+03  0.19513452713E+04  0.18824282953E+04 0.  0.
        5    1    3    3  502    0 -0.79832734529E+03  0.32542515987E+03  0.64850357135E+03  0.10787988955E+04  0.46999998093E+01 0.  1.
       -5    1    3    3    0  502  0.79832734529E+03 -0.32542515987E+03 -0.13448792883E+03  0.87254637579E+03  0.46999998093E+01 0. -1.
</event>
<event>
 5   0  0.2541124E-04  0.1882717E+04  0.7818609E-02  0.8663507E-01
       -2   -1    0    0    0  501  0.00000000000E+00  0.00000000000E+00  0.91533363662E+03  0.91533363662E+03  0.25500000920E-02 0. -1.
        2   -1    0    0  501    0  0.00000000000E+00  0.00000000000E+00 -0.96812337396E+03  0.96812337396E+03  0.25500000920E-02 0.  1.
    10030    2    1    2    0    0  0.00000000000E+00  0.00000000000E+00 -0.52789737339E+02  0.18834570106E+04  0.18827170670E+04 0.  0.
        5    1    3    3  502    0  0.79708362597E+03 -0.11263821439E+03  0.46175605075E+03  0.92804655838E+03  0.46999998093E+01 0. -1.
       -5    1    3    3    0  502 -0.79708362597E+03  0.11263821439E+03 -0.51454578809E+03  0.95541045220E+03  0.46999998093E+01 0.  1.
</event>
<event>
 5   0  0.2541124E-04  0.1714372E+04  0.7818609E-02  0.8753210E-01
       -2   -1    0    0    0  501  0.00000000000E+00  0.00000000000E+00  0.84509840705E+03  0.84509840705E+03  0.25500000920E-02 0. -1.
        2   -1    0    0  501    0  0.00000000000E+00  0.00000000000E+00 -0.86944598861E+03  0.86944598861E+03  0.25500000920E-02 0.  1.
    10030    2    1    2    0    0  0.00000000000E+00  0.00000000000E+00 -0.24347581562E+02  0.17145443957E+04  0.17143715117E+04 0.  0.
        5    1    3    3  502    0  0.54876668065E+03  0.27699181127E+03  0.58527744396E+03  0.84878802402E+03  0.46999998093E+01 0. -1.
       -5    1    3    3    0  502 -0.54876668065E+03 -0.27699181127E+03 -0.60962502552E+03  0.86575637165E+03  0.46999998093E+01 0.  1.
</event>
<event>
 5   0  0.2541124E-04  0.1887250E+04  0.7818609E-02  0.8661229E-01
       -2   -1    0    0    0  501  0.00000000000E+00  0.00000000000E+00  0.15393438603E+04  0.15393438603E+04  0.25500000920E-02 0. -1.
        2   -1    0    0  501    0  0.00000000000E+00  0.00000000000E+00 -0.57844671799E+03  0.57844671800E+03  0.25500000920E-02 0.  1.
    10030    2    1    2    0    0  0.00000000000E+00  0.00000000000E+00  0.96089714235E+03  0.21177905783E+04  0.18872502790E+04 0.  0.
        5    1    3    3  502    0 -0.13039957123E+03  0.71102360558E+03 -0.20014451803E+03  0.75009235029E+03  0.46999998093E+01 0.  1.
       -5    1    3    3    0  502  0.13039957123E+03 -0.71102360558E+03  0.11610416604E+04  0.13676982281E+04  0.46999998093E+01 0. -1.
</event>
<event>
 5   0  0.2562925E-04  0.1913463E+04  0.7818609E-02  0.8648184E-01
        2   -1    0    0  501    0  0.00000000000E+00  0.00000000000E+00  0.18920107450E+04  0.18920107450E+04  0.25500000920E-02 0. -1.
       -2   -1    0    0    0  501  0.00000000000E+00  0.00000000000E+00 -0.48378951467E+03  0.48378951468E+03  0.25500000920E-02 0.  1.
    10030    2    1    2    0    0  0.00000000000E+00  0.00000000000E+00  0.14082212303E+04  0.23758002597E+04  0.19134627878E+04 0.  0.
        4    1    3    3  502    0 -0.26401970955E+03  0.44114240002E+03 -0.29770357263E+03  0.59408926449E+03  0.12699999809E+01 0.  1.
       -4    1    3    3    0  502  0.26401970955E+03 -0.44114240002E+03  0.17059248030E+04  0.17817109952E+04  0.12699999809E+01 0. -1.
</event>
<event>
 5   0  0.2562925E-04  0.1855065E+04  0.7818609E-02  0.8677553E-01
       -2   -1    0    0    0  501  0.00000000000E+00  0.00000000000E+00  0.11627692324E+04  0.11627692324E+04  0.25500000920E-02 0.  1.
        2   -1    0    0  501    0  0.00000000000E+00  0.00000000000E+00 -0.73988562644E+03  0.73988562645E+03  0.25500000920E-02 0. -1.
    10030    2    1    2    0    0  0.00000000000E+00  0.00000000000E+00  0.42288360595E+03  0.19026548588E+04  0.18550646802E+04 0.  0.
        4    1    3    3  502    0  0.58591131160E+03  0.58584118191E+03 -0.21616211689E+03  0.85628828624E+03  0.12699999809E+01 0. -1.
       -4    1    3    3    0  502 -0.58591131160E+03 -0.58584118191E+03  0.63904572284E+03  0.10463665726E+04  0.12699999809E+01 0.  1.
</event>
<event>
 5   0  0.1324058E-04  0.1895954E+04  0.7818609E-02  0.8656873E-01
        1   -1    0    0  501    0  0.00000000000E+00  0.00000000000E+00  0.94970428440E+03  0.94970428442E+03  0.50400001928E-02 0. -1.
       -1   -1    0    0    0  501  0.00000000000E+00  0.00000000000E+00 -0.94625313293E+03  0.94625313294E+03  0.50400001928E-02 0.  1.
    10030    2    1    2    0    0  0.00000000000E+00  0.00000000000E+00  0.34511514708E+01  0.18959574174E+04  0.18959542763E+04 0.  0.
        5    1    3    3  502    0  0.54932539942E+03  0.13734339548E+03 -0.75854995127E+03  0.94659480312E+03  0.46999998093E+01 0.  1.
       -5    1    3    3    0  502 -0.54932539942E+03 -0.13734339548E+03  0.76200110274E+03  0.94936261424E+03  0.46999998093E+01 0. -1.
</event>
<event>
 5   0  0.2651828E-04  0.1888469E+04  0.7818609E-02  0.8660617E-01
        2   -1    0    0  501    0  0.00000000000E+00  0.00000000000E+00  0.60938701892E+03  0.60938701893E+03  0.25500000920E-02 0. -1.
       -2   -1    0    0    0  501  0.00000000000E+00  0.00000000000E+00 -0.14630753211E+04  0.14630753212E+04  0.25500000920E-02 0.  1.
    10030    2    1    2    0    0  0.00000000000E+00  0.00000000000E+00 -0.85368830223E+03  0.20724623401E+04  0.18884693362E+04 0.  0.
        3    1    3    3  502    0  0.65171450444E+03  0.63487492759E+00 -0.11766761151E+04  0.13451018134E+04  0.10100000352E+00 0.  1.
       -3    1    3    3    0  502 -0.65171450444E+03 -0.63487492759E+00  0.32298781284E+03  0.72736052671E+03  0.10100000352E+00 0. -1.
</event>
<event>
 5   0  0.2608744E-04  0.1857888E+04  0.7818609E-02  0.8676107E-01
       -2   -1    0    0    0  501  0.00000000000E+00  0.00000000000E+00  0.70194616831E+03  0.70194616832E+03  0.25500000920E-02 0.  1.
        2   -1    0    0  501    0  0.00000000000E+00  0.00000000000E+00 -0.12293496352E+04  0.12293496352E+04  0.25500000920E-02 0. -1.
    10030    2    1    2    0    0  0.00000000000E+00  0.00000000000E+00 -0.52740346692E+03  0.19312958036E+04  0.18578883346E+04 0.  0.
        2    1    3    3  502    0 -0.25063271073E+03 -0.32036094073E+02  0.66553886943E+03  0.71188837169E+03  0.25500000920E-02 0.  1.
       -2    1    3    3    0  502  0.25063271073E+03  0.32036094073E+02 -0.11929423364E+04  0.12194074319E+04  0.25500000920E-02 0. -1.
</event>
<event>
 5   0  0.1239615E-04  0.1871666E+04  0.7818609E-02  0.8669090E-01
       -1   -1    0    0    0  501  0.00000000000E+00  0.00000000000E+00  0.80091305346E+03  0.80091305347E+03  0.50400001928E-02 0. -1.
        1   -1    0    0  501    0  0.00000000000E+00  0.00000000000E+00 -0.10934818139E+04  0.10934818139E+04  0.50400001928E-02 0.  1.
    10030    2    1    2    0    0  0.00000000000E+00  0.00000000000E+00 -0.29256876045E+03  0.18943948674E+04  0.18716664858E+04 0.  0.
        3    1    3    3  502    0  0.69561147793E+03  0.56439020362E+03 -0.42044676475E+03  0.98953884329E+03  0.10100000352E+00 0. -1.
       -3    1    3    3    0  502 -0.69561147793E+03 -0.56439020362E+03  0.12787800430E+03  0.90485602411E+03  0.10100000352E+00 0.  1.
</event>
<event>
 5   0  0.2541124E-04  0.1976759E+04  0.7818609E-02  0.8617564E-01
       -2   -1    0    0    0  501  0.00000000000E+00  0.00000000000E+00  0.91629636762E+03  0.91629636763E+03  0.25500000920E-02 0. -1.
        2   -1    0    0  501    0  0.00000000000E+00  0.00000000000E+00 -0.10661333799E+04  0.10661333799E+04  0.25500000920E-02 0.  1.
    10030    2    1    2    0    0  0.00000000000E+00  0.00000000000E+00 -0.14983701232E+03  0.19824297476E+04  0.19767591087E+04 0.  0.
        5    1    3    3  502    0  0.15478746372E+03 -0.95512563057E+03  0.12727315678E+03  0.97593272080E+03  0.46999998093E+01 0. -1.
       -5    1    3    3    0  502 -0.15478746372E+03  0.95512563057E+03 -0.27711016910E+03  0.10064970268E+04  0.46999998093E+01 0.  1.
</event>
<event>
 5   0  0.2608744E-04  0.1917768E+04  0.7818609E-02  0.8646063E-01
       -2   -1    0    0    0  501  0.00000000000E+00  0.00000000000E+00  0.46585902101E+03  0.46585902102E+03  0.25500000920E-02 0. -1.
        2   -1    0    0  501    0  0.00000000000E+00  0.00000000000E+00 -0.19736832787E+04  0.19736832787E+04  0.25500000920E-02 0.  1.
    10030    2    1    2    0    0  0.00000000000E+00  0.00000000000E+00 -0.15078242577E+04  0.24395422997E+04  0.19177676189E+04 0.  0.
        2    1    3    3  502    0 -0.48521547709E+03 -0.26165719003E+03  0.24412668500E+03  0.60290661187E+03  0.25500000920E-02 0. -1.
       -2    1    3    3    0  502  0.48521547709E+03  0.26165719003E+03 -0.17519509427E+04  0.18366356878E+04  0.25500000920E-02 0.  1.
</event>
<event>
 5   0  0.1317527E-04  0.1892067E+04  0.7818609E-02  0.8658815E-01
       -1   -1    0    0    0  501  0.00000000000E+00  0.00000000000E+00  0.80245890411E+03  0.80245890412E+03  0.50400001928E-02 0.  1.
        1   -1    0    0  501    0  0.00000000000E+00  0.00000000000E+00 -0.11152961371E+04  0.11152961371E+04  0.50400001928E-02 0. -1.
    10030    2    1    2    0    0  0.00000000000E+00  0.00000000000E+00 -0.31283723301E+03  0.19177550413E+04  0.18920669290E+04 0.  0.
        1    1    3    3  502    0 -0.56388663603E+03  0.18008032348E+03 -0.90439585312E+03  0.10808926498E+04  0.50400001928E-02 0. -1.
       -1    1    3    3    0  502  0.56388663603E+03 -0.18008032348E+03  0.59155862011E+03  0.83686239147E+03  0.50400001928E-02 0.  1.
</event>
<event>
 5   0  0.2541124E-04  0.1910129E+04  0.7818609E-02  0.8649831E-01
        2   -1    0    0  501    0  0.00000000000E+00  0.00000000000E+00  0.90997926386E+03  0.90997926386E+03  0.25500000920E-02 0. -1.
       -2   -1    0    0    0  501  0.00000000000E+00  0.00000000000E+00 -0.10023833842E+04  0.10023833842E+04  0.25500000920E-02 0.  1.
    10030    2    1    2    0    0  0.00000000000E+00  0.00000000000E+00 -0.92404120330E+02  0.19123626481E+04  0.19101288900E+04 0.  0.
        5    1    3    3  502    0 -0.59367154211E+03 -0.74524433005E+03  0.19380213057E+02  0.95301243121E+03  0.46999998093E+01 0.  1.
       -5    1    3    3    0  502  0.59367154211E+03  0.74524433005E+03 -0.11178433339E+03  0.95935021685E+03  0.46999998093E+01 0. -1.
</event>
<event>
 5   0  0.9266125E-05  0.1901674E+04  0.7818609E-02  0.8654024E-01
       -4   -1    0    0    0  501  0.00000000000E+00  0.00000000000E+00  0.15218237170E+04  0.15218242469E+04  0.12699999809E+01 0.  1.
        4   -1    0    0  501    0  0.00000000000E+00  0.00000000000E+00 -0.59408243687E+03  0.59408379434E+03  0.12699999809E+01 0. -1.
    10030    2    1    2    0    0  0.00000000000E+00  0.00000000000E+00  0.92774128013E+03  0.21159080413E+04  0.19016737250E+04 0.  0.
        4    1    3    3  502    0  0.16642569961E+03 -0.15239114246E+03 -0.56385739249E+03  0.60733627073E+03  0.12699999809E+01 0. -1.
       -4    1    3    3    0  502 -0.16642569961E+03  0.15239114246E+03  0.14915986726E+04  0.15085717705E+04  0.12699999809E+01 0.  1.
</event>
<event>
 5   0  0.2651828E-04  0.1864963E+04  0.7818609E-02  0.8672496E-01
        2   -1    0    0  501    0  0.00000000000E+00  0.00000000000E+00  0.45027691795E+03  0.45027691796E+03  0.25500000920E-02 0. -1.
       -2   -1    0    0    0  501  0.00000000000E+00  0.00000000000E+00 -0.19310815485E+04  0.19310815485E+04  0.25500000920E-02 0.  1.
    10030    2    1    2    0    0  0.00000000000E+00  0.00000000000E+00 -0.14808046305E+04  0.23813584665E+04  0.18649626784E+04 0.  0.
        3    1    3    3  502    0 -0.49503045853E+03  0.65086696185E+03 -0.16816247144E+03  0.83484225091E+03  0.10100000352E+00 0. -1.
       -3    1    3    3    0  502  0.49503045853E+03 -0.65086696185E+03 -0.13126421591E+04  0.15465162155E+04  0.10100000352E+00 0.  1.
</event>
<event>
 5   0  0.1255141E-04  0.1912170E+04  0.7818609E-02  0.8648822E-01
        1   -1    0    0  501    0  0.00000000000E+00  0.00000000000E+00  0.95153425256E+03  0.95153425257E+03  0.50400001928E-02 0.  1.
       -1   -1    0    0    0  501  0.00000000000E+00  0.00000000000E+00 -0.96065773839E+03  0.96065773840E+03  0.50400001928E-02 0. -1.
    10030    2    1    2    0    0  0.00000000000E+00  0.00000000000E+00 -0.91234858295E+01  0.19121919910E+04  0.19121702258E+04 0.  0.
        2    1    3    3  502    0 -0.39304637361E+03  0.39606850310E+03  0.77181236381E+03  0.95239174497E+03  0.25500000920E-02 0.  1.
       -2    1    3    3    0  502  0.39304637361E+03 -0.39606850310E+03 -0.78093584964E+03  0.95980024600E+03  0.25500000920E-02 0. -1.
</event>
<event>
 5   0  0.1324058E-04  0.1885235E+04  0.7818609E-02  0.8662241E-01
       -1   -1    0    0    0  501  0.00000000000E+00  0.00000000000E+00  0.68143252989E+03  0.68143252991E+03  0.50400001928E-02 0. -1.
        1   -1    0    0  501    0  0.00000000000E+00  0.00000000000E+00 -0.13039112331E+04  0.13039112331E+04  0.50400001928E-02 0.  1.
    10030    2    1    2    0    0  0.00000000000E+00  0.00000000000E+00 -0.62247870320E+03  0.19853437630E+04  0.18852347656E+04 0.  0.
        5    1    3    3  502    0  0.49342100901E+03 -0.28243307329E+03 -0.11030097930E+04  0.12409212007E+04  0.46999998093E+01 0.  1.
       -5    1    3    3    0  502 -0.49342100901E+03  0.28243307329E+03  0.48053108976E+03  0.74442256229E+03  0.46999998093E+01 0. -1.
</event>
<event>
 5   0  0.2608744E-04  0.1922509E+04  0.7818609E-02  0.8643733E-01
       -2   -1    0    0    0  501  0.00000000000E+00  0.00000000000E+00  0.88343083204E+03  0.88343083204E+03  0.25500000920E-02 0. -1.
        2   -1    0    0  501    0  0.00000000000E+00  0.00000000000E+00 -0.10459339758E+04  0.10459339758E+04  0.25500000920E-02 0.  1.
    10030    2    1    2    0    0  0.00000000000E+00  0.00000000000E+00 -0.16250314375E+03  0.19293648078E+04  0.19225091131E+04 0.  0.
        2    1    3    3  502    0 -0.35738236890E+03  0.40121276412E+03  0.71865820862E+03  0.89730901060E+03  0.25500000920E-02 0. -1.
       -2    1    3    3    0  502  0.35738236890E+03 -0.40121276412E+03 -0.88116135237E+03  0.10320557972E+04  0.25500000920E-02 0.  1.
</event>
<event>
 5   0  0.2595012E-04  0.1916179E+04  0.7818609E-02  0.8646845E-01
        2   -1    0    0  501    0  0.00000000000E+00  0.00000000000E+00  0.11061076533E+04  0.11061076533E+04  0.25500000920E-02 0.  1.
       -2   -1    0    0    0  501  0.00000000000E+00  0.00000000000E+00 -0.82987905452E+03  0.82987905452E+03  0.25500000920E-02 0. -1.
    10030    2    1    2    0    0  0.00000000000E+00  0.00000000000E+00  0.27622859876E+03  0.19359867078E+04  0.19161790871E+04 0.  0.
        1    1    3    3  502    0  0.38262629986E+03  0.72767908423E+03 -0.35892207148E+03  0.89707568711E+03  0.50400001928E-02 0. -1.
       -1    1    3    3    0  502 -0.38262629986E+03 -0.72767908423E+03  0.63515067024E+03  0.10389110207E+04  0.50400001928E-02 0.  1.
</event>
<event>
 5   0  0.1277709E-04  0.1899595E+04  0.7818609E-02  0.8655058E-01
       -1   -1    0    0    0  501  0.00000000000E+00  0.00000000000E+00  0.77299094775E+03  0.77299094776E+03  0.50400001928E-02 0. -1.
        1   -1    0    0  501    0  0.00000000000E+00  0.00000000000E+00 -0.11670454334E+04  0.11670454334E+04  0.50400001928E-02 0.  1.
    10030    2    1    2    0    0  0.00000000000E+00  0.00000000000E+00 -0.39405448565E+03  0.19400363812E+04  0.18995952786E+04 0.  0.
        4    1    3    3  502    0 -0.43611850017E+03  0.32907594728E+03 -0.99049978843E+03  0.11311860011E+04  0.12699999809E+01 0.  1.
       -4    1    3    3    0  502  0.43611850017E+03 -0.32907594728E+03  0.59644530277E+03  0.80885038009E+03  0.12699999809E+01 0. -1.
</event>
<event>
 5   0  0.1239615E-04  0.1915365E+04  0.7818609E-02  0.8647246E-01
        1   -1    0    0  501    0  0.00000000000E+00  0.00000000000E+00  0.13880834359E+04  0.13880834359E+04  0.50400001928E-02 0.  1.
       -1   -1    0    0    0  501  0.00000000000E+00  0.00000000000E+00 -0.66073521112E+03  0.66073521114E+03  0.50400001928E-02 0. -1.
    10030    2    1    2    0    0  0.00000000000E+00  0.00000000000E+00  0.72734822478E+03  0.20488186471E+04  0.19153648238E+04 0.  0.
        3    1    3    3  502    0  0.74897077802E+03  0.33203316300E+03  0.89416446958E+03  0.12127379587E+04  0.10100000352E+00 0.  1.
       -3    1    3    3    0  502 -0.74897077802E+03 -0.33203316300E+03 -0.16681624480E+03  0.83608068833E+03  0.10100000352E+00 0. -1.
</event>
<event>
 5   0  0.2608744E-04  0.1871680E+04  0.7818609E-02  0.8669083E-01
        2   -1    0    0  501    0  0.00000000000E+00  0.00000000000E+00  0.17840456364E+04  0.17840456364E+04  0.25500000920E-02 0.  1.
       -2   -1    0    0    0  501  0.00000000000E+00  0.00000000000E+00 -0.49090484789E+03  0.49090484789E+03  0.25500000920E-02 0. -1.
    10030    2    1    2    0    0  0.00000000000E+00  0.00000000000E+00  0.12931407885E+04  0.22749504843E+04  0.18716801562E+04 0.  0.
        2    1    3    3  502    0 -0.24812632401E+03  0.66560595270E+03  0.13871018873E+04  0.15584125265E+04  0.25500000920E-02 0. -1.
       -2    1    3    3    0  502  0.24812632401E+03 -0.66560595270E+03 -0.93961098763E+02  0.71653795784E+03  0.25500000920E-02 0.  1.
</event>
<event>
 5   0  0.1239615E-04  0.1911187E+04  0.7818609E-02  0.8649308E-01
        1   -1    0    0  501    0  0.00000000000E+00  0.00000000000E+00  0.61737036033E+03  0.61737036035E+03  0.50400001928E-02 0.  1.
       -1   -1    0    0    0  501  0.00000000000E+00  0.00000000000E+00 -0.14791099825E+04  0.14791099825E+04  0.50400001928E-02 0. -1.
    10030    2    1    2    0    0  0.00000000000E+00  0.00000000000E+00 -0.86173962217E+03  0.20964803429E+04  0.19111867129E+04 0.  0.
        3    1    3    3  502    0 -0.37014734703E+03  0.61542154772E+03 -0.11223899613E+04  0.13324833865E+04  0.10100000352E+00 0. -1.
       -3    1    3    3    0  502  0.37014734703E+03 -0.61542154772E+03  0.26065033908E+03  0.76399695639E+03  0.10100000352E+00 0.  1.
</event>
<event>
 5   0  0.1317527E-04  0.1695109E+04  0.7818609E-02  0.8764159E-01
       -1   -1    0    0    0  501  0.00000000000E+00  0.00000000000E+00  0.10356199496E+04  0.10356199496E+04  0.50400001928E-02 0.  1.
        1   -1    0    0  501    0  0.00000000000E+00  0.00000000000E+00 -0.69364085288E+03  0.69364085289E+03  0.50400001928E-02 0. -1.
    10030    2    1    2    0    0  0.00000000000E+00  0.00000000000E+00  0.34197909672E+03  0.17292608025E+04  0.16951086161E+04 0.  0.
        1    1    3    3  502    0 -0.81963807426E+03  0.13437093978E+03  0.34316851415E+03  0.89868056136E+03  0.50400001928E-02 0.  1.
       -1    1    3    3    0  502  0.81963807426E+03 -0.13437093978E+03 -0.11894174276E+01  0.83058024114E+03  0.50400001928E-02 0. -1.
</event>
<event>
 5   0  0.1255141E-04  0.1945519E+04  0.7818609E-02  0.8632524E-01
       -1   -1    0    0    0  501  0.00000000000E+00  0.00000000000E+00  0.38370516381E+03  0.38370516384E+03  0.50400001928E-02 0.  1.
        1   -1    0    0  501    0  0.00000000000E+00  0.00000000000E+00 -0.24661162093E+04  0.24661162093E+04  0.50400001928E-02 0. -1.
    10030    2    1    2    0    0  0.00000000000E+00  0.00000000000E+00 -0.20824110454E+04  0.28498213731E+04  0.19455194927E+04 0.  0.
        2    1    3    3  502    0 -0.69963531895E+03  0.55170350951E+03 -0.46937455438E+03  0.10070644539E+04  0.25500000920E-02 0. -1.
       -2    1    3    3    0  502  0.69963531895E+03 -0.55170350951E+03 -0.16130364911E+04  0.18427569192E+04  0.25500000920E-02 0.  1.
</event>
<event>
 5   0  0.2562925E-04  0.1900886E+04  0.7818609E-02  0.8654415E-01
        2   -1    0    0  501    0  0.00000000000E+00  0.00000000000E+00  0.20383838948E+04  0.20383838948E+04  0.25500000920E-02 0.  1.
       -2   -1    0    0    0  501  0.00000000000E+00  0.00000000000E+00 -0.44316579599E+03  0.44316579600E+03  0.25500000920E-02 0. -1.
    10030    2    1    2    0    0  0.00000000000E+00  0.00000000000E+00  0.15952180988E+04  0.24815496908E+04  0.19008861316E+04 0.  0.
        4    1    3    3  502    0  0.24877528517E+03 -0.67710171353E+03  0.16055088347E+04  0.17601182075E+04  0.12699999809E+01 0.  1.
       -4    1    3    3    0  502 -0.24877528517E+03  0.67710171353E+03 -0.10290735935E+02  0.72143148332E+03  0.12699999809E+01 0. -1.
</event>
<event>
 5   0  0.9266125E-05  0.1848653E+04  0.7818609E-02  0.8680846E-01
        4   -1    0    0  501    0  0.00000000000E+00  0.00000000000E+00  0.12184401899E+04  0.12184408517E+04  0.12699999809E+01 0. -1.
       -4   -1    0    0    0  501  0.00000000000E+00  0.00000000000E+00 -0.70120602098E+03  0.70120717107E+03  0.12699999809E+01 0.  1.
    10030    2    1    2    0    0  0.00000000000E+00  0.00000000000E+00  0.51723416888E+03  0.19196480228E+04  0.18486528463E+04 0.  0.
        3    1    3    3  502    0  0.73653704037E+03  0.16059344418E+03 -0.29680978630E+03  0.81016857851E+03  0.10100000352E+00 0.  1.
       -3    1    3    3    0  502 -0.73653704037E+03 -0.16059344418E+03  0.81404395519E+03  0.11094794443E+04  0.10100000352E+00 0. -1.
</event>
<event>
 5   0  0.2562925E-04  0.1837391E+04  0.7818609E-02  0.8686664E-01
        2   -1    0    0  501    0  0.00000000000E+00  0.00000000000E+00  0.30195449514E+04  0.30195449514E+04  0.25500000920E-02 0. -1.
       -2   -1    0    0    0  501  0.00000000000E+00  0.00000000000E+00 -0.27951275979E+03  0.27951275980E+03  0.25500000920E-02 0.  1.
    10030    2    1    2    0    0  0.00000000000E+00  0.00000000000E+00  0.27400321917E+04  0.32990577112E+04  0.18373909140E+04 0.  0.
        4    1    3    3  502    0 -0.70958419788E+03  0.27987358459E+03  0.45068446573E+03  0.88597802330E+03  0.12699999809E+01 0.  1.
       -4    1    3    3    0  502  0.70958419788E+03 -0.27987358459E+03  0.22893477259E+04  0.24130796879E+04  0.12699999809E+01 0. -1.
</event>
<event>
 5   0  0.2595012E-04  0.1880470E+04  0.7818609E-02  0.8664639E-01
       -2   -1    0    0    0  501  0.00000000000E+00  0.00000000000E+00  0.78164555174E+03  0.78164555175E+03  0.25500000920E-02 0.  1.
        2   -1    0    0  501    0  0.00000000000E+00  0.00000000000E+00 -0.11310010587E+04  0.11310010587E+04  0.25500000920E-02 0. -1.
    10030    2    1    2    0    0  0.00000000000E+00  0.00000000000E+00 -0.34935550694E+03  0.19126466104E+04  0.18804700971E+04 0.  0.
        1    1    3    3  502    0 -0.20790655066E+03  0.60608737555E+03 -0.87454680071E+03  0.10841582667E+04  0.50400001928E-02 0. -1.
       -1    1    3    3    0  502  0.20790655066E+03 -0.60608737555E+03  0.52519129377E+03  0.82848834373E+03  0.50400001928E-02 0.  1.
</event>
<event>
 5   0  0.9266125E-05  0.1888435E+04  0.7818609E-02  0.8660635E-01
       -4   -1    0    0    0  501  0.00000000000E+00  0.00000000000E+00  0.64472754296E+03  0.64472879380E+03  0.12699999809E+01 0.  1.
        4   -1    0    0  501    0  0.00000000000E+00  0.00000000000E+00 -0.13828237058E+04  0.13828242890E+04  0.12699999809E+01 0. -1.
    10030    2    1    2    0    0  0.00000000000E+00  0.00000000000E+00 -0.73809616286E+03  0.20275530828E+04  0.18884346846E+04 0.  0.
        2    1    3    3  502    0  0.65263277980E+03  0.19514409485E+03 -0.10710792914E+04  0.12693390451E+04  0.25500000920E-02 0. -1.
       -2    1    3    3    0  502 -0.65263277980E+03 -0.19514409485E+03  0.33298312854E+03  0.75821403767E+03  0.25500000920E-02 0.  1.
</event>
<event>
 5   0  0.2651828E-04  0.1956322E+04  0.7818609E-02  0.8627318E-01
       -2   -1    0    0    0  501  0.00000000000E+00  0.00000000000E+00  0.71934179402E+03  0.71934179402E+03  0.25500000920E-02 0. -1.
        2   -1    0    0  501    0  0.00000000000E+00  0.00000000000E+00 -0.13301028178E+04  0.13301028178E+04  0.25500000920E-02 0.  1.
    10030    2    1    2    0    0  0.00000000000E+00  0.00000000000E+00 -0.61076102380E+03  0.20494446118E+04  0.19563215965E+04 0.  0.
        3    1    3    3  502    0  0.33774015616E+03  0.16660371263E+03 -0.12511115312E+04  0.13065623919E+04  0.10100000352E+00 0.  1.
       -3    1    3    3    0  502 -0.33774015616E+03 -0.16660371263E+03  0.64035050743E+03  0.74288221995E+03  0.10100000352E+00 0. -1.
</event>
<event>
 5   0  0.2562925E-04  0.1920057E+04  0.7818609E-02  0.8644936E-01
        2   -1    0    0  501    0  0.00000000000E+00  0.00000000000E+00  0.22909686611E+04  0.22909686611E+04  0.25500000920E-02 0.  1.
       -2   -1    0    0    0  501  0.00000000000E+00  0.00000000000E+00 -0.40229934445E+03  0.40229934446E+03  0.25500000920E-02 0. -1.
    10030    2    1    2    0    0  0.00000000000E+00  0.00000000000E+00  0.18886693167E+04  0.26932680056E+04  0.19200574893E+04 0.  0.
        4    1    3    3  502    0 -0.20370616259E+03  0.14363735428E+03  0.22447879846E+04  0.22585842023E+04  0.12699999809E+01 0.  1.
       -4    1    3    3    0  502  0.20370616259E+03 -0.14363735428E+03 -0.35611866797E+03  0.43468380324E+03  0.12699999809E+01 0. -1.
</event>
<event>
 5   0  0.1239615E-04  0.1913262E+04  0.7818609E-02  0.8648283E-01
       -1   -1    0    0    0  501  0.00000000000E+00  0.00000000000E+00  0.47122268114E+03  0.47122268117E+03  0.50400001928E-02 0. -1.
        1   -1    0    0  501    0  0.00000000000E+00  0.00000000000E+00 -0.19420609948E+04  0.19420609949E+04  0.50400001928E-02 0.  1.
    10030    2    1    2    0    0  0.00000000000E+00  0.00000000000E+00 -0.14708383137E+04  0.24132836760E+04  0.19132623333E+04 0.  0.
        3    1    3    3  502    0 -0.70929176237E+03  0.70166897234E+01  0.74202298732E+02  0.71319704811E+03  0.10100000352E+00 0. -1.
       -3    1    3    3    0  502  0.70929176237E+03 -0.70166897234E+01 -0.15450406124E+04  0.17000866279E+04  0.10100000352E+00 0.  1.
</event>
<event>
 5   0  0.1255141E-04  0.1903670E+04  0.7818609E-02  0.8653032E-01
        1   -1    0    0  501    0  0.00000000000E+00  0.00000000000E+00  0.94895559176E+03  0.94895559178E+03  0.50400001928E-02 0.  1.
       -1   -1    0    0    0  501  0.00000000000E+00  0.00000000000E+00 -0.95472312611E+03  0.95472312613E+03  0.50400001928E-02 0. -1.
    10030    2    1    2    0    0  0.00000000000E+00  0.00000000000E+00 -0.57675343516E+01  0.19036787179E+04  0.19036699810E+04 0.  0.
        2    1    3    3  502    0 -0.91723126517E+03  0.15480004800E+03 -0.20466080792E+03  0.95245067850E+03  0.25500000920E-02 0. -1.
       -2    1    3    3    0  502  0.91723126517E+03 -0.15480004800E+03  0.19889327357E+03  0.95122803940E+03  0.25500000920E-02 0.  1.
</event>
<event>
 5   0  0.1324058E-04  0.1907551E+04  0.7818609E-02  0.8651107E-01
        1   -1    0    0  501    0  0.00000000000E+00  0.00000000000E+00  0.14194733114E+04  0.14194733114E+04  0.50400001928E-02 0. -1.
       -1   -1    0    0    0  501  0.00000000000E+00  0.00000000000E+00 -0.64086297550E+03  0.64086297552E+03  0.50400001928E-02 0.  1.
    10030    2    1    2    0    0  0.00000000000E+00  0.00000000000E+00  0.77861033586E+03  0.20603362869E+04  0.19075511946E+04 0.  0.
        5    1    3    3  502    0 -0.76614861766E+02  0.25381214494E+02  0.14157657461E+04  0.14180722058E+04  0.46999998093E+01 0. -1.
       -5    1    3    3    0  502  0.76614861766E+02 -0.25381214494E+02 -0.63715541022E+03  0.64226408109E+03  0.46999998093E+01 0.  1.
</event>
<event>
 5   0  0.2562925E-04  0.1945648E+04  0.7818609E-02  0.8632462E-01
        2   -1    0    0  501    0  0.00000000000E+00  0.00000000000E+00  0.21914177967E+04  0.21914177967E+04  0.25500000920E-02 0.  1.
       -2   -1    0    0    0  501  0.00000000000E+00  0.00000000000E+00 -0.43186040752E+03  0.43186040753E+03  0.25500000920E-02 0. -1.
    10030    2    1    2    0    0  0.00000000000E+00  0.00000000000E+00  0.17595573892E+04  0.26232782043E+04  0.19456480491E+04 0.  0.
        4    1    3    3  502    0  0.25355493278E+03  0.10649274340E+03 -0.37835805282E+03  0.46774698007E+03  0.12699999809E+01 0. -1.
       -4    1    3    3    0  502 -0.25355493278E+03 -0.10649274340E+03  0.21379154420E+04  0.21555312242E+04  0.12699999809E+01 0.  1.
</event>
<event>
 5   0  0.1317527E-04  0.1962821E+04  0.7818609E-02  0.8624203E-01
        1   -1    0    0  501    0  0.00000000000E+00  0.00000000000E+00  0.80010154306E+03  0.80010154308E+03  0.50400001928E-02 0.  1.
       -1   -1    0    0    0  501  0.00000000000E+00  0.00000000000E+00 -0.12038056840E+04  0.12038056840E+04  0.50400001928E-02 0. -1.
    10030    2    1    2    0    0  0.00000000000E+00  0.00000000000E+00 -0.40370414094E+03  0.20039072271E+04  0.19628212199E+04 0.  0.
        1    1    3    3  502    0  0.75949004332E+03  0.39327521947E+03  0.28955073890E+03  0.90295634145E+03  0.50400001928E-02 0.  1.
       -1    1    3    3    0  502 -0.75949004332E+03 -0.39327521947E+03 -0.69325487984E+03  0.11009508856E+04  0.50400001928E-02 0. -1.
</event>
<event>
 5   0  0.1324058E-04  0.1888915E+04  0.7818609E-02  0.8660394E-01
        1   -1    0    0  501    0  0.00000000000E+00  0.00000000000E+00  0.72676924851E+03  0.72676924853E+03  0.50400001928E-02 0. -1.
       -1   -1    0    0    0  501  0.00000000000E+00  0.00000000000E+00 -0.12273492037E+04  0.12273492037E+04  0.50400001928E-02 0.  1.
    10030    2    1    2    0    0  0.00000000000E+00  0.00000000000E+00 -0.50057995518E+03  0.19541184522E+04  0.18889146709E+04 0.  0.
        5    1    3    3  502    0  0.56536496964E+03  0.21294571486E+03 -0.10012925764E+04  0.11694410374E+04  0.46999998093E+01 0.  1.
       -5    1    3    3    0  502 -0.56536496964E+03 -0.21294571486E+03  0.50071262119E+03  0.78467741486E+03  0.46999998093E+01 0. -1.
</event>
<event>
 5   0  0.1317527E-04  0.1973318E+04  0.7818609E-02  0.8619198E-01
        1   -1    0    0  501    0  0.00000000000E+00  0.00000000000E+00  0.11004264775E+04  0.11004264775E+04  0.50400001928E-02 0. -1.
       -1   -1    0    0    0  501  0.00000000000E+00  0.00000000000E+00 -0.88465302131E+03  0.88465302133E+03  0.50400001928E-02 0.  1.
    10030    2    1    2    0    0  0.00000000000E+00  0.00000000000E+00  0.21577345615E+03  0.19850794988E+04  0.19733176207E+04 0.  0.
        1    1    3    3  502    0 -0.31095799623E+03  0.88902255169E+03  0.40364532199E+03  0.10246880105E+04  0.50400001928E-02 0.  1.
       -1    1    3    3    0  502  0.31095799623E+03 -0.88902255169E+03 -0.18787186584E+03  0.96039148832E+03  0.50400001928E-02 0. -1.
</event>
<event>
 5   0  0.1255141E-04  0.2075876E+04  0.7818609E-02  0.8571945E-01
       -1   -1    0    0    0  501  0.00000000000E+00  0.00000000000E+00  0.15658754513E+04  0.15658754513E+04  0.50400001928E-02 0.  1.
        1   -1    0    0  501    0  0.00000000000E+00  0.00000000000E+00 -0.68799557761E+03  0.68799557763E+03  0.50400001928E-02 0. -1.
    10030    2    1    2    0    0  0.00000000000E+00  0.00000000000E+00  0.87787987373E+03  0.22538710290E+04  0.20758760904E+04 0.  0.
        2    1    3    3  502    0  0.16771492821E+03 -0.53668019317E+03  0.13861930239E+04  0.14958893764E+04  0.25500000920E-02 0.  1.
       -2    1    3    3    0  502 -0.16771492821E+03  0.53668019317E+03 -0.50831315022E+03  0.75798165253E+03  0.25500000920E-02 0. -1.
</event>
<event>
 5   0  0.2541124E-04  0.1925737E+04  0.7818609E-02  0.8642150E-01
       -2   -1    0    0    0  501  0.00000000000E+00  0.00000000000E+00  0.45325314235E+03  0.45325314235E+03  0.25500000920E-02 0. -1.
        2   -1    0    0  501    0  0.00000000000E+00  0.00000000000E+00 -0.20454701262E+04  0.20454701262E+04  0.25500000920E-02 0.  1.
    10030    2    1    2    0    0  0.00000000000E+00  0.00000000000E+00 -0.15922169839E+04  0.24987232686E+04  0.19257370145E+04 0.  0.
        5    1    3    3  502    0  0.73439681123E+02 -0.73807529276E+02 -0.20381291656E+04  0.20407923765E+04  0.46999998093E+01 0.  1.
       -5    1    3    3    0  502 -0.73439681123E+02  0.73807529276E+02  0.44591218173E+03  0.45793089212E+03  0.46999998093E+01 0. -1.
</event>
<event>
 5   0  0.2562925E-04  0.1835073E+04  0.7818609E-02  0.8687867E-01
       -2   -1    0    0    0  501  0.00000000000E+00  0.00000000000E+00  0.87584805079E+03  0.87584805079E+03  0.25500000920E-02 0.  1.
        2   -1    0    0  501    0  0.00000000000E+00  0.00000000000E+00 -0.96120937112E+03  0.96120937112E+03  0.25500000920E-02 0. -1.
    10030    2    1    2    0    0  0.00000000000E+00  0.00000000000E+00 -0.85361320329E+02  0.18370574219E+04  0.18350731365E+04 0.  0.
        4    1    3    3  502    0  0.38718490188E+03  0.83161081147E+03 -0.62273517021E+02  0.91943911915E+03  0.12699999809E+01 0. -1.
       -4    1    3    3    0  502 -0.38718490188E+03 -0.83161081147E+03 -0.23087803307E+02  0.91761830276E+03  0.12699999809E+01 0.  1.
</event>
<event>
 5   0  0.1239615E-04  0.2000088E+04  0.7818609E-02  0.8606580E-01
       -1   -1    0    0    0  501  0.00000000000E+00  0.00000000000E+00  0.56258701784E+03  0.56258701786E+03  0.50400001928E-02 0. -1.
        1   -1    0    0  501    0  0.00000000000E+00  0.00000000000E+00 -0.17776588674E+04  0.17776588674E+04  0.50400001928E-02 0.  1.
    10030    2    1    2    0    0  0.00000000000E+00  0.00000000000E+00 -0.12150718495E+04  0.23402458853E+04  0.20000877990E+04 0.  0.
        3    1    3    3  502    0 -0.99576713699E+03  0.90340386114E+02 -0.58490133549E+03  0.11583709073E+04  0.10100000352E+00 0. -1.
       -3    1    3    3    0  502  0.99576713699E+03 -0.90340386114E+02 -0.63017051405E+03  0.11818749779E+04  0.10100000352E+00 0.  1.
</event>
<event>
 5   0  0.1255141E-04  0.1821470E+04  0.7818609E-02  0.8694965E-01
       -1   -1    0    0    0  501  0.00000000000E+00  0.00000000000E+00  0.92442955930E+03  0.92442955932E+03  0.50400001928E-02 0. -1.
        1   -1    0    0  501    0  0.00000000000E+00  0.00000000000E+00 -0.89724307231E+03  0.89724307233E+03  0.50400001928E-02 0.  1.
    10030    2    1    2    0    0  0.00000000000E+00  0.00000000000E+00  0.27186486991E+02  0.18216726316E+04  0.18214697559E+04 0.  0.
        2    1    3    3  502    0 -0.91375604523E+02 -0.79533636942E+03 -0.42065389278E+03  0.90435564860E+03  0.25500000920E-02 0.  1.
       -2    1    3    3    0  502  0.91375604523E+02  0.79533636942E+03  0.44784037978E+03  0.91731698305E+03  0.25500000920E-02 0. -1.
</event>
<event>
 5   0  0.2562925E-04  0.1785008E+04  0.7818609E-02  0.8714313E-01
       -2   -1    0    0    0  501  0.00000000000E+00  0.00000000000E+00  0.12129347860E+04  0.12129347860E+04  0.25500000920E-02 0. -1.
        2   -1    0    0  501    0  0.00000000000E+00  0.00000000000E+00 -0.65672387942E+03  0.65672387943E+03  0.25500000920E-02 0.  1.
    10030    2    1    2    0    0  0.00000000000E+00  0.00000000000E+00  0.55621090656E+03  0.18696586654E+04  0.17850078298E+04 0.  0.
        4    1    3    3  502    0 -0.68505509581E+03  0.24888535462E+03 -0.26141128285E+03  0.77432672415E+03  0.12699999809E+01 0.  1.
       -4    1    3    3    0  502  0.68505509581E+03 -0.24888535462E+03  0.81762218941E+03  0.10953319413E+04  0.12699999809E+01 0. -1.
</event>
<event>
 5   0  0.1317527E-04  0.1878785E+04  0.7818609E-02  0.8665489E-01
        1   -1    0    0  501    0  0.00000000000E+00  0.00000000000E+00  0.98584627342E+03  0.98584627343E+03  0.50400001928E-02 0.  1.
       -1   -1    0    0    0  501  0.00000000000E+00  0.00000000000E+00 -0.89512781212E+03  0.89512781214E+03  0.50400001928E-02 0. -1.
    10030    2    1    2    0    0  0.00000000000E+00  0.00000000000E+00  0.90718461294E+02  0.18809740856E+04  0.18787851584E+04 0.  0.
        1    1    3    3  502    0 -0.19792694629E+02  0.93715347360E+03 -0.16438156907E+02  0.93750658497E+03  0.50400001928E-02 0.  1.
       -1    1    3    3    0  502  0.19792694629E+02 -0.93715347360E+03  0.10715661820E+03  0.94346750060E+03  0.50400001928E-02 0. -1.
</event>
<event>
 5   0  0.2595012E-04  0.1952818E+04  0.7818609E-02  0.8629003E-01
       -2   -1    0    0    0  501  0.00000000000E+00  0.00000000000E+00  0.10964097167E+04  0.10964097167E+04  0.25500000920E-02 0. -1.
        2   -1    0    0  501    0  0.00000000000E+00  0.00000000000E+00 -0.86954256298E+03  0.86954256298E+03  0.25500000920E-02 0.  1.
    10030    2    1    2    0    0  0.00000000000E+00  0.00000000000E+00  0.22686715374E+03  0.19659522797E+04  0.19528183891E+04 0.  0.
        1    1    3    3  502    0  0.30440999233E+03  0.49688694367E+03  0.90216491950E+03  0.10739942366E+04  0.50400001928E-02 0. -1.
       -1    1    3    3    0  502 -0.30440999233E+03 -0.49688694367E+03 -0.67529776576E+03  0.89195804312E+03  0.50400001928E-02 0.  1.
</event>
<event>
 5   0  0.1317527E-04  0.1898063E+04  0.7818609E-02  0.8655821E-01
       -1   -1    0    0    0  501  0.00000000000E+00  0.00000000000E+00  0.58899305224E+03  0.58899305226E+03  0.50400001928E-02 0. -1.
        1   -1    0    0  501    0  0.00000000000E+00  0.00000000000E+00 -0.15291529381E+04  0.15291529381E+04  0.50400001928E-02 0.  1.
    10030    2    1    2    0    0  0.00000000000E+00  0.00000000000E+00 -0.94015988588E+03  0.21181459904E+04  0.18980626506E+04 0.  0.
        1    1    3    3  502    0 -0.37819319693E+03 -0.22008138136E+03 -0.14098639296E+04  0.14762053410E+04  0.50400001928E-02 0.  1.
       -1    1    3    3    0  502  0.37819319693E+03  0.22008138136E+03  0.46970404375E+03  0.64194064941E+03  0.50400001928E-02 0. -1.
</event>
<event>
 5   0  0.1317527E-04  0.1971833E+04  0.7818609E-02  0.8619904E-01
        1   -1    0    0  501    0  0.00000000000E+00  0.00000000000E+00  0.60392371871E+03  0.60392371873E+03  0.50400001928E-02 0. -1.
       -1   -1    0    0    0  501  0.00000000000E+00  0.00000000000E+00 -0.16095269621E+04  0.16095269621E+04  0.50400001928E-02 0.  1.
    10030    2    1    2    0    0  0.00000000000E+00  0.00000000000E+00 -0.10056032433E+04  0.22134506808E+04  0.19718331657E+04 0.  0.
        1    1    3    3  502    0 -0.25899400257E+02  0.16498642844E+03  0.58793006312E+03  0.61118987202E+03  0.50400001928E-02 0. -1.
       -1    1    3    3    0  502  0.25899400257E+02 -0.16498642844E+03 -0.15935333065E+04  0.16022608088E+04  0.50400001928E-02 0.  1.
</event>
<event>
 5   0  0.2541124E-04  0.1770062E+04  0.7818609E-02  0.8722384E-01
        2   -1    0    0  501    0  0.00000000000E+00  0.00000000000E+00  0.94823650846E+03  0.94823650846E+03  0.25500000920E-02 0.  1.
       -2   -1    0    0    0  501  0.00000000000E+00  0.00000000000E+00 -0.82603883130E+03  0.82603883131E+03  0.25500000920E-02 0. -1.
    10030    2    1    2    0    0  0.00000000000E+00  0.00000000000E+00  0.12219767715E+03  0.17742753398E+04  0.17700623461E+04 0.  0.
        5    1    3    3  502    0  0.32671276987E+03  0.10579417213E+03 -0.75651680723E+03  0.83082694376E+03  0.46999998093E+01 0. -1.
       -5    1    3    3    0  502 -0.32671276987E+03 -0.10579417213E+03  0.87871448439E+03  0.94344839600E+03  0.46999998093E+01 0.  1.
</event>
<event>
 5   0  0.9266125E-05  0.1909380E+04  0.7818609E-02  0.8650202E-01
        3   -1    0    0  501    0  0.00000000000E+00  0.00000000000E+00  0.13511984396E+04  0.13511984433E+04  0.10100000352E+00 0. -1.
       -3   -1    0    0    0  501  0.00000000000E+00  0.00000000000E+00 -0.67453642198E+03  0.67453642954E+03  0.10100000352E+00 0.  1.
    10030    2    1    2    0    0  0.00000000000E+00  0.00000000000E+00  0.67666201758E+03  0.20257348729E+04  0.19093795561E+04 0.  0.
        2    1    3    3  502    0 -0.15776431193E+03 -0.66614076686E+03  0.10443134244E+04  0.12486887634E+04  0.25500000920E-02 0. -1.
       -2    1    3    3    0  502  0.15776431193E+03  0.66614076686E+03 -0.36765140680E+03  0.77704610952E+03  0.25500000920E-02 0.  1.
</event>
<event>
 5   0  0.2651828E-04  0.1814727E+04  0.7818609E-02  0.8698507E-01
        2   -1    0    0  501    0  0.00000000000E+00  0.00000000000E+00  0.19275634331E+04  0.19275634331E+04  0.25500000920E-02 0. -1.
       -2   -1    0    0    0  501  0.00000000000E+00  0.00000000000E+00 -0.42712393437E+03  0.42712393438E+03  0.25500000920E-02 0.  1.
    10030    2    1    2    0    0  0.00000000000E+00  0.00000000000E+00  0.15004394987E+04  0.23546873675E+04  0.18147269517E+04 0.  0.
        3    1    3    3  502    0  0.61882606673E+03 -0.42461088555E+03  0.88512754021E+02  0.75569479476E+03  0.10100000352E+00 0.  1.
       -3    1    3    3    0  502 -0.61882606673E+03  0.42461088555E+03  0.14119267447E+04  0.15989925727E+04  0.10100000352E+00 0. -1.
</event>
<event>
 5   0  0.2562925E-04  0.1902468E+04  0.7818609E-02  0.8653629E-01
       -2   -1    0    0    0  501  0.00000000000E+00  0.00000000000E+00  0.38663103759E+03  0.38663103760E+03  0.25500000920E-02 0.  1.
        2   -1    0    0  501    0  0.00000000000E+00  0.00000000000E+00 -0.23403352730E+04  0.23403352730E+04  0.25500000920E-02 0. -1.
    10030    2    1    2    0    0  0.00000000000E+00  0.00000000000E+00 -0.19537042354E+04  0.27269663106E+04  0.19024681390E+04 0.  0.
        4    1    3    3  502    0 -0.46346626190E+03 -0.74392877126E+03 -0.44705520058E+03  0.98391613356E+03  0.12699999809E+01 0.  1.
       -4    1    3    3    0  502  0.46346626190E+03  0.74392877126E+03 -0.15066490348E+04  0.17430501771E+04  0.12699999809E+01 0. -1.
</event>
<event>
 5   0  0.2651828E-04  0.1887641E+04  0.7818609E-02  0.8661033E-01
       -2   -1    0    0    0  501  0.00000000000E+00  0.00000000000E+00  0.81919711564E+03  0.81919711564E+03  0.25500000920E-02 0.  1.
        2   -1    0    0  501    0  0.00000000000E+00  0.00000000000E+00 -0.10874022550E+04  0.10874022550E+04  0.25500000920E-02 0. -1.
    10030    2    1    2    0    0  0.00000000000E+00  0.00000000000E+00 -0.26820513940E+03  0.19065993707E+04  0.18876406341E+04 0.  0.
        3    1    3    3  502    0  0.62020966991E+03  0.58123410856E+03  0.28026609341E+03  0.89500961834E+03  0.10100000352E+00 0.  1.
       -3    1    3    3    0  502 -0.62020966991E+03 -0.58123410856E+03 -0.54847123281E+03  0.10115897523E+04  0.10100000352E+00 0. -1.
</event>
<event>
 5   0  0.2595012E-04  0.1881007E+04  0.7818609E-02  0.8664368E-01
       -2   -1    0    0    0  501  0.00000000000E+00  0.00000000000E+00  0.44485139989E+03  0.44485139990E+03  0.25500000920E-02 0. -1.
        2   -1    0    0  501    0  0.00000000000E+00  0.00000000000E+00 -0.19884105987E+04  0.19884105987E+04  0.25500000920E-02 0.  1.
    10030    2    1    2    0    0  0.00000000000E+00  0.00000000000E+00 -0.15435591988E+04  0.24332619986E+04  0.18810074305E+04 0.  0.
        1    1    3    3  502    0 -0.17455768118E+03 -0.59841866822E+03  0.13923832310E+03  0.63871949804E+03  0.50400001928E-02 0. -1.
       -1    1    3    3    0  502  0.17455768118E+03  0.59841866822E+03 -0.16827975219E+04  0.17945425005E+04  0.50400001928E-02 0.  1.
</event>
<event>
 5   0  0.1255141E-04  0.1899440E+04  0.7818609E-02  0.8655135E-01
        1   -1    0    0  501    0  0.00000000000E+00  0.00000000000E+00  0.12143358286E+04  0.12143358286E+04  0.50400001928E-02 0.  1.
       -1   -1    0    0    0  501  0.00000000000E+00  0.00000000000E+00 -0.74276658496E+03  0.74276658498E+03  0.50400001928E-02 0. -1.
    10030    2    1    2    0    0  0.00000000000E+00  0.00000000000E+00  0.47156924363E+03  0.19571024136E+04  0.18994399979E+04 0.  0.
        2    1    3    3  502    0 -0.48559286858E+03 -0.13773547376E+03  0.10646921442E+04  0.11782787687E+04  0.25500000920E-02 0.  1.
       -2    1    3    3    0  502  0.48559286858E+03  0.13773547376E+03 -0.59312290056E+03  0.77882364494E+03  0.25500000920E-02 0. -1.
</event>
<event>
 5   0  0.1277709E-04  0.1905602E+04  0.7818609E-02  0.8652073E-01
       -1   -1    0    0    0  501  0.00000000000E+00  0.00000000000E+00  0.77970383826E+03  0.77970383828E+03  0.50400001928E-02 0.  1.
        1   -1    0    0  501    0  0.00000000000E+00  0.00000000000E+00 -0.11643260950E+04  0.11643260950E+04  0.50400001928E-02 0. -1.
    10030    2    1    2    0    0  0.00000000000E+00  0.00000000000E+00 -0.38462225673E+03  0.19440299333E+04  0.19056017688E+04 0.  0.
        4    1    3    3  502    0 -0.18612998648E+03  0.34274976768E+03  0.69453295936E+03  0.79655471855E+03  0.12699999809E+01 0.  1.
       -4    1    3    3    0  502  0.18612998648E+03 -0.34274976768E+03 -0.10791552161E+04  0.11474752147E+04  0.12699999809E+01 0. -1.
</event>
<event>
 5   0  0.2541124E-04  0.1746796E+04  0.7818609E-02  0.8735116E-01
       -2   -1    0    0    0  501  0.00000000000E+00  0.00000000000E+00  0.62209614065E+03  0.62209614065E+03  0.25500000920E-02 0.  1.
        2   -1    0    0  501    0  0.00000000000E+00  0.00000000000E+00 -0.12262154191E+04  0.12262154191E+04  0.25500000920E-02 0. -1.
    10030    2    1    2    0    0  0.00000000000E+00  0.00000000000E+00 -0.60411927843E+03  0.18483115597E+04  0.17467957864E+04 0.  0.
        5    1    3    3  502    0 -0.20429176146E+03 -0.44400397875E+03 -0.10679533249E+04  0.11744875696E+04  0.46999998093E+01 0. -1.
       -5    1    3    3    0  502  0.20429176146E+03  0.44400397875E+03  0.46383404651E+03  0.67382399011E+03  0.46999998093E+01 0.  1.
</event>
<event>
 5   0  0.1317527E-04  0.1885506E+04  0.7818609E-02  0.8662105E-01
       -1   -1    0    0    0  501  0.00000000000E+00  0.00000000000E+00  0.71474944070E+03  0.71474944072E+03  0.50400001928E-02 0.  1.
        1   -1    0    0  501    0  0.00000000000E+00  0.00000000000E+00 -0.12434894636E+04  0.12434894636E+04  0.50400001928E-02 0. -1.
    10030    2    1    2    0    0  0.00000000000E+00  0.00000000000E+00 -0.52874002291E+03  0.19582389043E+04  0.18855061906E+04 0.  0.
        1    1    3    3  502    0 -0.80381635446E+02 -0.40881663900E+03 -0.11426819314E+04  0.12162706310E+04  0.50400001928E-02 0. -1.
       -1    1    3    3    0  502  0.80381635446E+02  0.40881663900E+03  0.61394190844E+03  0.74196827331E+03  0.50400001928E-02 0.  1.
</event>
<event>
 5   0  0.1277709E-04  0.1884201E+04  0.7818609E-02  0.8662760E-01
       -1   -1    0    0    0  501  0.00000000000E+00  0.00000000000E+00  0.75483196934E+03  0.75483196936E+03  0.50400001928E-02 0.  1.
        1   -1    0    0  501    0  0.00000000000E+00  0.00000000000E+00 -0.11758296648E+04  0.11758296648E+04  0.50400001928E-02 0. -1.
    10030    2    1    2    0    0  0.00000000000E+00  0.00000000000E+00 -0.42099769549E+03  0.19306616342E+04  0.18842014983E+04 0.  0.
        4    1    3    3  502    0 -0.41600835352E+02 -0.37935894146E+02  0.75310578382E+03  0.75520837925E+03  0.12699999809E+01 0.  1.
       -4    1    3    3    0  502  0.41600835352E+02  0.37935894146E+02 -0.11741034793E+04  0.11754532550E+04  0.12699999809E+01 0. -1.
</event>
<event>
 5   0  0.1324058E-04  0.1894452E+04  0.7818609E-02  0.8657623E-01
       -1   -1    0    0    0  501  0.00000000000E+00  0.00000000000E+00  0.17271619563E+04  0.17271619563E+04  0.50400001928E-02 0. -1.
        1   -1    0    0  501    0  0.00000000000E+00  0.00000000000E+00 -0.51948632110E+03  0.51948632112E+03  0.50400001928E-02 0.  1.
    10030    2    1    2    0    0  0.00000000000E+00  0.00000000000E+00  0.12076756352E+04  0.22466482774E+04  0.18944519109E+04 0.  0.
        5    1    3    3  502    0 -0.15972279533E+03 -0.13382063518E+02  0.17109491447E+04  0.17184468326E+04  0.46999998093E+01 0. -1.
       -5    1    3    3    0  502  0.15972279533E+03  0.13382063518E+02 -0.50327350946E+03  0.52820144480E+03  0.46999998093E+01 0.  1.
</event>
<event>
 5   0  0.2562925E-04  0.1919361E+04  0.7818609E-02  0.8645279E-01
       -2   -1    0    0    0  501  0.00000000000E+00  0.00000000000E+00  0.15594435262E+04  0.15594435262E+04  0.25500000920E-02 0. -1.
        2   -1    0    0  501    0  0.00000000000E+00  0.00000000000E+00 -0.59058643925E+03  0.59058643926E+03  0.25500000920E-02 0.  1.
    10030    2    1    2    0    0  0.00000000000E+00  0.00000000000E+00  0.96885708698E+03  0.21500299655E+04  0.19193605179E+04 0.  0.
        4    1    3    3  502    0  0.53001400326E+03  0.42961500785E+03  0.12404471332E+04  0.14156958013E+04  0.12699999809E+01 0. -1.
       -4    1    3    3    0  502 -0.53001400326E+03 -0.42961500785E+03 -0.27159004622E+03  0.73433416421E+03  0.12699999809E+01 0.  1.
</event>
<event>
 5   0  0.1317527E-04  0.1892239E+04  0.7818609E-02  0.8658729E-01
       -1   -1    0    0    0  501  0.00000000000E+00  0.00000000000E+00  0.10736036113E+04  0.10736036114E+04  0.50400001928E-02 0.  1.
        1   -1    0    0  501    0  0.00000000000E+00  0.00000000000E+00 -0.83377357734E+03  0.83377357735E+03  0.50400001928E-02 0. -1.
    10030    2    1    2    0    0  0.00000000000E+00  0.00000000000E+00  0.23983003401E+03  0.19073771887E+04  0.18922392277E+04 0.  0.
        1    1    3    3  502    0  0.52010284882E+03  0.63312003244E+03  0.59676868317E+03  0.10136472809E+04  0.50400001928E-02 0.  1.
       -1    1    3    3    0  502 -0.52010284882E+03 -0.63312003244E+03 -0.35693864916E+03  0.89372990781E+03  0.50400001928E-02 0. -1.
</event>
<event>
 5   0  0.2608744E-04  0.1917652E+04  0.7818609E-02  0.8646120E-01
       -2   -1    0    0    0  501  0.00000000000E+00  0.00000000000E+00  0.11306186070E+04  0.11306186070E+04  0.25500000920E-02 0. -1.
        2   -1    0    0  501    0  0.00000000000E+00  0.00000000000E+00 -0.81313630193E+03  0.81313630193E+03  0.25500000920E-02 0.  1.
    10030    2    1    2    0    0  0.00000000000E+00  0.00000000000E+00  0.31748230508E+03  0.19437549089E+04  0.19176517233E+04 0.  0.
        2    1    3    3  502    0 -0.43761044587E+03 -0.80016266939E+03  0.45871524105E+03  0.10208735829E+04  0.25500000920E-02 0. -1.
       -2    1    3    3    0  502  0.43761044587E+03  0.80016266939E+03 -0.14123293596E+03  0.92288132608E+03  0.25500000920E-02 0.  1.
</event>
<event>
 5   0  0.2541124E-04  0.1672913E+04  0.7818609E-02  0.8776966E-01
       -2   -1    0    0    0  501  0.00000000000E+00  0.00000000000E+00  0.57320293846E+03  0.57320293847E+03  0.25500000920E-02 0. -1.
        2   -1    0    0  501    0  0.00000000000E+00  0.00000000000E+00 -0.12206140643E+04  0.12206140643E+04  0.25500000920E-02 0.  1.
    10030    2    1    2    0    0  0.00000000000E+00  0.00000000000E+00 -0.64741112583E+03  0.17938170028E+04  0.16729131100E+04 0.  0.
        5    1    3    3  502    0  0.82176601071E+03  0.13778648633E+03 -0.24525378061E+03  0.86859426608E+03  0.46999998093E+01 0.  1.
       -5    1    3    3    0  502 -0.82176601071E+03 -0.13778648633E+03 -0.40215734522E+03  0.92522273669E+03  0.46999998093E+01 0. -1.
</event>
<event>
 5   0  0.1239615E-04  0.1949868E+04  0.7818609E-02  0.8630424E-01
        1   -1    0    0  501    0  0.00000000000E+00  0.00000000000E+00  0.68814783294E+03  0.68814783296E+03  0.50400001928E-02 0.  1.
       -1   -1    0    0    0  501  0.00000000000E+00  0.00000000000E+00 -0.13812383861E+04  0.13812383861E+04  0.50400001928E-02 0. -1.
    10030    2    1    2    0    0  0.00000000000E+00  0.00000000000E+00 -0.69309055315E+03  0.20693862191E+04  0.19498678952E+04 0.  0.
        3    1    3    3  502    0  0.25176423145E+03 -0.48001842090E+03  0.51349274174E+03  0.74664430532E+03  0.10100000352E+00 0.  1.
       -3    1    3    3    0  502 -0.25176423145E+03  0.48001842090E+03 -0.12065832949E+04  0.13227419137E+04  0.10100000352E+00 0. -1.
</event>
<event>
 5   0  0.1324058E-04  0.1862552E+04  0.7818609E-02  0.8673724E-01
       -1   -1    0    0    0  501  0.00000000000E+00  0.00000000000E+00  0.43643010937E+03  0.43643010940E+03  0.50400001928E-02 0.  1.
        1   -1    0    0  501    0  0.00000000000E+00  0.00000000000E+00 -0.19872034426E+04  0.19872034426E+04  0.50400001928E-02 0. -1.
    10030    2    1    2    0    0  0.00000000000E+00  0.00000000000E+00 -0.15507733332E+04  0.24236335520E+04  0.18625524592E+04 0.  0.
        5    1    3    3  502    0 -0.82795042867E+03  0.32997613021E+03 -0.11266431791E+04  0.14365699084E+04  0.46999998093E+01 0. -1.
       -5    1    3    3    0  502  0.82795042867E+03 -0.32997613021E+03 -0.42413015418E+03  0.98706364360E+03  0.46999998093E+01 0.  1.
</event>
<event>
 5   0  0.2608744E-04  0.1876354E+04  0.7818609E-02  0.8666717E-01
        2   -1    0    0  501    0  0.00000000000E+00  0.00000000000E+00  0.10355368398E+04  0.10355368398E+04  0.25500000920E-02 0.  1.
       -2   -1    0    0    0  501  0.00000000000E+00  0.00000000000E+00 -0.84997115470E+03  0.84997115470E+03  0.25500000920E-02 0. -1.
    10030    2    1    2    0    0  0.00000000000E+00  0.00000000000E+00  0.18556568514E+03  0.18855079945E+04  0.18763543839E+04 0.  0.
        2    1    3    3  502    0  0.75692212431E+03 -0.48387261180E+03  0.36449541571E+03  0.96949508240E+03  0.25500000920E-02 0.  1.
       -2    1    3    3    0  502 -0.75692212431E+03  0.48387261180E+03 -0.17892973057E+03  0.91601291214E+03  0.25500000920E-02 0. -1.
</event>
<event>
 5   0  0.1277709E-04  0.1905592E+04  0.7818609E-02  0.8652078E-01
        1   -1    0    0  501    0  0.00000000000E+00  0.00000000000E+00  0.12213719732E+04  0.12213719732E+04  0.50400001928E-02 0. -1.
       -1   -1    0    0    0  501  0.00000000000E+00  0.00000000000E+00 -0.74327891126E+03  0.74327891128E+03  0.50400001928E-02 0.  1.
    10030    2    1    2    0    0  0.00000000000E+00  0.00000000000E+00  0.47809306196E+03  0.19646508845E+04  0.19055918036E+04 0.  0.
        4    1    3    3  502    0  0.69561324790E+03  0.49095770766E+02  0.90842212848E+03  0.11452163821E+04  0.12699999809E+01 0. -1.
       -4    1    3    3    0  502 -0.69561324790E+03 -0.49095770766E+02 -0.43032906653E+03  0.81943450243E+03  0.12699999809E+01 0.  1.
</event>
<event>
 5   0  0.2651828E-04  0.1846864E+04  0.7818609E-02  0.8681767E-01
       -2   -1    0    0    0  501  0.00000000000E+00  0.00000000000E+00  0.10002508465E+04  0.10002508465E+04  0.25500000920E-02 0. -1.
        2   -1    0    0  501    0  0.00000000000E+00  0.00000000000E+00 -0.85251282634E+03  0.85251282634E+03  0.25500000920E-02 0.  1.
    10030    2    1    2    0    0  0.00000000000E+00  0.00000000000E+00  0.14773802017E+03  0.18527636729E+04  0.18468640190E+04 0.  0.
        3    1    3    3  502    0  0.68366873367E+03  0.51207774194E+03 -0.27810803060E+03  0.89831544464E+03  0.10100000352E+00 0.  1.
       -3    1    3    3    0  502 -0.68366873367E+03 -0.51207774194E+03  0.42584605077E+03  0.95444822822E+03  0.10100000352E+00 0. -1.
</event>
<event>
 5   0  0.2541124E-04  0.1900702E+04  0.7818609E-02  0.8654507E-01
       -2   -1    0    0    0  501  0.00000000000E+00  0.00000000000E+00  0.13253806114E+04  0.13253806114E+04  0.25500000920E-02 0.  1.
        2   -1    0    0  501    0  0.00000000000E+00  0.00000000000E+00 -0.68143972845E+03  0.68143972846E+03  0.25500000920E-02 0. -1.
    10030    2    1    2    0    0  0.00000000000E+00  0.00000000000E+00  0.64394088298E+03  0.20068203399E+04  0.19007019797E+04 0.  0.
        5    1    3    3  502    0 -0.11501763516E+03 -0.87301089732E+03  0.69937333686E+03  0.11245097765E+04  0.46999998093E+01 0.  1.
       -5    1    3    3    0  502  0.11501763516E+03  0.87301089732E+03 -0.55432453885E+02  0.88231056334E+03  0.46999998093E+01 0. -1.
</event>
<event>
 5   0  0.2595012E-04  0.1871915E+04  0.7818609E-02  0.8668964E-01
        2   -1    0    0  501    0  0.00000000000E+00  0.00000000000E+00  0.20590376875E+04  0.20590376875E+04  0.25500000920E-02 0. -1.
       -2   -1    0    0    0  501  0.00000000000E+00  0.00000000000E+00 -0.42544936037E+03  0.42544936038E+03  0.25500000920E-02 0.  1.
    10030    2    1    2    0    0  0.00000000000E+00  0.00000000000E+00  0.16335883271E+04  0.24844870478E+04  0.18719148134E+04 0.  0.
        1    1    3    3  502    0  0.35986264206E+03 -0.19785905309E+03 -0.29948555829E+03  0.50827249157E+03  0.50400001928E-02 0.  1.
       -1    1    3    3    0  502 -0.35986264206E+03  0.19785905309E+03  0.19330738854E+04  0.19762145563E+04  0.50400001928E-02 0. -1.
</event>
<event>
 5   0  0.1277709E-04  0.1926033E+04  0.7818609E-02  0.8642005E-01
       -1   -1    0    0    0  501  0.00000000000E+00  0.00000000000E+00  0.89094893062E+03  0.89094893063E+03  0.50400001928E-02 0. -1.
        1   -1    0    0  501    0  0.00000000000E+00  0.00000000000E+00 -0.10409140300E+04  0.10409140300E+04  0.50400001928E-02 0.  1.
    10030    2    1    2    0    0  0.00000000000E+00  0.00000000000E+00 -0.14996509940E+03  0.19318629607E+04  0.19260334804E+04 0.  0.
        4    1    3    3  502    0  0.66041729409E+03 -0.18197468545E+03 -0.75388702254E+03  0.10186329290E+04  0.12699999809E+01 0.  1.
       -4    1    3    3    0  502 -0.66041729409E+03  0.18197468545E+03  0.60392192315E+03  0.91323003161E+03  0.12699999809E+01 0. -1.
</event>
<event>
 5   0  0.2595012E-04  0.1886889E+04  0.7818609E-02  0.8661410E-01
        2   -1    0    0  501    0  0.00000000000E+00  0.00000000000E+00  0.11753665441E+04  0.11753665442E+04  0.25500000920E-02 0. -1.
       -2   -1    0    0    0  501  0.00000000000E+00  0.00000000000E+00 -0.75728529539E+03  0.75728529539E+03  0.25500000920E-02 0.  1.
    10030    2    1    2    0    0  0.00000000000E+00  0.00000000000E+00  0.41808124876E+03  0.19326518395E+04  0.18868892925E+04 0.  0.
        1    1    3    3  502    0 -0.71392215904E+03 -0.40907778729E+03  0.68181774224E+03  0.10685995129E+04  0.50400001928E-02 0. -1.
       -1    1    3    3    0  502  0.71392215904E+03  0.40907778729E+03 -0.26373649347E+03  0.86405232668E+03  0.50400001928E-02 0.  1.
</event>
<event>
 5   0  0.1317527E-04  0.1884796E+04  0.7818609E-02  0.8662462E-01
        1   -1    0    0  501    0  0.00000000000E+00  0.00000000000E+00  0.19609105195E+04  0.19609105195E+04  0.50400001928E-02 0.  1.
       -1   -1    0    0    0  501  0.00000000000E+00  0.00000000000E+00 -0.45290903833E+03  0.45290903836E+03  0.50400001928E-02 0. -1.
    10030    2    1    2    0    0  0.00000000000E+00  0.00000000000E+00  0.15080014811E+04  0.24138195578E+04  0.18847961138E+04 0.  0.
        1    1    3    3  502    0 -0.93592673908E+03 -0.88815455723E+02  0.67034333952E+03  0.11546459366E+04  0.50400001928E-02 0. -1.
       -1    1    3    3    0  502  0.93592673908E+03  0.88815455723E+02  0.83765814161E+03  0.12591736212E+04  0.50400001928E-02 0.  1.
</event>
<event>
 5   0  0.2562925E-04  0.1873656E+04  0.7818609E-02  0.8668082E-01
       -2   -1    0    0    0  501  0.00000000000E+00  0.00000000000E+00  0.75054106497E+03  0.75054106497E+03  0.25500000920E-02 0. -1.
        2   -1    0    0  501    0  0.00000000000E+00  0.00000000000E+00 -0.11693518196E+04  0.11693518197E+04  0.25500000920E-02 0.  1.
    10030    2    1    2    0    0  0.00000000000E+00  0.00000000000E+00 -0.41881075468E+03  0.19198928846E+04  0.18736558489E+04 0.  0.
        4    1    3    3  502    0 -0.58040847725E+03  0.44948589401E+03  0.38696514984E+03  0.82985252272E+03  0.12699999809E+01 0. -1.
       -4    1    3    3    0  502  0.58040847725E+03 -0.44948589401E+03 -0.80577590452E+03  0.10900403619E+04  0.12699999809E+01 0.  1.
</event>
<event>
 5   0  0.1317527E-04  0.1914978E+04  0.7818609E-02  0.8647437E-01
        1   -1    0    0  501    0  0.00000000000E+00  0.00000000000E+00  0.86111980456E+03  0.86111980458E+03  0.50400001928E-02 0.  1.
       -1   -1    0    0    0  501  0.00000000000E+00  0.00000000000E+00 -0.10646427091E+04  0.10646427091E+04  0.50400001928E-02 0. -1.
    10030    2    1    2    0    0  0.00000000000E+00  0.00000000000E+00 -0.20352290454E+03  0.19257625137E+04  0.19149777248E+04 0.  0.
        1    1    3    3  502    0 -0.73960659997E+03 -0.31312930475E+03 -0.62596196013E+03  0.10182810318E+04  0.50400001928E-02 0. -1.
       -1    1    3    3    0  502  0.73960659997E+03  0.31312930475E+03  0.42243905559E+03  0.90748148187E+03  0.50400001928E-02 0.  1.
</event>
<event>
 5   0  0.2541124E-04  0.1898870E+04  0.7818609E-02  0.8655419E-01
       -2   -1    0    0    0  501  0.00000000000E+00  0.00000000000E+00  0.15128446848E+04  0.15128446848E+04  0.25500000920E-02 0.  1.
        2   -1    0    0  501    0  0.00000000000E+00  0.00000000000E+00 -0.59584863215E+03  0.59584863215E+03  0.25500000920E-02 0. -1.
    10030    2    1    2    0    0  0.00000000000E+00  0.00000000000E+00  0.91699605270E+03  0.21086933170E+04  0.18988695965E+04 0.  0.
        5    1    3    3  502    0  0.23693162793E+03 -0.75670657075E+02  0.14760097395E+04  0.14968264715E+04  0.46999998093E+01 0.  1.
       -5    1    3    3    0  502 -0.23693162793E+03  0.75670657075E+02 -0.55901368678E+03  0.61186684553E+03  0.46999998093E+01 0. -1.
</event>
<event>
 5   0  0.2541124E-04  0.1845580E+04  0.7818609E-02  0.8682429E-01
        2   -1    0    0  501    0  0.00000000000E+00  0.00000000000E+00  0.11386766836E+04  0.11386766836E+04  0.25500000920E-02 0. -1.
       -2   -1    0    0    0  501  0.00000000000E+00  0.00000000000E+00 -0.74783382063E+03  0.74783382063E+03  0.25500000920E-02 0.  1.
    10030    2    1    2    0    0  0.00000000000E+00  0.00000000000E+00  0.39084286295E+03  0.18865105042E+04  0.18455795131E+04 0.  0.
        5    1    3    3  502    0 -0.45599538514E+03 -0.10901159633E+03 -0.61700326603E+03  0.77493899095E+03  0.46999998093E+01 0.  1.
       -5    1    3    3    0  502  0.45599538514E+03  0.10901159633E+03  0.10078461290E+04  0.11115715133E+04  0.46999998093E+01 0. -1.
</event>
<event>
 5   0  0.2608744E-04  0.1884594E+04  0.7818609E-02  0.8662563E-01
       -2   -1    0    0    0  501  0.00000000000E+00  0.00000000000E+00  0.61584299532E+03  0.61584299532E+03  0.25500000920E-02 0.  1.
        2   -1    0    0  501    0  0.00000000000E+00  0.00000000000E+00 -0.14418016542E+04  0.14418016542E+04  0.25500000920E-02 0. -1.
    10030    2    1    2    0    0  0.00000000000E+00  0.00000000000E+00 -0.82595865892E+03  0.20576446496E+04  0.18845938018E+04 0.  0.
        2    1    3    3  502    0  0.47404350869E+03 -0.12418490056E+03  0.46577571236E+03  0.67608146838E+03  0.25500000920E-02 0.  1.
       -2    1    3    3    0  502 -0.47404350869E+03  0.12418490056E+03 -0.12917343713E+04  0.13815631812E+04  0.25500000920E-02 0. -1.
</event>
<event>
 5   0  0.2608744E-04  0.1853904E+04  0.7818609E-02  0.8678148E-01
       -2   -1    0    0    0  501  0.00000000000E+00  0.00000000000E+00  0.59618207231E+03  0.59618207232E+03  0.25500000920E-02 0. -1.
        2   -1    0    0  501    0  0.00000000000E+00  0.00000000000E+00 -0.14412370168E+04  0.14412370168E+04  0.25500000920E-02 0.  1.
    10030    2    1    2    0    0  0.00000000000E+00  0.00000000000E+00 -0.84505494446E+03  0.20374190891E+04  0.18539036343E+04 0.  0.
        2    1    3    3  502    0  0.79056042687E+03 -0.39098243148E+03 -0.73605070186E+03  0.11487487480E+04  0.25500000920E-02 0. -1.
       -2    1    3    3    0  502 -0.79056042687E+03  0.39098243148E+03 -0.10900424259E+03  0.88867034111E+03  0.25500000920E-02 0.  1.
</event>
<event>
 5   0  0.2595012E-04  0.1484342E+04  0.7818609E-02  0.8894933E-01
        2   -1    0    0  501    0  0.00000000000E+00  0.00000000000E+00  0.19492946948E+04  0.19492946948E+04  0.25500000920E-02 0. -1.
       -2   -1    0    0    0  501  0.00000000000E+00  0.00000000000E+00 -0.28257290738E+03  0.28257290739E+03  0.25500000920E-02 0.  1.
    10030    2    1    2    0    0  0.00000000000E+00  0.00000000000E+00  0.16667217874E+04  0.22318676022E+04  0.14843421024E+04 0.  0.
        1    1    3    3  502    0  0.39206487084E+03  0.62721651626E+03  0.92485200598E+03  0.11842578495E+04  0.50400001928E-02 0.  1.
       -1    1    3    3    0  502 -0.39206487084E+03 -0.62721651626E+03  0.74186978144E+03  0.10476097527E+04  0.50400001928E-02 0. -1.
</event>
<event>
 5   0  0.1324058E-04  0.1857220E+04  0.7818609E-02  0.8676448E-01
        1   -1    0    0  501    0  0.00000000000E+00  0.00000000000E+00  0.96124151991E+03  0.96124151992E+03  0.50400001928E-02 0. -1.
       -1   -1    0    0    0  501  0.00000000000E+00  0.00000000000E+00 -0.89708663357E+03  0.89708663359E+03  0.50400001928E-02 0.  1.
    10030    2    1    2    0    0  0.00000000000E+00  0.00000000000E+00  0.64154886337E+02  0.18583281535E+04  0.18572204168E+04 0.  0.
        5    1    3    3  502    0  0.51714303188E+03  0.87279448413E+02 -0.73469562486E+03  0.90269284296E+03  0.46999998093E+01 0.  1.
       -5    1    3    3    0  502 -0.51714303188E+03 -0.87279448413E+02  0.79885051120E+03  0.95563531055E+03  0.46999998093E+01 0. -1.
</event>
<event>
 5   0  0.1239615E-04  0.1922079E+04  0.7818609E-02  0.8643943E-01
        1   -1    0    0  501    0  0.00000000000E+00  0.00000000000E+00  0.66275031327E+03  0.66275031329E+03  0.50400001928E-02 0.  1.
       -1   -1    0    0    0  501  0.00000000000E+00  0.00000000000E+00 -0.13935824976E+04  0.13935824976E+04  0.50400001928E-02 0. -1.
    10030    2    1    2    0    0  0.00000000000E+00  0.00000000000E+00 -0.73083218429E+03  0.20563328109E+04  0.19220793291E+04 0.  0.
        3    1    3    3  502    0 -0.72127008810E+03 -0.59799013453E+03 -0.59430978910E+03  0.11095165058E+04  0.10100000352E+00 0.  1.
       -3    1    3    3    0  502  0.72127008810E+03  0.59799013453E+03 -0.13652239519E+03  0.94681630508E+03  0.10100000352E+00 0. -1.
</event>
<event>
 5   0  0.2651828E-04  0.1922786E+04  0.7818609E-02  0.8643597E-01
        2   -1    0    0  501    0  0.00000000000E+00  0.00000000000E+00  0.15833442390E+04  0.15833442390E+04  0.25500000920E-02 0. -1.
       -2   -1    0    0    0  501  0.00000000000E+00  0.00000000000E+00 -0.58374931249E+03  0.58374931249E+03  0.25500000920E-02 0.  1.
    10030    2    1    2    0    0  0.00000000000E+00  0.00000000000E+00  0.99959492651E+03  0.21670935515E+04  0.19227855949E+04 0.  0.
        3    1    3    3  502    0  0.74637159373E+03  0.49016595675E+03  0.90135795093E+03  0.12687708174E+04  0.10100000352E+00 0.  1.
       -3    1    3    3    0  502 -0.74637159373E+03 -0.49016595675E+03  0.98236975583E+02  0.89832273413E+03  0.10100000352E+00 0. -1.
</event>
<event>
 5   0  0.1317527E-04  0.1928043E+04  0.7818609E-02  0.8641022E-01
        1   -1    0    0  501    0  0.00000000000E+00  0.00000000000E+00  0.20221695972E+04  0.20221695972E+04  0.50400001928E-02 0.  1.
       -1   -1    0    0    0  501  0.00000000000E+00  0.00000000000E+00 -0.45957439726E+03  0.45957439729E+03  0.50400001928E-02 0. -1.
    10030    2    1    2    0    0  0.00000000000E+00  0.00000000000E+00  0.15625952000E+04  0.24817439945E+04  0.19280429184E+04 0.  0.
        1    1    3    3  502    0 -0.86075325661E+03  0.10782133094E+03  0.13225511720E+04  0.15816646960E+04  0.50400001928E-02 0.  1.
       -1    1    3    3    0  502  0.86075325661E+03 -0.10782133094E+03  0.24004402801E+03  0.90007929849E+03  0.50400001928E-02 0. -1.
</event>
<event>
 5   0  0.2608744E-04  0.1887963E+04  0.7818609E-02  0.8660871E-01
       -2   -1    0    0    0  501  0.00000000000E+00  0.00000000000E+00  0.90753441595E+03  0.90753441595E+03  0.25500000920E-02 0.  1.
        2   -1    0    0  501    0  0.00000000000E+00  0.00000000000E+00 -0.98189203193E+03  0.98189203193E+03  0.25500000920E-02 0. -1.
    10030    2    1    2    0    0  0.00000000000E+00  0.00000000000E+00 -0.74357615980E+02  0.18894264479E+04  0.18879627239E+04 0.  0.
        2    1    3    3  502    0  0.76275563933E+03  0.54809073765E+03 -0.13159807034E+03  0.94842905594E+03  0.25500000920E-02 0. -1.
       -2    1    3    3    0  502 -0.76275563933E+03 -0.54809073765E+03  0.57240454357E+02  0.94099739195E+03  0.25500000920E-02 0.  1.
</event>
<event>
 5   0  0.1277709E-04  0.1909335E+04  0.7818609E-02  0.8650224E-01
       -1   -1    0    0    0  501  0.00000000000E+00  0.00000000000E+00  0.80547819019E+03  0.80547819021E+03  0.50400001928E-02 0.  1.
        1   -1    0    0  501    0  0.00000000000E+00  0.00000000000E+00 -0.11314892676E+04  0.11314892676E+04  0.50400001928E-02 0. -1.
    10030    2    1    2    0    0  0.00000000000E+00  0.00000000000E+00 -0.32601107739E+03  0.19369674578E+04  0.19093348868E+04 0.  0.
        4    1    3    3  502    0 -0.20412213978E+03  0.67888615026E+03 -0.81166209855E+03  0.10776591428E+04  0.12699999809E+01 0. -1.
       -4    1    3    3    0  502  0.20412213978E+03 -0.67888615026E+03  0.48565102116E+03  0.85930831499E+03  0.12699999809E+01 0.  1.
</event>
<event>
 5   0  0.1317527E-04  0.1854485E+04  0.7818609E-02  0.8677850E-01
        1   -1    0    0  501    0  0.00000000000E+00  0.00000000000E+00  0.53612110295E+03  0.53612110297E+03  0.50400001928E-02 0.  1.
       -1   -1    0    0    0  501  0.00000000000E+00  0.00000000000E+00 -0.16037022492E+04  0.16037022492E+04  0.50400001928E-02 0. -1.
    10030    2    1    2    0    0  0.00000000000E+00  0.00000000000E+00 -0.10675811463E+04  0.21398233522E+04  0.18544849621E+04 0.  0.
        1    1    3    3  502    0 -0.17385816714E+03  0.34743027439E+03  0.43768076030E+03  0.58523406070E+03  0.50400001928E-02 0.  1.
       -1    1    3    3    0  502  0.17385816714E+03 -0.34743027439E+03 -0.15052619066E+04  0.15545892915E+04  0.50400001928E-02 0. -1.
</event>
<event>
 5   0  0.1255141E-04  0.1905298E+04  0.7818609E-02  0.8652224E-01
        1   -1    0    0  501    0  0.00000000000E+00  0.00000000000E+00  0.16335759256E+04  0.16335759257E+04  0.50400001928E-02 0.  1.
       -1   -1    0    0    0  501  0.00000000000E+00  0.00000000000E+00 -0.55555450954E+03  0.55555450956E+03  0.50400001928E-02 0. -1.
    10030    2    1    2    0    0  0.00000000000E+00  0.00000000000E+00  0.10780214161E+04  0.21891304352E+04  0.19052983726E+04 0.  0.
        2    1    3    3  502    0  0.42281250667E+03 -0.59904788801E+03  0.12378183846E+04  0.14386879930E+04  0.25500000920E-02 0. -1.
       -2    1    3    3    0  502 -0.42281250667E+03  0.59904788801E+03 -0.15979696849E+03  0.75044244221E+03  0.25500000920E-02 0.  1.
</event>
<event>
 5   0  0.1324058E-04  0.1898795E+04  0.7818609E-02  0.8655456E-01
        1   -1    0    0  501    0  0.00000000000E+00  0.00000000000E+00  0.86991956225E+03  0.86991956226E+03  0.50400001928E-02 0.  1.
       -1   -1    0    0    0  501  0.00000000000E+00  0.00000000000E+00 -0.10361369488E+04  0.10361369488E+04  0.50400001928E-02 0. -1.
    10030    2    1    2    0    0  0.00000000000E+00  0.00000000000E+00 -0.16621738656E+03  0.19060565111E+04  0.18987951980E+04 0.  0.
        5    1    3    3  502    0 -0.22858193097E+03  0.83544153185E+03 -0.47333874924E+03  0.98705821198E+03  0.46999998093E+01 0. -1.
       -5    1    3    3    0  502  0.22858193097E+03 -0.83544153185E+03  0.30712136269E+03  0.91899829909E+03  0.46999998093E+01 0.  1.
</event>
<event>
 5   0  0.2562925E-04  0.1881524E+04  0.7818609E-02  0.8664108E-01
       -2   -1    0    0    0  501  0.00000000000E+00  0.00000000000E+00  0.89479496313E+03  0.89479496313E+03  0.25500000920E-02 0.  1.
        2   -1    0    0  501    0  0.00000000000E+00  0.00000000000E+00 -0.98909050497E+03  0.98909050497E+03  0.25500000920E-02 0. -1.
    10030    2    1    2    0    0  0.00000000000E+00  0.00000000000E+00 -0.94295541835E+02  0.18838854681E+04  0.18815240651E+04 0.  0.
        4    1    3    3  502    0  0.16947892035E+03 -0.19031993933E+03 -0.95387076809E+03  0.98732762489E+03  0.12699999809E+01 0. -1.
       -4    1    3    3    0  502 -0.16947892035E+03  0.19031993933E+03  0.85957522625E+03  0.89655784322E+03  0.12699999809E+01 0.  1.
</event>
<event>
 5   0  0.2562925E-04  0.1872224E+04  0.7818609E-02  0.8668807E-01
        2   -1    0    0  501    0  0.00000000000E+00  0.00000000000E+00  0.16911226481E+04  0.16911226481E+04  0.25500000920E-02 0.  1.
       -2   -1    0    0    0  501  0.00000000000E+00  0.00000000000E+00 -0.51817961898E+03  0.51817961899E+03  0.25500000920E-02 0. -1.
    10030    2    1    2    0    0  0.00000000000E+00  0.00000000000E+00  0.11729430291E+04  0.22093022671E+04  0.18722235865E+04 0.  0.
        4    1    3    3  502    0  0.46765472117E+03 -0.80640729845E+03  0.68736342185E+03  0.11582157639E+04  0.12699999809E+01 0. -1.
       -4    1    3    3    0  502 -0.46765472117E+03  0.80640729845E+03  0.48557960727E+03  0.10510865032E+04  0.12699999809E+01 0.  1.
</event>
<event>
 5   0  0.1255141E-04  0.1894841E+04  0.7818609E-02  0.8657428E-01
        1   -1    0    0  501    0  0.00000000000E+00  0.00000000000E+00  0.24901407556E+04  0.24901407556E+04  0.50400001928E-02 0.  1.
       -1   -1    0    0    0  501  0.00000000000E+00  0.00000000000E+00 -0.36046395769E+03  0.36046395773E+03  0.50400001928E-02 0. -1.
    10030    2    1    2    0    0  0.00000000000E+00  0.00000000000E+00  0.21296767979E+04  0.28506047134E+04  0.18948414098E+04 0.  0.
        2    1    3    3  502    0 -0.82013253059E+03  0.34379211515E+03  0.15564711694E+04  0.17925994777E+04  0.25500000920E-02 0. -1.
       -2    1    3    3    0  502  0.82013253059E+03 -0.34379211515E+03  0.57320562854E+03  0.10580052357E+04  0.25500000920E-02 0.  1.
</event>
<event>
 5   0  0.2562925E-04  0.1812085E+04  0.7818609E-02  0.8699899E-01
       -2   -1    0    0    0  501  0.00000000000E+00  0.00000000000E+00  0.50276766679E+03  0.50276766680E+03  0.25500000920E-02 0. -1.
        2   -1    0    0  501    0  0.00000000000E+00  0.00000000000E+00 -0.16327879603E+04  0.16327879603E+04  0.25500000920E-02 0.  1.
    10030    2    1    2    0    0  0.00000000000E+00  0.00000000000E+00 -0.11300202935E+04  0.21355556271E+04  0.18120849794E+04 0.  0.
        4    1    3    3  502    0 -0.47318683063E+03  0.73547802727E+03 -0.28593103788E+03  0.92010427485E+03  0.12699999809E+01 0. -1.
       -4    1    3    3    0  502  0.47318683063E+03 -0.73547802727E+03 -0.84408925558E+03  0.12154513522E+04  0.12699999809E+01 0.  1.
</event>
<event>
 5   0  0.2595012E-04  0.1916160E+04  0.7818609E-02  0.8646854E-01
       -2   -1    0    0    0  501  0.00000000000E+00  0.00000000000E+00  0.43110279397E+03  0.43110279398E+03  0.25500000920E-02 0. -1.
        2   -1    0    0  501    0  0.00000000000E+00  0.00000000000E+00 -0.21292309704E+04  0.21292309704E+04  0.25500000920E-02 0.  1.
    10030    2    1    2    0    0  0.00000000000E+00  0.00000000000E+00 -0.16981281765E+04  0.25603337644E+04  0.19161601398E+04 0.  0.
        1    1    3    3  502    0  0.67529847728E+03 -0.52035599990E+03 -0.14332038068E+04  0.16675945406E+04  0.50400001928E-02 0.  1.
       -1    1    3    3    0  502 -0.67529847728E+03  0.52035599990E+03 -0.26492436966E+03  0.89273922380E+03  0.50400001928E-02 0. -1.
</event>
<event>
 5   0  0.2562925E-04  0.1893850E+04  0.7818609E-02  0.8657924E-01
        2   -1    0    0  501    0  0.00000000000E+00  0.00000000000E+00  0.14676583865E+04  0.14676583865E+04  0.25500000920E-02 0. -1.
       -2   -1    0    0    0  501  0.00000000000E+00  0.00000000000E+00 -0.61095065217E+03  0.61095065217E+03  0.25500000920E-02 0.  1.
    10030    2    1    2    0    0  0.00000000000E+00  0.00000000000E+00  0.85670773434E+03  0.20786090387E+04  0.18938498868E+04 0.  0.
        4    1    3    3  502    0 -0.56153922586E+02  0.94204739826E+03  0.34292277131E+03  0.10040937225E+04  0.12699999809E+01 0.  1.
       -4    1    3    3    0  502  0.56153922586E+02 -0.94204739826E+03  0.51378496304E+03  0.10745153162E+04  0.12699999809E+01 0. -1.
</event>
<event>
 5   0  0.1324058E-04  0.1821656E+04  0.7818609E-02  0.8694867E-01
       -1   -1    0    0    0  501  0.00000000000E+00  0.00000000000E+00  0.80686452886E+03  0.80686452888E+03  0.50400001928E-02 0. -1.
        1   -1    0    0  501    0  0.00000000000E+00  0.00000000000E+00 -0.10281874992E+04  0.10281874992E+04  0.50400001928E-02 0.  1.
    10030    2    1    2    0    0  0.00000000000E+00  0.00000000000E+00 -0.22132297033E+03  0.18350520281E+04  0.18216564134E+04 0.  0.
        5    1    3    3  502    0 -0.80242393603E+03 -0.21172233261E+03  0.26743228006E+03  0.87192467201E+03  0.46999998093E+01 0. -1.
       -5    1    3    3    0  502  0.80242393603E+03  0.21172233261E+03 -0.48875525040E+03  0.96312735608E+03  0.46999998093E+01 0.  1.
</event>
<event>
 5   0  0.2541124E-04  0.1878208E+04  0.7818609E-02  0.8665780E-01
       -2   -1    0    0    0  501  0.00000000000E+00  0.00000000000E+00  0.86048171961E+03  0.86048171961E+03  0.25500000920E-02 0.  1.
        2   -1    0    0  501    0  0.00000000000E+00  0.00000000000E+00 -0.10249098311E+04  0.10249098311E+04  0.25500000920E-02 0. -1.
    10030    2    1    2    0    0  0.00000000000E+00  0.00000000000E+00 -0.16442811153E+03  0.18853915508E+04  0.18782078415E+04 0.  0.
        5    1    3    3  502    0 -0.40201447605E+03  0.78482509971E+03  0.24201980261E+03  0.91441880500E+03  0.46999998093E+01 0.  1.
       -5    1    3    3    0  502  0.40201447605E+03 -0.78482509971E+03 -0.40644791414E+03  0.97097274575E+03  0.46999998093E+01 0. -1.
</event>
<event>
 5   0  0.1324058E-04  0.1907993E+04  0.7818609E-02  0.8650888E-01
        1   -1    0    0  501    0  0.00000000000E+00  0.00000000000E+00  0.17701993505E+04  0.17701993505E+04  0.50400001928E-02 0. -1.
       -1   -1    0    0    0  501  0.00000000000E+00  0.00000000000E+00 -0.51412795498E+03  0.51412795500E+03  0.50400001928E-02 0.  1.
    10030    2    1    2    0    0  0.00000000000E+00  0.00000000000E+00  0.12560713956E+04  0.22843273055E+04  0.19079926331E+04 0.  0.
        5    1    3    3  502    0 -0.77942654862E+03  0.29431808717E+03  0.71662389373E+02  0.83623350159E+03  0.46999998093E+01 0.  1.
       -5    1    3    3    0  502  0.77942654862E+03 -0.29431808717E+03  0.11844090062E+04  0.14480938040E+04  0.46999998093E+01 0. -1.
</event>
<event>
 5   0  0.1239615E-04  0.1903059E+04  0.7818609E-02  0.8653335E-01
       -1   -1    0    0    0  501  0.00000000000E+00  0.00000000000E+00  0.45702370772E+03  0.45702370775E+03  0.50400001928E-02 0.  1.
        1   -1    0    0  501    0  0.00000000000E+00  0.00000000000E+00 -0.19810972551E+04  0.19810972551E+04  0.50400001928E-02 0. -1.
    10030    2    1    2    0    0  0.00000000000E+00  0.00000000000E+00 -0.15240735474E+04  0.24381209628E+04  0.19030590247E+04 0.  0.
        3    1    3    3  502    0  0.63421704979E+03 -0.62047903463E+03 -0.12024702475E+04  0.14943761926E+04  0.10100000352E+00 0. -1.
       -3    1    3    3    0  502 -0.63421704979E+03  0.62047903463E+03 -0.32160329985E+03  0.94374477023E+03  0.10100000352E+00 0.  1.
</event>
<event>
 5   0  0.2541124E-04  0.1902667E+04  0.7818609E-02  0.8653530E-01
        2   -1    0    0  501    0  0.00000000000E+00  0.00000000000E+00  0.11482973404E+04  0.11482973404E+04  0.25500000920E-02 0.  1.
       -2   -1    0    0    0  501  0.00000000000E+00  0.00000000000E+00 -0.78815386727E+03  0.78815386727E+03  0.25500000920E-02 0. -1.
    10030    2    1    2    0    0  0.00000000000E+00  0.00000000000E+00  0.36014347313E+03  0.19364512077E+04  0.19026665390E+04 0.  0.
        5    1    3    3  502    0 -0.70977526050E+03  0.72450475814E+02  0.82051711825E+03  0.10873363892E+04  0.46999998093E+01 0.  1.
       -5    1    3    3    0  502  0.70977526050E+03 -0.72450475814E+02 -0.46037364513E+03  0.84911481850E+03  0.46999998093E+01 0. -1.
</event>
<event>
 5   0  0.1317527E-04  0.1897549E+04  0.7818609E-02  0.8656078E-01
       -1   -1    0    0    0  501  0.00000000000E+00  0.00000000000E+00  0.97129487529E+03  0.97129487530E+03  0.50400001928E-02 0.  1.
        1   -1    0    0  501    0  0.00000000000E+00  0.00000000000E+00 -0.92677595954E+03  0.92677595955E+03  0.50400001928E-02 0. -1.
    10030    2    1    2    0    0  0.00000000000E+00  0.00000000000E+00  0.44518915752E+02  0.18980708349E+04  0.18975486714E+04 0.  0.
        1    1    3    3  502    0  0.45734024327E+00 -0.30959624229E+03 -0.87482772976E+03  0.92799439609E+03  0.50400001928E-02 0. -1.
       -1    1    3    3    0  502 -0.45734024327E+00  0.30959624229E+03  0.91934664551E+03  0.97007643876E+03  0.50400001928E-02 0.  1.
</event>
<event>
 5   0  0.1277709E-04  0.1890024E+04  0.7818609E-02  0.8659838E-01
       -1   -1    0    0    0  501  0.00000000000E+00  0.00000000000E+00  0.98627738918E+03  0.98627738920E+03  0.50400001928E-02 0.  1.
        1   -1    0    0  501    0  0.00000000000E+00  0.00000000000E+00 -0.90547283211E+03  0.90547283212E+03  0.50400001928E-02 0. -1.
    10030    2    1    2    0    0  0.00000000000E+00  0.00000000000E+00  0.80804557076E+02  0.18917502213E+04  0.18900236833E+04 0.  0.
        4    1    3    3  502    0 -0.86923247559E+02  0.49971331326E+03 -0.75768218885E+03  0.91178558807E+03  0.12699999809E+01 0. -1.
       -4    1    3    3    0  502  0.86923247559E+02 -0.49971331326E+03  0.83848674593E+03  0.97996463325E+03  0.12699999809E+01 0.  1.
</event>
<event>
 5   0  0.1324058E-04  0.1879758E+04  0.7818609E-02  0.8664998E-01
        1   -1    0    0  501    0  0.00000000000E+00  0.00000000000E+00  0.12421999205E+04  0.12421999205E+04  0.50400001928E-02 0.  1.
       -1   -1    0    0    0  501  0.00000000000E+00  0.00000000000E+00 -0.71113561961E+03  0.71113561962E+03  0.50400001928E-02 0. -1.
    10030    2    1    2    0    0  0.00000000000E+00  0.00000000000E+00  0.53106430088E+03  0.19533355401E+04  0.18797580803E+04 0.  0.
        5    1    3    3  502    0 -0.13997722311E+03 -0.68040536345E+03 -0.39234029179E+03  0.79780829537E+03  0.46999998093E+01 0. -1.
       -5    1    3    3    0  502  0.13997722311E+03  0.68040536345E+03  0.92340459267E+03  0.11555272447E+04  0.46999998093E+01 0.  1.
</event>
<event>
 5   0  0.1317527E-04  0.1936189E+04  0.7818609E-02  0.8637050E-01
       -1   -1    0    0    0  501  0.00000000000E+00  0.00000000000E+00  0.67153422135E+03  0.67153422137E+03  0.50400001928E-02 0. -1.
        1   -1    0    0  501    0  0.00000000000E+00  0.00000000000E+00 -0.13956204688E+04  0.13956204689E+04  0.50400001928E-02 0.  1.
    10030    2    1    2    0    0  0.00000000000E+00  0.00000000000E+00 -0.72408624750E+03  0.20671546902E+04  0.19361889421E+04 0.  0.
        1    1    3    3  502    0 -0.54008922265E+03 -0.16090873717E+02 -0.12196530392E+04  0.13339823164E+04  0.50400001928E-02 0.  1.
       -1    1    3    3    0  502  0.54008922265E+03  0.16090873717E+02  0.49556679166E+03  0.73317237378E+03  0.50400001928E-02 0. -1.
</event>
<event>
 5   0  0.1317527E-04  0.1858496E+04  0.7818609E-02  0.8675796E-01
       -1   -1    0    0    0  501  0.00000000000E+00  0.00000000000E+00  0.73393180926E+03  0.73393180928E+03  0.50400001928E-02 0.  1.
        1   -1    0    0  501    0  0.00000000000E+00  0.00000000000E+00 -0.11765424432E+04  0.11765424432E+04  0.50400001928E-02 0. -1.
    10030    2    1    2    0    0  0.00000000000E+00  0.00000000000E+00 -0.44261063397E+03  0.19104742525E+04  0.18584960845E+04 0.  0.
        1    1    3    3  502    0  0.54619541476E+03 -0.75161312661E+03 -0.20504519073E+03  0.95147004864E+03  0.50400001928E-02 0.  1.
       -1    1    3    3    0  502 -0.54619541476E+03  0.75161312661E+03 -0.23756544324E+03  0.95900420387E+03  0.50400001928E-02 0. -1.
</event>
<event>
 5   0  0.2562925E-04  0.1896685E+04  0.7818609E-02  0.8656508E-01
        2   -1    0    0  501    0  0.00000000000E+00  0.00000000000E+00  0.67597024130E+03  0.67597024130E+03  0.25500000920E-02 0. -1.
       -2   -1    0    0    0  501  0.00000000000E+00  0.00000000000E+00 -0.13304632831E+04  0.13304632831E+04  0.25500000920E-02 0.  1.
    10030    2    1    2    0    0  0.00000000000E+00  0.00000000000E+00 -0.65449304180E+03  0.20064335244E+04  0.18966850941E+04 0.  0.
        4    1    3    3  502    0 -0.87796531979E+02 -0.28073620605E+03  0.62649272445E+03  0.69210966985E+03  0.12699999809E+01 0. -1.
       -4    1    3    3    0  502  0.87796531979E+02  0.28073620605E+03 -0.12809857663E+04  0.13143238546E+04  0.12699999809E+01 0.  1.
</event>
<event>
 5   0  0.1277709E-04  0.1913178E+04  0.7818609E-02  0.8648325E-01
       -1   -1    0    0    0  501  0.00000000000E+00  0.00000000000E+00  0.65316544721E+03  0.65316544723E+03  0.50400001928E-02 0.  1.
        1   -1    0    0  501    0  0.00000000000E+00  0.00000000000E+00 -0.14009657306E+04  0.14009657306E+04  0.50400001928E-02 0. -1.
    10030    2    1    2    0    0  0.00000000000E+00  0.00000000000E+00 -0.74780028337E+03  0.20541311778E+04  0.19131778882E+04 0.  0.
        4    1    3    3  502    0 -0.93204543893E+03 -0.20651122489E+03 -0.30854508930E+03  0.10032732785E+04  0.12699999809E+01 0.  1.
       -4    1    3    3    0  502  0.93204543893E+03  0.20651122489E+03 -0.43925519406E+03  0.10508578994E+04  0.12699999809E+01 0. -1.
</event>
<event>
 5   0  0.1317527E-04  0.1746273E+04  0.7818609E-02  0.8735405E-01
       -1   -1    0    0    0  501  0.00000000000E+00  0.00000000000E+00  0.51045083466E+03  0.51045083469E+03  0.50400001928E-02 0. -1.
        1   -1    0    0  501    0  0.00000000000E+00  0.00000000000E+00 -0.14935176023E+04  0.14935176023E+04  0.50400001928E-02 0.  1.
    10030    2    1    2    0    0  0.00000000000E+00  0.00000000000E+00 -0.98306676765E+03  0.20039684370E+04  0.17462729531E+04 0.  0.
        1    1    3    3  502    0  0.33563853334E+02  0.69264297681E+03 -0.11003794725E+04  0.13006597592E+04  0.50400001928E-02 0.  1.
       -1    1    3    3    0  502 -0.33563853334E+02 -0.69264297681E+03  0.11731270487E+03  0.70330867784E+03  0.50400001928E-02 0. -1.
</event>
<event>
 5   0  0.1239615E-04  0.1890264E+04  0.7818609E-02  0.8659718E-01
       -1   -1    0    0    0  501  0.00000000000E+00  0.00000000000E+00  0.13194371915E+04  0.13194371916E+04  0.50400001928E-02 0. -1.
        1   -1    0    0  501    0  0.00000000000E+00  0.00000000000E+00 -0.67701160721E+03  0.67701160723E+03  0.50400001928E-02 0.  1.
    10030    2    1    2    0    0  0.00000000000E+00  0.00000000000E+00  0.64242558434E+03  0.19964487988E+04  0.18902637844E+04 0.  0.
        3    1    3    3  502    0 -0.41759295193E+03  0.69143612016E+03 -0.19707367259E+03  0.83144802867E+03  0.10100000352E+00 0.  1.
       -3    1    3    3    0  502  0.41759295193E+03 -0.69143612016E+03  0.83949925693E+03  0.11650007701E+04  0.10100000352E+00 0. -1.
</event>
<event>
 5   0  0.1239615E-04  0.1901197E+04  0.7818609E-02  0.8654261E-01
       -1   -1    0    0    0  501  0.00000000000E+00  0.00000000000E+00  0.62895727679E+03  0.62895727681E+03  0.50400001928E-02 0.  1.
        1   -1    0    0  501    0  0.00000000000E+00  0.00000000000E+00 -0.14367238296E+04  0.14367238296E+04  0.50400001928E-02 0. -1.
    10030    2    1    2    0    0  0.00000000000E+00  0.00000000000E+00 -0.80776655277E+03  0.20656811064E+04  0.19011974199E+04 0.  0.
        3    1    3    3  502    0 -0.19884748786E+03 -0.22038398307E+03 -0.13850789519E+04  0.14165285513E+04  0.10100000352E+00 0. -1.
       -3    1    3    3    0  502  0.19884748786E+03  0.22038398307E+03  0.57731239911E+03  0.64915255510E+03  0.10100000352E+00 0.  1.
</event>
<event>
 5   0  0.2562925E-04  0.1854443E+04  0.7818609E-02  0.8677871E-01
       -2   -1    0    0    0  501  0.00000000000E+00  0.00000000000E+00  0.11375165199E+04  0.11375165199E+04  0.25500000920E-02 0. -1.
        2   -1    0    0  501    0  0.00000000000E+00  0.00000000000E+00 -0.75580435906E+03  0.75580435906E+03  0.25500000920E-02 0.  1.
    10030    2    1    2    0    0  0.00000000000E+00  0.00000000000E+00  0.38171216084E+03  0.18933208790E+04  0.18544432526E+04 0.  0.
        4    1    3    3  502    0 -0.13341860681E+03 -0.88621315051E+03  0.43367412517E+03  0.99561495193E+03  0.12699999809E+01 0. -1.
       -4    1    3    3    0  502  0.13341860681E+03  0.88621315051E+03 -0.51961964336E+02  0.89770592702E+03  0.12699999809E+01 0.  1.
</event>
<event>
 5   0  0.1255141E-04  0.1933345E+04  0.7818609E-02  0.8638434E-01
        1   -1    0    0  501    0  0.00000000000E+00  0.00000000000E+00  0.10058641531E+04  0.10058641531E+04  0.50400001928E-02 0.  1.
       -1   -1    0    0    0  501  0.00000000000E+00  0.00000000000E+00 -0.92900812014E+03  0.92900812015E+03  0.50400001928E-02 0. -1.
    10030    2    1    2    0    0  0.00000000000E+00  0.00000000000E+00  0.76856032917E+02  0.19348722732E+04  0.19333452521E+04 0.  0.
        2    1    3    3  502    0  0.15187360757E+03 -0.92597917017E+03 -0.19403318689E+03  0.95820242845E+03  0.25500000920E-02 0. -1.
       -2    1    3    3    0  502 -0.15187360757E+03  0.92597917017E+03  0.27088921980E+03  0.97666984477E+03  0.25500000920E-02 0.  1.
</event>
<event>
 5   0  0.1277709E-04  0.1682060E+04  0.7818609E-02  0.8771663E-01
        1   -1    0    0  501    0  0.00000000000E+00  0.00000000000E+00  0.15059156567E+04  0.15059156567E+04  0.50400001928E-02 0.  1.
       -1   -1    0    0    0  501  0.00000000000E+00  0.00000000000E+00 -0.46970207912E+03  0.46970207915E+03  0.50400001928E-02 0. -1.
    10030    2    1    2    0    0  0.00000000000E+00  0.00000000000E+00  0.10362135776E+04  0.19756177359E+04  0.16820603021E+04 0.  0.
        4    1    3    3  502    0 -0.32166136639E+02  0.47294469459E+03  0.13340566140E+04  0.14157754083E+04  0.12699999809E+01 0. -1.
       -4    1    3    3    0  502  0.32166136639E+02 -0.47294469459E+03 -0.29784303642E+03  0.55984232756E+03  0.12699999809E+01 0.  1.
</event>
<event>
 5   0  0.2562925E-04  0.1824394E+04  0.7818609E-02  0.8693433E-01
        2   -1    0    0  501    0  0.00000000000E+00  0.00000000000E+00  0.19407595610E+04  0.19407595610E+04  0.25500000920E-02 0. -1.
       -2   -1    0    0    0  501  0.00000000000E+00  0.00000000000E+00 -0.42875155715E+03  0.42875155715E+03  0.25500000920E-02 0.  1.
    10030    2    1    2    0    0  0.00000000000E+00  0.00000000000E+00  0.15120080039E+04  0.23695111182E+04  0.18243943475E+04 0.  0.
        4    1    3    3  502    0  0.40025310780E+03  0.34972046073E+03  0.17188602806E+04  0.17991634801E+04  0.12699999809E+01 0. -1.
       -4    1    3    3    0  502 -0.40025310780E+03 -0.34972046073E+03 -0.20685227674E+03  0.57034763807E+03  0.12699999809E+01 0.  1.
</event>
<event>
 5   0  0.2541124E-04  0.1876548E+04  0.7818609E-02  0.8666619E-01
       -2   -1    0    0    0  501  0.00000000000E+00  0.00000000000E+00  0.49179839698E+03  0.49179839698E+03  0.25500000920E-02 0. -1.
        2   -1    0    0  501    0  0.00000000000E+00  0.00000000000E+00 -0.17900787748E+04  0.17900787748E+04  0.25500000920E-02 0.  1.
    10030    2    1    2    0    0  0.00000000000E+00  0.00000000000E+00 -0.12982803778E+04  0.22818771718E+04  0.18765477579E+04 0.  0.
        5    1    3    3  502    0  0.81290682644E+03  0.45341823297E+03 -0.50562066078E+03  0.10592827503E+04  0.46999998093E+01 0. -1.
       -5    1    3    3    0  502 -0.81290682644E+03 -0.45341823297E+03 -0.79265971707E+03  0.12225944215E+04  0.46999998093E+01 0.  1.
</event>
<event>
 5   0  0.1277709E-04  0.1887056E+04  0.7818609E-02  0.8661326E-01
        1   -1    0    0  501    0  0.00000000000E+00  0.00000000000E+00  0.11628532361E+04  0.11628532361E+04  0.50400001928E-02 0. -1.
       -1   -1    0    0    0  501  0.00000000000E+00  0.00000000000E+00 -0.76556941475E+03  0.76556941477E+03  0.50400001928E-02 0.  1.
    10030    2    1    2    0    0  0.00000000000E+00  0.00000000000E+00  0.39728382133E+03  0.19284226509E+04  0.18870557717E+04 0.  0.
        4    1    3    3  502    0 -0.84703426275E+03  0.40699713248E+03  0.11235427694E+03  0.94643478622E+03  0.12699999809E+01 0. -1.
       -4    1    3    3    0  502  0.84703426275E+03 -0.40699713248E+03  0.28492954438E+03  0.98198786463E+03  0.12699999809E+01 0.  1.
</event>
<event>
 5   0  0.2562925E-04  0.1907089E+04  0.7818609E-02  0.8651336E-01
       -2   -1    0    0    0  501  0.00000000000E+00  0.00000000000E+00  0.12093341743E+04  0.12093341743E+04  0.25500000920E-02 0.  1.
        2   -1    0    0  501    0  0.00000000000E+00  0.00000000000E+00 -0.75185792708E+03  0.75185792708E+03  0.25500000920E-02 0. -1.
    10030    2    1    2    0    0  0.00000000000E+00  0.00000000000E+00  0.45747624718E+03  0.19611921013E+04  0.19070893900E+04 0.  0.
        4    1    3    3  502    0  0.91804959257E+03 -0.24799924486E+03  0.15655280855E+03  0.96375778837E+03  0.12699999809E+01 0.  1.
       -4    1    3    3    0  502 -0.91804959257E+03  0.24799924486E+03  0.30092343863E+03  0.99743431297E+03  0.12699999809E+01 0. -1.
</event>
<event>
 5   0  0.2651828E-04  0.1890700E+04  0.7818609E-02  0.8659500E-01
        2   -1    0    0  501    0  0.00000000000E+00  0.00000000000E+00  0.18820014986E+04  0.18820014986E+04  0.25500000920E-02 0. -1.
       -2   -1    0    0    0  501  0.00000000000E+00  0.00000000000E+00 -0.47485946569E+03  0.47485946569E+03  0.25500000920E-02 0.  1.
    10030    2    1    2    0    0  0.00000000000E+00  0.00000000000E+00  0.14071420329E+04  0.23568609643E+04  0.18906995806E+04 0.  0.
        3    1    3    3  502    0  0.50192722556E+03  0.55546580245E+03  0.14231399680E+04  0.16080424672E+04  0.10100000352E+00 0. -1.
       -3    1    3    3    0  502 -0.50192722556E+03 -0.55546580245E+03 -0.15997935146E+02  0.74881849709E+03  0.10100000352E+00 0.  1.
</event>
<event>
 5   0  0.1324058E-04  0.1902077E+04  0.7818609E-02  0.8653823E-01
        1   -1    0    0  501    0  0.00000000000E+00  0.00000000000E+00  0.94988710782E+03  0.94988710784E+03  0.50400001928E-02 0.  1.
       -1   -1    0    0    0  501  0.00000000000E+00  0.00000000000E+00 -0.95219153263E+03  0.95219153265E+03  0.50400001928E-02 0. -1.
    10030    2    1    2    0    0  0.00000000000E+00  0.00000000000E+00 -0.23044248114E+01  0.19020786405E+04  0.19020772445E+04 0.  0.
        5    1    3    3  502    0  0.34169612386E+03 -0.65933962150E+03  0.59295881392E+03  0.95031953707E+03  0.46999998093E+01 0.  1.
       -5    1    3    3    0  502 -0.34169612386E+03  0.65933962150E+03 -0.59526323873E+03  0.95175910341E+03  0.46999998093E+01 0. -1.
</event>
<event>
 5   0  0.2608744E-04  0.1912354E+04  0.7818609E-02  0.8648731E-01
        2   -1    0    0  501    0  0.00000000000E+00  0.00000000000E+00  0.13469519026E+04  0.13469519026E+04  0.25500000920E-02 0.  1.
       -2   -1    0    0    0  501  0.00000000000E+00  0.00000000000E+00 -0.67877271967E+03  0.67877271967E+03  0.25500000920E-02 0. -1.
    10030    2    1    2    0    0  0.00000000000E+00  0.00000000000E+00  0.66817918289E+03  0.20257246222E+04  0.19123537394E+04 0.  0.
        2    1    3    3  502    0  0.90964589045E+02  0.85995128975E+03 -0.98123267457E+02  0.87029819765E+03  0.25500000920E-02 0. -1.
       -2    1    3    3    0  502 -0.90964589045E+02 -0.85995128975E+03  0.76630245035E+03  0.11554264246E+04  0.25500000920E-02 0.  1.
</event>
<event>
 5   0  0.9266125E-05  0.1875496E+04  0.7818609E-02  0.8667150E-01
        3   -1    0    0  501    0  0.00000000000E+00  0.00000000000E+00  0.15959506594E+04  0.15959506626E+04  0.10100000352E+00 0. -1.
       -3   -1    0    0    0  501  0.00000000000E+00  0.00000000000E+00 -0.55100183170E+03  0.55100184096E+03  0.10100000352E+00 0.  1.
    10030    2    1    2    0    0  0.00000000000E+00  0.00000000000E+00  0.10449488277E+04  0.21469525035E+04  0.18754964676E+04 0.  0.
        1    1    3    3  502    0 -0.89672830473E+03  0.24379872155E+02  0.20969531191E+03  0.92124272292E+03  0.50400001928E-02 0.  1.
       -1    1    3    3    0  502  0.89672830473E+03 -0.24379872155E+02  0.83525351578E+03  0.12257097806E+04  0.50400001928E-02 0. -1.
</event>
<event>
 5   0  0.2608744E-04  0.1846330E+04  0.7818609E-02  0.8682042E-01
       -2   -1    0    0    0  501  0.00000000000E+00  0.00000000000E+00  0.48971663058E+03  0.48971663059E+03  0.25500000920E-02 0.  1.
        2   -1    0    0  501    0  0.00000000000E+00  0.00000000000E+00 -0.17402590029E+04  0.17402590029E+04  0.25500000920E-02 0. -1.
    10030    2    1    2    0    0  0.00000000000E+00  0.00000000000E+00 -0.12505423723E+04  0.22299756334E+04  0.18463301711E+04 0.  0.
        2    1    3    3  502    0 -0.18778868569E+03  0.82378808854E+03 -0.17604159422E+03  0.86306549473E+03  0.25500000920E-02 0.  1.
       -2    1    3    3    0  502  0.18778868569E+03 -0.82378808854E+03 -0.10745007780E+04  0.13669101387E+04  0.25500000920E-02 0. -1.
</event>
<event>
 5   0  0.1239615E-04  0.1907277E+04  0.7818609E-02  0.8651243E-01
        1   -1    0    0  501    0  0.00000000000E+00  0.00000000000E+00  0.58425526611E+03  0.58425526613E+03  0.50400001928E-02 0. -1.
       -1   -1    0    0    0  501  0.00000000000E+00  0.00000000000E+00 -0.15565568399E+04  0.15565568399E+04  0.50400001928E-02 0.  1.
    10030    2    1    2    0    0  0.00000000000E+00  0.00000000000E+00 -0.97230157380E+03  0.21408121060E+04  0.19072771490E+04 0.  0.
        3    1    3    3  502    0 -0.53025940903E+03  0.75009541568E+03 -0.19864651996E+03  0.93982903955E+03  0.10100000352E+00 0. -1.
       -3    1    3    3    0  502  0.53025940903E+03 -0.75009541568E+03 -0.77365505384E+03  0.12009830665E+04  0.10100000352E+00 0.  1.
</event>
<event>
 5   0  0.2651828E-04  0.1908141E+04  0.7818609E-02  0.8650815E-01
       -2   -1    0    0    0  501  0.00000000000E+00  0.00000000000E+00  0.64205053176E+03  0.64205053176E+03  0.25500000920E-02 0.  1.
        2   -1    0    0  501    0  0.00000000000E+00  0.00000000000E+00 -0.14177237853E+04  0.14177237853E+04  0.25500000920E-02 0. -1.
    10030    2    1    2    0    0  0.00000000000E+00  0.00000000000E+00 -0.77567325351E+03  0.20597743170E+04  0.19081407812E+04 0.  0.
        3    1    3    3  502    0 -0.24420580489E+03  0.73231753546E+03 -0.99303616109E+03  0.12577942102E+04  0.10100000352E+00 0. -1.
       -3    1    3    3    0  502  0.24420580489E+03 -0.73231753546E+03  0.21736290758E+03  0.80198010679E+03  0.10100000352E+00 0.  1.
</event>
<event>
 5   0  0.1277709E-04  0.1866942E+04  0.7818609E-02  0.8671489E-01
        1   -1    0    0  501    0  0.00000000000E+00  0.00000000000E+00  0.14414378638E+04  0.14414378638E+04  0.50400001928E-02 0. -1.
       -1   -1    0    0    0  501  0.00000000000E+00  0.00000000000E+00 -0.60451284555E+03  0.60451284557E+03  0.50400001928E-02 0.  1.
    10030    2    1    2    0    0  0.00000000000E+00  0.00000000000E+00  0.83692501829E+03  0.20459507094E+04  0.18669415682E+04 0.  0.
        4    1    3    3  502    0  0.72508893725E+03  0.55692845945E+03  0.21214857949E+03  0.93857972946E+03  0.12699999809E+01 0.  1.
       -4    1    3    3    0  502 -0.72508893725E+03 -0.55692845945E+03  0.62477643880E+03  0.11073709800E+04  0.12699999809E+01 0. -1.
</event>
<event>
 5   0  0.1317527E-04  0.1926179E+04  0.7818609E-02  0.8641934E-01
        1   -1    0    0  501    0  0.00000000000E+00  0.00000000000E+00  0.11771635625E+04  0.11771635625E+04  0.50400001928E-02 0.  1.
       -1   -1    0    0    0  501  0.00000000000E+00  0.00000000000E+00 -0.78794622474E+03  0.78794622476E+03  0.50400001928E-02 0. -1.
    10030    2    1    2    0    0  0.00000000000E+00  0.00000000000E+00  0.38921733776E+03  0.19651097873E+04  0.19261792077E+04 0.  0.
        1    1    3    3  502    0  0.22850293554E+03  0.18692111873E+02 -0.75969994386E+03  0.79354079373E+03  0.50400001928E-02 0. -1.
       -1    1    3    3    0  502 -0.22850293554E+03 -0.18692111873E+02  0.11489172816E+04  0.11715689935E+04  0.50400001928E-02 0.  1.
</event>
<event>
 5   0  0.2608744E-04  0.1911841E+04  0.7818609E-02  0.8648985E-01
       -2   -1    0    0    0  501  0.00000000000E+00  0.00000000000E+00  0.48302320973E+03  0.48302320974E+03  0.25500000920E-02 0. -1.
        2   -1    0    0  501    0  0.00000000000E+00  0.00000000000E+00 -0.18918006840E+04  0.18918006840E+04  0.25500000920E-02 0.  1.
    10030    2    1    2    0    0  0.00000000000E+00  0.00000000000E+00 -0.14087774743E+04  0.23748238938E+04  0.19118406195E+04 0.  0.
        2    1    3    3  502    0  0.68714886360E+03 -0.62463268228E+03 -0.42264941184E+03  0.10202803898E+04  0.25500000920E-02 0. -1.
       -2    1    3    3    0  502 -0.68714886360E+03  0.62463268228E+03 -0.98612806247E+03  0.13545435040E+04  0.25500000920E-02 0.  1.
</event>
<event>
 5   0  0.1239615E-04  0.1876659E+04  0.7818609E-02  0.8666563E-01
       -1   -1    0    0    0  501  0.00000000000E+00  0.00000000000E+00  0.40295760068E+03  0.40295760071E+03  0.50400001928E-02 0. -1.
        1   -1    0    0  501    0  0.00000000000E+00  0.00000000000E+00 -0.21850004169E+04  0.21850004169E+04  0.50400001928E-02 0.  1.
    10030    2    1    2    0    0  0.00000000000E+00  0.00000000000E+00 -0.17820428162E+04  0.25879580176E+04  0.18766592930E+04 0.  0.
        3    1    3    3  502    0  0.67097666467E+03 -0.43221473592E+03 -0.15714313713E+04  0.17625027169E+04  0.10100000352E+00 0.  1.
       -3    1    3    3    0  502 -0.67097666467E+03  0.43221473592E+03 -0.21061144498E+03  0.82545530069E+03  0.10100000352E+00 0. -1.
</event>
<event>
 5   0  0.2562925E-04  0.1878603E+04  0.7818609E-02  0.8665581E-01
        2   -1    0    0  501    0  0.00000000000E+00  0.00000000000E+00  0.12589888115E+04  0.12589888115E+04  0.25500000920E-02 0. -1.
       -2   -1    0    0    0  501  0.00000000000E+00  0.00000000000E+00 -0.70079037675E+03  0.70079037676E+03  0.25500000920E-02 0.  1.
    10030    2    1    2    0    0  0.00000000000E+00  0.00000000000E+00  0.55819843476E+03  0.19597791883E+04  0.18786029315E+04 0.  0.
        4    1    3    3  502    0 -0.42523856901E+03  0.26112133629E+03  0.11092706447E+04  0.12163450040E+04  0.12699999809E+01 0. -1.
       -4    1    3    3    0  502  0.42523856901E+03 -0.26112133629E+03 -0.55107220991E+03  0.74343418423E+03  0.12699999809E+01 0.  1.
</event>
<event>
 5   0  0.2651828E-04  0.1886156E+04  0.7818609E-02  0.8661778E-01
       -2   -1    0    0    0  501  0.00000000000E+00  0.00000000000E+00  0.62101941125E+03  0.62101941125E+03  0.25500000920E-02 0. -1.
        2   -1    0    0  501    0  0.00000000000E+00  0.00000000000E+00 -0.14321547312E+04  0.14321547312E+04  0.25500000920E-02 0.  1.
    10030    2    1    2    0    0  0.00000000000E+00  0.00000000000E+00 -0.81113531999E+03  0.20531741425E+04  0.18861557603E+04 0.  0.
        3    1    3    3  502    0 -0.82235830422E+01 -0.70286002261E+03  0.27884880612E+03  0.75619872096E+03  0.10100000352E+00 0. -1.
       -3    1    3    3    0  502  0.82235830422E+01  0.70286002261E+03 -0.10899841261E+04  0.12969754215E+04  0.10100000352E+00 0.  1.
</event>
<event>
 5   0  0.2541124E-04  0.1915908E+04  0.7818609E-02  0.8646978E-01
       -2   -1    0    0    0  501  0.00000000000E+00  0.00000000000E+00  0.92512001057E+03  0.92512001057E+03  0.25500000920E-02 0.  1.
        2   -1    0    0  501    0  0.00000000000E+00  0.00000000000E+00 -0.99195288441E+03  0.99195288441E+03  0.25500000920E-02 0. -1.
    10030    2    1    2    0    0  0.00000000000E+00  0.00000000000E+00 -0.66832873836E+02  0.19170728950E+04  0.19159075791E+04 0.  0.
        5    1    3    3  502    0 -0.32275599870E+03 -0.47093945446E+03  0.73627049059E+03  0.93170367058E+03  0.46999998093E+01 0.  1.
       -5    1    3    3    0  502  0.32275599870E+03  0.47093945446E+03 -0.80310336442E+03  0.98536922441E+03  0.46999998093E+01 0. -1.
</event>
<event>
 5   0  0.1277709E-04  0.1895330E+04  0.7818609E-02  0.8657184E-01
        1   -1    0    0  501    0  0.00000000000E+00  0.00000000000E+00  0.75960133651E+03  0.75960133652E+03  0.50400001928E-02 0.  1.
       -1   -1    0    0    0  501  0.00000000000E+00  0.00000000000E+00 -0.11822896838E+04  0.11822896838E+04  0.50400001928E-02 0. -1.
    10030    2    1    2    0    0  0.00000000000E+00  0.00000000000E+00 -0.42268834731E+03  0.19418910204E+04  0.18953298647E+04 0.  0.
        4    1    3    3  502    0  0.58543524432E+03  0.16264088091E+03 -0.95645164695E+03  0.11331318755E+04  0.12699999809E+01 0. -1.
       -4    1    3    3    0  502 -0.58543524432E+03 -0.16264088091E+03  0.53376329964E+03  0.80875914485E+03  0.12699999809E+01 0.  1.
</event>
<event>
 5   0  0.1239615E-04  0.1886423E+04  0.7818609E-02  0.8661644E-01
       -1   -1    0    0    0  501  0.00000000000E+00  0.00000000000E+00  0.11747391338E+04  0.11747391338E+04  0.50400001928E-02 0. -1.
        1   -1    0    0  501    0  0.00000000000E+00  0.00000000000E+00 -0.75731548633E+03  0.75731548635E+03  0.50400001928E-02 0.  1.
    10030    2    1    2    0    0  0.00000000000E+00  0.00000000000E+00  0.41742364742E+03  0.19320546201E+04  0.18864232170E+04 0.  0.
        3    1    3    3  502    0 -0.93018518439E+03 -0.12054453408E+03  0.10694704429E+03  0.94404085845E+03  0.10100000352E+00 0. -1.
       -3    1    3    3    0  502  0.93018518439E+03  0.12054453408E+03  0.31047660313E+03  0.98801376167E+03  0.10100000352E+00 0.  1.
</event>
<event>
 5   0  0.1324058E-04  0.1912590E+04  0.7818609E-02  0.8648615E-01
        1   -1    0    0  501    0  0.00000000000E+00  0.00000000000E+00  0.10883658257E+04  0.10883658257E+04  0.50400001928E-02 0. -1.
       -1   -1    0    0    0  501  0.00000000000E+00  0.00000000000E+00 -0.84025057118E+03  0.84025057120E+03  0.50400001928E-02 0.  1.
    10030    2    1    2    0    0  0.00000000000E+00  0.00000000000E+00  0.24811525454E+03  0.19286163969E+04  0.19125898742E+04 0.  0.
        5    1    3    3  502    0 -0.28581745120E+03 -0.44351009647E+03  0.92829011415E+03  0.10677721888E+04  0.46999998093E+01 0. -1.
       -5    1    3    3    0  502  0.28581745120E+03  0.44351009647E+03 -0.68017485961E+03  0.86084420816E+03  0.46999998093E+01 0.  1.
</event>
<event>
 5   0  0.2562925E-04  0.1846574E+04  0.7818609E-02  0.8681916E-01
       -2   -1    0    0    0  501  0.00000000000E+00  0.00000000000E+00  0.10263266454E+04  0.10263266454E+04  0.25500000920E-02 0. -1.
        2   -1    0    0  501    0  0.00000000000E+00  0.00000000000E+00 -0.83059253798E+03  0.83059253798E+03  0.25500000920E-02 0.  1.
    10030    2    1    2    0    0  0.00000000000E+00  0.00000000000E+00  0.19573410741E+03  0.18569191834E+04  0.18465743995E+04 0.  0.
        4    1    3    3  502    0 -0.18483234989E+03 -0.47172801344E+03 -0.67831667174E+03  0.84664363004E+03  0.12699999809E+01 0.  1.
       -4    1    3    3    0  502  0.18483234989E+03  0.47172801344E+03  0.87405077915E+03  0.10102755533E+04  0.12699999809E+01 0. -1.
</event>
<event>
 5   0  0.2595012E-04  0.1853149E+04  0.7818609E-02  0.8678535E-01
       -2   -1    0    0    0  501  0.00000000000E+00  0.00000000000E+00  0.83747000255E+03  0.83747000255E+03  0.25500000920E-02 0.  1.
        2   -1    0    0  501    0  0.00000000000E+00  0.00000000000E+00 -0.10251596932E+04  0.10251596932E+04  0.25500000920E-02 0. -1.
    10030    2    1    2    0    0  0.00000000000E+00  0.00000000000E+00 -0.18768969066E+03  0.18626296958E+04  0.18531492016E+04 0.  0.
        1    1    3    3  502    0  0.84768045579E+02  0.29433471493E+03 -0.97280241830E+03  0.10198838615E+04  0.50400001928E-02 0. -1.
       -1    1    3    3    0  502 -0.84768045579E+02 -0.29433471493E+03  0.78511272764E+03  0.84274583422E+03  0.50400001928E-02 0.  1.
</event>
<event>
 5   0  0.2541124E-04  0.2010612E+04  0.7818609E-02  0.8601675E-01
       -2   -1    0    0    0  501  0.00000000000E+00  0.00000000000E+00  0.55035080075E+03  0.55035080075E+03  0.25500000920E-02 0. -1.
        2   -1    0    0  501    0  0.00000000000E+00  0.00000000000E+00 -0.18363564709E+04  0.18363564709E+04  0.25500000920E-02 0.  1.
    10030    2    1    2    0    0  0.00000000000E+00  0.00000000000E+00 -0.12860056701E+04  0.23867072716E+04  0.20106121001E+04 0.  0.
        5    1    3    3  502    0  0.48885947203E+02 -0.22107777692E+03  0.51967681425E+03  0.56687855890E+03  0.46999998093E+01 0. -1.
       -5    1    3    3    0  502 -0.48885947203E+02  0.22107777692E+03 -0.18056824844E+04  0.18198287127E+04  0.46999998093E+01 0.  1.
</event>
<event>
 5   0  0.2562925E-04  0.1892327E+04  0.7818609E-02  0.8658685E-01
        2   -1    0    0  501    0  0.00000000000E+00  0.00000000000E+00  0.11061579561E+04  0.11061579561E+04  0.25500000920E-02 0.  1.
       -2   -1    0    0    0  501  0.00000000000E+00  0.00000000000E+00 -0.80931065892E+03  0.80931065892E+03  0.25500000920E-02 0. -1.
    10030    2    1    2    0    0  0.00000000000E+00  0.00000000000E+00  0.29684729719E+03  0.19154686150E+04  0.18923270588E+04 0.  0.
        4    1    3    3  502    0  0.25896697706E+02 -0.87036807007E+03 -0.22625512244E+03  0.89966894449E+03  0.12699999809E+01 0. -1.
       -4    1    3    3    0  502 -0.25896697706E+02  0.87036807007E+03  0.52310241962E+03  0.10157996705E+04  0.12699999809E+01 0.  1.
</event>
<event>
 5   0  0.2608744E-04  0.1894111E+04  0.7818609E-02  0.8657793E-01
        2   -1    0    0  501    0  0.00000000000E+00  0.00000000000E+00  0.84358008033E+03  0.84358008033E+03  0.25500000920E-02 0. -1.
       -2   -1    0    0    0  501  0.00000000000E+00  0.00000000000E+00 -0.10632238091E+04  0.10632238091E+04  0.25500000920E-02 0.  1.
    10030    2    1    2    0    0  0.00000000000E+00  0.00000000000E+00 -0.21964372876E+03  0.19068038894E+04  0.18941113233E+04 0.  0.
        2    1    3    3  502    0  0.64873458108E+03 -0.68985388261E+03 -0.12253543625E+03  0.95486641431E+03  0.25500000920E-02 0. -1.
       -2    1    3    3    0  502 -0.64873458108E+03  0.68985388261E+03 -0.97108292502E+02  0.95193747511E+03  0.25500000920E-02 0.  1.
</event>
<event>
 5   0  0.2541124E-04  0.1968261E+04  0.7818609E-02  0.8621605E-01
        2   -1    0    0  501    0  0.00000000000E+00  0.00000000000E+00  0.11481644737E+04  0.11481644737E+04  0.25500000920E-02 0.  1.
       -2   -1    0    0    0  501  0.00000000000E+00  0.00000000000E+00 -0.84353173636E+03  0.84353173636E+03  0.25500000920E-02 0. -1.
    10030    2    1    2    0    0  0.00000000000E+00  0.00000000000E+00  0.30463273739E+03  0.19916962101E+04  0.19682613365E+04 0.  0.
        5    1    3    3  502    0  0.96464261750E+03 -0.16976764731E+03  0.24902968116E+03  0.10106405423E+04  0.46999998093E+01 0.  1.
       -5    1    3    3    0  502 -0.96464261750E+03  0.16976764731E+03  0.55603056228E+02  0.98105566785E+03  0.46999998093E+01 0. -1.
</event>
<event>
 5   0  0.2541124E-04  0.1873563E+04  0.7818609E-02  0.8668129E-01
        2   -1    0    0  501    0  0.00000000000E+00  0.00000000000E+00  0.19919076152E+04  0.19919076152E+04  0.25500000920E-02 0. -1.
       -2   -1    0    0    0  501  0.00000000000E+00  0.00000000000E+00 -0.44056262020E+03  0.44056262020E+03  0.25500000920E-02 0.  1.
    10030    2    1    2    0    0  0.00000000000E+00  0.00000000000E+00  0.15513449950E+04  0.24324702354E+04  0.18735634904E+04 0.  0.
        5    1    3    3  502    0  0.54123077646E+03  0.79736991890E+02 -0.21159909936E+03  0.58658759799E+03  0.46999998093E+01 0.  1.
       -5    1    3    3    0  502 -0.54123077646E+03 -0.79736991890E+02  0.17629440943E+04  0.18458826374E+04  0.46999998093E+01 0. -1.
</event>
<event>
 5   0  0.1255141E-04  0.1894610E+04  0.7818609E-02  0.8657544E-01
       -1   -1    0    0    0  501  0.00000000000E+00  0.00000000000E+00  0.80962268265E+03  0.80962268267E+03  0.50400001928E-02 0. -1.
        1   -1    0    0  501    0  0.00000000000E+00  0.00000000000E+00 -0.11084010056E+04  0.11084010056E+04  0.50400001928E-02 0.  1.
    10030    2    1    2    0    0  0.00000000000E+00  0.00000000000E+00 -0.29877832291E+03  0.19180236883E+04  0.18946098233E+04 0.  0.
        2    1    3    3  502    0  0.12675179255E+03  0.83406101762E+03 -0.58560017536E+03  0.10269622016E+04  0.25500000920E-02 0.  1.
       -2    1    3    3    0  502 -0.12675179255E+03 -0.83406101762E+03  0.28682185245E+03  0.89106148670E+03  0.25500000920E-02 0. -1.
</event>
<event>
 5   0  0.1255141E-04  0.1842636E+04  0.7818609E-02  0.8683949E-01
       -1   -1    0    0    0  501  0.00000000000E+00  0.00000000000E+00  0.50343251760E+03  0.50343251762E+03  0.50400001928E-02 0. -1.
        1   -1    0    0  501    0  0.00000000000E+00  0.00000000000E+00 -0.16860786700E+04  0.16860786700E+04  0.50400001928E-02 0.  1.
    10030    2    1    2    0    0  0.00000000000E+00  0.00000000000E+00 -0.11826461524E+04  0.21895111876E+04  0.18426359703E+04 0.  0.
        2    1    3    3  502    0 -0.69625959111E+03 -0.59967423022E+03 -0.51214402113E+03  0.10519876896E+04  0.25500000920E-02 0.  1.
       -2    1    3    3    0  502  0.69625959111E+03  0.59967423022E+03 -0.67050213128E+03  0.11375234981E+04  0.25500000920E-02 0. -1.
</event>
<event>
 5   0  0.1255141E-04  0.2058479E+04  0.7818609E-02  0.8579758E-01
        1   -1    0    0  501    0  0.00000000000E+00  0.00000000000E+00  0.13881283459E+04  0.13881283459E+04  0.50400001928E-02 0.  1.
       -1   -1    0    0    0  501  0.00000000000E+00  0.00000000000E+00 -0.76313834667E+03  0.76313834669E+03  0.50400001928E-02 0. -1.
    10030    2    1    2    0    0  0.00000000000E+00  0.00000000000E+00  0.62498999921E+03  0.21512666926E+04  0.20584790219E+04 0.  0.
        2    1    3    3  502    0  0.10244312750E+04  0.60207049443E+02  0.39511315159E+03  0.10996357254E+04  0.25500000920E-02 0.  1.
       -2    1    3    3    0  502 -0.10244312750E+04 -0.60207049443E+02  0.22987684762E+03  0.10516309672E+04  0.25500000920E-02 0. -1.
</event>
<event>
 5   0  0.1324058E-04  0.1883652E+04  0.7818609E-02  0.8663037E-01
        1   -1    0    0  501    0  0.00000000000E+00  0.00000000000E+00  0.18124346312E+04  0.18124346312E+04  0.50400001928E-02 0. -1.
       -1   -1    0    0    0  501  0.00000000000E+00  0.00000000000E+00 -0.48941678654E+03  0.48941678657E+03  0.50400001928E-02 0.  1.
    10030    2    1    2    0    0  0.00000000000E+00  0.00000000000E+00  0.13230178446E+04  0.23018514177E+04  0.18836517014E+04 0.  0.
        5    1    3    3  502    0 -0.36670740725E+03 -0.86427161272E+03  0.57027337925E+03  0.10984869413E+04  0.46999998093E+01 0. -1.
       -5    1    3    3    0  502  0.36670740725E+03  0.86427161272E+03  0.75274446538E+03  0.12033644765E+04  0.46999998093E+01 0.  1.
</event>
<event>
 5   0  0.2651828E-04  0.1876033E+04  0.7818609E-02  0.8666879E-01
        2   -1    0    0  501    0  0.00000000000E+00  0.00000000000E+00  0.16118591899E+04  0.16118591899E+04  0.25500000920E-02 0.  1.
       -2   -1    0    0    0  501  0.00000000000E+00  0.00000000000E+00 -0.54587584846E+03  0.54587584847E+03  0.25500000920E-02 0. -1.
    10030    2    1    2    0    0  0.00000000000E+00  0.00000000000E+00  0.10659833414E+04  0.21577350384E+04  0.18760330518E+04 0.  0.
        3    1    3    3  502    0  0.29305470150E+03  0.82235416845E+03  0.13835567751E+03  0.88390595662E+03  0.10100000352E+00 0.  1.
       -3    1    3    3    0  502 -0.29305470150E+03 -0.82235416845E+03  0.92762766391E+03  0.12738290817E+04  0.10100000352E+00 0. -1.
</event>
<event>
 5   0  0.1239615E-04  0.1867050E+04  0.7818609E-02  0.8671434E-01
       -1   -1    0    0    0  501  0.00000000000E+00  0.00000000000E+00  0.77917400078E+03  0.77917400080E+03  0.50400001928E-02 0. -1.
        1   -1    0    0  501    0  0.00000000000E+00  0.00000000000E+00 -0.11184524828E+04  0.11184524828E+04  0.50400001928E-02 0.  1.
    10030    2    1    2    0    0  0.00000000000E+00  0.00000000000E+00 -0.33927848201E+03  0.18976264836E+04  0.18670501822E+04 0.  0.
        3    1    3    3  502    0 -0.62411354538E+03  0.66287523199E+03  0.40009988165E+02  0.91132985251E+03  0.10100000352E+00 0. -1.
       -3    1    3    3    0  502  0.62411354538E+03 -0.66287523199E+03 -0.37928847018E+03  0.98629663110E+03  0.10100000352E+00 0.  1.
</event>
<event>
 5   0  0.1255141E-04  0.1900433E+04  0.7818609E-02  0.8654641E-01
        1   -1    0    0  501    0  0.00000000000E+00  0.00000000000E+00  0.32006910620E+04  0.32006910620E+04  0.50400001928E-02 0.  1.
       -1   -1    0    0    0  501  0.00000000000E+00  0.00000000000E+00 -0.28209882970E+03  0.28209882975E+03  0.50400001928E-02 0. -1.
    10030    2    1    2    0    0  0.00000000000E+00  0.00000000000E+00  0.29185922323E+04  0.34827898917E+04  0.19004327959E+04 0.  0.
        2    1    3    3  502    0 -0.53420365752E+03 -0.68461931552E+03  0.21663066848E+04  0.23338727059E+04  0.25500000920E-02 0.  1.
       -2    1    3    3    0  502  0.53420365752E+03  0.68461931552E+03  0.75228554751E+03  0.11489171858E+04  0.25500000920E-02 0. -1.
</event>
<event>
 5   0  0.1324058E-04  0.1874893E+04  0.7818609E-02  0.8667456E-01
        1   -1    0    0  501    0  0.00000000000E+00  0.00000000000E+00  0.17937758489E+04  0.17937758490E+04  0.50400001928E-02 0.  1.
       -1   -1    0    0    0  501  0.00000000000E+00  0.00000000000E+00 -0.48991961578E+03  0.48991961580E+03  0.50400001928E-02 0. -1.
    10030    2    1    2    0    0  0.00000000000E+00  0.00000000000E+00  0.13038562332E+04  0.22836954648E+04  0.18748930367E+04 0.  0.
        5    1    3    3  502    0  0.74148735445E+03 -0.56781274394E+03  0.75065009007E+03  0.11982121919E+04  0.46999998093E+01 0. -1.
       -5    1    3    3    0  502 -0.74148735445E+03  0.56781274394E+03  0.55320614311E+03  0.10854832729E+04  0.46999998093E+01 0.  1.
</event>
<event>
 5   0  0.2608744E-04  0.1968190E+04  0.7818609E-02  0.8621639E-01
        2   -1    0    0  501    0  0.00000000000E+00  0.00000000000E+00  0.91048316821E+03  0.91048316822E+03  0.25500000920E-02 0.  1.
       -2   -1    0    0    0  501  0.00000000000E+00  0.00000000000E+00 -0.10636577655E+04  0.10636577655E+04  0.25500000920E-02 0. -1.
    10030    2    1    2    0    0  0.00000000000E+00  0.00000000000E+00 -0.15317459728E+03  0.19741409337E+04  0.19681895155E+04 0.  0.
        2    1    3    3  502    0 -0.13686989912E+03  0.73976082030E+03 -0.71290535581E+03  0.10364427080E+04  0.25500000920E-02 0. -1.
       -2    1    3    3    0  502  0.13686989912E+03 -0.73976082030E+03  0.55973075853E+03  0.93769822575E+03  0.25500000920E-02 0.  1.
</event>
<event>
 5   0  0.2562925E-04  0.1868342E+04  0.7818609E-02  0.8670777E-01
        2   -1    0    0  501    0  0.00000000000E+00  0.00000000000E+00  0.23942121983E+04  0.23942121983E+04  0.25500000920E-02 0. -1.
       -2   -1    0    0    0  501  0.00000000000E+00  0.00000000000E+00 -0.36449365518E+03  0.36449365519E+03  0.25500000920E-02 0.  1.
    10030    2    1    2    0    0  0.00000000000E+00  0.00000000000E+00  0.20297185431E+04  0.27587058535E+04  0.18683416769E+04 0.  0.
        4    1    3    3  502    0 -0.19849367446E+03  0.46535468938E+03  0.21744178534E+04  0.22324984523E+04  0.12699999809E+01 0. -1.
       -4    1    3    3    0  502  0.19849367446E+03 -0.46535468938E+03 -0.14469931027E+03  0.52620740114E+03  0.12699999809E+01 0.  1.
</event>
<event>
 5   0  0.1239615E-04  0.1805324E+04  0.7818609E-02  0.8703473E-01
        1   -1    0    0  501    0  0.00000000000E+00  0.00000000000E+00  0.13010596595E+04  0.13010596595E+04  0.50400001928E-02 0.  1.
       -1   -1    0    0    0  501  0.00000000000E+00  0.00000000000E+00 -0.62625771116E+03  0.62625771118E+03  0.50400001928E-02 0. -1.
    10030    2    1    2    0    0  0.00000000000E+00  0.00000000000E+00  0.67480194835E+03  0.19273173707E+04  0.18053239537E+04 0.  0.
        3    1    3    3  502    0 -0.57440950933E+03  0.54019850040E+03 -0.13164932474E+03  0.79943246065E+03  0.10100000352E+00 0. -1.
       -3    1    3    3    0  502  0.57440950933E+03 -0.54019850040E+03  0.80645127309E+03  0.11278849100E+04  0.10100000352E+00 0.  1.
</event>
<event>
 5   0  0.2608744E-04  0.1967992E+04  0.7818609E-02  0.8621733E-01
       -2   -1    0    0    0  501  0.00000000000E+00  0.00000000000E+00  0.62124292432E+03  0.62124292432E+03  0.25500000920E-02 0. -1.
        2   -1    0    0  501    0  0.00000000000E+00  0.00000000000E+00 -0.15585661371E+04  0.15585661371E+04  0.25500000920E-02 0.  1.
    10030    2    1    2    0    0  0.00000000000E+00  0.00000000000E+00 -0.93732321280E+03  0.21798090614E+04  0.19679920577E+04 0.  0.
        2    1    3    3  502    0 -0.18954295213E+03  0.94613148278E+03 -0.68216986656E+03  0.11817136033E+04  0.25500000920E-02 0. -1.
       -2    1    3    3    0  502  0.18954295213E+03 -0.94613148278E+03 -0.25515334623E+03  0.99809545812E+03  0.25500000920E-02 0.  1.
</event>
<event>
 5   0  0.1324058E-04  0.1667932E+04  0.7818609E-02  0.8779868E-01
        1   -1    0    0  501    0  0.00000000000E+00  0.00000000000E+00  0.78259683844E+03  0.78259683845E+03  0.50400001928E-02 0.  1.
       -1   -1    0    0    0  501  0.00000000000E+00  0.00000000000E+00 -0.88870705744E+03  0.88870705745E+03  0.50400001928E-02 0. -1.
    10030    2    1    2    0    0  0.00000000000E+00  0.00000000000E+00 -0.10611021900E+03  0.16713038959E+04  0.16679320531E+04 0.  0.
        5    1    3    3  502    0 -0.30729607346E+03 -0.65090112720E+03  0.36895432496E+03  0.80885878746E+03  0.46999998093E+01 0.  1.
       -5    1    3    3    0  502  0.30729607346E+03  0.65090112720E+03 -0.47506454396E+03  0.86244510844E+03  0.46999998093E+01 0. -1.
</event>
<event>
 5   0  0.1277709E-04  0.1911881E+04  0.7818609E-02  0.8648965E-01
       -1   -1    0    0    0  501  0.00000000000E+00  0.00000000000E+00  0.10365369323E+04  0.10365369323E+04  0.50400001928E-02 0.  1.
        1   -1    0    0  501    0  0.00000000000E+00  0.00000000000E+00 -0.88161118613E+03  0.88161118614E+03  0.50400001928E-02 0. -1.
    10030    2    1    2    0    0  0.00000000000E+00  0.00000000000E+00  0.15492574613E+03  0.19181481184E+04  0.19118813293E+04 0.  0.
        4    1    3    3  502    0 -0.57778439608E+02 -0.61033446212E+03  0.81333444932E+03  0.10185092258E+04  0.12699999809E+01 0.  1.
       -4    1    3    3    0  502  0.57778439608E+02  0.61033446212E+03 -0.65840870319E+03  0.89963889259E+03  0.12699999809E+01 0. -1.
</event>
<event>
 5   0  0.1255141E-04  0.1951275E+04  0.7818609E-02  0.8629746E-01
       -1   -1    0    0    0  501  0.00000000000E+00  0.00000000000E+00  0.98014889645E+03  0.98014889646E+03  0.50400001928E-02 0. -1.
        1   -1    0    0  501    0  0.00000000000E+00  0.00000000000E+00 -0.97114659463E+03  0.97114659465E+03  0.50400001928E-02 0.  1.
    10030    2    1    2    0    0  0.00000000000E+00  0.00000000000E+00  0.90023018196E+01  0.19512954911E+04  0.19512747249E+04 0.  0.
        2    1    3    3  502    0  0.66911945023E+03  0.50274431300E+03 -0.49689782299E+03  0.97333454137E+03  0.25500000920E-02 0.  1.
       -2    1    3    3    0  502 -0.66911945023E+03 -0.50274431300E+03  0.50590012481E+03  0.97796094974E+03  0.25500000920E-02 0. -1.
</event>
<event>
 5   0  0.1324058E-04  0.1904768E+04  0.7818609E-02  0.8652487E-01
        1   -1    0    0  501    0  0.00000000000E+00  0.00000000000E+00  0.11725620036E+04  0.11725620036E+04  0.50400001928E-02 0. -1.
       -1   -1    0    0    0  501  0.00000000000E+00  0.00000000000E+00 -0.77355016621E+03  0.77355016623E+03  0.50400001928E-02 0.  1.
    10030    2    1    2    0    0  0.00000000000E+00  0.00000000000E+00  0.39901183736E+03  0.19461121698E+04  0.19047682618E+04 0.  0.
        5    1    3    3  502    0 -0.53283090997E+02  0.86578174251E+03  0.60122763679E+03  0.10554211836E+04  0.46999998093E+01 0.  1.
       -5    1    3    3    0  502  0.53283090997E+02 -0.86578174251E+03 -0.20221579943E+03  0.89069098625E+03  0.46999998093E+01 0. -1.
</event>
<event>
 5   0  0.1317527E-04  0.1891794E+04  0.7818609E-02  0.8658952E-01
        1   -1    0    0  501    0  0.00000000000E+00  0.00000000000E+00  0.17177566742E+04  0.17177566742E+04  0.50400001928E-02 0.  1.
       -1   -1    0    0    0  501  0.00000000000E+00  0.00000000000E+00 -0.52086578259E+03  0.52086578261E+03  0.50400001928E-02 0. -1.
    10030    2    1    2    0    0  0.00000000000E+00  0.00000000000E+00  0.11968908916E+04  0.22386224568E+04  0.18917935135E+04 0.  0.
        1    1    3    3  502    0 -0.72090124957E+03  0.56465137514E+02  0.13200205287E+04  0.15051050195E+04  0.50400001928E-02 0.  1.
       -1    1    3    3    0  502  0.72090124957E+03 -0.56465137514E+02 -0.12312963708E+03  0.73351743738E+03  0.50400001928E-02 0. -1.
</event>
<event>
 5   0  0.2651828E-04  0.1910620E+04  0.7818609E-02  0.8649588E-01
        2   -1    0    0  501    0  0.00000000000E+00  0.00000000000E+00  0.61085942815E+03  0.61085942815E+03  0.25500000920E-02 0. -1.
       -2   -1    0    0    0  501  0.00000000000E+00  0.00000000000E+00 -0.14939890835E+04  0.14939890835E+04  0.25500000920E-02 0.  1.
    10030    2    1    2    0    0  0.00000000000E+00  0.00000000000E+00 -0.88312965533E+03  0.21048485116E+04  0.19106201268E+04 0.  0.
        3    1    3    3  502    0 -0.37845636693E+03  0.86602453554E+03 -0.28816290608E+03  0.98806153071E+03  0.10100000352E+00 0.  1.
       -3    1    3    3    0  502  0.37845636693E+03 -0.86602453554E+03 -0.59496674924E+03  0.11167869809E+04  0.10100000352E+00 0. -1.
</event>
<event>
 5   0  0.2651828E-04  0.1898358E+04  0.7818609E-02  0.8655674E-01
        2   -1    0    0  501    0  0.00000000000E+00  0.00000000000E+00  0.13350473207E+04  0.13350473207E+04  0.25500000920E-02 0. -1.
       -2   -1    0    0    0  501  0.00000000000E+00  0.00000000000E+00 -0.67483782138E+03  0.67483782138E+03  0.25500000920E-02 0.  1.
    10030    2    1    2    0    0  0.00000000000E+00  0.00000000000E+00  0.66020949928E+03  0.20098851420E+04  0.18983576326E+04 0.  0.
        3    1    3    3  502    0 -0.92832889044E+03  0.15630165793E+03  0.20166976288E+03  0.96275409143E+03  0.10100000352E+00 0. -1.
       -3    1    3    3    0  502  0.92832889044E+03 -0.15630165793E+03  0.45853973640E+03  0.10471310506E+04  0.10100000352E+00 0.  1.
</event>
<event>
 5   0  0.1324058E-04  0.1917340E+04  0.7818609E-02  0.8646273E-01
       -1   -1    0    0    0  501  0.00000000000E+00  0.00000000000E+00  0.74632318804E+03  0.74632318805E+03  0.50400001928E-02 0.  1.
        1   -1    0    0  501    0  0.00000000000E+00  0.00000000000E+00 -0.12314341856E+04  0.12314341856E+04  0.50400001928E-02 0. -1.
    10030    2    1    2    0    0  0.00000000000E+00  0.00000000000E+00 -0.48511099754E+03  0.19777573736E+04  0.19173397062E+04 0.  0.
        5    1    3    3  502    0  0.94478749215E+03 -0.45435164321E+02 -0.81633015121E+02  0.94940707741E+03  0.46999998093E+01 0.  1.
       -5    1    3    3    0  502 -0.94478749215E+03  0.45435164321E+02 -0.40347798241E+03  0.10283502962E+04  0.46999998093E+01 0. -1.
</event>
<event>
 5   0  0.1239615E-04  0.1805386E+04  0.7818609E-02  0.8703441E-01
       -1   -1    0    0    0  501  0.00000000000E+00  0.00000000000E+00  0.53770794147E+03  0.53770794149E+03  0.50400001928E-02 0. -1.
        1   -1    0    0  501    0  0.00000000000E+00  0.00000000000E+00 -0.15154216619E+04  0.15154216619E+04  0.50400001928E-02 0.  1.
    10030    2    1    2    0    0  0.00000000000E+00  0.00000000000E+00 -0.97771372039E+03  0.20531296034E+04  0.18053855680E+04 0.  0.
        3    1    3    3  502    0 -0.58710684713E+03  0.25157511458E+03 -0.12142511073E+04  0.13720022777E+04  0.10100000352E+00 0.  1.
       -3    1    3    3    0  502  0.58710684713E+03 -0.25157511458E+03  0.23653738687E+03  0.68112732569E+03  0.10100000352E+00 0. -1.
</event>
<event>
 5   0  0.1239615E-04  0.1889834E+04  0.7818609E-02  0.8659933E-01
        1   -1    0    0  501    0  0.00000000000E+00  0.00000000000E+00  0.12431928553E+04  0.12431928553E+04  0.50400001928E-02 0.  1.
       -1   -1    0    0    0  501  0.00000000000E+00  0.00000000000E+00 -0.71820566765E+03  0.71820566766E+03  0.50400001928E-02 0. -1.
    10030    2    1    2    0    0  0.00000000000E+00  0.00000000000E+00  0.52498718766E+03  0.19613985230E+04  0.18898340188E+04 0.  0.
        3    1    3    3  502    0 -0.53675622166E+03  0.62121154242E+03  0.74803081002E+03  0.11106579693E+04  0.10100000352E+00 0.  1.
       -3    1    3    3    0  502  0.53675622166E+03 -0.62121154242E+03 -0.22304362236E+03  0.85074055363E+03  0.10100000352E+00 0. -1.
</event>
<event>
 5   0  0.2608744E-04  0.1858257E+04  0.7818609E-02  0.8675918E-01
       -2   -1    0    0    0  501  0.00000000000E+00  0.00000000000E+00  0.11607055515E+04  0.11607055515E+04  0.25500000920E-02 0. -1.
        2   -1    0    0  501    0  0.00000000000E+00  0.00000000000E+00 -0.74375430222E+03  0.74375430222E+03  0.25500000920E-02 0.  1.
    10030    2    1    2    0    0  0.00000000000E+00  0.00000000000E+00  0.41695124924E+03  0.19044598537E+04  0.18582569763E+04 0.  0.
        2    1    3    3  502    0 -0.11198882681E+03  0.10306365114E+03 -0.73089226963E+03  0.74657024005E+03  0.25500000920E-02 0.  1.
       -2    1    3    3    0  502  0.11198882681E+03 -0.10306365114E+03  0.11478435189E+04  0.11578896136E+04  0.25500000920E-02 0. -1.
</event>
<event>
 5   0  0.2608744E-04  0.1902814E+04  0.7818609E-02  0.8653457E-01
        2   -1    0    0  501    0  0.00000000000E+00  0.00000000000E+00  0.17159479755E+04  0.17159479756E+04  0.25500000920E-02 0. -1.
       -2   -1    0    0    0  501  0.00000000000E+00  0.00000000000E+00 -0.52750714748E+03  0.52750714749E+03  0.25500000920E-02 0.  1.
    10030    2    1    2    0    0  0.00000000000E+00  0.00000000000E+00  0.11884408281E+04  0.22434551230E+04  0.19028135188E+04 0.  0.
        2    1    3    3  502    0  0.15463807870E+03 -0.63435300456E+03  0.14100972460E+04  0.15539275765E+04  0.25500000920E-02 0. -1.
       -2    1    3    3    0  502 -0.15463807870E+03  0.63435300456E+03 -0.22165641797E+03  0.68952754652E+03  0.25500000920E-02 0.  1.
</event>
<event>
 5   0  0.1277709E-04  0.1894027E+04  0.7818609E-02  0.8657835E-01
       -1   -1    0    0    0  501  0.00000000000E+00  0.00000000000E+00  0.39465979704E+03  0.39465979708E+03  0.50400001928E-02 0.  1.
        1   -1    0    0  501    0  0.00000000000E+00  0.00000000000E+00 -0.22724247567E+04  0.22724247567E+04  0.50400001928E-02 0. -1.
    10030    2    1    2    0    0  0.00000000000E+00  0.00000000000E+00 -0.18777649597E+04  0.26670845538E+04  0.18940271311E+04 0.  0.
        4    1    3    3  502    0 -0.27671954255E+03  0.55902190459E+03 -0.19422896870E+04  0.20399926560E+04  0.12699999809E+01 0. -1.
       -4    1    3    3    0  502  0.27671954255E+03 -0.55902190459E+03  0.64524727349E+02  0.62709189787E+03  0.12699999809E+01 0.  1.
</event>
<event>
 5   0  0.2595012E-04  0.1886823E+04  0.7818609E-02  0.8661443E-01
       -2   -1    0    0    0  501  0.00000000000E+00  0.00000000000E+00  0.59051046183E+03  0.59051046183E+03  0.25500000920E-02 0.  1.
        2   -1    0    0  501    0  0.00000000000E+00  0.00000000000E+00 -0.15072129910E+04  0.15072129910E+04  0.25500000920E-02 0. -1.
    10030    2    1    2    0    0  0.00000000000E+00  0.00000000000E+00 -0.91670252922E+03  0.20977234529E+04  0.18868227680E+04 0.  0.
        1    1    3    3  502    0 -0.33382588766E+03 -0.17294699269E+03  0.50362352526E+03  0.62847994461E+03  0.50400001928E-02 0.  1.
       -1    1    3    3    0  502  0.33382588766E+03  0.17294699269E+03 -0.14203260545E+04  0.14692435083E+04  0.50400001928E-02 0. -1.
</event>
<event>
 5   0  0.2541124E-04  0.1921609E+04  0.7818609E-02  0.8644174E-01
        2   -1    0    0  501    0  0.00000000000E+00  0.00000000000E+00  0.11807312754E+04  0.11807312754E+04  0.25500000920E-02 0.  1.
       -2   -1    0    0    0  501  0.00000000000E+00  0.00000000000E+00 -0.78184185786E+03  0.78184185786E+03  0.25500000920E-02 0. -1.
    10030    2    1    2    0    0  0.00000000000E+00  0.00000000000E+00  0.39888941759E+03  0.19625731333E+04  0.19216088406E+04 0.  0.
        5    1    3    3  502    0 -0.42392139199E+03  0.17210112453E+03  0.10623191032E+04  0.11566642170E+04  0.46999998093E+01 0.  1.
       -5    1    3    3    0  502  0.42392139199E+03 -0.17210112453E+03 -0.66342968566E+03  0.80590891636E+03  0.46999998093E+01 0. -1.
</event>
<event>
 5   0  0.2541124E-04  0.1917280E+04  0.7818609E-02  0.8646303E-01
        2   -1    0    0  501    0  0.00000000000E+00  0.00000000000E+00  0.23609531208E+04  0.23609531208E+04  0.25500000920E-02 0. -1.
       -2   -1    0    0    0  501  0.00000000000E+00  0.00000000000E+00 -0.38924556107E+03  0.38924556108E+03  0.25500000920E-02 0.  1.
    10030    2    1    2    0    0  0.00000000000E+00  0.00000000000E+00  0.19717075597E+04  0.27501986819E+04  0.19172798671E+04 0.  0.
        5    1    3    3  502    0 -0.24104704761E+03  0.62259335370E+03 -0.92618156305E+00  0.66764444958E+03  0.46999998093E+01 0.  1.
       -5    1    3    3    0  502  0.24104704761E+03 -0.62259335370E+03  0.19726337413E+04  0.20825542323E+04  0.46999998093E+01 0. -1.
</event>
<event>
 5   0  0.2608744E-04  0.1833159E+04  0.7818609E-02  0.8688862E-01
       -2   -1    0    0    0  501  0.00000000000E+00  0.00000000000E+00  0.80745926260E+03  0.80745926261E+03  0.25500000920E-02 0.  1.
        2   -1    0    0  501    0  0.00000000000E+00  0.00000000000E+00 -0.10404462793E+04  0.10404462793E+04  0.25500000920E-02 0. -1.
    10030    2    1    2    0    0  0.00000000000E+00  0.00000000000E+00 -0.23298701669E+03  0.18479055419E+04  0.18331590062E+04 0.  0.
        2    1    3    3  502    0 -0.35048661933E+03 -0.78328244286E+03  0.20819337634E+03  0.88301570631E+03  0.25500000920E-02 0.  1.
       -2    1    3    3    0  502  0.35048661933E+03  0.78328244286E+03 -0.44118039303E+03  0.96488983559E+03  0.25500000920E-02 0. -1.
</event>
<event>
 5   0  0.9266125E-05  0.1360455E+04  0.7818609E-02  0.8982951E-01
       -3   -1    0    0    0  501  0.00000000000E+00  0.00000000000E+00  0.15391740023E+04  0.15391740057E+04  0.10100000352E+00 0.  1.
        3   -1    0    0  501    0  0.00000000000E+00  0.00000000000E+00 -0.30062211726E+03  0.30062213422E+03  0.10100000352E+00 0. -1.
    10030    2    1    2    0    0  0.00000000000E+00  0.00000000000E+00  0.12385518851E+04  0.18397961399E+04  0.13604554621E+04 0.  0.
        2    1    3    3  502    0  0.12223667008E+02 -0.19430495937E+03  0.15006913957E+04  0.15132674914E+04  0.25500000920E-02 0.  1.
       -2    1    3    3    0  502 -0.12223667008E+02  0.19430495937E+03 -0.26213951062E+03  0.32652864852E+03  0.25500000920E-02 0. -1.
</event>
<event>
 5   0  0.2651828E-04  0.1874193E+04  0.7818609E-02  0.8667810E-01
       -2   -1    0    0    0  501  0.00000000000E+00  0.00000000000E+00  0.80924934988E+03  0.80924934989E+03  0.25500000920E-02 0.  1.
        2   -1    0    0  501    0  0.00000000000E+00  0.00000000000E+00 -0.10851414795E+04  0.10851414795E+04  0.25500000920E-02 0. -1.
    10030    2    1    2    0    0  0.00000000000E+00  0.00000000000E+00 -0.27589212958E+03  0.18943908294E+04  0.18741931990E+04 0.  0.
        3    1    3    3  502    0 -0.34828471222E+03  0.61041711974E+03 -0.76449614764E+03  0.10384438698E+04  0.10100000352E+00 0. -1.
       -3    1    3    3    0  502  0.34828471222E+03 -0.61041711974E+03  0.48860401806E+03  0.85594695952E+03  0.10100000352E+00 0.  1.
</event>
<event>
 5   0  0.1239615E-04  0.1877946E+04  0.7818609E-02  0.8665913E-01
       -1   -1    0    0    0  501  0.00000000000E+00  0.00000000000E+00  0.11913094825E+04  0.11913094825E+04  0.50400001928E-02 0.  1.
        1   -1    0    0  501    0  0.00000000000E+00  0.00000000000E+00 -0.74008494872E+03  0.74008494874E+03  0.50400001928E-02 0. -1.
    10030    2    1    2    0    0  0.00000000000E+00  0.00000000000E+00  0.45122453377E+03  0.19313944312E+04  0.18779459175E+04 0.  0.
        3    1    3    3  502    0  0.30278394010E+03 -0.76749636433E+03  0.68663530791E+03  0.10734043227E+04  0.10100000352E+00 0.  1.
       -3    1    3    3    0  502 -0.30278394010E+03  0.76749636433E+03 -0.23541077414E+03  0.85799010858E+03  0.10100000352E+00 0. -1.
</event>
<event>
 5   0  0.2562925E-04  0.1899856E+04  0.7818609E-02  0.8654928E-01
        2   -1    0    0  501    0  0.00000000000E+00  0.00000000000E+00  0.15642390911E+04  0.15642390911E+04  0.25500000920E-02 0. -1.
       -2   -1    0    0    0  501  0.00000000000E+00  0.00000000000E+00 -0.57687038786E+03  0.57687038786E+03  0.25500000920E-02 0.  1.
    10030    2    1    2    0    0  0.00000000000E+00  0.00000000000E+00  0.98736870323E+03  0.21411094790E+04  0.18998560063E+04 0.  0.
        4    1    3    3  502    0  0.63230540815E+03 -0.45404662011E+03  0.11072375986E+04  0.13534936923E+04  0.12699999809E+01 0. -1.
       -4    1    3    3    0  502 -0.63230540815E+03  0.45404662011E+03 -0.11986889538E+03  0.78761578665E+03  0.12699999809E+01 0.  1.
</event>
<event>
 5   0  0.1255141E-04  0.1951378E+04  0.7818609E-02  0.8629696E-01
        1   -1    0    0  501    0  0.00000000000E+00  0.00000000000E+00  0.17366097597E+04  0.17366097597E+04  0.50400001928E-02 0. -1.
       -1   -1    0    0    0  501  0.00000000000E+00  0.00000000000E+00 -0.54817696958E+03  0.54817696960E+03  0.50400001928E-02 0.  1.
    10030    2    1    2    0    0  0.00000000000E+00  0.00000000000E+00  0.11884327901E+04  0.22847867293E+04  0.19513784619E+04 0.  0.
        2    1    3    3  502    0  0.58456398176E+03  0.14061550480E+03  0.14939364147E+04  0.16103831160E+04  0.25500000920E-02 0. -1.
       -2    1    3    3    0  502 -0.58456398176E+03 -0.14061550480E+03 -0.30550362464E+03  0.67440361330E+03  0.25500000920E-02 0.  1.
</event>
<event>
 5   0  0.1317527E-04  0.1861094E+04  0.7818609E-02  0.8674468E-01
        1   -1    0    0  501    0  0.00000000000E+00  0.00000000000E+00  0.14938891079E+04  0.14938891079E+04  0.50400001928E-02 0.  1.
       -1   -1    0    0    0  501  0.00000000000E+00  0.00000000000E+00 -0.57964010233E+03  0.57964010235E+03  0.50400001928E-02 0. -1.
    10030    2    1    2    0    0  0.00000000000E+00  0.00000000000E+00  0.91424900555E+03  0.20735292102E+04  0.18610943398E+04 0.  0.
        1    1    3    3  502    0  0.66060134401E+03 -0.33285543269E+03 -0.17188040137E+03  0.75942724943E+03  0.50400001928E-02 0. -1.
       -1    1    3    3    0  502 -0.66060134401E+03  0.33285543269E+03  0.10861294069E+04  0.13141019608E+04  0.50400001928E-02 0.  1.
</event>
<event>
 5   0  0.2541124E-04  0.1905763E+04  0.7818609E-02  0.8651993E-01
        2   -1    0    0  501    0  0.00000000000E+00  0.00000000000E+00  0.10543538604E+04  0.10543538604E+04  0.25500000920E-02 0. -1.
       -2   -1    0    0    0  501  0.00000000000E+00  0.00000000000E+00 -0.86117498729E+03  0.86117498729E+03  0.25500000920E-02 0.  1.
    10030    2    1    2    0    0  0.00000000000E+00  0.00000000000E+00  0.19317887314E+03  0.19155288477E+04  0.19057630203E+04 0.  0.
        5    1    3    3  502    0  0.10192846868E+03  0.49841417009E+03 -0.71324082129E+03  0.87609397717E+03  0.46999998093E+01 0.  1.
       -5    1    3    3    0  502 -0.10192846868E+03 -0.49841417009E+03  0.90641969444E+03  0.10394348706E+04  0.46999998093E+01 0. -1.
</event>
<event>
 5   0  0.1324058E-04  0.1644934E+04  0.7818609E-02  0.8793409E-01
        1   -1    0    0  501    0  0.00000000000E+00  0.00000000000E+00  0.14947861809E+04  0.14947861809E+04  0.50400001928E-02 0.  1.
       -1   -1    0    0    0  501  0.00000000000E+00  0.00000000000E+00 -0.45254118971E+03  0.45254118973E+03  0.50400001928E-02 0. -1.
    10030    2    1    2    0    0  0.00000000000E+00  0.00000000000E+00  0.10422449912E+04  0.19473273706E+04  0.16449344263E+04 0.  0.
        5    1    3    3  502    0  0.54441718867E+03  0.79675511330E+02  0.12448036409E+04  0.13609909834E+04  0.46999998093E+01 0.  1.
       -5    1    3    3    0  502 -0.54441718867E+03 -0.79675511330E+02 -0.20255864974E+03  0.58633638724E+03  0.46999998093E+01 0. -1.
</event>
<event>
 5   0  0.2651828E-04  0.1892229E+04  0.7818609E-02  0.8658734E-01
       -2   -1    0    0    0  501  0.00000000000E+00  0.00000000000E+00  0.65017365523E+03  0.65017365524E+03  0.25500000920E-02 0. -1.
        2   -1    0    0  501    0  0.00000000000E+00  0.00000000000E+00 -0.13767600338E+04  0.13767600338E+04  0.25500000920E-02 0.  1.
    10030    2    1    2    0    0  0.00000000000E+00  0.00000000000E+00 -0.72658637856E+03  0.20269336890E+04  0.18922294824E+04 0.  0.
        3    1    3    3  502    0 -0.70968718548E+03 -0.30612359969E+03  0.22123162109E+03  0.80393469877E+03  0.10100000352E+00 0. -1.
       -3    1    3    3    0  502  0.70968718548E+03  0.30612359969E+03 -0.94781799965E+03  0.12229989903E+04  0.10100000352E+00 0.  1.
</event>
<event>
 5   0  0.2595012E-04  0.1899898E+04  0.7818609E-02  0.8654907E-01
        2   -1    0    0  501    0  0.00000000000E+00  0.00000000000E+00  0.52579615677E+03  0.52579615678E+03  0.25500000920E-02 0. -1.
       -2   -1    0    0    0  501  0.00000000000E+00  0.00000000000E+00 -0.17162603460E+04  0.17162603460E+04  0.25500000920E-02 0.  1.
    10030    2    1    2    0    0  0.00000000000E+00  0.00000000000E+00 -0.11904641892E+04  0.22420565028E+04  0.18998979909E+04 0.  0.
        1    1    3    3  502    0 -0.34087041519E+03 -0.92303140335E+02  0.44545385253E+03  0.56845549028E+03  0.50400001928E-02 0. -1.
       -1    1    3    3    0  502  0.34087041519E+03  0.92303140335E+02 -0.16359180417E+04  0.16736010125E+04  0.50400001928E-02 0.  1.
</event>
<event>
 5   0  0.1255141E-04  0.1820622E+04  0.7818609E-02  0.8695409E-01
        1   -1    0    0  501    0  0.00000000000E+00  0.00000000000E+00  0.10191332250E+04  0.10191332250E+04  0.50400001928E-02 0. -1.
       -1   -1    0    0    0  501  0.00000000000E+00  0.00000000000E+00 -0.81310906953E+03  0.81310906954E+03  0.50400001928E-02 0.  1.
    10030    2    1    2    0    0  0.00000000000E+00  0.00000000000E+00  0.20602415547E+03  0.18322422946E+04  0.18206223863E+04 0.  0.
        2    1    3    3  502    0  0.73928743455E+03 -0.45974211378E+03  0.37071309483E+03  0.94622244782E+03  0.25500000920E-02 0.  1.
       -2    1    3    3    0  502 -0.73928743455E+03  0.45974211378E+03 -0.16468893935E+03  0.88601984674E+03  0.25500000920E-02 0. -1.
</event>
<event>
 5   0  0.1255141E-04  0.1847727E+04  0.7818609E-02  0.8681323E-01
       -1   -1    0    0    0  501  0.00000000000E+00  0.00000000000E+00  0.63404560860E+03  0.63404560862E+03  0.50400001928E-02 0.  1.
        1   -1    0    0  501    0  0.00000000000E+00  0.00000000000E+00 -0.13461552420E+04  0.13461552420E+04  0.50400001928E-02 0. -1.
    10030    2    1    2    0    0  0.00000000000E+00  0.00000000000E+00 -0.71210963335E+03  0.19802008506E+04  0.18477270574E+04 0.  0.
        2    1    3    3  502    0  0.57040236642E+03  0.52227910668E+03 -0.89764768721E+03  0.11848652646E+04  0.25500000920E-02 0. -1.
       -2    1    3    3    0  502 -0.57040236642E+03 -0.52227910668E+03  0.18553805386E+03  0.79533558598E+03  0.25500000920E-02 0.  1.
</event>
<event>
 5   0  0.2651828E-04  0.1914859E+04  0.7818609E-02  0.8647495E-01
        2   -1    0    0  501    0  0.00000000000E+00  0.00000000000E+00  0.18104786645E+04  0.18104786645E+04  0.25500000920E-02 0. -1.
       -2   -1    0    0    0  501  0.00000000000E+00  0.00000000000E+00 -0.50631420517E+03  0.50631420517E+03  0.25500000920E-02 0.  1.
    10030    2    1    2    0    0  0.00000000000E+00  0.00000000000E+00  0.13041644593E+04  0.23167928696E+04  0.19148588104E+04 0.  0.
        3    1    3    3  502    0  0.11311250070E+03  0.93939668268E+03  0.82911911458E+03  0.12580536879E+04  0.10100000352E+00 0. -1.
       -3    1    3    3    0  502 -0.11311250070E+03 -0.93939668268E+03  0.47504534473E+03  0.10587391818E+04  0.10100000352E+00 0.  1.
</event>
<event>
 5   0  0.2541124E-04  0.1909259E+04  0.7818609E-02  0.8650261E-01
        2   -1    0    0  501    0  0.00000000000E+00  0.00000000000E+00  0.12143520704E+04  0.12143520704E+04  0.25500000920E-02 0.  1.
       -2   -1    0    0    0  501  0.00000000000E+00  0.00000000000E+00 -0.75045592654E+03  0.75045592654E+03  0.25500000920E-02 0. -1.
    10030    2    1    2    0    0  0.00000000000E+00  0.00000000000E+00  0.46389614385E+03  0.19648079969E+04  0.19092592366E+04 0.  0.
        5    1    3    3  502    0  0.21621382835E+03  0.31770643455E+03 -0.66732371658E+03  0.77008365184E+03  0.46999998093E+01 0. -1.
       -5    1    3    3    0  502 -0.21621382835E+03 -0.31770643455E+03  0.11312198604E+04  0.11947243451E+04  0.46999998093E+01 0.  1.
</event>
<event>
 5   0  0.1277709E-04  0.1934284E+04  0.7818609E-02  0.8637977E-01
       -1   -1    0    0    0  501  0.00000000000E+00  0.00000000000E+00  0.10536828371E+04  0.10536828371E+04  0.50400001928E-02 0.  1.
        1   -1    0    0  501    0  0.00000000000E+00  0.00000000000E+00 -0.88770903696E+03  0.88770903698E+03  0.50400001928E-02 0. -1.
    10030    2    1    2    0    0  0.00000000000E+00  0.00000000000E+00  0.16597380009E+03  0.19413918740E+04  0.19342841328E+04 0.  0.
        4    1    3    3  502    0  0.88970765873E+03  0.17511233287E+03 -0.25457935131E+03  0.94183666638E+03  0.12699999809E+01 0. -1.
       -4    1    3    3    0  502 -0.88970765873E+03 -0.17511233287E+03  0.42055315140E+03  0.99955520767E+03  0.12699999809E+01 0.  1.
</event>
<event>
 5   0  0.1277709E-04  0.1902437E+04  0.7818609E-02  0.8653644E-01
       -1   -1    0    0    0  501  0.00000000000E+00  0.00000000000E+00  0.10052135361E+04  0.10052135361E+04  0.50400001928E-02 0. -1.
        1   -1    0    0  501    0  0.00000000000E+00  0.00000000000E+00 -0.90012393133E+03  0.90012393135E+03  0.50400001928E-02 0.  1.
    10030    2    1    2    0    0  0.00000000000E+00  0.00000000000E+00  0.10508960477E+03  0.19053374675E+04  0.19024371316E+04 0.  0.
        4    1    3    3  502    0 -0.51194908537E+03  0.79805820028E+03 -0.23902360154E+02  0.94845226172E+03  0.12699999809E+01 0. -1.
       -4    1    3    3    0  502  0.51194908537E+03 -0.79805820028E+03  0.12899196493E+03  0.95688520574E+03  0.12699999809E+01 0.  1.
</event>
<event>
 5   0  0.1317527E-04  0.1699902E+04  0.7818609E-02  0.8761420E-01
        1   -1    0    0  501    0  0.00000000000E+00  0.00000000000E+00  0.82342680546E+03  0.82342680548E+03  0.50400001928E-02 0. -1.
       -1   -1    0    0    0  501  0.00000000000E+00  0.00000000000E+00 -0.87732976291E+03  0.87732976293E+03  0.50400001928E-02 0.  1.
    10030    2    1    2    0    0  0.00000000000E+00  0.00000000000E+00 -0.53902957447E+02  0.17007565684E+04  0.16999021666E+04 0.  0.
        1    1    3    3  502    0 -0.97593028227E+02 -0.26774461565E+03 -0.82810688843E+03  0.87576971691E+03  0.50400001928E-02 0.  1.
       -1    1    3    3    0  502  0.97593028227E+02  0.26774461565E+03  0.77420393098E+03  0.82498685150E+03  0.50400001928E-02 0. -1.
</event>
<event>
 5   0  0.1317527E-04  0.1993679E+04  0.7818609E-02  0.8609582E-01
       -1   -1    0    0    0  501  0.00000000000E+00  0.00000000000E+00  0.60047550071E+03  0.60047550073E+03  0.50400001928E-02 0. -1.
        1   -1    0    0  501    0  0.00000000000E+00  0.00000000000E+00 -0.16548370013E+04  0.16548370013E+04  0.50400001928E-02 0.  1.
    10030    2    1    2    0    0  0.00000000000E+00  0.00000000000E+00 -0.10543615006E+04  0.22553125021E+04  0.19936790885E+04 0.  0.
        1    1    3    3  502    0 -0.95402901232E+03 -0.28514127545E+03 -0.47397469240E+03  0.11027823504E+04  0.50400001928E-02 0. -1.
       -1    1    3    3    0  502  0.95402901232E+03  0.28514127545E+03 -0.58038680822E+03  0.11525301517E+04  0.50400001928E-02 0.  1.
</event>
<event>
 5   0  0.1255141E-04  0.1971958E+04  0.7818609E-02  0.8619844E-01
        1   -1    0    0  501    0  0.00000000000E+00  0.00000000000E+00  0.19258157515E+04  0.19258157515E+04  0.50400001928E-02 0. -1.
       -1   -1    0    0    0  501  0.00000000000E+00  0.00000000000E+00 -0.50480170373E+03  0.50480170375E+03  0.50400001928E-02 0.  1.
    10030    2    1    2    0    0  0.00000000000E+00  0.00000000000E+00  0.14210140478E+04  0.24306174553E+04  0.19719584909E+04 0.  0.
        2    1    3    3  502    0 -0.35705611014E+03  0.90787285713E+03  0.53431604977E+03  0.11123020415E+04  0.25500000920E-02 0. -1.
       -2    1    3    3    0  502  0.35705611014E+03 -0.90787285713E+03  0.88669799804E+03  0.13183154138E+04  0.25500000920E-02 0.  1.
</event>
<event>
 5   0  0.1324058E-04  0.1867712E+04  0.7818609E-02  0.8671097E-01
        1   -1    0    0  501    0  0.00000000000E+00  0.00000000000E+00  0.12480014370E+04  0.12480014370E+04  0.50400001928E-02 0.  1.
       -1   -1    0    0    0  501  0.00000000000E+00  0.00000000000E+00 -0.69878723483E+03  0.69878723485E+03  0.50400001928E-02 0. -1.
    10030    2    1    2    0    0  0.00000000000E+00  0.00000000000E+00  0.54921420215E+03  0.19467886718E+04  0.18677124760E+04 0.  0.
        5    1    3    3  502    0  0.40919234722E+03 -0.58941508253E+03  0.89758805450E+03  0.11491453007E+04  0.46999998093E+01 0.  1.
       -5    1    3    3    0  502 -0.40919234722E+03  0.58941508253E+03 -0.34837385234E+03  0.79764337115E+03  0.46999998093E+01 0. -1.
</event>
<event>
 5   0  0.1255141E-04  0.1983113E+04  0.7818609E-02  0.8614557E-01
       -1   -1    0    0    0  501  0.00000000000E+00  0.00000000000E+00  0.19027993859E+04  0.19027993859E+04  0.50400001928E-02 0. -1.
        1   -1    0    0  501    0  0.00000000000E+00  0.00000000000E+00 -0.51670389335E+03  0.51670389338E+03  0.50400001928E-02 0.  1.
    10030    2    1    2    0    0  0.00000000000E+00  0.00000000000E+00  0.13860954926E+04  0.24195032793E+04  0.19831125546E+04 0.  0.
        2    1    3    3  502    0 -0.18257726256E+03 -0.55392401809E+03 -0.28529329660E+03  0.64927539589E+03  0.25500000920E-02 0.  1.
       -2    1    3    3    0  502  0.18257726256E+03  0.55392401809E+03  0.16713887892E+04  0.17702278834E+04  0.25500000920E-02 0. -1.
</event>
<event>
 5   0  0.2595012E-04  0.1905757E+04  0.7818609E-02  0.8651996E-01
        2   -1    0    0  501    0  0.00000000000E+00  0.00000000000E+00  0.71667493307E+03  0.71667493308E+03  0.25500000920E-02 0. -1.
       -2   -1    0    0    0  501  0.00000000000E+00  0.00000000000E+00 -0.12669308284E+04  0.12669308284E+04  0.25500000920E-02 0.  1.
    10030    2    1    2    0    0  0.00000000000E+00  0.00000000000E+00 -0.55025589529E+03  0.19836057614E+04  0.19057571373E+04 0.  0.
        1    1    3    3  502    0  0.45769205578E+03  0.18858127816E+03 -0.11225943908E+04  0.12268916345E+04  0.50400001928E-02 0.  1.
       -1    1    3    3    0  502 -0.45769205578E+03 -0.18858127816E+03  0.57233849556E+03  0.75671412695E+03  0.50400001928E-02 0. -1.
</event>
<event>
 5   0  0.2595012E-04  0.1880215E+04  0.7818609E-02  0.8664768E-01
        2   -1    0    0  501    0  0.00000000000E+00  0.00000000000E+00  0.16021744189E+04  0.16021744189E+04  0.25500000920E-02 0.  1.
       -2   -1    0    0    0  501  0.00000000000E+00  0.00000000000E+00 -0.55162683228E+03  0.55162683228E+03  0.25500000920E-02 0. -1.
    10030    2    1    2    0    0  0.00000000000E+00  0.00000000000E+00  0.10505475866E+04  0.21538012512E+04  0.18802153063E+04 0.  0.
        1    1    3    3  502    0 -0.57241297373E+03 -0.71245584861E+03  0.27286550061E+03  0.95378484479E+03  0.50400001928E-02 0. -1.
       -1    1    3    3    0  502  0.57241297373E+03  0.71245584861E+03  0.77768208604E+03  0.12000164064E+04  0.50400001928E-02 0.  1.
</event>
<event>
 5   0  0.2608744E-04  0.1907962E+04  0.7818609E-02  0.8650903E-01
        2   -1    0    0  501    0  0.00000000000E+00  0.00000000000E+00  0.22537208221E+04  0.22537208221E+04  0.25500000920E-02 0.  1.
       -2   -1    0    0    0  501  0.00000000000E+00  0.00000000000E+00 -0.40381221005E+03  0.40381221006E+03  0.25500000920E-02 0. -1.
    10030    2    1    2    0    0  0.00000000000E+00  0.00000000000E+00  0.18499086121E+04  0.26575330322E+04  0.19079622491E+04 0.  0.
        2    1    3    3  502    0 -0.46567465320E+02 -0.68535359815E+03  0.29222436179E+01  0.68694004311E+03  0.25500000920E-02 0. -1.
       -2    1    3    3    0  502  0.46567465320E+02  0.68535359815E+03  0.18469863684E+04  0.19705929891E+04  0.25500000920E-02 0.  1.
</event>
<event>
 5   0  0.1277709E-04  0.1741921E+04  0.7818609E-02  0.8737810E-01
        1   -1    0    0  501    0  0.00000000000E+00  0.00000000000E+00  0.61875904993E+03  0.61875904995E+03  0.50400001928E-02 0.  1.
       -1   -1    0    0    0  501  0.00000000000E+00  0.00000000000E+00 -0.12259579197E+04  0.12259579197E+04  0.50400001928E-02 0. -1.
    10030    2    1    2    0    0  0.00000000000E+00  0.00000000000E+00 -0.60719886973E+03  0.18447169696E+04  0.17419214192E+04 0.  0.
        4    1    3    3  502    0  0.14977227807E+03  0.54349639475E+03 -0.10066681555E+04  0.11537774719E+04  0.12699999809E+01 0. -1.
       -4    1    3    3    0  502 -0.14977227807E+03 -0.54349639475E+03  0.39946928577E+03  0.69093949776E+03  0.12699999809E+01 0.  1.
</event>
<event>
 5   0  0.1277709E-04  0.1944972E+04  0.7818609E-02  0.8632789E-01
       -1   -1    0    0    0  501  0.00000000000E+00  0.00000000000E+00  0.82062467912E+03  0.82062467913E+03  0.50400001928E-02 0. -1.
        1   -1    0    0  501    0  0.00000000000E+00  0.00000000000E+00 -0.11524506152E+04  0.11524506152E+04  0.50400001928E-02 0.  1.
    10030    2    1    2    0    0  0.00000000000E+00  0.00000000000E+00 -0.33182593608E+03  0.19730752943E+04  0.19449724073E+04 0.  0.
        4    1    3    3  502    0  0.17189814525E+03 -0.68412310968E+03  0.51320316457E+03  0.87232591533E+03  0.12699999809E+01 0. -1.
       -4    1    3    3    0  502 -0.17189814525E+03  0.68412310968E+03 -0.84502910065E+03  0.11007493790E+04  0.12699999809E+01 0.  1.
</event>
<event>
 5   0  0.1317527E-04  0.1885298E+04  0.7818609E-02  0.8662209E-01
       -1   -1    0    0    0  501  0.00000000000E+00  0.00000000000E+00  0.13968414464E+04  0.13968414464E+04  0.50400001928E-02 0. -1.
        1   -1    0    0  501    0  0.00000000000E+00  0.00000000000E+00 -0.63614061175E+03  0.63614061177E+03  0.50400001928E-02 0.  1.
    10030    2    1    2    0    0  0.00000000000E+00  0.00000000000E+00  0.76070083462E+03  0.20329820582E+04  0.18852984615E+04 0.  0.
        1    1    3    3  502    0 -0.29850861926E+03  0.48001276155E+03 -0.43310824205E+03  0.71211122473E+03  0.50400001928E-02 0.  1.
       -1    1    3    3    0  502  0.29850861926E+03 -0.48001276155E+03  0.11938090767E+04  0.13208708334E+04  0.50400001928E-02 0. -1.
</event>
<event>
 5   0  0.1255141E-04  0.1863011E+04  0.7818609E-02  0.8673490E-01
        1   -1    0    0  501    0  0.00000000000E+00  0.00000000000E+00  0.13234677792E+04  0.13234677792E+04  0.50400001928E-02 0.  1.
       -1   -1    0    0    0  501  0.00000000000E+00  0.00000000000E+00 -0.65562785688E+03  0.65562785689E+03  0.50400001928E-02 0. -1.
    10030    2    1    2    0    0  0.00000000000E+00  0.00000000000E+00  0.66783992232E+03  0.19790956361E+04  0.18630108360E+04 0.  0.
        2    1    3    3  502    0  0.66695230551E+03 -0.26779325932E+03 -0.29559525321E+03  0.77711978567E+03  0.25500000920E-02 0. -1.
       -2    1    3    3    0  502 -0.66695230551E+03  0.26779325932E+03  0.96343517553E+03  0.12019758504E+04  0.25500000920E-02 0.  1.
</event>
<event>
 5   0  0.1255141E-04  0.1874426E+04  0.7818609E-02  0.8667692E-01
        1   -1    0    0  501    0  0.00000000000E+00  0.00000000000E+00  0.14995683492E+04  0.14995683492E+04  0.50400001928E-02 0. -1.
       -1   -1    0    0    0  501  0.00000000000E+00  0.00000000000E+00 -0.58574718268E+03  0.58574718270E+03  0.50400001928E-02 0.  1.
    10030    2    1    2    0    0  0.00000000000E+00  0.00000000000E+00  0.91382116654E+03  0.20853155319E+04  0.18744257103E+04 0.  0.
        2    1    3    3  502    0  0.74403266871E+03  0.26495067338E+03  0.10182421872E+04  0.12886429386E+04  0.25500000920E-02 0. -1.
       -2    1    3    3    0  502 -0.74403266871E+03 -0.26495067338E+03 -0.10442102062E+03  0.79667259335E+03  0.25500000920E-02 0.  1.
</event>
<event>
 5   0  0.2651828E-04  0.1881262E+04  0.7818609E-02  0.8664240E-01
       -2   -1    0    0    0  501  0.00000000000E+00  0.00000000000E+00  0.73234465005E+03  0.73234465006E+03  0.25500000920E-02 0.  1.
        2   -1    0    0  501    0  0.00000000000E+00  0.00000000000E+00 -0.12081556664E+04  0.12081556664E+04  0.25500000920E-02 0. -1.
    10030    2    1    2    0    0  0.00000000000E+00  0.00000000000E+00 -0.47581101633E+03  0.19405003164E+04  0.18812616391E+04 0.  0.
        3    1    3    3  502    0 -0.39317187951E+03  0.19505250307E+03  0.62025147081E+03  0.75982991718E+03  0.10100000352E+00 0.  1.
       -3    1    3    3    0  502  0.39317187951E+03 -0.19505250307E+03 -0.10960624871E+04  0.11806703993E+04  0.10100000352E+00 0. -1.
</event>
<event>
 5   0  0.2595012E-04  0.1729717E+04  0.7818609E-02  0.8744595E-01
       -2   -1    0    0    0  501  0.00000000000E+00  0.00000000000E+00  0.70861441609E+03  0.70861441610E+03  0.25500000920E-02 0. -1.
        2   -1    0    0  501    0  0.00000000000E+00  0.00000000000E+00 -0.10555528505E+04  0.10555528505E+04  0.25500000920E-02 0.  1.
    10030    2    1    2    0    0  0.00000000000E+00  0.00000000000E+00 -0.34693843444E+03  0.17641672666E+04  0.17297167015E+04 0.  0.
        1    1    3    3  502    0 -0.11893385726E+03  0.36903750169E+03  0.61500373367E+03  0.72702374962E+03  0.50400001928E-02 0. -1.
       -1    1    3    3    0  502  0.11893385726E+03 -0.36903750169E+03 -0.96194216811E+03  0.10371435170E+04  0.50400001928E-02 0.  1.
</event>
<event>
 5   0  0.2651828E-04  0.1894942E+04  0.7818609E-02  0.8657378E-01
       -2   -1    0    0    0  501  0.00000000000E+00  0.00000000000E+00  0.14659354541E+04  0.14659354542E+04  0.25500000920E-02 0. -1.
        2   -1    0    0  501    0  0.00000000000E+00  0.00000000000E+00 -0.61237434779E+03  0.61237434779E+03  0.25500000920E-02 0.  1.
    10030    2    1    2    0    0  0.00000000000E+00  0.00000000000E+00  0.85356110636E+03  0.20783098019E+04  0.18949419702E+04 0.  0.
        3    1    3    3  502    0 -0.59565408479E+03  0.37747473682E+03  0.11207925644E+04  0.13241853904E+04  0.10100000352E+00 0. -1.
       -3    1    3    3    0  502  0.59565408479E+03 -0.37747473682E+03 -0.26723145803E+03  0.75412441151E+03  0.10100000352E+00 0.  1.
</event>
<event>
 5   0  0.1317527E-04  0.1955553E+04  0.7818609E-02  0.8627688E-01
        1   -1    0    0  501    0  0.00000000000E+00  0.00000000000E+00  0.79735570730E+03  0.79735570731E+03  0.50400001928E-02 0. -1.
       -1   -1    0    0    0  501  0.00000000000E+00  0.00000000000E+00 -0.11990220162E+04  0.11990220163E+04  0.50400001928E-02 0.  1.
    10030    2    1    2    0    0  0.00000000000E+00  0.00000000000E+00 -0.40166630894E+03  0.19963777236E+04  0.19555531676E+04 0.  0.
        1    1    3    3  502    0  0.25728442925E+03  0.70432036525E+01  0.76215249625E+03  0.80443850717E+03  0.50400001928E-02 0. -1.
       -1    1    3    3    0  502 -0.25728442925E+03 -0.70432036525E+01 -0.11638188052E+04  0.11919392164E+04  0.50400001928E-02 0.  1.
</event>
<event>
 5   0  0.2608744E-04  0.1874688E+04  0.7818609E-02  0.8667559E-01
        2   -1    0    0  501    0  0.00000000000E+00  0.00000000000E+00  0.15680901695E+04  0.15680901695E+04  0.25500000920E-02 0.  1.
       -2   -1    0    0    0  501  0.00000000000E+00  0.00000000000E+00 -0.56030824678E+03  0.56030824679E+03  0.25500000920E-02 0. -1.
    10030    2    1    2    0    0  0.00000000000E+00  0.00000000000E+00  0.10077819227E+04  0.21283984163E+04  0.18746880847E+04 0.  0.
        2    1    3    3  502    0 -0.54528425597E+03  0.53725729007E+03  0.11180572255E+04  0.13550026845E+04  0.25500000920E-02 0.  1.
       -2    1    3    3    0  502  0.54528425597E+03 -0.53725729007E+03 -0.11027530277E+03  0.77339573179E+03  0.25500000920E-02 0. -1.
</event>
<event>
 5   0  0.2608744E-04  0.1864774E+04  0.7818609E-02  0.8672592E-01
        2   -1    0    0  501    0  0.00000000000E+00  0.00000000000E+00  0.14758704485E+04  0.14758704485E+04  0.25500000920E-02 0. -1.
       -2   -1    0    0    0  501  0.00000000000E+00  0.00000000000E+00 -0.58903889233E+03  0.58903889234E+03  0.25500000920E-02 0.  1.
    10030    2    1    2    0    0  0.00000000000E+00  0.00000000000E+00  0.88683155613E+03  0.20649093408E+04  0.18647735457E+04 0.  0.
        2    1    3    3  502    0  0.41990405634E+03 -0.15191939523E+03  0.13497634954E+04  0.14217103828E+04  0.25500000920E-02 0. -1.
       -2    1    3    3    0  502 -0.41990405634E+03  0.15191939523E+03 -0.46293193924E+03  0.64319895798E+03  0.25500000920E-02 0.  1.
</event>
<event>
 5   0  0.1317527E-04  0.1901400E+04  0.7818609E-02  0.8654160E-01
        1   -1    0    0  501    0  0.00000000000E+00  0.00000000000E+00  0.69127087201E+03  0.69127087202E+03  0.50400001928E-02 0. -1.
       -1   -1    0    0    0  501  0.00000000000E+00  0.00000000000E+00 -0.13074915836E+04  0.13074915836E+04  0.50400001928E-02 0.  1.
    10030    2    1    2    0    0  0.00000000000E+00  0.00000000000E+00 -0.61622071159E+03  0.19987624556E+04  0.19014003757E+04 0.  0.
        1    1    3    3  502    0  0.82278887723E+03 -0.47506575336E+03 -0.34394151730E+03  0.10104280152E+04  0.50400001928E-02 0.  1.
       -1    1    3    3    0  502 -0.82278887723E+03  0.47506575336E+03 -0.27227919429E+03  0.98833444045E+03  0.50400001928E-02 0. -1.
</event>
<event>
 5   0  0.1277709E-04  0.1897680E+04  0.7818609E-02  0.8656012E-01
       -1   -1    0    0    0  501  0.00000000000E+00  0.00000000000E+00  0.68324631652E+03  0.68324631654E+03  0.50400001928E-02 0. -1.
        1   -1    0    0  501    0  0.00000000000E+00  0.00000000000E+00 -0.13176762413E+04  0.13176762413E+04  0.50400001928E-02 0.  1.
    10030    2    1    2    0    0  0.00000000000E+00  0.00000000000E+00 -0.63442992479E+03  0.20009225579E+04  0.18976800977E+04 0.  0.
        4    1    3    3  502    0  0.27884018678E+03  0.60369984566E+03  0.39643115426E+03  0.77418642870E+03  0.12699999809E+01 0. -1.
       -4    1    3    3    0  502 -0.27884018678E+03 -0.60369984566E+03 -0.10308610791E+04  0.12267361292E+04  0.12699999809E+01 0.  1.
</event>
<event>
 5   0  0.1324058E-04  0.1875640E+04  0.7818609E-02  0.8667078E-01
        1   -1    0    0  501    0  0.00000000000E+00  0.00000000000E+00  0.14745544655E+04  0.14745544655E+04  0.50400001928E-02 0.  1.
       -1   -1    0    0    0  501  0.00000000000E+00  0.00000000000E+00 -0.59645537080E+03  0.59645537082E+03  0.50400001928E-02 0. -1.
    10030    2    1    2    0    0  0.00000000000E+00  0.00000000000E+00  0.87809909474E+03  0.20710098364E+04  0.18756395502E+04 0.  0.
        5    1    3    3  502    0  0.21246576213E+03 -0.40420246620E+03  0.13434940140E+04  0.14189854084E+04  0.46999998093E+01 0.  1.
       -5    1    3    3    0  502 -0.21246576213E+03  0.40420246620E+03 -0.46539491925E+03  0.65202442793E+03  0.46999998093E+01 0. -1.
</event>
<event>
 5   0  0.2562925E-04  0.1889250E+04  0.7818609E-02  0.8660226E-01
       -2   -1    0    0    0  501  0.00000000000E+00  0.00000000000E+00  0.82120684484E+03  0.82120684485E+03  0.25500000920E-02 0.  1.
        2   -1    0    0  501    0  0.00000000000E+00  0.00000000000E+00 -0.10865915697E+04  0.10865915697E+04  0.25500000920E-02 0. -1.
    10030    2    1    2    0    0  0.00000000000E+00  0.00000000000E+00 -0.26538472486E+03  0.19077984146E+04  0.18892500465E+04 0.  0.
        4    1    3    3  502    0  0.22547104963E+03  0.17553304746E+03 -0.10419018554E+04  0.10803749970E+04  0.12699999809E+01 0. -1.
       -4    1    3    3    0  502 -0.22547104963E+03 -0.17553304746E+03  0.77651713054E+03  0.82742341754E+03  0.12699999809E+01 0.  1.
</event>
<event>
 5   0  0.1324058E-04  0.1920572E+04  0.7818609E-02  0.8644684E-01
        1   -1    0    0  501    0  0.00000000000E+00  0.00000000000E+00  0.10786768147E+04  0.10786768147E+04  0.50400001928E-02 0. -1.
       -1   -1    0    0    0  501  0.00000000000E+00  0.00000000000E+00 -0.85488939888E+03  0.85488939890E+03  0.50400001928E-02 0.  1.
    10030    2    1    2    0    0  0.00000000000E+00  0.00000000000E+00  0.22378741581E+03  0.19335662136E+04  0.19205721790E+04 0.  0.
        5    1    3    3  502    0  0.56357038033E+03  0.57879091201E+03  0.63455619206E+03  0.10272751064E+04  0.46999998093E+01 0. -1.
       -5    1    3    3    0  502 -0.56357038033E+03 -0.57879091201E+03 -0.41076877625E+03  0.90629110717E+03  0.46999998093E+01 0.  1.
</event>
<event>
 5   0  0.2595012E-04  0.1912032E+04  0.7818609E-02  0.8648890E-01
       -2   -1    0    0    0  501  0.00000000000E+00  0.00000000000E+00  0.82630175666E+03  0.82630175667E+03  0.25500000920E-02 0. -1.
        2   -1    0    0  501    0  0.00000000000E+00  0.00000000000E+00 -0.11060932028E+04  0.11060932028E+04  0.25500000920E-02 0.  1.
    10030    2    1    2    0    0  0.00000000000E+00  0.00000000000E+00 -0.27979144609E+03  0.19323949594E+04  0.19120321718E+04 0.  0.
        1    1    3    3  502    0 -0.60278413117E+03 -0.44966933622E+02  0.60866498597E+03  0.85781338243E+03  0.50400001928E-02 0. -1.
       -1    1    3    3    0  502  0.60278413117E+03  0.44966933622E+02 -0.88845643206E+03  0.10745815770E+04  0.50400001928E-02 0.  1.
</event>
<event>
 5   0  0.1324058E-04  0.1876451E+04  0.7818609E-02  0.8666668E-01
        1   -1    0    0  501    0  0.00000000000E+00  0.00000000000E+00  0.21358772333E+04  0.21358772333E+04  0.50400001928E-02 0. -1.
       -1   -1    0    0    0  501  0.00000000000E+00  0.00000000000E+00 -0.41213366392E+03  0.41213366395E+03  0.50400001928E-02 0.  1.
    10030    2    1    2    0    0  0.00000000000E+00  0.00000000000E+00  0.17237435694E+04  0.25480108973E+04  0.18764508093E+04 0.  0.
        5    1    3    3  502    0 -0.22892109912E+03 -0.90791832111E+03  0.78125994417E+03  0.12194710894E+04  0.46999998093E+01 0. -1.
       -5    1    3    3    0  502  0.22892109912E+03  0.90791832111E+03  0.94248362525E+03  0.13285398079E+04  0.46999998093E+01 0.  1.
</event>
<event>
 5   0  0.1239615E-04  0.1899755E+04  0.7818609E-02  0.8654978E-01
        1   -1    0    0  501    0  0.00000000000E+00  0.00000000000E+00  0.13849097908E+04  0.13849097908E+04  0.50400001928E-02 0. -1.
       -1   -1    0    0    0  501  0.00000000000E+00  0.00000000000E+00 -0.65149920432E+03  0.65149920434E+03  0.50400001928E-02 0.  1.
    10030    2    1    2    0    0  0.00000000000E+00  0.00000000000E+00  0.73341058648E+03  0.20364089952E+04  0.18997553809E+04 0.  0.
        3    1    3    3  502    0 -0.61996064348E+03  0.71812223957E+03  0.41717572964E+03  0.10363813729E+04  0.10100000352E+00 0.  1.
       -3    1    3    3    0  502  0.61996064348E+03 -0.71812223957E+03  0.31623485684E+03  0.10000276223E+04  0.10100000352E+00 0. -1.
</event>
<event>
 5   0  0.1239615E-04  0.1905819E+04  0.7818609E-02  0.8651965E-01
       -1   -1    0    0    0  501  0.00000000000E+00  0.00000000000E+00  0.10642618958E+04  0.10642618958E+04  0.50400001928E-02 0.  1.
        1   -1    0    0  501    0  0.00000000000E+00  0.00000000000E+00 -0.85320775865E+03  0.85320775866E+03  0.50400001928E-02 0. -1.
    10030    2    1    2    0    0  0.00000000000E+00  0.00000000000E+00  0.21105413716E+03  0.19174696545E+04  0.19058189912E+04 0.  0.
        3    1    3    3  502    0  0.29424042960E+03 -0.27608545549E+03 -0.76302074141E+03  0.86313456145E+03  0.10100000352E+00 0. -1.
       -3    1    3    3    0  502 -0.29424042960E+03  0.27608545549E+03  0.97407487856E+03  0.10543350930E+04  0.10100000352E+00 0.  1.
</event>
<event>
 5   0  0.9266125E-05  0.1898598E+04  0.7818609E-02  0.8655555E-01
        3   -1    0    0  501    0  0.00000000000E+00  0.00000000000E+00  0.82197957241E+03  0.82197957862E+03  0.10100000352E+00 0.  1.
       -3   -1    0    0    0  501  0.00000000000E+00  0.00000000000E+00 -0.10963391912E+04  0.10963391958E+04  0.10100000352E+00 0. -1.
    10030    2    1    2    0    0  0.00000000000E+00  0.00000000000E+00 -0.27435961874E+03  0.19183187744E+04  0.18985978300E+04 0.  0.
        2    1    3    3  502    0 -0.67653113021E+03 -0.44198689197E+03  0.36611230379E+03  0.88717811167E+03  0.25500000920E-02 0.  1.
       -2    1    3    3    0  502  0.67653113021E+03  0.44198689197E+03 -0.64047192254E+03  0.10311406628E+04  0.25500000920E-02 0. -1.
</event>
<event>
 5   0  0.2562925E-04  0.1911181E+04  0.7818609E-02  0.8649311E-01
       -2   -1    0    0    0  501  0.00000000000E+00  0.00000000000E+00  0.19361514762E+04  0.19361514762E+04  0.25500000920E-02 0. -1.
        2   -1    0    0  501    0  0.00000000000E+00  0.00000000000E+00 -0.47163292091E+03  0.47163292092E+03  0.25500000920E-02 0.  1.
    10030    2    1    2    0    0  0.00000000000E+00  0.00000000000E+00  0.14645185553E+04  0.24077843971E+04  0.19111805525E+04 0.  0.
        4    1    3    3  502    0  0.85532515463E+03 -0.36257574066E+03  0.10142749253E+04  0.13754263066E+04  0.12699999809E+01 0. -1.
       -4    1    3    3    0  502 -0.85532515463E+03  0.36257574066E+03  0.45024363000E+03  0.10323580905E+04  0.12699999809E+01 0.  1.
</event>
<event>
 5   0  0.2651828E-04  0.1925109E+04  0.7818609E-02  0.8642458E-01
       -2   -1    0    0    0  501  0.00000000000E+00  0.00000000000E+00  0.65596475892E+03  0.65596475893E+03  0.25500000920E-02 0.  1.
        2   -1    0    0  501    0  0.00000000000E+00  0.00000000000E+00 -0.14124398144E+04  0.14124398144E+04  0.25500000920E-02 0. -1.
    10030    2    1    2    0    0  0.00000000000E+00  0.00000000000E+00 -0.75647505552E+03  0.20684045734E+04  0.19251085605E+04 0.  0.
        3    1    3    3  502    0  0.91282833005E+03  0.30300281650E+03 -0.41907264543E+03  0.10491368639E+04  0.10100000352E+00 0. -1.
       -3    1    3    3    0  502 -0.91282833005E+03 -0.30300281650E+03 -0.33740241009E+03  0.10192677094E+04  0.10100000352E+00 0.  1.
</event>
<event>
 5   0  0.2608744E-04  0.1886772E+04  0.7818609E-02  0.8661469E-01
        2   -1    0    0  501    0  0.00000000000E+00  0.00000000000E+00  0.14568542703E+04  0.14568542703E+04  0.25500000920E-02 0. -1.
       -2   -1    0    0    0  501  0.00000000000E+00  0.00000000000E+00 -0.61088980741E+03  0.61088980742E+03  0.25500000920E-02 0.  1.
    10030    2    1    2    0    0  0.00000000000E+00  0.00000000000E+00  0.84596446288E+03  0.20677440777E+04  0.18867722964E+04 0.  0.
        2    1    3    3  502    0  0.13657419350E+03 -0.93343299332E+03  0.41720796442E+03  0.10315096456E+04  0.25500000920E-02 0.  1.
       -2    1    3    3    0  502 -0.13657419350E+03  0.93343299332E+03  0.42875649846E+03  0.10362344321E+04  0.25500000920E-02 0. -1.
</event>
<event>
 5   0  0.2595012E-04  0.1900535E+04  0.7818609E-02  0.8654590E-01
        2   -1    0    0  501    0  0.00000000000E+00  0.00000000000E+00  0.48441065254E+03  0.48441065255E+03  0.25500000920E-02 0. -1.
       -2   -1    0    0    0  501  0.00000000000E+00  0.00000000000E+00 -0.18641378193E+04  0.18641378193E+04  0.25500000920E-02 0.  1.
    10030    2    1    2    0    0  0.00000000000E+00  0.00000000000E+00 -0.13797271668E+04  0.23485484719E+04  0.19005348905E+04 0.  0.
        1    1    3    3  502    0 -0.22753878285E+03  0.93215295378E+02  0.44441646451E+03  0.50790647067E+03  0.50400001928E-02 0. -1.
       -1    1    3    3    0  502  0.22753878285E+03 -0.93215295378E+02 -0.18241436313E+04  0.18406420012E+04  0.50400001928E-02 0.  1.
</event>
<event>
 5   0  0.2541124E-04  0.1927142E+04  0.7818609E-02  0.8641463E-01
       -2   -1    0    0    0  501  0.00000000000E+00  0.00000000000E+00  0.53074280453E+03  0.53074280454E+03  0.25500000920E-02 0.  1.
        2   -1    0    0  501    0  0.00000000000E+00  0.00000000000E+00 -0.17493768478E+04  0.17493768478E+04  0.25500000920E-02 0. -1.
    10030    2    1    2    0    0  0.00000000000E+00  0.00000000000E+00 -0.12186340432E+04  0.22801196523E+04  0.19271421062E+04 0.  0.
        5    1    3    3  502    0  0.40304395983E+03  0.64292527206E+03  0.93295175375E+02  0.76454131265E+03  0.46999998093E+01 0.  1.
       -5    1    3    3    0  502 -0.40304395983E+03 -0.64292527206E+03 -0.13119292186E+04  0.15155783397E+04  0.46999998093E+01 0. -1.
</event>
<event>
 5   0  0.2651828E-04  0.1882621E+04  0.7818609E-02  0.8663556E-01
        2   -1    0    0  501    0  0.00000000000E+00  0.00000000000E+00  0.25486994555E+04  0.25486994555E+04  0.25500000920E-02 0.  1.
       -2   -1    0    0    0  501  0.00000000000E+00  0.00000000000E+00 -0.34765408257E+03  0.34765408257E+03  0.25500000920E-02 0. -1.
    10030    2    1    2    0    0  0.00000000000E+00  0.00000000000E+00  0.22010453729E+04  0.28963535381E+04  0.18826213331E+04 0.  0.
        3    1    3    3  502    0 -0.38146132156E+03 -0.68453229464E+03  0.29820208072E+03  0.83846388914E+03  0.10100000352E+00 0. -1.
       -3    1    3    3    0  502  0.38146132156E+03  0.68453229464E+03  0.19028432922E+04  0.20578896489E+04  0.10100000352E+00 0.  1.
</event>
<event>
 5   0  0.1239615E-04  0.1914460E+04  0.7818609E-02  0.8647692E-01
        1   -1    0    0  501    0  0.00000000000E+00  0.00000000000E+00  0.11132606922E+04  0.11132606922E+04  0.50400001928E-02 0.  1.
       -1   -1    0    0    0  501  0.00000000000E+00  0.00000000000E+00 -0.82306834335E+03  0.82306834336E+03  0.50400001928E-02 0. -1.
    10030    2    1    2    0    0  0.00000000000E+00  0.00000000000E+00  0.29019234884E+03  0.19363290356E+04  0.19144603769E+04 0.  0.
        3    1    3    3  502    0 -0.41116208511E+03 -0.10459349818E+03  0.10129745498E+04  0.10982310817E+04  0.10100000352E+00 0.  1.
       -3    1    3    3    0  502  0.41116208511E+03  0.10459349818E+03 -0.72278220094E+03  0.83809795387E+03  0.10100000352E+00 0. -1.
</event>
<event>
 5   0  0.1239615E-04  0.1913239E+04  0.7818609E-02  0.8648295E-01
       -1   -1    0    0    0  501  0.00000000000E+00  0.00000000000E+00  0.42281153774E+03  0.42281153777E+03  0.50400001928E-02 0. -1.
        1   -1    0    0  501    0  0.00000000000E+00  0.00000000000E+00 -0.21643701715E+04  0.21643701715E+04  0.50400001928E-02 0.  1.
    10030    2    1    2    0    0  0.00000000000E+00  0.00000000000E+00 -0.17415586338E+04  0.25871817093E+04  0.19132388042E+04 0.  0.
        3    1    3    3  502    0 -0.77987425180E+03 -0.39871277018E+03 -0.35065420506E+03  0.94346918522E+03  0.10100000352E+00 0. -1.
       -3    1    3    3    0  502  0.77987425180E+03  0.39871277018E+03 -0.13909044287E+04  0.16437125240E+04  0.10100000352E+00 0.  1.
</event>
<event>
 5   0  0.1324058E-04  0.1913217E+04  0.7818609E-02  0.8648305E-01
        1   -1    0    0  501    0  0.00000000000E+00  0.00000000000E+00  0.14124171245E+04  0.14124171245E+04  0.50400001928E-02 0. -1.
       -1   -1    0    0    0  501  0.00000000000E+00  0.00000000000E+00 -0.64789612880E+03  0.64789612881E+03  0.50400001928E-02 0.  1.
    10030    2    1    2    0    0  0.00000000000E+00  0.00000000000E+00  0.76452099566E+03  0.20603132533E+04  0.19132167543E+04 0.  0.
        5    1    3    3  502    0 -0.37708390381E+03 -0.10381186155E+03 -0.55784682037E+03  0.68131075003E+03  0.46999998093E+01 0.  1.
       -5    1    3    3    0  502  0.37708390381E+03  0.10381186155E+03  0.13223678160E+04  0.13790025032E+04  0.46999998093E+01 0. -1.
</event>
<event>
 5   0  0.1239615E-04  0.1880445E+04  0.7818609E-02  0.8664652E-01
       -1   -1    0    0    0  501  0.00000000000E+00  0.00000000000E+00  0.35009697292E+03  0.35009697296E+03  0.50400001928E-02 0.  1.
        1   -1    0    0  501    0  0.00000000000E+00  0.00000000000E+00 -0.25250665784E+04  0.25250665784E+04  0.50400001928E-02 0. -1.
    10030    2    1    2    0    0  0.00000000000E+00  0.00000000000E+00 -0.21749696055E+04  0.28751635514E+04  0.18804448044E+04 0.  0.
        3    1    3    3  502    0  0.91247308975E+03 -0.74106662844E+02 -0.14151265305E+04  0.16854323020E+04  0.10100000352E+00 0. -1.
       -3    1    3    3    0  502 -0.91247308975E+03  0.74106662844E+02 -0.75984307500E+03  0.11897312494E+04  0.10100000352E+00 0.  1.
</event>
<event>
 5   0  0.2608744E-04  0.1898671E+04  0.7818609E-02  0.8655518E-01
        2   -1    0    0  501    0  0.00000000000E+00  0.00000000000E+00  0.13301480337E+04  0.13301480337E+04  0.25500000920E-02 0.  1.
       -2   -1    0    0    0  501  0.00000000000E+00  0.00000000000E+00 -0.67754717722E+03  0.67754717723E+03  0.25500000920E-02 0. -1.
    10030    2    1    2    0    0  0.00000000000E+00  0.00000000000E+00  0.65260085652E+03  0.20076952110E+04  0.18986711622E+04 0.  0.
        2    1    3    3  502    0 -0.42426429701E+03  0.30950045491E+02 -0.57112566065E+03  0.71213946618E+03  0.25500000920E-02 0. -1.
       -2    1    3    3    0  502  0.42426429701E+03 -0.30950045491E+02  0.12237265172E+04  0.12955557448E+04  0.25500000920E-02 0.  1.
</event>
<event>
 5   0  0.2651828E-04  0.1933663E+04  0.7818609E-02  0.8638279E-01
       -2   -1    0    0    0  501  0.00000000000E+00  0.00000000000E+00  0.40502743845E+03  0.40502743846E+03  0.25500000920E-02 0. -1.
        2   -1    0    0  501    0  0.00000000000E+00  0.00000000000E+00 -0.23079008158E+04  0.23079008158E+04  0.25500000920E-02 0.  1.
    10030    2    1    2    0    0  0.00000000000E+00  0.00000000000E+00 -0.19028733773E+04  0.27129282542E+04  0.19336630064E+04 0.  0.
        3    1    3    3  502    0  0.77041544152E+03 -0.23071421191E+03 -0.19851579432E+03  0.82835833485E+03  0.10100000352E+00 0. -1.
       -3    1    3    3    0  502 -0.77041544152E+03  0.23071421191E+03 -0.17043575830E+04  0.18845699194E+04  0.10100000352E+00 0.  1.
</event>
<event>
 5   0  0.1239615E-04  0.1867317E+04  0.7818609E-02  0.8671298E-01
       -1   -1    0    0    0  501  0.00000000000E+00  0.00000000000E+00  0.10342107254E+04  0.10342107254E+04  0.50400001928E-02 0. -1.
        1   -1    0    0  501    0  0.00000000000E+00  0.00000000000E+00 -0.84288220578E+03  0.84288220579E+03  0.50400001928E-02 0.  1.
    10030    2    1    2    0    0  0.00000000000E+00  0.00000000000E+00  0.19132851966E+03  0.18770929312E+04  0.18673165961E+04 0.  0.
        3    1    3    3  502    0 -0.46617101904E+02  0.40390368242E+03 -0.74921597596E+03  0.85242942681E+03  0.10100000352E+00 0.  1.
       -3    1    3    3    0  502  0.46617101904E+02 -0.40390368242E+03  0.94054449562E+03  0.10246635044E+04  0.10100000352E+00 0. -1.
</event>
<event>
 5   0  0.1255141E-04  0.1908150E+04  0.7818609E-02  0.8650810E-01
       -1   -1    0    0    0  501  0.00000000000E+00  0.00000000000E+00  0.10180649581E+04  0.10180649581E+04  0.50400001928E-02 0. -1.
        1   -1    0    0  501    0  0.00000000000E+00  0.00000000000E+00 -0.89410676294E+03  0.89410676295E+03  0.50400001928E-02 0.  1.
    10030    2    1    2    0    0  0.00000000000E+00  0.00000000000E+00  0.12395819517E+03  0.19121717211E+04  0.19081496421E+04 0.  0.
        2    1    3    3  502    0  0.89140080680E+03 -0.34007472153E+03  0.65529104773E+02  0.95631599284E+03  0.25500000920E-02 0. -1.
       -2    1    3    3    0  502 -0.89140080680E+03  0.34007472153E+03  0.58429090397E+02  0.95585572823E+03  0.25500000920E-02 0.  1.
</event>
<event>
 5   0  0.2608744E-04  0.1910993E+04  0.7818609E-02  0.8649404E-01
        2   -1    0    0  501    0  0.00000000000E+00  0.00000000000E+00  0.99892835289E+03  0.99892835289E+03  0.25500000920E-02 0.  1.
       -2   -1    0    0    0  501  0.00000000000E+00  0.00000000000E+00 -0.91395303498E+03  0.91395303499E+03  0.25500000920E-02 0. -1.
    10030    2    1    2    0    0  0.00000000000E+00  0.00000000000E+00  0.84975317907E+02  0.19128813879E+04  0.19109930401E+04 0.  0.
        2    1    3    3  502    0 -0.59791173165E+03  0.73990507491E+03  0.13210624112E+03  0.96042179154E+03  0.25500000920E-02 0. -1.
       -2    1    3    3    0  502  0.59791173165E+03 -0.73990507491E+03 -0.47130923210E+02  0.95245959633E+03  0.25500000920E-02 0.  1.
</event>
<event>
 5   0  0.1277709E-04  0.1929727E+04  0.7818609E-02  0.8640199E-01
       -1   -1    0    0    0  501  0.00000000000E+00  0.00000000000E+00  0.10264914213E+04  0.10264914214E+04  0.50400001928E-02 0.  1.
        1   -1    0    0  501    0  0.00000000000E+00  0.00000000000E+00 -0.90693534597E+03  0.90693534598E+03  0.50400001928E-02 0. -1.
    10030    2    1    2    0    0  0.00000000000E+00  0.00000000000E+00  0.11955607537E+03  0.19334267673E+04  0.19297267707E+04 0.  0.
        4    1    3    3  502    0  0.86534866047E+03  0.39009600208E+03 -0.11363340953E+03  0.95599025083E+03  0.12699999809E+01 0. -1.
       -4    1    3    3    0  502 -0.86534866047E+03 -0.39009600208E+03  0.23318948490E+03  0.97743651650E+03  0.12699999809E+01 0.  1.
</event>
<event>
 5   0  0.2595012E-04  0.1886163E+04  0.7818609E-02  0.8661775E-01
       -2   -1    0    0    0  501  0.00000000000E+00  0.00000000000E+00  0.37346383143E+03  0.37346383144E+03  0.25500000920E-02 0. -1.
        2   -1    0    0  501    0  0.00000000000E+00  0.00000000000E+00 -0.23814968785E+04  0.23814968785E+04  0.25500000920E-02 0.  1.
    10030    2    1    2    0    0  0.00000000000E+00  0.00000000000E+00 -0.20080330471E+04  0.27549607100E+04  0.18861632472E+04 0.  0.
        1    1    3    3  502    0  0.32251651946E+02 -0.78206332847E+03 -0.23564389141E+03  0.81742966815E+03  0.50400001928E-02 0. -1.
       -1    1    3    3    0  502 -0.32251651946E+02  0.78206332847E+03 -0.17723891557E+04  0.19375310418E+04  0.50400001928E-02 0.  1.
</event>
<event>
 5   0  0.1277709E-04  0.1871537E+04  0.7818609E-02  0.8669156E-01
        1   -1    0    0  501    0  0.00000000000E+00  0.00000000000E+00  0.69945420804E+03  0.69945420806E+03  0.50400001928E-02 0.  1.
       -1   -1    0    0    0  501  0.00000000000E+00  0.00000000000E+00 -0.12519222515E+04  0.12519222515E+04  0.50400001928E-02 0. -1.
    10030    2    1    2    0    0  0.00000000000E+00  0.00000000000E+00 -0.55246804343E+03  0.19513764595E+04  0.18715365740E+04 0.  0.
        4    1    3    3  502    0  0.39626206211E+02 -0.37241521293E+03 -0.11703704158E+04  0.12288335323E+04  0.12699999809E+01 0. -1.
       -4    1    3    3    0  502 -0.39626206211E+02  0.37241521293E+03  0.61790237236E+03  0.72254292725E+03  0.12699999809E+01 0.  1.
</event>
<event>
 5   0  0.1239615E-04  0.1894415E+04  0.7818609E-02  0.8657641E-01
        1   -1    0    0  501    0  0.00000000000E+00  0.00000000000E+00  0.86053230803E+03  0.86053230804E+03  0.50400001928E-02 0. -1.
       -1   -1    0    0    0  501  0.00000000000E+00  0.00000000000E+00 -0.10426126277E+04  0.10426126277E+04  0.50400001928E-02 0.  1.
    10030    2    1    2    0    0  0.00000000000E+00  0.00000000000E+00 -0.18208031963E+03  0.19031449357E+04  0.18944147918E+04 0.  0.
        3    1    3    3  502    0  0.40114939910E+03 -0.85803833544E+03 -0.98229618597E+02  0.95226030772E+03  0.10100000352E+00 0.  1.
       -3    1    3    3    0  502 -0.40114939910E+03  0.85803833544E+03 -0.83850701034E+02  0.95088462799E+03  0.10100000352E+00 0. -1.
</event>
<event>
 5   0  0.1255141E-04  0.1929478E+04  0.7818609E-02  0.8640321E-01
        1   -1    0    0  501    0  0.00000000000E+00  0.00000000000E+00  0.11411040093E+04  0.11411040093E+04  0.50400001928E-02 0.  1.
       -1   -1    0    0    0  501  0.00000000000E+00  0.00000000000E+00 -0.81563224335E+03  0.81563224337E+03  0.50400001928E-02 0. -1.
    10030    2    1    2    0    0  0.00000000000E+00  0.00000000000E+00  0.32547176591E+03  0.19567362526E+04  0.19294778807E+04 0.  0.
        2    1    3    3  502    0 -0.74397453246E+03 -0.16585033178E+03  0.76245891219E+03  0.10781224561E+04  0.25500000920E-02 0.  1.
       -2    1    3    3    0  502  0.74397453246E+03  0.16585033178E+03 -0.43698714628E+03  0.87861379657E+03  0.25500000920E-02 0. -1.
</event>
<event>
 5   0  0.2595012E-04  0.1919760E+04  0.7818609E-02  0.8645083E-01
       -2   -1    0    0    0  501  0.00000000000E+00  0.00000000000E+00  0.37141556788E+03  0.37141556789E+03  0.25500000920E-02 0.  1.
        2   -1    0    0  501    0  0.00000000000E+00  0.00000000000E+00 -0.24806963871E+04  0.24806963871E+04  0.25500000920E-02 0. -1.
    10030    2    1    2    0    0  0.00000000000E+00  0.00000000000E+00 -0.21092808192E+04  0.28521119550E+04  0.19197596280E+04 0.  0.
        1    1    3    3  502    0 -0.54282064773E+03 -0.63383994046E+03 -0.34998915278E+03  0.90493078896E+03  0.50400001928E-02 0.  1.
       -1    1    3    3    0  502  0.54282064773E+03  0.63383994046E+03 -0.17592916664E+04  0.19471811660E+04  0.50400001928E-02 0. -1.
</event>
<event>
 5   0  0.2541124E-04  0.1881851E+04  0.7818609E-02  0.8663943E-01
       -2   -1    0    0    0  501  0.00000000000E+00  0.00000000000E+00  0.59446748801E+03  0.59446748801E+03  0.25500000920E-02 0. -1.
        2   -1    0    0  501    0  0.00000000000E+00  0.00000000000E+00 -0.14893009015E+04  0.14893009015E+04  0.25500000920E-02 0.  1.
    10030    2    1    2    0    0  0.00000000000E+00  0.00000000000E+00 -0.89483341349E+03  0.20837683895E+04  0.18818511799E+04 0.  0.
        5    1    3    3  502    0 -0.62845832935E+03 -0.63570747795E+03 -0.12225007659E+03  0.90224777111E+03  0.46999998093E+01 0. -1.
       -5    1    3    3    0  502  0.62845832935E+03  0.63570747795E+03 -0.77258333691E+03  0.11815206184E+04  0.46999998093E+01 0.  1.
</event>
<event>
 5   0  0.1324058E-04  0.1905105E+04  0.7818609E-02  0.8652319E-01
        1   -1    0    0  501    0  0.00000000000E+00  0.00000000000E+00  0.11181156321E+04  0.11181156321E+04  0.50400001928E-02 0. -1.
       -1   -1    0    0    0  501  0.00000000000E+00  0.00000000000E+00 -0.81150486636E+03  0.81150486638E+03  0.50400001928E-02 0.  1.
    10030    2    1    2    0    0  0.00000000000E+00  0.00000000000E+00  0.30661076577E+03  0.19296204985E+04  0.19051050120E+04 0.  0.
        5    1    3    3  502    0 -0.75139810929E+03 -0.51556312762E+03 -0.12762589003E+03  0.92017113354E+03  0.46999998093E+01 0.  1.
       -5    1    3    3    0  502  0.75139810929E+03  0.51556312762E+03  0.43423665579E+03  0.10094493650E+04  0.46999998093E+01 0. -1.
</event>
<event>
 5   0  0.2562925E-04  0.1910619E+04  0.7818609E-02  0.8649588E-01
       -2   -1    0    0    0  501  0.00000000000E+00  0.00000000000E+00  0.97243020403E+03  0.97243020404E+03  0.25500000920E-02 0. -1.
        2   -1    0    0  501    0  0.00000000000E+00  0.00000000000E+00 -0.93849065113E+03  0.93849065113E+03  0.25500000920E-02 0.  1.
    10030    2    1    2    0    0  0.00000000000E+00  0.00000000000E+00  0.33939552903E+02  0.19109208552E+04  0.19106194340E+04 0.  0.
        4    1    3    3  502    0 -0.51738561303E+03 -0.34226989741E+03  0.74356803276E+03  0.96836542043E+03  0.12699999809E+01 0. -1.
       -4    1    3    3    0  502  0.51738561303E+03  0.34226989741E+03 -0.70962847985E+03  0.94255543474E+03  0.12699999809E+01 0.  1.
</event>
<event>
 5   0  0.1317527E-04  0.1891863E+04  0.7818609E-02  0.8658917E-01
        1   -1    0    0  501    0  0.00000000000E+00  0.00000000000E+00  0.12955268735E+04  0.12955268735E+04  0.50400001928E-02 0. -1.
       -1   -1    0    0    0  501  0.00000000000E+00  0.00000000000E+00 -0.69067392783E+03  0.69067392785E+03  0.50400001928E-02 0.  1.
    10030    2    1    2    0    0  0.00000000000E+00  0.00000000000E+00  0.60485294563E+03  0.19862008013E+04  0.18918632449E+04 0.  0.
        1    1    3    3  502    0 -0.51226441721E+03  0.29137467189E+03 -0.47438316977E+03  0.75654043140E+03  0.50400001928E-02 0.  1.
       -1    1    3    3    0  502  0.51226441721E+03 -0.29137467189E+03  0.10792361154E+04  0.12296603699E+04  0.50400001928E-02 0. -1.
</event>
<event>
 5   0  0.1324058E-04  0.1898305E+04  0.7818609E-02  0.8655700E-01
        1   -1    0    0  501    0  0.00000000000E+00  0.00000000000E+00  0.16986796038E+04  0.16986796038E+04  0.50400001928E-02 0.  1.
       -1   -1    0    0    0  501  0.00000000000E+00  0.00000000000E+00 -0.53034761207E+03  0.53034761209E+03  0.50400001928E-02 0. -1.
    10030    2    1    2    0    0  0.00000000000E+00  0.00000000000E+00  0.11683319917E+04  0.22290272159E+04  0.18983052142E+04 0.  0.
        5    1    3    3  502    0 -0.23822703517E+03  0.96465350110E+02 -0.48869482370E+03  0.55217968522E+03  0.46999998093E+01 0. -1.
       -5    1    3    3    0  502  0.23822703517E+03 -0.96465350110E+02  0.16570268154E+04  0.16768475306E+04  0.46999998093E+01 0.  1.
</event>
<event>
 5   0  0.1255141E-04  0.2012675E+04  0.7818609E-02  0.8600718E-01
        1   -1    0    0  501    0  0.00000000000E+00  0.00000000000E+00  0.10705272101E+04  0.10705272102E+04  0.50400001928E-02 0.  1.
       -1   -1    0    0    0  501  0.00000000000E+00  0.00000000000E+00 -0.94599629210E+03  0.94599629212E+03  0.50400001928E-02 0. -1.
    10030    2    1    2    0    0  0.00000000000E+00  0.00000000000E+00  0.12453091804E+03  0.20165235023E+04  0.20126746100E+04 0.  0.
        2    1    3    3  502    0  0.12110597169E+03  0.68956944899E+03  0.78651855279E+03  0.10529881838E+04  0.25500000920E-02 0. -1.
       -2    1    3    3    0  502 -0.12110597169E+03 -0.68956944899E+03 -0.66198763475E+03  0.96353531846E+03  0.25500000920E-02 0.  1.
</event>
<event>
 5   0  0.1255141E-04  0.1874366E+04  0.7818609E-02  0.8667722E-01
        1   -1    0    0  501    0  0.00000000000E+00  0.00000000000E+00  0.13589193519E+04  0.13589193519E+04  0.50400001928E-02 0.  1.
       -1   -1    0    0    0  501  0.00000000000E+00  0.00000000000E+00 -0.64633119174E+03  0.64633119176E+03  0.50400001928E-02 0. -1.
    10030    2    1    2    0    0  0.00000000000E+00  0.00000000000E+00  0.71258816017E+03  0.20052505437E+04  0.18743659880E+04 0.  0.
        2    1    3    3  502    0  0.59634976364E+03  0.34493732524E+02  0.11288623512E+04  0.12771660292E+04  0.25500000920E-02 0.  1.
       -2    1    3    3    0  502 -0.59634976364E+03 -0.34493732524E+02 -0.41627419099E+03  0.72808451451E+03  0.25500000920E-02 0. -1.
</event>
<event>
 5   0  0.9266125E-05  0.1887063E+04  0.7818609E-02  0.8661323E-01
       -3   -1    0    0    0  501  0.00000000000E+00  0.00000000000E+00  0.12151948759E+04  0.12151948801E+04  0.10100000352E+00 0. -1.
        3   -1    0    0  501    0  0.00000000000E+00  0.00000000000E+00 -0.73259992675E+03  0.73259993371E+03  0.10100000352E+00 0.  1.
    10030    2    1    2    0    0  0.00000000000E+00  0.00000000000E+00  0.48259494913E+03  0.19477948138E+04  0.18870629962E+04 0.  0.
        2    1    3    3  502    0 -0.90723773361E+03  0.22702091453E+03  0.37035293987E+03  0.10058728056E+04  0.25500000920E-02 0.  1.
       -2    1    3    3    0  502  0.90723773361E+03 -0.22702091453E+03  0.11224200926E+03  0.94192200822E+03  0.25500000920E-02 0. -1.
</event>
<event>
 5   0  0.1324058E-04  0.1941609E+04  0.7818609E-02  0.8634417E-01
       -1   -1    0    0    0  501  0.00000000000E+00  0.00000000000E+00  0.38539254261E+03  0.38539254265E+03  0.50400001928E-02 0.  1.
        1   -1    0    0  501    0  0.00000000000E+00  0.00000000000E+00 -0.24454594896E+04  0.24454594896E+04  0.50400001928E-02 0. -1.
    10030    2    1    2    0    0  0.00000000000E+00  0.00000000000E+00 -0.20600669470E+04  0.28308520323E+04  0.19416094876E+04 0.  0.
        5    1    3    3  502    0 -0.74227008355E+03  0.61543684901E+03 -0.11944208718E+04  0.15350539733E+04  0.46999998093E+01 0. -1.
       -5    1    3    3    0  502  0.74227008355E+03 -0.61543684901E+03 -0.86564607526E+03  0.12957980590E+04  0.46999998093E+01 0.  1.
</event>
<event>
 5   0  0.1255141E-04  0.1949715E+04  0.7818609E-02  0.8630498E-01
        1   -1    0    0  501    0  0.00000000000E+00  0.00000000000E+00  0.12883321165E+04  0.12883321165E+04  0.50400001928E-02 0.  1.
       -1   -1    0    0    0  501  0.00000000000E+00  0.00000000000E+00 -0.73765704874E+03  0.73765704876E+03  0.50400001928E-02 0. -1.
    10030    2    1    2    0    0  0.00000000000E+00  0.00000000000E+00  0.55067506772E+03  0.20259891652E+04  0.19497151247E+04 0.  0.
        2    1    3    3  502    0  0.69729394696E+03 -0.29884538226E+03 -0.36083842411E+03  0.84007843639E+03  0.25500000920E-02 0. -1.
       -2    1    3    3    0  502 -0.69729394696E+03  0.29884538226E+03  0.91151349183E+03  0.11859107288E+04  0.25500000920E-02 0.  1.
</event>
<event>
 5   0  0.1255141E-04  0.1871468E+04  0.7818609E-02  0.8669190E-01
        1   -1    0    0  501    0  0.00000000000E+00  0.00000000000E+00  0.74681654617E+03  0.74681654619E+03  0.50400001928E-02 0.  1.
       -1   -1    0    0    0  501  0.00000000000E+00  0.00000000000E+00 -0.11724411211E+04  0.11724411211E+04  0.50400001928E-02 0. -1.
    10030    2    1    2    0    0  0.00000000000E+00  0.00000000000E+00 -0.42562457495E+03  0.19192576673E+04  0.18714683312E+04 0.  0.
        2    1    3    3  502    0  0.30104005278E+03 -0.63346220208E+03 -0.84806438744E+03  0.11005056475E+04  0.25500000920E-02 0. -1.
       -2    1    3    3    0  502 -0.30104005278E+03  0.63346220208E+03  0.42243981249E+03  0.81875201986E+03  0.25500000920E-02 0.  1.
</event>
<event>
 5   0  0.1255141E-04  0.1901267E+04  0.7818609E-02  0.8654226E-01
       -1   -1    0    0    0  501  0.00000000000E+00  0.00000000000E+00  0.57939570750E+03  0.57939570752E+03  0.50400001928E-02 0.  1.
        1   -1    0    0  501    0  0.00000000000E+00  0.00000000000E+00 -0.15597347816E+04  0.15597347816E+04  0.50400001928E-02 0. -1.
    10030    2    1    2    0    0  0.00000000000E+00  0.00000000000E+00 -0.98033907409E+03  0.21391304891E+04  0.19012665645E+04 0.  0.
        2    1    3    3  502    0 -0.55917783508E+03 -0.40050480293E+03 -0.12284837151E+04  0.14079262008E+04  0.25500000920E-02 0. -1.
       -2    1    3    3    0  502  0.55917783508E+03  0.40050480293E+03  0.24814464105E+03  0.73120428835E+03  0.25500000920E-02 0.  1.
</event>
<event>
 5   0  0.2595012E-04  0.1852204E+04  0.7818609E-02  0.8679020E-01
        2   -1    0    0  501    0  0.00000000000E+00  0.00000000000E+00  0.93993659733E+03  0.93993659733E+03  0.25500000920E-02 0.  1.
       -2   -1    0    0    0  501  0.00000000000E+00  0.00000000000E+00 -0.91247121706E+03  0.91247121706E+03  0.25500000920E-02 0. -1.
    10030    2    1    2    0    0  0.00000000000E+00  0.00000000000E+00  0.27465380269E+02  0.18524078144E+04  0.18522041906E+04 0.  0.
        1    1    3    3  502    0 -0.77434488930E+02 -0.89728138716E+02  0.93232038326E+03  0.93982367284E+03  0.50400001928E-02 0.  1.
       -1    1    3    3    0  502  0.77434488930E+02  0.89728138716E+02 -0.90485500300E+03  0.91258414156E+03  0.50400001928E-02 0. -1.
</event>
<event>
 5   0  0.1324058E-04  0.1919557E+04  0.7818609E-02  0.8645183E-01
       -1   -1    0    0    0  501  0.00000000000E+00  0.00000000000E+00  0.65819541729E+03  0.65819541730E+03  0.50400001928E-02 0.  1.
        1   -1    0    0  501    0  0.00000000000E+00  0.00000000000E+00 -0.13995453476E+04  0.13995453476E+04  0.50400001928E-02 0. -1.
    10030    2    1    2    0    0  0.00000000000E+00  0.00000000000E+00 -0.74134993032E+03  0.20577407649E+04  0.19195565468E+04 0.  0.
        5    1    3    3  502    0  0.15625061215E+03  0.80140991945E+03  0.17010014090E+03  0.83404332065E+03  0.46999998093E+01 0.  1.
       -5    1    3    3    0  502 -0.15625061215E+03 -0.80140991945E+03 -0.91145007122E+03  0.12236974443E+04  0.46999998093E+01 0. -1.
</event>
<event>
 5   0  0.1255141E-04  0.1904562E+04  0.7818609E-02  0.8652589E-01
       -1   -1    0    0    0  501  0.00000000000E+00  0.00000000000E+00  0.42654947144E+03  0.42654947147E+03  0.50400001928E-02 0. -1.
        1   -1    0    0  501    0  0.00000000000E+00  0.00000000000E+00 -0.21259887256E+04  0.21259887256E+04  0.50400001928E-02 0.  1.
    10030    2    1    2    0    0  0.00000000000E+00  0.00000000000E+00 -0.16994392542E+04  0.25525381971E+04  0.19045622775E+04 0.  0.
        2    1    3    3  502    0 -0.11205188515E+03 -0.77689201704E+03 -0.12708890596E+03  0.79515308032E+03  0.25500000920E-02 0. -1.
       -2    1    3    3    0  502  0.11205188515E+03  0.77689201704E+03 -0.15723503482E+04  0.17573851168E+04  0.25500000920E-02 0.  1.
</event>
<event>
 5   0  0.1317527E-04  0.1886850E+04  0.7818609E-02  0.8661430E-01
        1   -1    0    0  501    0  0.00000000000E+00  0.00000000000E+00  0.13793167101E+04  0.13793167101E+04  0.50400001928E-02 0.  1.
       -1   -1    0    0    0  501  0.00000000000E+00  0.00000000000E+00 -0.64528380893E+03  0.64528380895E+03  0.50400001928E-02 0. -1.
    10030    2    1    2    0    0  0.00000000000E+00  0.00000000000E+00  0.73403290119E+03  0.20246005191E+04  0.18868500104E+04 0.  0.
        1    1    3    3  502    0  0.52836221590E+03  0.70175590159E+03  0.73626564936E+03  0.11461741068E+04  0.50400001928E-02 0.  1.
       -1    1    3    3    0  502 -0.52836221590E+03 -0.70175590159E+03 -0.22327481668E+01  0.87842641229E+03  0.50400001928E-02 0. -1.
</event>
<event>
 5   0  0.2541124E-04  0.1766256E+04  0.7818609E-02  0.8724453E-01
       -2   -1    0    0    0  501  0.00000000000E+00  0.00000000000E+00  0.95290727275E+03  0.95290727275E+03  0.25500000920E-02 0.  1.
        2   -1    0    0  501    0  0.00000000000E+00  0.00000000000E+00 -0.81845855543E+03  0.81845855543E+03  0.25500000920E-02 0. -1.
    10030    2    1    2    0    0  0.00000000000E+00  0.00000000000E+00  0.13444871732E+03  0.17713658282E+04  0.17662560516E+04 0.  0.
        5    1    3    3  502    0  0.10028429494E+03  0.85617990160E+03  0.25959182699E+03  0.90028382767E+03  0.46999998093E+01 0.  1.
       -5    1    3    3    0  502 -0.10028429494E+03 -0.85617990160E+03 -0.12514310967E+03  0.87108200051E+03  0.46999998093E+01 0. -1.
</event>
<event>
 5   0  0.2541124E-04  0.1983391E+04  0.7818609E-02  0.8614425E-01
       -2   -1    0    0    0  501  0.00000000000E+00  0.00000000000E+00  0.49286288454E+03  0.49286288455E+03  0.25500000920E-02 0.  1.
        2   -1    0    0  501    0  0.00000000000E+00  0.00000000000E+00 -0.19954028610E+04  0.19954028610E+04  0.25500000920E-02 0. -1.
    10030    2    1    2    0    0  0.00000000000E+00  0.00000000000E+00 -0.15025399765E+04  0.24882657456E+04  0.19833910456E+04 0.  0.
        5    1    3    3  502    0 -0.13408499331E+03 -0.54261026576E+02 -0.19820831672E+04  0.19873597601E+04  0.46999998093E+01 0. -1.
       -5    1    3    3    0  502  0.13408499331E+03  0.54261026576E+02  0.47954319075E+03  0.50090598542E+03  0.46999998093E+01 0.  1.
</event>
<event>
 5   0  0.2562925E-04  0.1889985E+04  0.7818609E-02  0.8659858E-01
        2   -1    0    0  501    0  0.00000000000E+00  0.00000000000E+00  0.10703521495E+04  0.10703521495E+04  0.25500000920E-02 0.  1.
       -2   -1    0    0    0  501  0.00000000000E+00  0.00000000000E+00 -0.83431474576E+03  0.83431474577E+03  0.25500000920E-02 0. -1.
    10030    2    1    2    0    0  0.00000000000E+00  0.00000000000E+00  0.23603740374E+03  0.19046668953E+04  0.18899847423E+04 0.  0.
        4    1    3    3  502    0  0.81864153366E+03 -0.45614562356E+03 -0.44414478743E+01  0.93715747336E+03  0.12699999809E+01 0. -1.
       -4    1    3    3    0  502 -0.81864153366E+03  0.45614562356E+03  0.24047885161E+03  0.96750942191E+03  0.12699999809E+01 0.  1.
</event>
<event>
 5   0  0.1324058E-04  0.1871903E+04  0.7818609E-02  0.8668970E-01
       -1   -1    0    0    0  501  0.00000000000E+00  0.00000000000E+00  0.10333817494E+04  0.10333817494E+04  0.50400001928E-02 0. -1.
        1   -1    0    0  501    0  0.00000000000E+00  0.00000000000E+00 -0.84770738932E+03  0.84770738933E+03  0.50400001928E-02 0.  1.
    10030    2    1    2    0    0  0.00000000000E+00  0.00000000000E+00  0.18567436005E+03  0.18810891387E+04  0.18719031438E+04 0.  0.
        5    1    3    3  502    0 -0.76669454914E+03  0.24709114939E+03 -0.38606065705E+03  0.89327458752E+03  0.46999998093E+01 0.  1.
       -5    1    3    3    0  502  0.76669454914E+03 -0.24709114939E+03  0.57173501710E+03  0.98781455120E+03  0.46999998093E+01 0. -1.
</event>
<event>
 5   0  0.2608744E-04  0.1922523E+04  0.7818609E-02  0.8643726E-01
        2   -1    0    0  501    0  0.00000000000E+00  0.00000000000E+00  0.13176190454E+04  0.13176190454E+04  0.25500000920E-02 0. -1.
       -2   -1    0    0    0  501  0.00000000000E+00  0.00000000000E+00 -0.70128253031E+03  0.70128253031E+03  0.25500000920E-02 0.  1.
    10030    2    1    2    0    0  0.00000000000E+00  0.00000000000E+00  0.61633651510E+03  0.20189015757E+04  0.19225225285E+04 0.  0.
        2    1    3    3  502    0 -0.86997581522E+03  0.13371159905E+03 -0.97577500551E+02  0.88558346834E+03  0.25500000920E-02 0.  1.
       -2    1    3    3    0  502  0.86997581522E+03 -0.13371159905E+03  0.71391401566E+03  0.11333181074E+04  0.25500000920E-02 0. -1.
</event>
<event>
 5   0  0.1255141E-04  0.1918726E+04  0.7818609E-02  0.8645591E-01
       -1   -1    0    0    0  501  0.00000000000E+00  0.00000000000E+00  0.44009900005E+03  0.44009900008E+03  0.50400001928E-02 0.  1.
        1   -1    0    0  501    0  0.00000000000E+00  0.00000000000E+00 -0.20912953774E+04  0.20912953775E+04  0.50400001928E-02 0. -1.
    10030    2    1    2    0    0  0.00000000000E+00  0.00000000000E+00 -0.16511963774E+04  0.25313943775E+04  0.19187256234E+04 0.  0.
        2    1    3    3  502    0  0.71154702635E+03 -0.61916910550E+03 -0.10567880746E+04  0.14164994128E+04  0.25500000920E-02 0. -1.
       -2    1    3    3    0  502 -0.71154702635E+03  0.61916910550E+03 -0.59440830284E+03  0.11148949647E+04  0.25500000920E-02 0.  1.
</event>
<event>
 5   0  0.2608744E-04  0.1881395E+04  0.7818609E-02  0.8664173E-01
       -2   -1    0    0    0  501  0.00000000000E+00  0.00000000000E+00  0.45019364837E+03  0.45019364838E+03  0.25500000920E-02 0.  1.
        2   -1    0    0  501    0  0.00000000000E+00  0.00000000000E+00 -0.19656247089E+04  0.19656247089E+04  0.25500000920E-02 0. -1.
    10030    2    1    2    0    0  0.00000000000E+00  0.00000000000E+00 -0.15154310605E+04  0.24158183573E+04  0.18813949708E+04 0.  0.
        2    1    3    3  502    0  0.77692004362E+03 -0.73793541385E+02 -0.83296433518E+02  0.78484937203E+03  0.25500000920E-02 0.  1.
       -2    1    3    3    0  502 -0.77692004362E+03  0.73793541385E+02 -0.14321346270E+04  0.16309689852E+04  0.25500000920E-02 0. -1.
</event>
<event>
 5   0  0.1324058E-04  0.1903144E+04  0.7818609E-02  0.8653293E-01
       -1   -1    0    0    0  501  0.00000000000E+00  0.00000000000E+00  0.42416691635E+03  0.42416691638E+03  0.50400001928E-02 0. -1.
        1   -1    0    0  501    0  0.00000000000E+00  0.00000000000E+00 -0.21347467167E+04  0.21347467168E+04  0.50400001928E-02 0.  1.
    10030    2    1    2    0    0  0.00000000000E+00  0.00000000000E+00 -0.17105798004E+04  0.25589136331E+04  0.19031436436E+04 0.  0.
        5    1    3    3  502    0 -0.46857513814E+02  0.41701713321E+03 -0.20035952548E+04  0.20470747302E+04  0.46999998093E+01 0.  1.
       -5    1    3    3    0  502  0.46857513814E+02 -0.41701713321E+03  0.29301545444E+03  0.51183890290E+03  0.46999998093E+01 0. -1.
</event>
<event>
 5   0  0.2562925E-04  0.1826966E+04  0.7818609E-02  0.8692089E-01
        2   -1    0    0  501    0  0.00000000000E+00  0.00000000000E+00  0.16148057701E+04  0.16148057701E+04  0.25500000920E-02 0.  1.
       -2   -1    0    0    0  501  0.00000000000E+00  0.00000000000E+00 -0.51675027188E+03  0.51675027189E+03  0.25500000920E-02 0. -1.
    10030    2    1    2    0    0  0.00000000000E+00  0.00000000000E+00  0.10980554983E+04  0.21315560420E+04  0.18269661417E+04 0.  0.
        4    1    3    3  502    0 -0.13471728352E+03 -0.86450188983E+03  0.24269470643E+03  0.90797279554E+03  0.12699999809E+01 0. -1.
       -4    1    3    3    0  502  0.13471728352E+03  0.86450188983E+03  0.85536079183E+03  0.12235832465E+04  0.12699999809E+01 0.  1.
</event>
<event>
 5   0  0.1317527E-04  0.1923193E+04  0.7818609E-02  0.8643397E-01
       -1   -1    0    0    0  501  0.00000000000E+00  0.00000000000E+00  0.46784516291E+03  0.46784516294E+03  0.50400001928E-02 0.  1.
        1   -1    0    0  501    0  0.00000000000E+00  0.00000000000E+00 -0.19764388636E+04  0.19764388636E+04  0.50400001928E-02 0. -1.
    10030    2    1    2    0    0  0.00000000000E+00  0.00000000000E+00 -0.15085937006E+04  0.24442840265E+04  0.19231925147E+04 0.  0.
        1    1    3    3  502    0 -0.47362141755E+03  0.19018059863E+03  0.28149450531E+03  0.58285938597E+03  0.50400001928E-02 0.  1.
       -1    1    3    3    0  502  0.47362141755E+03 -0.19018059863E+03 -0.17900882060E+04  0.18614246405E+04  0.50400001928E-02 0. -1.
</event>
<event>
 5   0  0.1324058E-04  0.1923555E+04  0.7818609E-02  0.8643220E-01
       -1   -1    0    0    0  501  0.00000000000E+00  0.00000000000E+00  0.11341767007E+04  0.11341767008E+04  0.50400001928E-02 0.  1.
        1   -1    0    0  501    0  0.00000000000E+00  0.00000000000E+00 -0.81558372115E+03  0.81558372116E+03  0.50400001928E-02 0. -1.
    10030    2    1    2    0    0  0.00000000000E+00  0.00000000000E+00  0.31859297960E+03  0.19497604219E+04  0.19235550983E+04 0.  0.
        5    1    3    3  502    0  0.88845480456E+03  0.36799935111E+03  0.14431330148E+03  0.97243194165E+03  0.46999998093E+01 0.  1.
       -5    1    3    3    0  502 -0.88845480456E+03 -0.36799935111E+03  0.17427967812E+03  0.97732848028E+03  0.46999998093E+01 0. -1.
</event>
<event>
 5   0  0.1317527E-04  0.1960733E+04  0.7818609E-02  0.8625202E-01
       -1   -1    0    0    0  501  0.00000000000E+00  0.00000000000E+00  0.55102934781E+03  0.55102934783E+03  0.50400001928E-02 0. -1.
        1   -1    0    0  501    0  0.00000000000E+00  0.00000000000E+00 -0.17442242500E+04  0.17442242500E+04  0.50400001928E-02 0.  1.
    10030    2    1    2    0    0  0.00000000000E+00  0.00000000000E+00 -0.11931949021E+04  0.22952535978E+04  0.19607332821E+04 0.  0.
        1    1    3    3  502    0 -0.64449963272E+03 -0.42045623949E+03 -0.13076458537E+04  0.15172675785E+04  0.50400001928E-02 0. -1.
       -1    1    3    3    0  502  0.64449963272E+03  0.42045623949E+03  0.11445095158E+03  0.77798601931E+03  0.50400001928E-02 0.  1.
</event>
<event>
 5   0  0.2608744E-04  0.1849797E+04  0.7818609E-02  0.8680257E-01
        2   -1    0    0  501    0  0.00000000000E+00  0.00000000000E+00  0.32771334032E+03  0.32771334033E+03  0.25500000920E-02 0. -1.
       -2   -1    0    0    0  501  0.00000000000E+00  0.00000000000E+00 -0.26103202815E+04  0.26103202815E+04  0.25500000920E-02 0.  1.
    10030    2    1    2    0    0  0.00000000000E+00  0.00000000000E+00 -0.22826069412E+04  0.29380336218E+04  0.18497965064E+04 0.  0.
        2    1    3    3  502    0 -0.76108194772E+03 -0.36221998036E+03 -0.17460848857E+04  0.19388815006E+04  0.25500000920E-02 0. -1.
       -2    1    3    3    0  502  0.76108194772E+03  0.36221998036E+03 -0.53652205549E+03  0.99915212123E+03  0.25500000920E-02 0.  1.
</event>
<event>
 5   0  0.2651828E-04  0.1879164E+04  0.7818609E-02  0.8665298E-01
       -2   -1    0    0    0  501  0.00000000000E+00  0.00000000000E+00  0.39738174405E+03  0.39738174406E+03  0.25500000920E-02 0.  1.
        2   -1    0    0  501    0  0.00000000000E+00  0.00000000000E+00 -0.22215772531E+04  0.22215772531E+04  0.25500000920E-02 0. -1.
    10030    2    1    2    0    0  0.00000000000E+00  0.00000000000E+00 -0.18241955091E+04  0.26189589972E+04  0.18791639028E+04 0.  0.
        3    1    3    3  502    0  0.76426533874E+03  0.43458679966E+03 -0.13740086587E+04  0.16312164169E+04  0.10100000352E+00 0. -1.
       -3    1    3    3    0  502 -0.76426533874E+03 -0.43458679966E+03 -0.45018685039E+03  0.98774258028E+03  0.10100000352E+00 0.  1.
</event>
<event>
 5   0  0.1324058E-04  0.1858504E+04  0.7818609E-02  0.8675792E-01
       -1   -1    0    0    0  501  0.00000000000E+00  0.00000000000E+00  0.95727966656E+03  0.95727966657E+03  0.50400001928E-02 0.  1.
        1   -1    0    0  501    0  0.00000000000E+00  0.00000000000E+00 -0.90204523204E+03  0.90204523206E+03  0.50400001928E-02 0. -1.
    10030    2    1    2    0    0  0.00000000000E+00  0.00000000000E+00  0.55234434516E+02  0.18593248986E+04  0.18585043007E+04 0.  0.
        5    1    3    3  502    0  0.24305908833E+03 -0.87092940976E+03  0.24193531373E+03  0.93602913589E+03  0.46999998093E+01 0.  1.
       -5    1    3    3    0  502 -0.24305908833E+03  0.87092940976E+03 -0.18670087921E+03  0.92329576274E+03  0.46999998093E+01 0. -1.
</event>
<event>
 5   0  0.2541124E-04  0.1881744E+04  0.7818609E-02  0.8663997E-01
       -2   -1    0    0    0  501  0.00000000000E+00  0.00000000000E+00  0.62374533705E+03  0.62374533705E+03  0.25500000920E-02 0.  1.
        2   -1    0    0  501    0  0.00000000000E+00  0.00000000000E+00 -0.14192339257E+04  0.14192339257E+04  0.25500000920E-02 0. -1.
    10030    2    1    2    0    0  0.00000000000E+00  0.00000000000E+00 -0.79548858868E+03  0.20429792628E+04  0.18817444496E+04 0.  0.
        5    1    3    3  502    0  0.85230802203E+03 -0.21177455919E+03 -0.76421846923E+03  0.11641861479E+04  0.46999998093E+01 0. -1.
       -5    1    3    3    0  502 -0.85230802203E+03  0.21177455919E+03 -0.31270119446E+02  0.87879311485E+03  0.46999998093E+01 0.  1.
</event>
<event>
 5   0  0.2541124E-04  0.1865262E+04  0.7818609E-02  0.8672344E-01
        2   -1    0    0  501    0  0.00000000000E+00  0.00000000000E+00  0.79427924182E+03  0.79427924183E+03  0.25500000920E-02 0. -1.
       -2   -1    0    0    0  501  0.00000000000E+00  0.00000000000E+00 -0.10950816638E+04  0.10950816638E+04  0.25500000920E-02 0.  1.
    10030    2    1    2    0    0  0.00000000000E+00  0.00000000000E+00 -0.30080242201E+03  0.18893609057E+04  0.18652620553E+04 0.  0.
        5    1    3    3  502    0 -0.23346851580E+03  0.75536241073E+03 -0.65146247898E+03  0.10244536939E+04  0.46999998093E+01 0.  1.
       -5    1    3    3    0  502  0.23346851580E+03 -0.75536241073E+03  0.35066005698E+03  0.86490721177E+03  0.46999998093E+01 0. -1.
</event>
<event>
 5   0  0.2541124E-04  0.1391120E+04  0.7818609E-02  0.8960271E-01
        2   -1    0    0  501    0  0.00000000000E+00  0.00000000000E+00  0.10309408698E+04  0.10309408698E+04  0.25500000920E-02 0. -1.
       -2   -1    0    0    0  501  0.00000000000E+00  0.00000000000E+00 -0.46928397103E+03  0.46928397103E+03  0.25500000920E-02 0.  1.
    10030    2    1    2    0    0  0.00000000000E+00  0.00000000000E+00  0.56165689878E+03  0.15002248408E+04  0.13911204481E+04 0.  0.
        5    1    3    3  502    0  0.54708751008E+02  0.39262502607E+03 -0.33551477995E+03  0.51936472358E+03  0.46999998093E+01 0.  1.
       -5    1    3    3    0  502 -0.54708751008E+02 -0.39262502607E+03  0.89717167873E+03  0.98086011727E+03  0.46999998093E+01 0. -1.
</event>
<event>
 5   0  0.1317527E-04  0.1888967E+04  0.7818609E-02  0.8660368E-01
       -1   -1    0    0    0  501  0.00000000000E+00  0.00000000000E+00  0.11949879874E+04  0.11949879874E+04  0.50400001928E-02 0. -1.
        1   -1    0    0  501    0  0.00000000000E+00  0.00000000000E+00 -0.74649201697E+03  0.74649201699E+03  0.50400001928E-02 0.  1.
    10030    2    1    2    0    0  0.00000000000E+00  0.00000000000E+00  0.44849597044E+03  0.19414800044E+04  0.18889669060E+04 0.  0.
        1    1    3    3  502    0  0.47855089296E+03  0.71961025047E+03  0.61589116656E+03  0.10612124193E+04  0.50400001928E-02 0. -1.
       -1    1    3    3    0  502 -0.47855089296E+03 -0.71961025047E+03 -0.16739519612E+03  0.88026758514E+03  0.50400001928E-02 0.  1.
</event>
<event>
 5   0  0.2562925E-04  0.1849608E+04  0.7818609E-02  0.8680354E-01
       -2   -1    0    0    0  501  0.00000000000E+00  0.00000000000E+00  0.98478986003E+03  0.98478986003E+03  0.25500000920E-02 0. -1.
        2   -1    0    0  501    0  0.00000000000E+00  0.00000000000E+00 -0.86847201805E+03  0.86847201805E+03  0.25500000920E-02 0.  1.
    10030    2    1    2    0    0  0.00000000000E+00  0.00000000000E+00  0.11631784198E+03  0.18532618781E+04  0.18496079986E+04 0.  0.
        4    1    3    3  502    0  0.63485284497E+03  0.63963621499E+03 -0.14982812322E+03  0.91357687236E+03  0.12699999809E+01 0.  1.
       -4    1    3    3    0  502 -0.63485284497E+03 -0.63963621499E+03  0.26614596520E+03  0.93968500573E+03  0.12699999809E+01 0. -1.
</event>
<event>
 5   0  0.1317527E-04  0.1884323E+04  0.7818609E-02  0.8662699E-01
       -1   -1    0    0    0  501  0.00000000000E+00  0.00000000000E+00  0.89327183175E+03  0.89327183176E+03  0.50400001928E-02 0. -1.
        1   -1    0    0  501    0  0.00000000000E+00  0.00000000000E+00 -0.99372741066E+03  0.99372741068E+03  0.50400001928E-02 0.  1.
    10030    2    1    2    0    0  0.00000000000E+00  0.00000000000E+00 -0.10045557892E+03  0.18869992424E+04  0.18843234376E+04 0.  0.
        1    1    3    3  502    0  0.75786410911E+03 -0.28453978985E+03 -0.53293697411E+03  0.96919694505E+03  0.50400001928E-02 0.  1.
       -1    1    3    3    0  502 -0.75786410911E+03  0.28453978985E+03  0.43248139519E+03  0.91780229739E+03  0.50400001928E-02 0. -1.
</event>
<event>
 5   0  0.1239615E-04  0.1905862E+04  0.7818609E-02  0.8651944E-01
       -1   -1    0    0    0  501  0.00000000000E+00  0.00000000000E+00  0.71932523027E+03  0.71932523029E+03  0.50400001928E-02 0. -1.
        1   -1    0    0  501    0  0.00000000000E+00  0.00000000000E+00 -0.12624022231E+04  0.12624022231E+04  0.50400001928E-02 0.  1.
    10030    2    1    2    0    0  0.00000000000E+00  0.00000000000E+00 -0.54307699278E+03  0.19817274533E+04  0.19058622928E+04 0.  0.
        3    1    3    3  502    0  0.12371736169E+03  0.15695440208E+03 -0.12403662328E+04  0.12563634314E+04  0.10100000352E+00 0.  1.
       -3    1    3    3    0  502 -0.12371736169E+03 -0.15695440208E+03  0.69728924004E+03  0.72536402199E+03  0.10100000352E+00 0. -1.
</event>
<event>
 5   0  0.1255141E-04  0.1866688E+04  0.7818609E-02  0.8671618E-01
        1   -1    0    0  501    0  0.00000000000E+00  0.00000000000E+00  0.11800515460E+04  0.11800515460E+04  0.50400001928E-02 0.  1.
       -1   -1    0    0    0  501  0.00000000000E+00  0.00000000000E+00 -0.73821446314E+03  0.73821446316E+03  0.50400001928E-02 0. -1.
    10030    2    1    2    0    0  0.00000000000E+00  0.00000000000E+00  0.44183708286E+03  0.19182660092E+04  0.18666881031E+04 0.  0.
        2    1    3    3  502    0 -0.92859036491E+03  0.92109111845E+02  0.20123292837E+03  0.95459878784E+03  0.25500000920E-02 0.  1.
       -2    1    3    3    0  502  0.92859036491E+03 -0.92109111845E+02  0.24060415449E+03  0.96366722132E+03  0.25500000920E-02 0. -1.
</event>
<event>
 5   0  0.2562925E-04  0.1920317E+04  0.7818609E-02  0.8644809E-01
        2   -1    0    0  501    0  0.00000000000E+00  0.00000000000E+00  0.16388514673E+04  0.16388514673E+04  0.25500000920E-02 0.  1.
       -2   -1    0    0    0  501  0.00000000000E+00  0.00000000000E+00 -0.56253100893E+03  0.56253100894E+03  0.25500000920E-02 0. -1.
    10030    2    1    2    0    0  0.00000000000E+00  0.00000000000E+00  0.10763204584E+04  0.22013824763E+04  0.19203174419E+04 0.  0.
        4    1    3    3  502    0  0.33106641444E+03 -0.18129907409E+03 -0.47391014400E+03  0.60586034903E+03  0.12699999809E+01 0. -1.
       -4    1    3    3    0  502 -0.33106641444E+03  0.18129907409E+03  0.15502306024E+04  0.15955221272E+04  0.12699999809E+01 0.  1.
</event>
<event>
 5   0  0.1277709E-04  0.1952452E+04  0.7818609E-02  0.8629179E-01
        1   -1    0    0  501    0  0.00000000000E+00  0.00000000000E+00  0.13621661407E+04  0.13621661407E+04  0.50400001928E-02 0.  1.
       -1   -1    0    0    0  501  0.00000000000E+00  0.00000000000E+00 -0.69963376636E+03  0.69963376637E+03  0.50400001928E-02 0. -1.
    10030    2    1    2    0    0  0.00000000000E+00  0.00000000000E+00  0.66253237436E+03  0.20617999071E+04  0.19524522298E+04 0.  0.
        4    1    3    3  502    0  0.22701280338E+03  0.35583139113E+03 -0.59829745197E+03  0.73219686270E+03  0.12699999809E+01 0. -1.
       -4    1    3    3    0  502 -0.22701280338E+03 -0.35583139113E+03  0.12608298263E+04  0.13296030444E+04  0.12699999809E+01 0.  1.
</event>
<event>
 5   0  0.1239615E-04  0.1892771E+04  0.7818609E-02  0.8658463E-01
       -1   -1    0    0    0  501  0.00000000000E+00  0.00000000000E+00  0.95665016526E+03  0.95665016527E+03  0.50400001928E-02 0. -1.
        1   -1    0    0  501    0  0.00000000000E+00  0.00000000000E+00 -0.93623068733E+03  0.93623068735E+03  0.50400001928E-02 0.  1.
    10030    2    1    2    0    0  0.00000000000E+00  0.00000000000E+00  0.20419477924E+02  0.18928808526E+04  0.18927707117E+04 0.  0.
        3    1    3    3  502    0 -0.92622233691E+03  0.58219562327E+01 -0.18402699658E+03  0.94434509489E+03  0.10100000352E+00 0. -1.
       -3    1    3    3    0  502  0.92622233691E+03 -0.58219562327E+01  0.20444647450E+03  0.94853575773E+03  0.10100000352E+00 0.  1.
</event>
<event>
 5   0  0.2595012E-04  0.1887054E+04  0.7818609E-02  0.8661328E-01
        2   -1    0    0  501    0  0.00000000000E+00  0.00000000000E+00  0.51606702647E+03  0.51606702648E+03  0.25500000920E-02 0.  1.
       -2   -1    0    0    0  501  0.00000000000E+00  0.00000000000E+00 -0.17250527371E+04  0.17250527371E+04  0.25500000920E-02 0. -1.
    10030    2    1    2    0    0  0.00000000000E+00  0.00000000000E+00 -0.12089857106E+04  0.22411197636E+04  0.18870536151E+04 0.  0.
        1    1    3    3  502    0 -0.80341345749E+03 -0.17004287959E+03 -0.52717937409E+02  0.82290154060E+03  0.50400001928E-02 0.  1.
       -1    1    3    3    0  502  0.80341345749E+03  0.17004287959E+03 -0.11562677732E+04  0.14182182230E+04  0.50400001928E-02 0. -1.
</event>
<event>
 5   0  0.2541124E-04  0.1892557E+04  0.7818609E-02  0.8658570E-01
       -2   -1    0    0    0  501  0.00000000000E+00  0.00000000000E+00  0.82389346037E+03  0.82389346038E+03  0.25500000920E-02 0. -1.
        2   -1    0    0  501    0  0.00000000000E+00  0.00000000000E+00 -0.10868426455E+04  0.10868426455E+04  0.25500000920E-02 0.  1.
    10030    2    1    2    0    0  0.00000000000E+00  0.00000000000E+00 -0.26294918511E+03  0.19107361059E+04  0.18925565229E+04 0.  0.
        5    1    3    3  502    0  0.35933125347E+03 -0.23148467175E+03  0.72086019394E+03  0.83807255783E+03  0.46999998093E+01 0. -1.
       -5    1    3    3    0  502 -0.35933125347E+03  0.23148467175E+03 -0.98380937905E+03  0.10726635480E+04  0.46999998093E+01 0.  1.
</event>
<event>
 5   0  0.1277709E-04  0.1936147E+04  0.7818609E-02  0.8637070E-01
       -1   -1    0    0    0  501  0.00000000000E+00  0.00000000000E+00  0.10120281237E+04  0.10120281237E+04  0.50400001928E-02 0. -1.
        1   -1    0    0  501    0  0.00000000000E+00  0.00000000000E+00 -0.92602782057E+03  0.92602782059E+03  0.50400001928E-02 0.  1.
    10030    2    1    2    0    0  0.00000000000E+00  0.00000000000E+00  0.86000303108E+02  0.19380559443E+04  0.19361468929E+04 0.  0.
        4    1    3    3  502    0 -0.27703586182E+03  0.25595920837E+03  0.93545122875E+03  0.10086300607E+04  0.12699999809E+01 0. -1.
       -4    1    3    3    0  502  0.27703586182E+03 -0.25595920837E+03 -0.84945092564E+03  0.92942588358E+03  0.12699999809E+01 0.  1.
</event>
<event>
 5   0  0.2562925E-04  0.1585184E+04  0.7818609E-02  0.8829702E-01
        2   -1    0    0  501    0  0.00000000000E+00  0.00000000000E+00  0.45170036542E+03  0.45170036543E+03  0.25500000920E-02 0.  1.
       -2   -1    0    0    0  501  0.00000000000E+00  0.00000000000E+00 -0.13907488655E+04  0.13907488655E+04  0.25500000920E-02 0. -1.
    10030    2    1    2    0    0  0.00000000000E+00  0.00000000000E+00 -0.93904850009E+03  0.18424492309E+04  0.15851836118E+04 0.  0.
        4    1    3    3  502    0 -0.61328399942E+03 -0.47240028259E+03 -0.27186296728E+03  0.82048179554E+03  0.12699999809E+01 0.  1.
       -4    1    3    3    0  502  0.61328399942E+03  0.47240028259E+03 -0.66718553281E+03  0.10219674354E+04  0.12699999809E+01 0. -1.
</event>
<event>
 5   0  0.2608744E-04  0.1877967E+04  0.7818609E-02  0.8665902E-01
        2   -1    0    0  501    0  0.00000000000E+00  0.00000000000E+00  0.13310614271E+04  0.13310614271E+04  0.25500000920E-02 0.  1.
       -2   -1    0    0    0  501  0.00000000000E+00  0.00000000000E+00 -0.66239645215E+03  0.66239645216E+03  0.25500000920E-02 0. -1.
    10030    2    1    2    0    0  0.00000000000E+00  0.00000000000E+00  0.66866497494E+03  0.19934578793E+04  0.18779673766E+04 0.  0.
        2    1    3    3  502    0  0.86079544507E+03 -0.16125985123E+03  0.69386037835E+03  0.11173252716E+04  0.25500000920E-02 0.  1.
       -2    1    3    3    0  502 -0.86079544507E+03  0.16125985123E+03 -0.25195403411E+02  0.87613260767E+03  0.25500000920E-02 0. -1.
</event>
<event>
 5   0  0.1317527E-04  0.1875978E+04  0.7818609E-02  0.8666907E-01
        1   -1    0    0  501    0  0.00000000000E+00  0.00000000000E+00  0.12252441311E+04  0.12252441311E+04  0.50400001928E-02 0. -1.
       -1   -1    0    0    0  501  0.00000000000E+00  0.00000000000E+00 -0.71808027606E+03  0.71808027608E+03  0.50400001928E-02 0.  1.
    10030    2    1    2    0    0  0.00000000000E+00  0.00000000000E+00  0.50716385505E+03  0.19433244072E+04  0.18759782983E+04 0.  0.
        1    1    3    3  502    0  0.95231157310E+02 -0.72609957256E+03  0.86074088930E+03  0.11301170033E+04  0.50400001928E-02 0. -1.
       -1    1    3    3    0  502 -0.95231157310E+02  0.72609957256E+03 -0.35357703425E+03  0.81320740390E+03  0.50400001928E-02 0.  1.
</event>
<event>
 5   0  0.2608744E-04  0.1914884E+04  0.7818609E-02  0.8647483E-01
        2   -1    0    0  501    0  0.00000000000E+00  0.00000000000E+00  0.97947679489E+03  0.97947679489E+03  0.25500000920E-02 0. -1.
       -2   -1    0    0    0  501  0.00000000000E+00  0.00000000000E+00 -0.93590297383E+03  0.93590297383E+03  0.25500000920E-02 0.  1.
    10030    2    1    2    0    0  0.00000000000E+00  0.00000000000E+00  0.43573821062E+02  0.19153797687E+04  0.19148840645E+04 0.  0.
        2    1    3    3  502    0  0.10710252944E+03 -0.21332669363E+03 -0.90566183762E+03  0.93659094281E+03  0.25500000920E-02 0.  1.
       -2    1    3    3    0  502 -0.10710252944E+03  0.21332669363E+03  0.94923565868E+03  0.97878882592E+03  0.25500000920E-02 0. -1.
</event>
<event>
 5   0  0.1255141E-04  0.1911998E+04  0.7818609E-02  0.8648907E-01
        1   -1    0    0  501    0  0.00000000000E+00  0.00000000000E+00  0.11546895990E+04  0.11546895991E+04  0.50400001928E-02 0. -1.
       -1   -1    0    0    0  501  0.00000000000E+00  0.00000000000E+00 -0.79149769639E+03  0.79149769641E+03  0.50400001928E-02 0.  1.
    10030    2    1    2    0    0  0.00000000000E+00  0.00000000000E+00  0.36319190266E+03  0.19461872955E+04  0.19119980729E+04 0.  0.
        2    1    3    3  502    0 -0.41755526009E+03 -0.46497169668E+03  0.91798449579E+03  0.11105163702E+04  0.25500000920E-02 0. -1.
       -2    1    3    3    0  502  0.41755526009E+03  0.46497169668E+03 -0.55479259314E+03  0.83567092527E+03  0.25500000920E-02 0.  1.
</event>
<event>
 5   0  0.1277709E-04  0.1909831E+04  0.7818609E-02  0.8649978E-01
       -1   -1    0    0    0  501  0.00000000000E+00  0.00000000000E+00  0.82300694599E+03  0.82300694601E+03  0.50400001928E-02 0.  1.
        1   -1    0    0  501    0  0.00000000000E+00  0.00000000000E+00 -0.11079658942E+04  0.11079658942E+04  0.50400001928E-02 0. -1.
    10030    2    1    2    0    0  0.00000000000E+00  0.00000000000E+00 -0.28495894818E+03  0.19309728402E+04  0.19098310154E+04 0.  0.
        4    1    3    3  502    0 -0.12362780365E+03  0.77297273989E+03 -0.69542599598E+03  0.10470862521E+04  0.12699999809E+01 0. -1.
       -4    1    3    3    0  502  0.12362780365E+03 -0.77297273989E+03  0.41046704780E+03  0.88388658814E+03  0.12699999809E+01 0.  1.
</event>
<event>
 5   0  0.2595012E-04  0.1973344E+04  0.7818609E-02  0.8619185E-01
       -2   -1    0    0    0  501  0.00000000000E+00  0.00000000000E+00  0.92572262597E+03  0.92572262598E+03  0.25500000920E-02 0.  1.
        2   -1    0    0  501    0  0.00000000000E+00  0.00000000000E+00 -0.10516346085E+04  0.10516346085E+04  0.25500000920E-02 0. -1.
    10030    2    1    2    0    0  0.00000000000E+00  0.00000000000E+00 -0.12591198250E+03  0.19773572345E+04  0.19733443200E+04 0.  0.
        1    1    3    3  502    0  0.61928651569E+03 -0.76806942281E+03 -0.71664148576E+02  0.98923312571E+03  0.50400001928E-02 0.  1.
       -1    1    3    3    0  502 -0.61928651569E+03  0.76806942281E+03 -0.54247833926E+02  0.98812410875E+03  0.50400001928E-02 0. -1.
</event>
<event>
 5   0  0.2608744E-04  0.1881033E+04  0.7818609E-02  0.8664356E-01
        2   -1    0    0  501    0  0.00000000000E+00  0.00000000000E+00  0.17254032032E+04  0.17254032032E+04  0.25500000920E-02 0. -1.
       -2   -1    0    0    0  501  0.00000000000E+00  0.00000000000E+00 -0.51267502579E+03  0.51267502580E+03  0.25500000920E-02 0.  1.
    10030    2    1    2    0    0  0.00000000000E+00  0.00000000000E+00  0.12127281774E+04  0.22380782290E+04  0.18810328351E+04 0.  0.
        2    1    3    3  502    0  0.60646244184E+03  0.10655100648E+03 -0.23950989057E+03  0.66069266534E+03  0.25500000920E-02 0.  1.
       -2    1    3    3    0  502 -0.60646244184E+03 -0.10655100648E+03  0.14522380680E+04  0.15773855636E+04  0.25500000920E-02 0. -1.
</event>
<event>
 5   0  0.1317527E-04  0.1904556E+04  0.7818609E-02  0.8652592E-01
        1   -1    0    0  501    0  0.00000000000E+00  0.00000000000E+00  0.16796255464E+04  0.16796255464E+04  0.50400001928E-02 0. -1.
       -1   -1    0    0    0  501  0.00000000000E+00  0.00000000000E+00 -0.53990190112E+03  0.53990190114E+03  0.50400001928E-02 0.  1.
    10030    2    1    2    0    0  0.00000000000E+00  0.00000000000E+00  0.11397236453E+04  0.22195274476E+04  0.19045556182E+04 0.  0.
        1    1    3    3  502    0 -0.20083648464E+03 -0.80091538095E+03  0.11226888599E+04  0.13936394861E+04  0.50400001928E-02 0. -1.
       -1    1    3    3    0  502  0.20083648464E+03  0.80091538095E+03  0.17034785416E+02  0.82588796150E+03  0.50400001928E-02 0.  1.
</event>
<event>
 5   0  0.1255141E-04  0.1987210E+04  0.7818609E-02  0.8612624E-01
        1   -1    0    0  501    0  0.00000000000E+00  0.00000000000E+00  0.16704103134E+04  0.16704103134E+04  0.50400001928E-02 0.  1.
       -1   -1    0    0    0  501  0.00000000000E+00  0.00000000000E+00 -0.59102302587E+03  0.59102302589E+03  0.50400001928E-02 0. -1.
    10030    2    1    2    0    0  0.00000000000E+00  0.00000000000E+00  0.10793872876E+04  0.22614333393E+04  0.19872100623E+04 0.  0.
        2    1    3    3  502    0 -0.33421582049E+03 -0.80476474343E+02 -0.52119172937E+03  0.62435366289E+03  0.25500000920E-02 0. -1.
       -2    1    3    3    0  502  0.33421582049E+03  0.80476474343E+02  0.16005790169E+04  0.16370796765E+04  0.25500000920E-02 0.  1.
</event>
<event>
 5   0  0.2595012E-04  0.1906257E+04  0.7818609E-02  0.8651748E-01
        2   -1    0    0  501    0  0.00000000000E+00  0.00000000000E+00  0.18421114564E+04  0.18421114564E+04  0.25500000920E-02 0. -1.
       -2   -1    0    0    0  501  0.00000000000E+00  0.00000000000E+00 -0.49315918583E+03  0.49315918584E+03  0.25500000920E-02 0.  1.
    10030    2    1    2    0    0  0.00000000000E+00  0.00000000000E+00  0.13489522706E+04  0.23352706423E+04  0.19062572608E+04 0.  0.
        1    1    3    3  502    0  0.64852344052E+03 -0.54551419199E+03  0.14008542684E+03  0.85894837645E+03  0.50400001928E-02 0.  1.
       -1    1    3    3    0  502 -0.64852344052E+03  0.54551419199E+03  0.12088668438E+04  0.14763222658E+04  0.50400001928E-02 0. -1.
</event>
<event>
 5   0  0.1255141E-04  0.1949684E+04  0.7818609E-02  0.8630513E-01
       -1   -1    0    0    0  501  0.00000000000E+00  0.00000000000E+00  0.14388535298E+04  0.14388535298E+04  0.50400001928E-02 0. -1.
        1   -1    0    0  501    0  0.00000000000E+00  0.00000000000E+00 -0.66046801403E+03  0.66046801405E+03  0.50400001928E-02 0.  1.
    10030    2    1    2    0    0  0.00000000000E+00  0.00000000000E+00  0.77838551580E+03  0.20993215439E+04  0.19496838034E+04 0.  0.
        2    1    3    3  502    0 -0.77692950750E+03  0.31138787766E+03 -0.14889655454E+03  0.85014825409E+03  0.25500000920E-02 0.  1.
       -2    1    3    3    0  502  0.77692950750E+03 -0.31138787766E+03  0.92728207033E+03  0.12491732898E+04  0.25500000920E-02 0. -1.
</event>
<event>
 5   0  0.1239615E-04  0.1886772E+04  0.7818609E-02  0.8661469E-01
        1   -1    0    0  501    0  0.00000000000E+00  0.00000000000E+00  0.16927482944E+04  0.16927482944E+04  0.50400001928E-02 0. -1.
       -1   -1    0    0    0  501  0.00000000000E+00  0.00000000000E+00 -0.52575881098E+03  0.52575881101E+03  0.50400001928E-02 0.  1.
    10030    2    1    2    0    0  0.00000000000E+00  0.00000000000E+00  0.11669894834E+04  0.22185071054E+04  0.18867721967E+04 0.  0.
        3    1    3    3  502    0 -0.26911639270E+03  0.86101273998E+03  0.90809545617E+03  0.12800015387E+04  0.10100000352E+00 0. -1.
       -3    1    3    3    0  502  0.26911639270E+03 -0.86101273998E+03  0.25889402720E+03  0.93850556671E+03  0.10100000352E+00 0.  1.
</event>
<event>
 5   0  0.2562925E-04  0.1879405E+04  0.7818609E-02  0.8665176E-01
       -2   -1    0    0    0  501  0.00000000000E+00  0.00000000000E+00  0.10366030026E+04  0.10366030026E+04  0.25500000920E-02 0. -1.
        2   -1    0    0  501    0  0.00000000000E+00  0.00000000000E+00 -0.85186008992E+03  0.85186008993E+03  0.25500000920E-02 0.  1.
    10030    2    1    2    0    0  0.00000000000E+00  0.00000000000E+00  0.18474291272E+03  0.18884630926E+04  0.18794049346E+04 0.  0.
        4    1    3    3  502    0  0.57154168717E+03  0.60001420435E+03  0.53763490797E+03  0.98779038908E+03  0.12699999809E+01 0. -1.
       -4    1    3    3    0  502 -0.57154168717E+03 -0.60001420435E+03 -0.35289199525E+03  0.90067270349E+03  0.12699999809E+01 0.  1.
</event>
<event>
 5   0  0.2562925E-04  0.1939928E+04  0.7818609E-02  0.8635233E-01
       -2   -1    0    0    0  501  0.00000000000E+00  0.00000000000E+00  0.29337624094E+03  0.29337624095E+03  0.25500000920E-02 0.  1.
        2   -1    0    0  501    0  0.00000000000E+00  0.00000000000E+00 -0.32069059747E+04  0.32069059747E+04  0.25500000920E-02 0. -1.
    10030    2    1    2    0    0  0.00000000000E+00  0.00000000000E+00 -0.29135297338E+04  0.35002822157E+04  0.19399278543E+04 0.  0.
        4    1    3    3  502    0  0.17030422267E+03  0.21045162049E+03  0.22382207071E+03  0.35127104217E+03  0.12699999809E+01 0.  1.
       -4    1    3    3    0  502 -0.17030422267E+03 -0.21045162049E+03 -0.31373518045E+04  0.31490111735E+04  0.12699999809E+01 0. -1.
</event>
<event>
 5   0  0.2562925E-04  0.1935537E+04  0.7818609E-02  0.8637367E-01
       -2   -1    0    0    0  501  0.00000000000E+00  0.00000000000E+00  0.10225842493E+04  0.10225842493E+04  0.25500000920E-02 0.  1.
        2   -1    0    0  501    0  0.00000000000E+00  0.00000000000E+00 -0.91589100466E+03  0.91589100466E+03  0.25500000920E-02 0. -1.
    10030    2    1    2    0    0  0.00000000000E+00  0.00000000000E+00  0.10669324467E+03  0.19384752540E+04  0.19355368407E+04 0.  0.
        4    1    3    3  502    0  0.61416046645E+02  0.18186296950E+03 -0.89663334036E+03  0.91695094220E+03  0.12699999809E+01 0. -1.
       -4    1    3    3    0  502 -0.61416046645E+02 -0.18186296950E+03  0.10033265850E+04  0.10215243118E+04  0.12699999809E+01 0.  1.
</event>
<event>
 5   0  0.2651828E-04  0.1873892E+04  0.7818609E-02  0.8667962E-01
       -2   -1    0    0    0  501  0.00000000000E+00  0.00000000000E+00  0.13007418520E+04  0.13007418520E+04  0.25500000920E-02 0. -1.
        2   -1    0    0  501    0  0.00000000000E+00  0.00000000000E+00 -0.67489752869E+03  0.67489752869E+03  0.25500000920E-02 0.  1.
    10030    2    1    2    0    0  0.00000000000E+00  0.00000000000E+00  0.62584432327E+03  0.19756393807E+04  0.18738916312E+04 0.  0.
        3    1    3    3  502    0  0.30888848470E+03 -0.65320035273E+03  0.94178627041E+03  0.11870316702E+04  0.10100000352E+00 0. -1.
       -3    1    3    3    0  502 -0.30888848470E+03  0.65320035273E+03 -0.31594194714E+03  0.78860771043E+03  0.10100000352E+00 0.  1.
</event>
<event>
 5   0  0.1317527E-04  0.1927760E+04  0.7818609E-02  0.8641161E-01
       -1   -1    0    0    0  501  0.00000000000E+00  0.00000000000E+00  0.54885166054E+03  0.54885166057E+03  0.50400001928E-02 0.  1.
        1   -1    0    0  501    0  0.00000000000E+00  0.00000000000E+00 -0.16927423138E+04  0.16927423138E+04  0.50400001928E-02 0. -1.
    10030    2    1    2    0    0  0.00000000000E+00  0.00000000000E+00 -0.11438906532E+04  0.22415939743E+04  0.19277597670E+04 0.  0.
        1    1    3    3  502    0 -0.86184909944E+03 -0.42741532117E+03 -0.50220944177E+03  0.10852106019E+04  0.50400001928E-02 0. -1.
       -1    1    3    3    0  502  0.86184909944E+03  0.42741532117E+03 -0.64168121146E+03  0.11563833725E+04  0.50400001928E-02 0.  1.
</event>
<event>
 5   0  0.2608744E-04  0.1868864E+04  0.7818609E-02  0.8670512E-01
       -2   -1    0    0    0  501  0.00000000000E+00  0.00000000000E+00  0.69464234018E+03  0.69464234018E+03  0.25500000920E-02 0. -1.
        2   -1    0    0  501    0  0.00000000000E+00  0.00000000000E+00 -0.12569965524E+04  0.12569965524E+04  0.25500000920E-02 0.  1.
    10030    2    1    2    0    0  0.00000000000E+00  0.00000000000E+00 -0.56235421224E+03  0.19516388926E+04  0.18688638546E+04 0.  0.
        2    1    3    3  502    0 -0.76705141479E+03 -0.44910145038E+02 -0.83649898922E+03  0.11358324494E+04  0.25500000920E-02 0.  1.
       -2    1    3    3    0  502  0.76705141479E+03  0.44910145038E+02  0.27414477698E+03  0.81580644323E+03  0.25500000920E-02 0. -1.
</event>
<event>
 5   0  0.2595012E-04  0.1867229E+04  0.7818609E-02  0.8671343E-01
       -2   -1    0    0    0  501  0.00000000000E+00  0.00000000000E+00  0.75055642963E+03  0.75055642963E+03  0.25500000920E-02 0. -1.
        2   -1    0    0  501    0  0.00000000000E+00  0.00000000000E+00 -0.11613197514E+04  0.11613197514E+04  0.25500000920E-02 0.  1.
    10030    2    1    2    0    0  0.00000000000E+00  0.00000000000E+00 -0.41076332178E+03  0.19118761810E+04  0.18672289697E+04 0.  0.
        1    1    3    3  502    0  0.29804654721E+03 -0.58145453473E+02 -0.11093410023E+04  0.11501522062E+04  0.50400001928E-02 0.  1.
       -1    1    3    3    0  502 -0.29804654721E+03  0.58145453473E+02  0.69857768052E+03  0.76172397482E+03  0.50400001928E-02 0. -1.
</event>
<event>
 5   0  0.1255141E-04  0.1783580E+04  0.7818609E-02  0.8715081E-01
        1   -1    0    0  501    0  0.00000000000E+00  0.00000000000E+00  0.20907356016E+04  0.20907356016E+04  0.50400001928E-02 0.  1.
       -1   -1    0    0    0  501  0.00000000000E+00  0.00000000000E+00 -0.38038729745E+03  0.38038729748E+03  0.50400001928E-02 0. -1.
    10030    2    1    2    0    0  0.00000000000E+00  0.00000000000E+00  0.17103483041E+04  0.24711228990E+04  0.17835798442E+04 0.  0.
        2    1    3    3  502    0 -0.44816626461E+03  0.32262123826E+03  0.18253616563E+04  0.19070612576E+04  0.25500000920E-02 0.  1.
       -2    1    3    3    0  502  0.44816626461E+03 -0.32262123826E+03 -0.11501335218E+03  0.56406164140E+03  0.25500000920E-02 0. -1.
</event>
<event>
 5   0  0.1255141E-04  0.1937051E+04  0.7818609E-02  0.8636630E-01
        1   -1    0    0  501    0  0.00000000000E+00  0.00000000000E+00  0.11136265499E+04  0.11136265500E+04  0.50400001928E-02 0.  1.
       -1   -1    0    0    0  501  0.00000000000E+00  0.00000000000E+00 -0.84233048277E+03  0.84233048279E+03  0.50400001928E-02 0. -1.
    10030    2    1    2    0    0  0.00000000000E+00  0.00000000000E+00  0.27129606717E+03  0.19559570327E+04  0.19370509435E+04 0.  0.
        2    1    3    3  502    0 -0.55359047760E+03  0.79456465361E+03  0.11980464741E+03  0.97578099961E+03  0.25500000920E-02 0. -1.
       -2    1    3    3    0  502  0.55359047760E+03 -0.79456465361E+03  0.15149141976E+03  0.98017603313E+03  0.25500000920E-02 0.  1.
</event>
<event>
 5   0  0.2595012E-04  0.1888460E+04  0.7818609E-02  0.8660622E-01
       -2   -1    0    0    0  501  0.00000000000E+00  0.00000000000E+00  0.47986286571E+03  0.47986286571E+03  0.25500000920E-02 0. -1.
        2   -1    0    0  501    0  0.00000000000E+00  0.00000000000E+00 -0.18579691421E+04  0.18579691421E+04  0.25500000920E-02 0.  1.
    10030    2    1    2    0    0  0.00000000000E+00  0.00000000000E+00 -0.13781062764E+04  0.23378320079E+04  0.18884601102E+04 0.  0.
        1    1    3    3  502    0  0.73766399806E+03  0.30174915944E+03 -0.62238969439E+02  0.79942130232E+03  0.50400001928E-02 0. -1.
       -1    1    3    3    0  502 -0.73766399806E+03 -0.30174915944E+03 -0.13158673070E+04  0.15384107055E+04  0.50400001928E-02 0.  1.
</event>
<event>
 5   0  0.2562925E-04  0.1903040E+04  0.7818609E-02  0.8653345E-01
        2   -1    0    0  501    0  0.00000000000E+00  0.00000000000E+00  0.11735609871E+04  0.11735609871E+04  0.25500000920E-02 0. -1.
       -2   -1    0    0    0  501  0.00000000000E+00  0.00000000000E+00 -0.77148940630E+03  0.77148940631E+03  0.25500000920E-02 0.  1.
    10030    2    1    2    0    0  0.00000000000E+00  0.00000000000E+00  0.40207158077E+03  0.19450503934E+04  0.19030395363E+04 0.  0.
        4    1    3    3  502    0 -0.55721572131E+03  0.18261220792E+03 -0.56487451193E+03  0.81419985611E+03  0.12699999809E+01 0.  1.
       -4    1    3    3    0  502  0.55721572131E+03 -0.18261220792E+03  0.96694609270E+03  0.11308505373E+04  0.12699999809E+01 0. -1.
</event>
<event>
 5   0  0.2562925E-04  0.1852742E+04  0.7818609E-02  0.8678744E-01
       -2   -1    0    0    0  501  0.00000000000E+00  0.00000000000E+00  0.13557356864E+04  0.13557356864E+04  0.25500000920E-02 0.  1.
        2   -1    0    0  501    0  0.00000000000E+00  0.00000000000E+00 -0.63298742692E+03  0.63298742693E+03  0.25500000920E-02 0. -1.
    10030    2    1    2    0    0  0.00000000000E+00  0.00000000000E+00  0.72274825952E+03  0.19887231134E+04  0.18527424470E+04 0.  0.
        4    1    3    3  502    0  0.26518424838E+03 -0.73674353584E+02  0.13108345479E+04  0.13394175678E+04  0.12699999809E+01 0.  1.
       -4    1    3    3    0  502 -0.26518424838E+03  0.73674353584E+02 -0.58808628843E+03  0.64930554556E+03  0.12699999809E+01 0. -1.
</event>
<event>
 5   0  0.1239615E-04  0.1892930E+04  0.7818609E-02  0.8658383E-01
       -1   -1    0    0    0  501  0.00000000000E+00  0.00000000000E+00  0.73767422081E+03  0.73767422083E+03  0.50400001928E-02 0.  1.
        1   -1    0    0  501    0  0.00000000000E+00  0.00000000000E+00 -0.12143523056E+04  0.12143523056E+04  0.50400001928E-02 0. -1.
    10030    2    1    2    0    0  0.00000000000E+00  0.00000000000E+00 -0.47667808475E+03  0.19520265264E+04  0.18929304169E+04 0.  0.
        3    1    3    3  502    0  0.32339167811E+03  0.74266319980E+03  0.26650111540E+03  0.85273305350E+03  0.10100000352E+00 0.  1.
       -3    1    3    3    0  502 -0.32339167811E+03 -0.74266319980E+03 -0.74317920015E+03  0.10992934729E+04  0.10100000352E+00 0. -1.
</event>
<event>
 5   0  0.1324058E-04  0.1913349E+04  0.7818609E-02  0.8648240E-01
       -1   -1    0    0    0  501  0.00000000000E+00  0.00000000000E+00  0.99545868667E+03  0.99545868669E+03  0.50400001928E-02 0. -1.
        1   -1    0    0  501    0  0.00000000000E+00  0.00000000000E+00 -0.91940120126E+03  0.91940120128E+03  0.50400001928E-02 0.  1.
    10030    2    1    2    0    0  0.00000000000E+00  0.00000000000E+00  0.76057485413E+02  0.19148598880E+04  0.19133488050E+04 0.  0.
        5    1    3    3  502    0 -0.82451347335E+03 -0.16305087111E+03 -0.41927388646E+03  0.93926606251E+03  0.46999998093E+01 0.  1.
       -5    1    3    3    0  502  0.82451347335E+03  0.16305087111E+03  0.49533137187E+03  0.97559382546E+03  0.46999998093E+01 0. -1.
</event>
<event>
 5   0  0.2608744E-04  0.1900010E+04  0.7818609E-02  0.8654851E-01
        2   -1    0    0  501    0  0.00000000000E+00  0.00000000000E+00  0.11515559307E+04  0.11515559307E+04  0.25500000920E-02 0. -1.
       -2   -1    0    0    0  501  0.00000000000E+00  0.00000000000E+00 -0.78373064357E+03  0.78373064357E+03  0.25500000920E-02 0.  1.
    10030    2    1    2    0    0  0.00000000000E+00  0.00000000000E+00  0.36782528718E+03  0.19352865743E+04  0.19000101797E+04 0.  0.
        2    1    3    3  502    0  0.62066654495E+03  0.61027553662E+03  0.57156580397E+03  0.10413215924E+04  0.25500000920E-02 0.  1.
       -2    1    3    3    0  502 -0.62066654495E+03 -0.61027553662E+03 -0.20374051679E+03  0.89396498187E+03  0.25500000920E-02 0. -1.
</event>
<event>
 5   0  0.1255141E-04  0.1918723E+04  0.7818609E-02  0.8645593E-01
       -1   -1    0    0    0  501  0.00000000000E+00  0.00000000000E+00  0.43031870831E+03  0.43031870834E+03  0.50400001928E-02 0.  1.
        1   -1    0    0  501    0  0.00000000000E+00  0.00000000000E+00 -0.21388204179E+04  0.21388204179E+04  0.50400001928E-02 0. -1.
    10030    2    1    2    0    0  0.00000000000E+00  0.00000000000E+00 -0.17085017096E+04  0.25691391262E+04  0.19187229499E+04 0.  0.
        2    1    3    3  502    0 -0.30929297491E+03 -0.27514853238E+03  0.30457420864E+03  0.51393998460E+03  0.25500000920E-02 0.  1.
       -2    1    3    3    0  502  0.30929297491E+03  0.27514853238E+03 -0.20130759182E+04  0.20551991416E+04  0.25500000920E-02 0. -1.
</event>
<event>
 5   0  0.1255141E-04  0.1802277E+04  0.7818609E-02  0.8705089E-01
        1   -1    0    0  501    0  0.00000000000E+00  0.00000000000E+00  0.12595191262E+04  0.12595191262E+04  0.50400001928E-02 0. -1.
       -1   -1    0    0    0  501  0.00000000000E+00  0.00000000000E+00 -0.64473093313E+03  0.64473093315E+03  0.50400001928E-02 0.  1.
    10030    2    1    2    0    0  0.00000000000E+00  0.00000000000E+00  0.61478819309E+03  0.19042500594E+04  0.18022773833E+04 0.  0.
        2    1    3    3  502    0 -0.26246912296E+03  0.71379615342E+03  0.81812339189E+03  0.11170142674E+04  0.25500000920E-02 0. -1.
       -2    1    3    3    0  502  0.26246912296E+03 -0.71379615342E+03 -0.20333519880E+03  0.78723579201E+03  0.25500000920E-02 0.  1.
</event>
<event>
 5   0  0.1317527E-04  0.1833692E+04  0.7818609E-02  0.8688585E-01
        1   -1    0    0  501    0  0.00000000000E+00  0.00000000000E+00  0.11095842330E+04  0.11095842330E+04  0.50400001928E-02 0.  1.
       -1   -1    0    0    0  501  0.00000000000E+00  0.00000000000E+00 -0.75758702072E+03  0.75758702074E+03  0.50400001928E-02 0. -1.
    10030    2    1    2    0    0  0.00000000000E+00  0.00000000000E+00  0.35199721231E+03  0.18671712538E+04  0.18336920280E+04 0.  0.
        1    1    3    3  502    0 -0.36971748027E+03  0.54573228826E+03 -0.47288963161E+03  0.81125788093E+03  0.50400001928E-02 0. -1.
       -1    1    3    3    0  502  0.36971748027E+03 -0.54573228826E+03  0.82488684391E+03  0.10559133728E+04  0.50400001928E-02 0.  1.
</event>
<event>
 5   0  0.2608744E-04  0.1911631E+04  0.7818609E-02  0.8649089E-01
        2   -1    0    0  501    0  0.00000000000E+00  0.00000000000E+00  0.11998705308E+04  0.11998705308E+04  0.25500000920E-02 0. -1.
       -2   -1    0    0    0  501  0.00000000000E+00  0.00000000000E+00 -0.76140127200E+03  0.76140127200E+03  0.25500000920E-02 0.  1.
    10030    2    1    2    0    0  0.00000000000E+00  0.00000000000E+00  0.43846925883E+03  0.19612718028E+04  0.19116306635E+04 0.  0.
        2    1    3    3  502    0 -0.51900629885E+03  0.24232315234E+03 -0.56581182152E+03  0.80512798100E+03  0.25500000920E-02 0.  1.
       -2    1    3    3    0  502  0.51900629885E+03 -0.24232315234E+03  0.10042810804E+04  0.11561438218E+04  0.25500000920E-02 0. -1.
</event>
<event>
 5   0  0.2562925E-04  0.1871269E+04  0.7818609E-02  0.8669291E-01
        2   -1    0    0  501    0  0.00000000000E+00  0.00000000000E+00  0.84359708583E+03  0.84359708584E+03  0.25500000920E-02 0.  1.
       -2   -1    0    0    0  501  0.00000000000E+00  0.00000000000E+00 -0.10377128837E+04  0.10377128837E+04  0.25500000920E-02 0. -1.
    10030    2    1    2    0    0  0.00000000000E+00  0.00000000000E+00 -0.19411579783E+03  0.18813099695E+04  0.18712686227E+04 0.  0.
        4    1    3    3  502    0 -0.87106003604E+02  0.12008056436E+02 -0.10335488605E+04  0.10372832348E+04  0.12699999809E+01 0. -1.
       -4    1    3    3    0  502  0.87106003604E+02 -0.12008056436E+02  0.83943306267E+03  0.84402673470E+03  0.12699999809E+01 0.  1.
</event>
<event>
 5   0  0.1239615E-04  0.1896989E+04  0.7818609E-02  0.8656357E-01
        1   -1    0    0  501    0  0.00000000000E+00  0.00000000000E+00  0.22532097591E+04  0.22532097591E+04  0.50400001928E-02 0.  1.
       -1   -1    0    0    0  501  0.00000000000E+00  0.00000000000E+00 -0.39927122671E+03  0.39927122675E+03  0.50400001928E-02 0. -1.
    10030    2    1    2    0    0  0.00000000000E+00  0.00000000000E+00  0.18539385324E+04  0.26524809859E+04  0.18969890085E+04 0.  0.
        3    1    3    3  502    0  0.12088745640E+03  0.13932935011E+03  0.22278873307E+04  0.22355107724E+04  0.10100000352E+00 0.  1.
       -3    1    3    3    0  502 -0.12088745640E+03 -0.13932935011E+03 -0.37394879834E+03  0.41697021344E+03  0.10100000352E+00 0. -1.
</event>
<event>
 5   0  0.2595012E-04  0.1795513E+04  0.7818609E-02  0.8708689E-01
        2   -1    0    0  501    0  0.00000000000E+00  0.00000000000E+00  0.13911205575E+04  0.13911205575E+04  0.25500000920E-02 0.  1.
       -2   -1    0    0    0  501  0.00000000000E+00  0.00000000000E+00 -0.57936538384E+03  0.57936538385E+03  0.25500000920E-02 0. -1.
    10030    2    1    2    0    0  0.00000000000E+00  0.00000000000E+00  0.81175517361E+03  0.19704859413E+04  0.17955134037E+04 0.  0.
        1    1    3    3  502    0 -0.23703733473E+03  0.33067102067E+03  0.12841372187E+04  0.13470480386E+04  0.50400001928E-02 0.  1.
       -1    1    3    3    0  502  0.23703733473E+03 -0.33067102067E+03 -0.47238204506E+03  0.62343790267E+03  0.50400001928E-02 0. -1.
</event>
<event>
 5   0  0.1255141E-04  0.1907345E+04  0.7818609E-02  0.8651209E-01
       -1   -1    0    0    0  501  0.00000000000E+00  0.00000000000E+00  0.69162390597E+03  0.69162390599E+03  0.50400001928E-02 0.  1.
        1   -1    0    0  501    0  0.00000000000E+00  0.00000000000E+00 -0.13150089344E+04  0.13150089344E+04  0.50400001928E-02 0. -1.
    10030    2    1    2    0    0  0.00000000000E+00  0.00000000000E+00 -0.62338502844E+03  0.20066328404E+04  0.19073453968E+04 0.  0.
        2    1    3    3  502    0  0.27188775973E+03 -0.85514833734E+03  0.28057800850E+02  0.89776883045E+03  0.25500000920E-02 0. -1.
       -2    1    3    3    0  502 -0.27188775973E+03  0.85514833734E+03 -0.65144282929E+03  0.11088640100E+04  0.25500000920E-02 0.  1.
</event>
<event>
 5   0  0.1317527E-04  0.1901885E+04  0.7818609E-02  0.8653918E-01
        1   -1    0    0  501    0  0.00000000000E+00  0.00000000000E+00  0.74397679783E+03  0.74397679785E+03  0.50400001928E-02 0.  1.
       -1   -1    0    0    0  501  0.00000000000E+00  0.00000000000E+00 -0.12154840776E+04  0.12154840777E+04  0.50400001928E-02 0. -1.
    10030    2    1    2    0    0  0.00000000000E+00  0.00000000000E+00 -0.47150727982E+03  0.19594608755E+04  0.19018853298E+04 0.  0.
        1    1    3    3  502    0  0.10469690192E+03  0.42282967076E+03 -0.11066515261E+04  0.11892955781E+04  0.50400001928E-02 0. -1.
       -1    1    3    3    0  502 -0.10469690192E+03 -0.42282967076E+03  0.63514424630E+03  0.77016529744E+03  0.50400001928E-02 0.  1.
</event>
<event>
 5   0  0.1239615E-04  0.1612977E+04  0.7818609E-02  0.8812615E-01
        1   -1    0    0  501    0  0.00000000000E+00  0.00000000000E+00  0.12559591961E+04  0.12559591961E+04  0.50400001928E-02 0.  1.
       -1   -1    0    0    0  501  0.00000000000E+00  0.00000000000E+00 -0.51787032431E+03  0.51787032433E+03  0.50400001928E-02 0. -1.
    10030    2    1    2    0    0  0.00000000000E+00  0.00000000000E+00  0.73808887178E+03  0.17738295204E+04  0.16129773665E+04 0.  0.
        3    1    3    3  502    0 -0.44920528634E+03 -0.11331354991E+02 -0.36745050101E+03  0.58045987784E+03  0.10100000352E+00 0. -1.
       -3    1    3    3    0  502  0.44920528634E+03  0.11331354991E+02  0.11055393728E+04  0.11933696426E+04  0.10100000352E+00 0.  1.
</event>
<event>
 5   0  0.1317527E-04  0.1899295E+04  0.7818609E-02  0.8655208E-01
       -1   -1    0    0    0  501  0.00000000000E+00  0.00000000000E+00  0.58757172315E+03  0.58757172317E+03  0.50400001928E-02 0. -1.
        1   -1    0    0  501    0  0.00000000000E+00  0.00000000000E+00 -0.15348422513E+04  0.15348422513E+04  0.50400001928E-02 0.  1.
    10030    2    1    2    0    0  0.00000000000E+00  0.00000000000E+00 -0.94727052812E+03  0.21224139745E+04  0.18992945073E+04 0.  0.
        1    1    3    3  502    0 -0.10330722421E+03 -0.39813178412E+03 -0.14301367479E+04  0.14881103513E+04  0.50400001928E-02 0.  1.
       -1    1    3    3    0  502  0.10330722421E+03  0.39813178412E+03  0.48286621975E+03  0.63430362312E+03  0.50400001928E-02 0. -1.
</event>
<event>
 5   0  0.1317527E-04  0.1923139E+04  0.7818609E-02  0.8643424E-01
        1   -1    0    0  501    0  0.00000000000E+00  0.00000000000E+00  0.68304825186E+03  0.68304825188E+03  0.50400001928E-02 0.  1.
       -1   -1    0    0    0  501  0.00000000000E+00  0.00000000000E+00 -0.13536614134E+04  0.13536614134E+04  0.50400001928E-02 0. -1.
    10030    2    1    2    0    0  0.00000000000E+00  0.00000000000E+00 -0.67061316156E+03  0.20367096653E+04  0.19231391651E+04 0.  0.
        1    1    3    3  502    0 -0.22431132608E+03  0.33820804217E+03 -0.12585179674E+04  0.13223341957E+04  0.50400001928E-02 0. -1.
       -1    1    3    3    0  502  0.22431132608E+03 -0.33820804217E+03  0.58790480585E+03  0.71437546960E+03  0.50400001928E-02 0.  1.
</event>
<event>
 5   0  0.1255141E-04  0.1885903E+04  0.7818609E-02  0.8661906E-01
       -1   -1    0    0    0  501  0.00000000000E+00  0.00000000000E+00  0.55472207752E+03  0.55472207754E+03  0.50400001928E-02 0.  1.
        1   -1    0    0  501    0  0.00000000000E+00  0.00000000000E+00 -0.16028877116E+04  0.16028877116E+04  0.50400001928E-02 0. -1.
    10030    2    1    2    0    0  0.00000000000E+00  0.00000000000E+00 -0.10481656341E+04  0.21576097892E+04  0.18859026501E+04 0.  0.
        2    1    3    3  502    0  0.83323698861E+03 -0.40771888742E+02 -0.21196835395E+02  0.83450316473E+03  0.25500000920E-02 0.  1.
       -2    1    3    3    0  502 -0.83323698861E+03  0.40771888742E+02 -0.10269687987E+04  0.13231066244E+04  0.25500000920E-02 0. -1.
</event>
<event>
 5   0  0.1317527E-04  0.1836636E+04  0.7818609E-02  0.8687056E-01
       -1   -1    0    0    0  501  0.00000000000E+00  0.00000000000E+00  0.70059542977E+03  0.70059542978E+03  0.50400001928E-02 0. -1.
        1   -1    0    0  501    0  0.00000000000E+00  0.00000000000E+00 -0.12037016196E+04  0.12037016196E+04  0.50400001928E-02 0.  1.
    10030    2    1    2    0    0  0.00000000000E+00  0.00000000000E+00 -0.50310618980E+03  0.19042970494E+04  0.18366358959E+04 0.  0.
        1    1    3    3  502    0 -0.48274339305E+03  0.30175867333E+03 -0.99865951796E+03  0.11495304752E+04  0.50400001928E-02 0.  1.
       -1    1    3    3    0  502  0.48274339305E+03 -0.30175867333E+03  0.49555332816E+03  0.75476657421E+03  0.50400001928E-02 0. -1.
</event>
<event>
 5   0  0.2608744E-04  0.1868722E+04  0.7818609E-02  0.8670584E-01
       -2   -1    0    0    0  501  0.00000000000E+00  0.00000000000E+00  0.86860887708E+03  0.86860887709E+03  0.25500000920E-02 0. -1.
        2   -1    0    0  501    0  0.00000000000E+00  0.00000000000E+00 -0.10050907063E+04  0.10050907063E+04  0.25500000920E-02 0.  1.
    10030    2    1    2    0    0  0.00000000000E+00  0.00000000000E+00 -0.13648182917E+03  0.18736995833E+04  0.18687222477E+04 0.  0.
        2    1    3    3  502    0 -0.56579350205E+03 -0.49301519717E+03 -0.62636023476E+03  0.97750366510E+03  0.25500000920E-02 0.  1.
       -2    1    3    3    0  502  0.56579350205E+03  0.49301519717E+03  0.48987840558E+03  0.89619591824E+03  0.25500000920E-02 0. -1.
</event>
<event>
 5   0  0.1255141E-04  0.1916244E+04  0.7818609E-02  0.8646813E-01
        1   -1    0    0  501    0  0.00000000000E+00  0.00000000000E+00  0.16772488266E+04  0.16772488266E+04  0.50400001928E-02 0.  1.
       -1   -1    0    0    0  501  0.00000000000E+00  0.00000000000E+00 -0.54732375206E+03  0.54732375209E+03  0.50400001928E-02 0. -1.
    10030    2    1    2    0    0  0.00000000000E+00  0.00000000000E+00  0.11299250746E+04  0.22245725787E+04  0.19162443696E+04 0.  0.
        2    1    3    3  502    0 -0.17195466963E+03  0.39469799083E+03  0.15586320194E+04  0.16169999024E+04  0.25500000920E-02 0.  1.
       -2    1    3    3    0  502  0.17195466963E+03 -0.39469799083E+03 -0.42870694489E+03  0.60757267629E+03  0.25500000920E-02 0. -1.
</event>
<event>
 5   0  0.1324058E-04  0.1721478E+04  0.7818609E-02  0.8749209E-01
        1   -1    0    0  501    0  0.00000000000E+00  0.00000000000E+00  0.15660427210E+04  0.15660427210E+04  0.50400001928E-02 0. -1.
       -1   -1    0    0    0  501  0.00000000000E+00  0.00000000000E+00 -0.47308523858E+03  0.47308523861E+03  0.50400001928E-02 0.  1.
    10030    2    1    2    0    0  0.00000000000E+00  0.00000000000E+00  0.10929574824E+04  0.20391279596E+04  0.17214780793E+04 0.  0.
        5    1    3    3  502    0  0.36975201570E+03  0.70680471794E+03  0.16345467307E+03  0.81426591637E+03  0.46999998093E+01 0.  1.
       -5    1    3    3    0  502 -0.36975201570E+03 -0.70680471794E+03  0.92950280936E+03  0.12248620433E+04  0.46999998093E+01 0. -1.
</event>
<event>
 5   0  0.2595012E-04  0.1893160E+04  0.7818609E-02  0.8658269E-01
       -2   -1    0    0    0  501  0.00000000000E+00  0.00000000000E+00  0.87488963437E+03  0.87488963438E+03  0.25500000920E-02 0.  1.
        2   -1    0    0  501    0  0.00000000000E+00  0.00000000000E+00 -0.10241449313E+04  0.10241449313E+04  0.25500000920E-02 0. -1.
    10030    2    1    2    0    0  0.00000000000E+00  0.00000000000E+00 -0.14925529689E+03  0.18990345656E+04  0.18931600930E+04 0.  0.
        1    1    3    3  502    0  0.87182605557E+02  0.88730745974E+03 -0.39357410116E+03  0.97458499267E+03  0.50400001928E-02 0.  1.
       -1    1    3    3    0  502 -0.87182605557E+02 -0.88730745974E+03  0.24431880427E+03  0.92444957297E+03  0.50400001928E-02 0. -1.
</event>
<event>
 5   0  0.2595012E-04  0.1850391E+04  0.7818609E-02  0.8679952E-01
       -2   -1    0    0    0  501  0.00000000000E+00  0.00000000000E+00  0.47800584064E+03  0.47800584065E+03  0.25500000920E-02 0.  1.
        2   -1    0    0  501    0  0.00000000000E+00  0.00000000000E+00 -0.17907460448E+04  0.17907460448E+04  0.25500000920E-02 0. -1.
    10030    2    1    2    0    0  0.00000000000E+00  0.00000000000E+00 -0.13127402041E+04  0.22687518854E+04  0.18503913840E+04 0.  0.
        1    1    3    3  502    0  0.52780755508E+03  0.65395503457E+03 -0.18190369739E+03  0.85984123976E+03  0.50400001928E-02 0.  1.
       -1    1    3    3    0  502 -0.52780755508E+03 -0.65395503457E+03 -0.11308365067E+04  0.14089106457E+04  0.50400001928E-02 0. -1.
</event>
<event>
 5   0  0.2608744E-04  0.1890285E+04  0.7818609E-02  0.8659707E-01
       -2   -1    0    0    0  501  0.00000000000E+00  0.00000000000E+00  0.58360854613E+03  0.58360854613E+03  0.25500000920E-02 0.  1.
        2   -1    0    0  501    0  0.00000000000E+00  0.00000000000E+00 -0.15306392786E+04  0.15306392786E+04  0.25500000920E-02 0. -1.
    10030    2    1    2    0    0  0.00000000000E+00  0.00000000000E+00 -0.94703073244E+03  0.21142478247E+04  0.18902848082E+04 0.  0.
        2    1    3    3  502    0  0.43947157605E+03 -0.34512778168E+03  0.37906199941E+03  0.67523066521E+03  0.25500000920E-02 0.  1.
       -2    1    3    3    0  502 -0.43947157605E+03  0.34512778168E+03 -0.13260927319E+04  0.14390171595E+04  0.25500000920E-02 0. -1.
</event>
<event>
 5   0  0.2541124E-04  0.1939024E+04  0.7818609E-02  0.8635672E-01
       -2   -1    0    0    0  501  0.00000000000E+00  0.00000000000E+00  0.69709428109E+03  0.69709428110E+03  0.25500000920E-02 0. -1.
        2   -1    0    0  501    0  0.00000000000E+00  0.00000000000E+00 -0.13483875595E+04  0.13483875595E+04  0.25500000920E-02 0.  1.
    10030    2    1    2    0    0  0.00000000000E+00  0.00000000000E+00 -0.65129327844E+03  0.20454818406E+04  0.19390237301E+04 0.  0.
        5    1    3    3  502    0  0.18738923134E+03 -0.54111510491E+03 -0.11509090755E+04  0.12855092652E+04  0.46999998093E+01 0.  1.
       -5    1    3    3    0  502 -0.18738923134E+03  0.54111510491E+03  0.49961579705E+03  0.75997257546E+03  0.46999998093E+01 0. -1.
</event>
<event>
 5   0  0.1277709E-04  0.1924497E+04  0.7818609E-02  0.8642758E-01
       -1   -1    0    0    0  501  0.00000000000E+00  0.00000000000E+00  0.61159986351E+03  0.61159986353E+03  0.50400001928E-02 0.  1.
        1   -1    0    0  501    0  0.00000000000E+00  0.00000000000E+00 -0.15139351430E+04  0.15139351430E+04  0.50400001928E-02 0. -1.
    10030    2    1    2    0    0  0.00000000000E+00  0.00000000000E+00 -0.90233527948E+03  0.21255350065E+04  0.19244973649E+04 0.  0.
        4    1    3    3  502    0  0.11459384316E+03 -0.79601086598E+03 -0.10347125972E+04  0.13104948757E+04  0.12699999809E+01 0.  1.
       -4    1    3    3    0  502 -0.11459384316E+03  0.79601086598E+03  0.13237731771E+03  0.81504013078E+03  0.12699999809E+01 0. -1.
</event>
<event>
 5   0  0.2595012E-04  0.1891654E+04  0.7818609E-02  0.8659022E-01
       -2   -1    0    0    0  501  0.00000000000E+00  0.00000000000E+00  0.51661645785E+03  0.51661645785E+03  0.25500000920E-02 0. -1.
        2   -1    0    0  501    0  0.00000000000E+00  0.00000000000E+00 -0.17316303141E+04  0.17316303142E+04  0.25500000920E-02 0.  1.
    10030    2    1    2    0    0  0.00000000000E+00  0.00000000000E+00 -0.12150138563E+04  0.22482467720E+04  0.18916540056E+04 0.  0.
        1    1    3    3  502    0  0.84728686058E+02 -0.33979953112E+03  0.43672206705E+03  0.55979356504E+03  0.50400001928E-02 0. -1.
       -1    1    3    3    0  502 -0.84728686058E+02  0.33979953112E+03 -0.16517359233E+04  0.16884532070E+04  0.50400001928E-02 0.  1.
</event>
<event>
 5   0  0.1317527E-04  0.1872191E+04  0.7818609E-02  0.8668824E-01
        1   -1    0    0  501    0  0.00000000000E+00  0.00000000000E+00  0.11448718522E+04  0.11448718522E+04  0.50400001928E-02 0.  1.
       -1   -1    0    0    0  501  0.00000000000E+00  0.00000000000E+00 -0.76539132808E+03  0.76539132809E+03  0.50400001928E-02 0. -1.
    10030    2    1    2    0    0  0.00000000000E+00  0.00000000000E+00  0.37948052409E+03  0.19102631803E+04  0.18721912161E+04 0.  0.
        1    1    3    3  502    0 -0.54030316688E+03  0.67983942898E+03 -0.16688973466E+03  0.88428578236E+03  0.50400001928E-02 0. -1.
       -1    1    3    3    0  502  0.54030316688E+03 -0.67983942898E+03  0.54637025875E+03  0.10259773979E+04  0.50400001928E-02 0.  1.
</event>
<event>
 5   0  0.1255141E-04  0.1842759E+04  0.7818609E-02  0.8683885E-01
        1   -1    0    0  501    0  0.00000000000E+00  0.00000000000E+00  0.11287026190E+04  0.11287026190E+04  0.50400001928E-02 0. -1.
       -1   -1    0    0    0  501  0.00000000000E+00  0.00000000000E+00 -0.75213843700E+03  0.75213843702E+03  0.50400001928E-02 0.  1.
    10030    2    1    2    0    0  0.00000000000E+00  0.00000000000E+00  0.37656418202E+03  0.18808410560E+04  0.18427594783E+04 0.  0.
        2    1    3    3  502    0  0.43853349392E+03 -0.80662334396E+03  0.26726194731E+03  0.95623312680E+03  0.25500000920E-02 0. -1.
       -2    1    3    3    0  502 -0.43853349392E+03  0.80662334396E+03  0.10930223471E+03  0.92460792925E+03  0.25500000920E-02 0.  1.
</event>
<event>
 5   0  0.1239615E-04  0.1902713E+04  0.7818609E-02  0.8653507E-01
       -1   -1    0    0    0  501  0.00000000000E+00  0.00000000000E+00  0.10944477692E+04  0.10944477692E+04  0.50400001928E-02 0.  1.
        1   -1    0    0  501    0  0.00000000000E+00  0.00000000000E+00 -0.82697341233E+03  0.82697341235E+03  0.50400001928E-02 0. -1.
    10030    2    1    2    0    0  0.00000000000E+00  0.00000000000E+00  0.26747435690E+03  0.19214211816E+04  0.19027130171E+04 0.  0.
        3    1    3    3  502    0  0.66454582850E+03 -0.40956268626E+03  0.68288216400E+03  0.10371551534E+04  0.10100000352E+00 0.  1.
       -3    1    3    3    0  502 -0.66454582850E+03  0.40956268626E+03 -0.41540780711E+03  0.88426602816E+03  0.10100000352E+00 0. -1.
</event>
<event>
 5   0  0.1324058E-04  0.1926635E+04  0.7818609E-02  0.8641711E-01
        1   -1    0    0  501    0  0.00000000000E+00  0.00000000000E+00  0.12831803411E+04  0.12831803411E+04  0.50400001928E-02 0. -1.
       -1   -1    0    0    0  501  0.00000000000E+00  0.00000000000E+00 -0.72318834165E+03  0.72318834167E+03  0.50400001928E-02 0.  1.
    10030    2    1    2    0    0  0.00000000000E+00  0.00000000000E+00  0.55999199943E+03  0.20063686828E+04  0.19266354745E+04 0.  0.
        5    1    3    3  502    0 -0.20989828589E+03  0.14790365179E+03 -0.68688142181E+03  0.73332186539E+03  0.46999998093E+01 0.  1.
       -5    1    3    3    0  502  0.20989828589E+03 -0.14790365179E+03  0.12468734212E+04  0.12730468174E+04  0.46999998093E+01 0. -1.
</event>
<event>
 5   0  0.1255141E-04  0.1969117E+04  0.7818609E-02  0.8621197E-01
       -1   -1    0    0    0  501  0.00000000000E+00  0.00000000000E+00  0.82304674808E+03  0.82304674809E+03  0.50400001928E-02 0.  1.
        1   -1    0    0  501    0  0.00000000000E+00  0.00000000000E+00 -0.11777645354E+04  0.11777645354E+04  0.50400001928E-02 0. -1.
    10030    2    1    2    0    0  0.00000000000E+00  0.00000000000E+00 -0.35471778729E+03  0.20008112835E+04  0.19691168283E+04 0.  0.
        2    1    3    3  502    0 -0.82331170530E+03 -0.34323336890E+03  0.24612754303E+03  0.92532701088E+03  0.25500000920E-02 0.  1.
       -2    1    3    3    0  502  0.82331170530E+03  0.34323336890E+03 -0.60084533032E+03  0.10754842726E+04  0.25500000920E-02 0. -1.
</event>
<event>
 5   0  0.2595012E-04  0.1891188E+04  0.7818609E-02  0.8659255E-01
        2   -1    0    0  501    0  0.00000000000E+00  0.00000000000E+00  0.51901449513E+03  0.51901449514E+03  0.25500000920E-02 0.  1.
       -2   -1    0    0    0  501  0.00000000000E+00  0.00000000000E+00 -0.17227800270E+04  0.17227800270E+04  0.25500000920E-02 0. -1.
    10030    2    1    2    0    0  0.00000000000E+00  0.00000000000E+00 -0.12037655319E+04  0.22417945222E+04  0.18911877812E+04 0.  0.
        1    1    3    3  502    0  0.21930059957E+03  0.86105926586E+03 -0.98531922073E+03  0.13267892745E+04  0.50400001928E-02 0. -1.
       -1    1    3    3    0  502 -0.21930059957E+03 -0.86105926586E+03 -0.21844631117E+03  0.91500524763E+03  0.50400001928E-02 0.  1.
</event>
<event>
 5   0  0.2651828E-04  0.1962106E+04  0.7818609E-02  0.8624545E-01
        2   -1    0    0  501    0  0.00000000000E+00  0.00000000000E+00  0.11586502868E+04  0.11586502869E+04  0.25500000920E-02 0.  1.
       -2   -1    0    0    0  501  0.00000000000E+00  0.00000000000E+00 -0.83067811459E+03  0.83067811459E+03  0.25500000920E-02 0. -1.
    10030    2    1    2    0    0  0.00000000000E+00  0.00000000000E+00  0.32797217226E+03  0.19893284014E+04  0.19621064556E+04 0.  0.
        3    1    3    3  502    0  0.96097251178E+03 -0.45550605013E+02  0.35880399400E+03  0.10267830064E+04  0.10100000352E+00 0. -1.
       -3    1    3    3    0  502 -0.96097251178E+03  0.45550605013E+02 -0.30831821743E+02  0.96254539500E+03  0.10100000352E+00 0.  1.
</event>
<event>
 5   0  0.1317527E-04  0.1719669E+04  0.7818609E-02  0.8750225E-01
        1   -1    0    0  501    0  0.00000000000E+00  0.00000000000E+00  0.75688847812E+03  0.75688847814E+03  0.50400001928E-02 0. -1.
       -1   -1    0    0    0  501  0.00000000000E+00  0.00000000000E+00 -0.97678221625E+03  0.97678221626E+03  0.50400001928E-02 0.  1.
    10030    2    1    2    0    0  0.00000000000E+00  0.00000000000E+00 -0.21989373813E+03  0.17336706944E+04  0.17196688113E+04 0.  0.
        1    1    3    3  502    0 -0.20412602041E+03  0.78434139145E+03  0.17954332575E+03  0.83011725461E+03  0.50400001928E-02 0.  1.
       -1    1    3    3    0  502  0.20412602041E+03 -0.78434139145E+03 -0.39943706388E+03  0.90355343980E+03  0.50400001928E-02 0. -1.
</event>
<event>
 5   0  0.1255141E-04  0.1928500E+04  0.7818609E-02  0.8640799E-01
        1   -1    0    0  501    0  0.00000000000E+00  0.00000000000E+00  0.10387558100E+04  0.10387558100E+04  0.50400001928E-02 0. -1.
       -1   -1    0    0    0  501  0.00000000000E+00  0.00000000000E+00 -0.89508774774E+03  0.89508774776E+03  0.50400001928E-02 0.  1.
    10030    2    1    2    0    0  0.00000000000E+00  0.00000000000E+00  0.14366806223E+03  0.19338435577E+04  0.19284995187E+04 0.  0.
        2    1    3    3  502    0  0.43783731692E+03 -0.53244087193E+03 -0.60426186998E+03  0.91669362696E+03  0.25500000920E-02 0.  1.
       -2    1    3    3    0  502 -0.43783731692E+03  0.53244087193E+03  0.74792993222E+03  0.10171499308E+04  0.25500000920E-02 0. -1.
</event>
<event>
 5   0  0.1317527E-04  0.1916079E+04  0.7818609E-02  0.8646894E-01
       -1   -1    0    0    0  501  0.00000000000E+00  0.00000000000E+00  0.80899689804E+03  0.80899689806E+03  0.50400001928E-02 0. -1.
        1   -1    0    0  501    0  0.00000000000E+00  0.00000000000E+00 -0.11345404313E+04  0.11345404314E+04  0.50400001928E-02 0.  1.
    10030    2    1    2    0    0  0.00000000000E+00  0.00000000000E+00 -0.32554353330E+03  0.19435373294E+04  0.19160790064E+04 0.  0.
        1    1    3    3  502    0  0.29513843703E+03  0.90914046925E+03 -0.97062252937E+02  0.96076228632E+03  0.50400001928E-02 0.  1.
       -1    1    3    3    0  502 -0.29513843703E+03 -0.90914046925E+03 -0.22848128037E+03  0.98277504310E+03  0.50400001928E-02 0. -1.
</event>
<event>
 5   0  0.1277709E-04  0.1978730E+04  0.7818609E-02  0.8616630E-01
        1   -1    0    0  501    0  0.00000000000E+00  0.00000000000E+00  0.21918652117E+04  0.21918652117E+04  0.50400001928E-02 0. -1.
       -1   -1    0    0    0  501  0.00000000000E+00  0.00000000000E+00 -0.44658017241E+03  0.44658017244E+03  0.50400001928E-02 0.  1.
    10030    2    1    2    0    0  0.00000000000E+00  0.00000000000E+00  0.17452850393E+04  0.26384453842E+04  0.19787304457E+04 0.  0.
        4    1    3    3  502    0 -0.56855795385E+03  0.13089348746E+03  0.19380730790E+04  0.20239861967E+04  0.12699999809E+01 0. -1.
       -4    1    3    3    0  502  0.56855795385E+03 -0.13089348746E+03 -0.19278803968E+03  0.61445918749E+03  0.12699999809E+01 0.  1.
</event>
<event>
 5   0  0.1239615E-04  0.1922858E+04  0.7818609E-02  0.8643562E-01
       -1   -1    0    0    0  501  0.00000000000E+00  0.00000000000E+00  0.14886304392E+04  0.14886304392E+04  0.50400001928E-02 0.  1.
        1   -1    0    0  501    0  0.00000000000E+00  0.00000000000E+00 -0.62093675270E+03  0.62093675272E+03  0.50400001928E-02 0. -1.
    10030    2    1    2    0    0  0.00000000000E+00  0.00000000000E+00  0.86769368649E+03  0.21095671919E+04  0.19228576140E+04 0.  0.
        3    1    3    3  502    0  0.18319708111E+03 -0.88365919044E+02 -0.59706278590E+03  0.63075644006E+03  0.10100000352E+00 0. -1.
       -3    1    3    3    0  502 -0.18319708111E+03  0.88365919044E+02  0.14647564724E+04  0.14788107519E+04  0.10100000352E+00 0.  1.
</event>
<event>
 5   0  0.2595012E-04  0.1868070E+04  0.7818609E-02  0.8670915E-01
        2   -1    0    0  501    0  0.00000000000E+00  0.00000000000E+00  0.79687854038E+03  0.79687854039E+03  0.25500000920E-02 0. -1.
       -2   -1    0    0    0  501  0.00000000000E+00  0.00000000000E+00 -0.10947981507E+04  0.10947981507E+04  0.25500000920E-02 0.  1.
    10030    2    1    2    0    0  0.00000000000E+00  0.00000000000E+00 -0.29791961033E+03  0.18916766911E+04  0.18680697550E+04 0.  0.
        1    1    3    3  502    0  0.28330192792E+03  0.58299283102E+03  0.53205690638E+03  0.83858522228E+03  0.50400001928E-02 0. -1.
       -1    1    3    3    0  502 -0.28330192792E+03 -0.58299283102E+03 -0.82997651671E+03  0.10530914688E+04  0.50400001928E-02 0.  1.
</event>
<event>
 5   0  0.1324058E-04  0.1669010E+04  0.7818609E-02  0.8779239E-01
       -1   -1    0    0    0  501  0.00000000000E+00  0.00000000000E+00  0.95305934551E+03  0.95305934552E+03  0.50400001928E-02 0. -1.
        1   -1    0    0  501    0  0.00000000000E+00  0.00000000000E+00 -0.73069761436E+03  0.73069761437E+03  0.50400001928E-02 0.  1.
    10030    2    1    2    0    0  0.00000000000E+00  0.00000000000E+00  0.22236173115E+03  0.16837569599E+04  0.16690095148E+04 0.  0.
        5    1    3    3  502    0  0.66872122468E+03  0.13783060719E+03  0.59520222043E+03  0.90579971617E+03  0.46999998093E+01 0. -1.
       -5    1    3    3    0  502 -0.66872122468E+03 -0.13783060719E+03 -0.37284048928E+03  0.77795724372E+03  0.46999998093E+01 0.  1.
</event>
<event>
 5   0  0.2608744E-04  0.1880606E+04  0.7818609E-02  0.8664571E-01
        2   -1    0    0  501    0  0.00000000000E+00  0.00000000000E+00  0.61840479990E+03  0.61840479990E+03  0.25500000920E-02 0. -1.
       -2   -1    0    0    0  501  0.00000000000E+00  0.00000000000E+00 -0.14297588159E+04  0.14297588159E+04  0.25500000920E-02 0.  1.
    10030    2    1    2    0    0  0.00000000000E+00  0.00000000000E+00 -0.81135401596E+03  0.20481636158E+04  0.18806059815E+04 0.  0.
        2    1    3    3  502    0 -0.78388254896E+03  0.37015031655E+03 -0.89604034673E+01  0.86692756112E+03  0.25500000920E-02 0. -1.
       -2    1    3    3    0  502  0.78388254896E+03 -0.37015031655E+03 -0.80239361250E+03  0.11812360546E+04  0.25500000920E-02 0.  1.
</event>
<event>
 5   0  0.1277709E-04  0.1912007E+04  0.7818609E-02  0.8648903E-01
        1   -1    0    0  501    0  0.00000000000E+00  0.00000000000E+00  0.16755622505E+04  0.16755622505E+04  0.50400001928E-02 0. -1.
       -1   -1    0    0    0  501  0.00000000000E+00  0.00000000000E+00 -0.54545427212E+03  0.54545427215E+03  0.50400001928E-02 0.  1.
    10030    2    1    2    0    0  0.00000000000E+00  0.00000000000E+00  0.11301079784E+04  0.22210165226E+04  0.19120068910E+04 0.  0.
        4    1    3    3  502    0 -0.10670662491E+03 -0.56675607448E+03 -0.32062893117E+03  0.65985094996E+03  0.12699999809E+01 0.  1.
       -4    1    3    3    0  502  0.10670662491E+03  0.56675607448E+03  0.14507369095E+04  0.15611655727E+04  0.12699999809E+01 0. -1.
</event>
<event>
 5   0  0.2651828E-04  0.1882574E+04  0.7818609E-02  0.8663579E-01
       -2   -1    0    0    0  501  0.00000000000E+00  0.00000000000E+00  0.14234692287E+04  0.14234692287E+04  0.25500000920E-02 0. -1.
        2   -1    0    0  501    0  0.00000000000E+00  0.00000000000E+00 -0.62243811886E+03  0.62243811886E+03  0.25500000920E-02 0.  1.
    10030    2    1    2    0    0  0.00000000000E+00  0.00000000000E+00  0.80103110983E+03  0.20459073475E+04  0.18825743108E+04 0.  0.
        3    1    3    3  502    0 -0.71080876898E+02  0.71206194239E+03  0.10650736251E+04  0.12831471225E+04  0.10100000352E+00 0. -1.
       -3    1    3    3    0  502  0.71080876898E+02 -0.71206194239E+03 -0.26404251528E+03  0.76276022506E+03  0.10100000352E+00 0.  1.
</event>
<event>
 5   0  0.1317527E-04  0.1902616E+04  0.7818609E-02  0.8653555E-01
        1   -1    0    0  501    0  0.00000000000E+00  0.00000000000E+00  0.11034833290E+04  0.11034833290E+04  0.50400001928E-02 0. -1.
       -1   -1    0    0    0  501  0.00000000000E+00  0.00000000000E+00 -0.82011829114E+03  0.82011829115E+03  0.50400001928E-02 0.  1.
    10030    2    1    2    0    0  0.00000000000E+00  0.00000000000E+00  0.28336503783E+03  0.19236016201E+04  0.19026159487E+04 0.  0.
        1    1    3    3  502    0 -0.49366709675E+03 -0.80540379956E+03  0.28174973239E+02  0.94508005581E+03  0.50400001928E-02 0.  1.
       -1    1    3    3    0  502  0.49366709675E+03  0.80540379956E+03  0.25519006459E+03  0.97852156432E+03  0.50400001928E-02 0. -1.
</event>
<event>
 5   0  0.2651828E-04  0.1888098E+04  0.7818609E-02  0.8660804E-01
       -2   -1    0    0    0  501  0.00000000000E+00  0.00000000000E+00  0.11733791845E+04  0.11733791845E+04  0.25500000920E-02 0. -1.
        2   -1    0    0  501    0  0.00000000000E+00  0.00000000000E+00 -0.75954008773E+03  0.75954008774E+03  0.25500000920E-02 0.  1.
    10030    2    1    2    0    0  0.00000000000E+00  0.00000000000E+00  0.41383909676E+03  0.19329192722E+04  0.18880980152E+04 0.  0.
        3    1    3    3  502    0  0.70170526676E+03  0.61853493036E+03  0.33743230711E+03  0.99440249072E+03  0.10100000352E+00 0. -1.
       -3    1    3    3    0  502 -0.70170526676E+03 -0.61853493036E+03  0.76406789649E+02  0.93851678151E+03  0.10100000352E+00 0.  1.
</event>
<event>
 5   0  0.1239615E-04  0.1899009E+04  0.7818609E-02  0.8655350E-01
       -1   -1    0    0    0  501  0.00000000000E+00  0.00000000000E+00  0.11230853661E+04  0.11230853662E+04  0.50400001928E-02 0. -1.
        1   -1    0    0  501    0  0.00000000000E+00  0.00000000000E+00 -0.80275216392E+03  0.80275216394E+03  0.50400001928E-02 0.  1.
    10030    2    1    2    0    0  0.00000000000E+00  0.00000000000E+00  0.32033320222E+03  0.19258375301E+04  0.18990094344E+04 0.  0.
        3    1    3    3  502    0 -0.83131213775E+03  0.11612433193E+02 -0.30494597445E+03  0.88555450228E+03  0.10100000352E+00 0. -1.
       -3    1    3    3    0  502  0.83131213775E+03 -0.11612433193E+02  0.62527917667E+03  0.10402830278E+04  0.10100000352E+00 0.  1.
</event>
<event>
 5   0  0.1324058E-04  0.1898861E+04  0.7818609E-02  0.8655424E-01
        1   -1    0    0  501    0  0.00000000000E+00  0.00000000000E+00  0.72759017725E+03  0.72759017727E+03  0.50400001928E-02 0. -1.
       -1   -1    0    0    0  501  0.00000000000E+00  0.00000000000E+00 -0.12389092776E+04  0.12389092776E+04  0.50400001928E-02 0.  1.
    10030    2    1    2    0    0  0.00000000000E+00  0.00000000000E+00 -0.51131910036E+03  0.19664994549E+04  0.18988609438E+04 0.  0.
        5    1    3    3  502    0  0.61603159137E+03  0.21436526724E+03 -0.97012422334E+03  0.11690211666E+04  0.46999998093E+01 0.  1.
       -5    1    3    3    0  502 -0.61603159137E+03 -0.21436526724E+03  0.45880512297E+03  0.79747828825E+03  0.46999998093E+01 0. -1.
</event>
<event>
 5   0  0.1239615E-04  0.1740159E+04  0.7818609E-02  0.8738786E-01
       -1   -1    0    0    0  501  0.00000000000E+00  0.00000000000E+00  0.91155722487E+03  0.91155722489E+03  0.50400001928E-02 0.  1.
        1   -1    0    0  501    0  0.00000000000E+00  0.00000000000E+00 -0.83048884716E+03  0.83048884718E+03  0.50400001928E-02 0. -1.
    10030    2    1    2    0    0  0.00000000000E+00  0.00000000000E+00  0.81068377712E+02  0.17420460721E+04  0.17401587385E+04 0.  0.
        3    1    3    3  502    0 -0.47775261722E+03 -0.56208641034E+03  0.50239061195E+03  0.89251612485E+03  0.10100000352E+00 0.  1.
       -3    1    3    3    0  502  0.47775261722E+03  0.56208641034E+03 -0.42132223424E+03  0.84952994721E+03  0.10100000352E+00 0. -1.
</event>
<event>
 5   0  0.2541124E-04  0.1872869E+04  0.7818609E-02  0.8668480E-01
       -2   -1    0    0    0  501  0.00000000000E+00  0.00000000000E+00  0.11762259975E+04  0.11762259975E+04  0.25500000920E-02 0. -1.
        2   -1    0    0  501    0  0.00000000000E+00  0.00000000000E+00 -0.74552848180E+03  0.74552848180E+03  0.25500000920E-02 0.  1.
    10030    2    1    2    0    0  0.00000000000E+00  0.00000000000E+00  0.43069751566E+03  0.19217544793E+04  0.18728694371E+04 0.  0.
        5    1    3    3  502    0 -0.42922935105E+03 -0.20199722439E+03  0.10437930197E+04  0.11465455387E+04  0.46999998093E+01 0. -1.
       -5    1    3    3    0  502  0.42922935105E+03  0.20199722439E+03 -0.61309550400E+03  0.77520894054E+03  0.46999998093E+01 0.  1.
</event>
<event>
 5   0  0.2595012E-04  0.1891721E+04  0.7818609E-02  0.8658988E-01
        2   -1    0    0  501    0  0.00000000000E+00  0.00000000000E+00  0.11773436642E+04  0.11773436642E+04  0.25500000920E-02 0. -1.
       -2   -1    0    0    0  501  0.00000000000E+00  0.00000000000E+00 -0.75989060409E+03  0.75989060409E+03  0.25500000920E-02 0.  1.
    10030    2    1    2    0    0  0.00000000000E+00  0.00000000000E+00  0.41745306009E+03  0.19372342683E+04  0.18917213201E+04 0.  0.
        1    1    3    3  502    0 -0.92131970028E+03 -0.12429451631E+03  0.30254251307E+02  0.93015828581E+03  0.50400001928E-02 0.  1.
       -1    1    3    3    0  502  0.92131970028E+03  0.12429451631E+03  0.38719880879E+03  0.10070759825E+04  0.50400001928E-02 0. -1.
</event>
<event>
 5   0  0.2595012E-04  0.1893417E+04  0.7818609E-02  0.8658140E-01
        2   -1    0    0  501    0  0.00000000000E+00  0.00000000000E+00  0.25178553973E+04  0.25178553973E+04  0.25500000920E-02 0. -1.
       -2   -1    0    0    0  501  0.00000000000E+00  0.00000000000E+00 -0.35596046539E+03  0.35596046540E+03  0.25500000920E-02 0.  1.
    10030    2    1    2    0    0  0.00000000000E+00  0.00000000000E+00  0.21618949319E+04  0.28738158627E+04  0.18934169948E+04 0.  0.
        1    1    3    3  502    0 -0.92139068735E+03  0.20704832447E+03  0.97995805392E+03  0.13609362935E+04  0.50400001928E-02 0. -1.
       -1    1    3    3    0  502  0.92139068735E+03 -0.20704832447E+03  0.11819368780E+04  0.15128795692E+04  0.50400001928E-02 0.  1.
</event>
<event>
 5   0  0.1255141E-04  0.1915782E+04  0.7818609E-02  0.8647040E-01
       -1   -1    0    0    0  501  0.00000000000E+00  0.00000000000E+00  0.92482413728E+03  0.92482413730E+03  0.50400001928E-02 0.  1.
        1   -1    0    0  501    0  0.00000000000E+00  0.00000000000E+00 -0.99214021908E+03  0.99214021910E+03  0.50400001928E-02 0. -1.
    10030    2    1    2    0    0  0.00000000000E+00  0.00000000000E+00 -0.67316081802E+02  0.19169643564E+04  0.19157820567E+04 0.  0.
        2    1    3    3  502    0 -0.65997907794E+03 -0.45346299035E+03 -0.55967644094E+03  0.97695382976E+03  0.25500000920E-02 0. -1.
       -2    1    3    3    0  502  0.65997907794E+03  0.45346299035E+03  0.49236035913E+03  0.94001052664E+03  0.25500000920E-02 0.  1.
</event>
<event>
 5   0  0.9266125E-05  0.1892683E+04  0.7818609E-02  0.8658507E-01
       -4   -1    0    0    0  501  0.00000000000E+00  0.00000000000E+00  0.91629423612E+03  0.91629511624E+03  0.12699999809E+01 0.  1.
        4   -1    0    0  501    0  0.00000000000E+00  0.00000000000E+00 -0.97737239316E+03  0.97737321828E+03  0.12699999809E+01 0. -1.
    10030    2    1    2    0    0  0.00000000000E+00  0.00000000000E+00 -0.61078157043E+02  0.18936683345E+04  0.18926830743E+04 0.  0.
        5    1    3    3  502    0 -0.92716996348E+03  0.61419002688E+02 -0.20986345918E+03  0.95261807487E+03  0.46999998093E+01 0. -1.
       -5    1    3    3    0  502  0.92716996348E+03 -0.61419002688E+02  0.14878530214E+03  0.94105025966E+03  0.46999998093E+01 0.  1.
</event>
<event>
 5   0  0.2608744E-04  0.1898611E+04  0.7818609E-02  0.8655548E-01
       -2   -1    0    0    0  501  0.00000000000E+00  0.00000000000E+00  0.76958599538E+03  0.76958599538E+03  0.25500000920E-02 0.  1.
        2   -1    0    0  501    0  0.00000000000E+00  0.00000000000E+00 -0.11709950625E+04  0.11709950625E+04  0.25500000920E-02 0. -1.
    10030    2    1    2    0    0  0.00000000000E+00  0.00000000000E+00 -0.40140906714E+03  0.19405810579E+04  0.18986114935E+04 0.  0.
        2    1    3    3  502    0  0.10063033975E+03 -0.11701716003E+03  0.75667705803E+03  0.77225620824E+03  0.25500000920E-02 0.  1.
       -2    1    3    3    0  502 -0.10063033975E+03  0.11701716003E+03 -0.11580861252E+04  0.11683248497E+04  0.25500000920E-02 0. -1.
</event>
<event>
 5   0  0.1324058E-04  0.1887555E+04  0.7818609E-02  0.8661076E-01
       -1   -1    0    0    0  501  0.00000000000E+00  0.00000000000E+00  0.53514447224E+03  0.53514447226E+03  0.50400001928E-02 0. -1.
        1   -1    0    0  501    0  0.00000000000E+00  0.00000000000E+00 -0.16644404300E+04  0.16644404300E+04  0.50400001928E-02 0.  1.
    10030    2    1    2    0    0  0.00000000000E+00  0.00000000000E+00 -0.11292959578E+04  0.21995849023E+04  0.18875551335E+04 0.  0.
        5    1    3    3  502    0  0.27917919581E+03  0.53802408434E+03  0.27831679200E+03  0.66700319745E+03  0.46999998093E+01 0. -1.
       -5    1    3    3    0  502 -0.27917919581E+03 -0.53802408434E+03 -0.14076127498E+04  0.15325817049E+04  0.46999998093E+01 0.  1.
</event>
<event>
 5   0  0.1277709E-04  0.1923097E+04  0.7818609E-02  0.8643444E-01
        1   -1    0    0  501    0  0.00000000000E+00  0.00000000000E+00  0.13535874470E+04  0.13535874470E+04  0.50400001928E-02 0. -1.
       -1   -1    0    0    0  501  0.00000000000E+00  0.00000000000E+00 -0.68305528212E+03  0.68305528213E+03  0.50400001928E-02 0.  1.
    10030    2    1    2    0    0  0.00000000000E+00  0.00000000000E+00  0.67053216492E+03  0.20366427292E+04  0.19230965192E+04 0.  0.
        4    1    3    3  502    0  0.51948446309E+03  0.63133803896E+03  0.87123164500E+03  0.11947794855E+04  0.12699999809E+01 0.  1.
       -4    1    3    3    0  502 -0.51948446309E+03 -0.63133803896E+03 -0.20069948008E+03  0.84186324367E+03  0.12699999809E+01 0. -1.
</event>
<event>
 5   0  0.1239615E-04  0.1909273E+04  0.7818609E-02  0.8650254E-01
       -1   -1    0    0    0  501  0.00000000000E+00  0.00000000000E+00  0.78642292732E+03  0.78642292733E+03  0.50400001928E-02 0. -1.
        1   -1    0    0  501    0  0.00000000000E+00  0.00000000000E+00 -0.11588310160E+04  0.11588310160E+04  0.50400001928E-02 0.  1.
    10030    2    1    2    0    0  0.00000000000E+00  0.00000000000E+00 -0.37240808871E+03  0.19452539434E+04  0.19092734534E+04 0.  0.
        3    1    3    3  502    0 -0.26951652479E+03 -0.37427337821E+03 -0.10377852172E+04  0.11356574686E+04  0.10100000352E+00 0.  1.
       -3    1    3    3    0  502  0.26951652479E+03  0.37427337821E+03  0.66537712844E+03  0.80959647481E+03  0.10100000352E+00 0. -1.
</event>
<event>
 5   0  0.1324058E-04  0.1915265E+04  0.7818609E-02  0.8647295E-01
       -1   -1    0    0    0  501  0.00000000000E+00  0.00000000000E+00  0.10029148850E+04  0.10029148850E+04  0.50400001928E-02 0. -1.
        1   -1    0    0  501    0  0.00000000000E+00  0.00000000000E+00 -0.91439470815E+03  0.91439470816E+03  0.50400001928E-02 0.  1.
    10030    2    1    2    0    0  0.00000000000E+00  0.00000000000E+00  0.88520176853E+02  0.19173095932E+04  0.19152650611E+04 0.  0.
        5    1    3    3  502    0 -0.30628454676E+02 -0.73873665798E+03  0.65348843158E+03  0.98678223144E+03  0.46999998093E+01 0. -1.
       -5    1    3    3    0  502  0.30628454676E+02  0.73873665798E+03 -0.56496825473E+03  0.93052736173E+03  0.46999998093E+01 0.  1.
</event>
<event>
 5   0  0.2608744E-04  0.1897574E+04  0.7818609E-02  0.8656065E-01
       -2   -1    0    0    0  501  0.00000000000E+00  0.00000000000E+00  0.45790036581E+03  0.45790036581E+03  0.25500000920E-02 0. -1.
        2   -1    0    0  501    0  0.00000000000E+00  0.00000000000E+00 -0.19659230197E+04  0.19659230197E+04  0.25500000920E-02 0.  1.
    10030    2    1    2    0    0  0.00000000000E+00  0.00000000000E+00 -0.15080226539E+04  0.24238233855E+04  0.18975741038E+04 0.  0.
        2    1    3    3  502    0 -0.27130427785E+03  0.77975846414E+03 -0.13511773840E+04  0.15834486404E+04  0.25500000920E-02 0.  1.
       -2    1    3    3    0  502  0.27130427785E+03 -0.77975846414E+03 -0.15684526986E+03  0.84037474514E+03  0.25500000920E-02 0. -1.
</event>
<event>
 5   0  0.2608744E-04  0.1608458E+04  0.7818609E-02  0.8815369E-01
        2   -1    0    0  501    0  0.00000000000E+00  0.00000000000E+00  0.13714124677E+04  0.13714124677E+04  0.25500000920E-02 0. -1.
       -2   -1    0    0    0  501  0.00000000000E+00  0.00000000000E+00 -0.47161910159E+03  0.47161910160E+03  0.25500000920E-02 0.  1.
    10030    2    1    2    0    0  0.00000000000E+00  0.00000000000E+00  0.89979336613E+03  0.18430315693E+04  0.16084580392E+04 0.  0.
        2    1    3    3  502    0 -0.37013631296E+02  0.27838922554E+03  0.13134004352E+04  0.13430901954E+04  0.25500000920E-02 0. -1.
       -2    1    3    3    0  502  0.37013631296E+02 -0.27838922554E+03 -0.41360706905E+03  0.49994137393E+03  0.25500000920E-02 0.  1.
</event>
<event>
 5   0  0.1277709E-04  0.1913776E+04  0.7818609E-02  0.8648030E-01
        1   -1    0    0  501    0  0.00000000000E+00  0.00000000000E+00  0.84361446238E+03  0.84361446240E+03  0.50400001928E-02 0.  1.
       -1   -1    0    0    0  501  0.00000000000E+00  0.00000000000E+00 -0.10853704457E+04  0.10853704457E+04  0.50400001928E-02 0. -1.
    10030    2    1    2    0    0  0.00000000000E+00  0.00000000000E+00 -0.24175598332E+03  0.19289849081E+04  0.19137755407E+04 0.  0.
        4    1    3    3  502    0 -0.62130221635E+03  0.46820721719E+03 -0.68243957792E+03  0.10348718919E+04  0.12699999809E+01 0. -1.
       -4    1    3    3    0  502  0.62130221635E+03 -0.46820721719E+03  0.44068359460E+03  0.89411301619E+03  0.12699999809E+01 0.  1.
</event>
<event>
 5   0  0.1317527E-04  0.1838312E+04  0.7818609E-02  0.8686187E-01
        1   -1    0    0  501    0  0.00000000000E+00  0.00000000000E+00  0.12301480400E+04  0.12301480400E+04  0.50400001928E-02 0.  1.
       -1   -1    0    0    0  501  0.00000000000E+00  0.00000000000E+00 -0.68678538343E+03  0.68678538345E+03  0.50400001928E-02 0. -1.
    10030    2    1    2    0    0  0.00000000000E+00  0.00000000000E+00  0.54336265654E+03  0.19169334234E+04  0.18383119358E+04 0.  0.
        1    1    3    3  502    0 -0.53977011126E+03 -0.74218413644E+03  0.32544842717E+03  0.97370721686E+03  0.50400001928E-02 0.  1.
       -1    1    3    3    0  502  0.53977011126E+03  0.74218413644E+03  0.21791422936E+03  0.94322620657E+03  0.50400001928E-02 0. -1.
</event>
<event>
 5   0  0.1317527E-04  0.1711287E+04  0.7818609E-02  0.8754953E-01
        1   -1    0    0  501    0  0.00000000000E+00  0.00000000000E+00  0.22726468227E+04  0.22726468228E+04  0.50400001928E-02 0.  1.
       -1   -1    0    0    0  501  0.00000000000E+00  0.00000000000E+00 -0.32214659426E+03  0.32214659430E+03  0.50400001928E-02 0. -1.
    10030    2    1    2    0    0  0.00000000000E+00  0.00000000000E+00  0.19505002285E+04  0.25947934171E+04  0.17112865733E+04 0.  0.
        1    1    3    3  502    0  0.31831545414E+03  0.35549046684E+02 -0.22781924118E+03  0.39305224810E+03  0.50400001928E-02 0. -1.
       -1    1    3    3    0  502 -0.31831545414E+03 -0.35549046684E+02  0.21783194697E+04  0.22017411689E+04  0.50400001928E-02 0.  1.
</event>
<event>
 5   0  0.1324058E-04  0.1843922E+04  0.7818609E-02  0.8683285E-01
       -1   -1    0    0    0  501  0.00000000000E+00  0.00000000000E+00  0.29722545224E+03  0.29722545229E+03  0.50400001928E-02 0.  1.
        1   -1    0    0  501    0  0.00000000000E+00  0.00000000000E+00 -0.28598224918E+04  0.28598224918E+04  0.50400001928E-02 0. -1.
    10030    2    1    2    0    0  0.00000000000E+00  0.00000000000E+00 -0.25625970396E+04  0.31570479441E+04  0.18439219436E+04 0.  0.
        5    1    3    3  502    0  0.48826535245E+03  0.69998770584E+02  0.52287429408E+02  0.49604329202E+03  0.46999998093E+01 0.  1.
       -5    1    3    3    0  502 -0.48826535245E+03 -0.69998770584E+02 -0.26148844690E+04  0.26610046521E+04  0.46999998093E+01 0. -1.
</event>
<event>
 5   0  0.2595012E-04  0.1896190E+04  0.7818609E-02  0.8656755E-01
        2   -1    0    0  501    0  0.00000000000E+00  0.00000000000E+00  0.21851576104E+04  0.21851576104E+04  0.25500000920E-02 0.  1.
       -2   -1    0    0    0  501  0.00000000000E+00  0.00000000000E+00 -0.41135886755E+03  0.41135886756E+03  0.25500000920E-02 0. -1.
    10030    2    1    2    0    0  0.00000000000E+00  0.00000000000E+00  0.17737987428E+04  0.25965164779E+04  0.18961898218E+04 0.  0.
        1    1    3    3  502    0 -0.15123243046E+03 -0.40439191484E+03 -0.26893492718E+03  0.50865515223E+03  0.50400001928E-02 0. -1.
       -1    1    3    3    0  502  0.15123243046E+03  0.40439191484E+03  0.20427336700E+04  0.20878613257E+04  0.50400001928E-02 0.  1.
</event>
<event>
 5   0  0.2651828E-04  0.1881061E+04  0.7818609E-02  0.8664342E-01
        2   -1    0    0  501    0  0.00000000000E+00  0.00000000000E+00  0.10519267288E+04  0.10519267288E+04  0.25500000920E-02 0.  1.
       -2   -1    0    0    0  501  0.00000000000E+00  0.00000000000E+00 -0.84093049889E+03  0.84093049890E+03  0.25500000920E-02 0. -1.
    10030    2    1    2    0    0  0.00000000000E+00  0.00000000000E+00  0.21099622991E+03  0.18928572277E+04  0.18810606251E+04 0.  0.
        3    1    3    3  502    0 -0.99653746390E+02 -0.67450176761E+03  0.75741415404E+03  0.10190975001E+04  0.10100000352E+00 0.  1.
       -3    1    3    3    0  502  0.99653746390E+02  0.67450176761E+03 -0.54641792412E+03  0.87375972766E+03  0.10100000352E+00 0. -1.
</event>
<event>
 5   0  0.2595012E-04  0.1886573E+04  0.7818609E-02  0.8661569E-01
       -2   -1    0    0    0  501  0.00000000000E+00  0.00000000000E+00  0.11078153084E+04  0.11078153084E+04  0.25500000920E-02 0. -1.
        2   -1    0    0  501    0  0.00000000000E+00  0.00000000000E+00 -0.80319330537E+03  0.80319330537E+03  0.25500000920E-02 0.  1.
    10030    2    1    2    0    0  0.00000000000E+00  0.00000000000E+00  0.30462200303E+03  0.19110086138E+04  0.18865734434E+04 0.  0.
        1    1    3    3  502    0 -0.91481515690E+03  0.19310241724E+03  0.27888756735E+03  0.97568109036E+03  0.50400001928E-02 0.  1.
       -1    1    3    3    0  502  0.91481515690E+03 -0.19310241724E+03  0.25734435677E+02  0.93532752341E+03  0.50400001928E-02 0. -1.
</event>
<event>
 5   0  0.2651828E-04  0.1911014E+04  0.7818609E-02  0.8649393E-01
        2   -1    0    0  501    0  0.00000000000E+00  0.00000000000E+00  0.21402394533E+04  0.21402394533E+04  0.25500000920E-02 0.  1.
       -2   -1    0    0    0  501  0.00000000000E+00  0.00000000000E+00 -0.42658480897E+03  0.42658480898E+03  0.25500000920E-02 0. -1.
    10030    2    1    2    0    0  0.00000000000E+00  0.00000000000E+00  0.17136546443E+04  0.25668242622E+04  0.19110140118E+04 0.  0.
        3    1    3    3  502    0  0.81902797069E+03  0.30482409069E+03  0.33788725966E+03  0.93695909915E+03  0.10100000352E+00 0. -1.
       -3    1    3    3    0  502 -0.81902797069E+03 -0.30482409069E+03  0.13757673846E+04  0.16298651631E+04  0.10100000352E+00 0.  1.
</event>
<event>
 5   0  0.2541124E-04  0.1845191E+04  0.7818609E-02  0.8682630E-01
       -2   -1    0    0    0  501  0.00000000000E+00  0.00000000000E+00  0.43964111152E+03  0.43964111153E+03  0.25500000920E-02 0. -1.
        2   -1    0    0  501    0  0.00000000000E+00  0.00000000000E+00 -0.19360851235E+04  0.19360851235E+04  0.25500000920E-02 0.  1.
    10030    2    1    2    0    0  0.00000000000E+00  0.00000000000E+00 -0.14964440120E+04  0.23757262350E+04  0.18451911724E+04 0.  0.
        5    1    3    3  502    0  0.19341123771E+03  0.78537822080E+03 -0.17685519279E+03  0.82796540133E+03  0.46999998093E+01 0. -1.
       -5    1    3    3    0  502 -0.19341123771E+03 -0.78537822080E+03 -0.13195888192E+04  0.15477608337E+04  0.46999998093E+01 0.  1.
</event>
<event>
 5   0  0.9266125E-05  0.2037976E+04  0.7818609E-02  0.8589069E-01
       -4   -1    0    0    0  501  0.00000000000E+00  0.00000000000E+00  0.60610908906E+03  0.60611041959E+03  0.12699999809E+01 0. -1.
        4   -1    0    0  501    0  0.00000000000E+00  0.00000000000E+00 -0.17131148795E+04  0.17131153503E+04  0.12699999809E+01 0.  1.
    10030    2    1    2    0    0  0.00000000000E+00  0.00000000000E+00 -0.11070057905E+04  0.23192257699E+04  0.20379760429E+04 0.  0.
        5    1    3    3  502    0  0.47335956860E+03  0.39376665238E+03  0.37045091395E+03  0.71859406298E+03  0.46999998093E+01 0. -1.
       -5    1    3    3    0  502 -0.47335956860E+03 -0.39376665238E+03 -0.14774567044E+04  0.16006317069E+04  0.46999998093E+01 0.  1.
</event>
<event>
 5   0  0.1239615E-04  0.1893464E+04  0.7818609E-02  0.8658117E-01
       -1   -1    0    0    0  501  0.00000000000E+00  0.00000000000E+00  0.75023248110E+03  0.75023248112E+03  0.50400001928E-02 0. -1.
        1   -1    0    0  501    0  0.00000000000E+00  0.00000000000E+00 -0.11946977656E+04  0.11946977657E+04  0.50400001928E-02 0.  1.
    10030    2    1    2    0    0  0.00000000000E+00  0.00000000000E+00 -0.44446528455E+03  0.19449302468E+04  0.18934635660E+04 0.  0.
        3    1    3    3  502    0 -0.71792373179E+03  0.55613113036E+03  0.52631421569E+02  0.90965179908E+03  0.10100000352E+00 0. -1.
       -3    1    3    3    0  502  0.71792373179E+03 -0.55613113036E+03 -0.49709670612E+03  0.10352784477E+04  0.10100000352E+00 0.  1.
</event>
<event>
 5   0  0.2595012E-04  0.1878859E+04  0.7818609E-02  0.8665452E-01
       -2   -1    0    0    0  501  0.00000000000E+00  0.00000000000E+00  0.13161564573E+04  0.13161564573E+04  0.25500000920E-02 0.  1.
        2   -1    0    0  501    0  0.00000000000E+00  0.00000000000E+00 -0.67053406171E+03  0.67053406172E+03  0.25500000920E-02 0. -1.
    10030    2    1    2    0    0  0.00000000000E+00  0.00000000000E+00  0.64562239563E+03  0.19866905191E+04  0.18788589465E+04 0.  0.
        1    1    3    3  502    0 -0.19504602259E+02  0.83153507607E+03 -0.13893960276E+03  0.84328834066E+03  0.50400001928E-02 0.  1.
       -1    1    3    3    0  502  0.19504602259E+02 -0.83153507607E+03  0.78456199839E+03  0.11434021784E+04  0.50400001928E-02 0. -1.
</event>
<event>
 5   0  0.1239615E-04  0.1880403E+04  0.7818609E-02  0.8664673E-01
        1   -1    0    0  501    0  0.00000000000E+00  0.00000000000E+00  0.19470556654E+04  0.19470556655E+04  0.50400001928E-02 0.  1.
       -1   -1    0    0    0  501  0.00000000000E+00  0.00000000000E+00 -0.45400807949E+03  0.45400807952E+03  0.50400001928E-02 0. -1.
    10030    2    1    2    0    0  0.00000000000E+00  0.00000000000E+00  0.14930475860E+04  0.24010637450E+04  0.18804031519E+04 0.  0.
        3    1    3    3  502    0 -0.36333963463E+03  0.29615589625E+03  0.17872107987E+04  0.18476597236E+04  0.10100000352E+00 0.  1.
       -3    1    3    3    0  502  0.36333963463E+03 -0.29615589625E+03 -0.29416321273E+03  0.55340402140E+03  0.10100000352E+00 0. -1.
</event>
<event>
 5   0  0.1255141E-04  0.1892716E+04  0.7818609E-02  0.8658491E-01
       -1   -1    0    0    0  501  0.00000000000E+00  0.00000000000E+00  0.10218260635E+04  0.10218260635E+04  0.50400001928E-02 0. -1.
        1   -1    0    0  501    0  0.00000000000E+00  0.00000000000E+00 -0.87646364270E+03  0.87646364271E+03  0.50400001928E-02 0.  1.
    10030    2    1    2    0    0  0.00000000000E+00  0.00000000000E+00  0.14536242078E+03  0.18982897062E+04  0.18927159257E+04 0.  0.
        2    1    3    3  502    0 -0.63338369541E+02  0.71908109891E+03  0.68645070164E+03  0.99614453853E+03  0.25500000920E-02 0.  1.
       -2    1    3    3    0  502  0.63338369541E+02 -0.71908109891E+03 -0.54108828086E+03  0.90214516767E+03  0.25500000920E-02 0. -1.
</event>
<event>
 5   0  0.1277709E-04  0.1931383E+04  0.7818609E-02  0.8639391E-01
        1   -1    0    0  501    0  0.00000000000E+00  0.00000000000E+00  0.92718591933E+03  0.92718591935E+03  0.50400001928E-02 0.  1.
       -1   -1    0    0    0  501  0.00000000000E+00  0.00000000000E+00 -0.10057958590E+04  0.10057958591E+04  0.50400001928E-02 0. -1.
    10030    2    1    2    0    0  0.00000000000E+00  0.00000000000E+00 -0.78609939713E+02  0.19329817784E+04  0.19313826739E+04 0.  0.
        4    1    3    3  502    0 -0.57943004396E+03  0.50092799511E+03 -0.62791614508E+03  0.99042835696E+03  0.12699999809E+01 0. -1.
       -4    1    3    3    0  502  0.57943004396E+03 -0.50092799511E+03  0.54930620536E+03  0.94255342144E+03  0.12699999809E+01 0.  1.
</event>
<event>
 5   0  0.2562925E-04  0.1836352E+04  0.7818609E-02  0.8687203E-01
        2   -1    0    0  501    0  0.00000000000E+00  0.00000000000E+00  0.12249743877E+04  0.12249743877E+04  0.25500000920E-02 0.  1.
       -2   -1    0    0    0  501  0.00000000000E+00  0.00000000000E+00 -0.68821651077E+03  0.68821651077E+03  0.25500000920E-02 0. -1.
    10030    2    1    2    0    0  0.00000000000E+00  0.00000000000E+00  0.53675787691E+03  0.19131908985E+04  0.18363524704E+04 0.  0.
        4    1    3    3  502    0 -0.67045583986E+03  0.33833046313E+03  0.81875160222E+03  0.11110060011E+04  0.12699999809E+01 0.  1.
       -4    1    3    3    0  502  0.67045583986E+03 -0.33833046313E+03 -0.28199372531E+03  0.80218489733E+03  0.12699999809E+01 0. -1.
</event>
<event>
 5   0  0.9266125E-05  0.1920251E+04  0.7818609E-02  0.8644841E-01
        3   -1    0    0  501    0  0.00000000000E+00  0.00000000000E+00  0.73502482841E+03  0.73502483535E+03  0.10100000352E+00 0. -1.
       -3   -1    0    0    0  501  0.00000000000E+00  0.00000000000E+00 -0.12541627265E+04  0.12541627306E+04  0.10100000352E+00 0.  1.
    10030    2    1    2    0    0  0.00000000000E+00  0.00000000000E+00 -0.51913789813E+03  0.19891875660E+04  0.19202507689E+04 0.  0.
        2    1    3    3  502    0 -0.20572707772E+03  0.79767427220E+03 -0.77046074438E+03  0.11279262537E+04  0.25500000920E-02 0.  1.
       -2    1    3    3    0  502  0.20572707772E+03 -0.79767427220E+03  0.25132284624E+03  0.86126131232E+03  0.25500000920E-02 0. -1.
</event>
<event>
 5   0  0.1324058E-04  0.1919746E+04  0.7818609E-02  0.8645089E-01
        1   -1    0    0  501    0  0.00000000000E+00  0.00000000000E+00  0.88782286854E+03  0.88782286856E+03  0.50400001928E-02 0.  1.
       -1   -1    0    0    0  501  0.00000000000E+00  0.00000000000E+00 -0.10377707949E+04  0.10377707949E+04  0.50400001928E-02 0. -1.
    10030    2    1    2    0    0  0.00000000000E+00  0.00000000000E+00 -0.14994792635E+03  0.19255936635E+04  0.19197464875E+04 0.  0.
        5    1    3    3  502    0 -0.28128442253E+03 -0.34930169451E+03  0.77625798317E+03  0.89651053903E+03  0.46999998093E+01 0.  1.
       -5    1    3    3    0  502  0.28128442253E+03  0.34930169451E+03 -0.92620590952E+03  0.10290831244E+04  0.46999998093E+01 0. -1.
</event>
<event>
 5   0  0.1324058E-04  0.1932901E+04  0.7818609E-02  0.8638651E-01
        1   -1    0    0  501    0  0.00000000000E+00  0.00000000000E+00  0.15944577366E+04  0.15944577366E+04  0.50400001928E-02 0.  1.
       -1   -1    0    0    0  501  0.00000000000E+00  0.00000000000E+00 -0.58579581470E+03  0.58579581473E+03  0.50400001928E-02 0. -1.
    10030    2    1    2    0    0  0.00000000000E+00  0.00000000000E+00  0.10086619219E+04  0.21802535514E+04  0.19329011034E+04 0.  0.
        5    1    3    3  502    0  0.89233274301E+03  0.13063296968E+03  0.11248226532E+03  0.90884379683E+03  0.46999998093E+01 0. -1.
       -5    1    3    3    0  502 -0.89233274301E+03 -0.13063296968E+03  0.89617965661E+03  0.12714097545E+04  0.46999998093E+01 0.  1.
</event>
<event>
 5   0  0.2541124E-04  0.1903932E+04  0.7818609E-02  0.8652902E-01
        2   -1    0    0  501    0  0.00000000000E+00  0.00000000000E+00  0.85432205146E+03  0.85432205146E+03  0.25500000920E-02 0. -1.
       -2   -1    0    0    0  501  0.00000000000E+00  0.00000000000E+00 -0.10607695892E+04  0.10607695892E+04  0.25500000920E-02 0.  1.
    10030    2    1    2    0    0  0.00000000000E+00  0.00000000000E+00 -0.20644753771E+03  0.19150916406E+04  0.19039315655E+04 0.  0.
        5    1    3    3  502    0  0.67064704862E+03 -0.67539185091E+03 -0.12050426791E+03  0.95940866406E+03  0.46999998093E+01 0. -1.
       -5    1    3    3    0  502 -0.67064704862E+03  0.67539185091E+03 -0.85943269800E+02  0.95568297657E+03  0.46999998093E+01 0.  1.
</event>
<event>
 5   0  0.2595012E-04  0.1902519E+04  0.7818609E-02  0.8653604E-01
        2   -1    0    0  501    0  0.00000000000E+00  0.00000000000E+00  0.14297128213E+04  0.14297128213E+04  0.25500000920E-02 0.  1.
       -2   -1    0    0    0  501  0.00000000000E+00  0.00000000000E+00 -0.63292022993E+03  0.63292022994E+03  0.25500000920E-02 0. -1.
    10030    2    1    2    0    0  0.00000000000E+00  0.00000000000E+00  0.79679259139E+03  0.20626330513E+04  0.19025185073E+04 0.  0.
        1    1    3    3  502    0  0.42557355046E+03 -0.45872970452E+03 -0.37838575169E+03  0.73124658342E+03  0.50400001928E-02 0. -1.
       -1    1    3    3    0  502 -0.42557355046E+03  0.45872970452E+03  0.11751783431E+04  0.13313864678E+04  0.50400001928E-02 0.  1.
</event>
<event>
 5   0  0.1255141E-04  0.1892271E+04  0.7818609E-02  0.8658713E-01
       -1   -1    0    0    0  501  0.00000000000E+00  0.00000000000E+00  0.55508089239E+03  0.55508089241E+03  0.50400001928E-02 0.  1.
        1   -1    0    0  501    0  0.00000000000E+00  0.00000000000E+00 -0.16126886673E+04  0.16126886673E+04  0.50400001928E-02 0. -1.
    10030    2    1    2    0    0  0.00000000000E+00  0.00000000000E+00 -0.10576077749E+04  0.21677695597E+04  0.18922712962E+04 0.  0.
        2    1    3    3  502    0  0.26264658199E+03  0.15389770289E+03 -0.15550548269E+04  0.15845703660E+04  0.25500000920E-02 0. -1.
       -2    1    3    3    0  502 -0.26264658199E+03 -0.15389770289E+03  0.49744705203E+03  0.58319919373E+03  0.25500000920E-02 0.  1.
</event>
<event>
 5   0  0.9266125E-05  0.1879865E+04  0.7818609E-02  0.8664944E-01
        4   -1    0    0  501    0  0.00000000000E+00  0.00000000000E+00  0.58653222080E+03  0.58653359575E+03  0.12699999809E+01 0.  1.
       -4   -1    0    0    0  501  0.00000000000E+00  0.00000000000E+00 -0.15062617436E+04  0.15062622790E+04  0.12699999809E+01 0. -1.
    10030    2    1    2    0    0  0.00000000000E+00  0.00000000000E+00 -0.91972952277E+03  0.20927958747E+04  0.18798649362E+04 0.  0.
        3    1    3    3  502    0  0.38946184729E+03 -0.69573596635E+03 -0.10139821370E+04  0.12899181562E+04  0.10100000352E+00 0. -1.
       -3    1    3    3    0  502 -0.38946184729E+03  0.69573596635E+03  0.94252614234E+02  0.80287771850E+03  0.10100000352E+00 0.  1.
</event>
<event>
 5   0  0.2595012E-04  0.1909981E+04  0.7818609E-02  0.8649904E-01
       -2   -1    0    0    0  501  0.00000000000E+00  0.00000000000E+00  0.11956266765E+04  0.11956266765E+04  0.25500000920E-02 0. -1.
        2   -1    0    0  501    0  0.00000000000E+00  0.00000000000E+00 -0.76278552201E+03  0.76278552202E+03  0.25500000920E-02 0.  1.
    10030    2    1    2    0    0  0.00000000000E+00  0.00000000000E+00  0.43284115448E+03  0.19584121985E+04  0.19099808570E+04 0.  0.
        1    1    3    3  502    0 -0.88774614063E+03 -0.25338007667E+03  0.46697730228E+03  0.10345832370E+04  0.50400001928E-02 0. -1.
       -1    1    3    3    0  502  0.88774614063E+03  0.25338007667E+03 -0.34136147803E+02  0.92382896148E+03  0.50400001928E-02 0.  1.
</event>
<event>
 5   0  0.2595012E-04  0.1910611E+04  0.7818609E-02  0.8649593E-01
       -2   -1    0    0    0  501  0.00000000000E+00  0.00000000000E+00  0.12750539709E+04  0.12750539709E+04  0.25500000920E-02 0.  1.
        2   -1    0    0  501    0  0.00000000000E+00  0.00000000000E+00 -0.71574113380E+03  0.71574113380E+03  0.25500000920E-02 0. -1.
    10030    2    1    2    0    0  0.00000000000E+00  0.00000000000E+00  0.55931283706E+03  0.19907951047E+04  0.19106109753E+04 0.  0.
        1    1    3    3  502    0 -0.84400437330E+03  0.19332198776E+03  0.70019312524E+03  0.11135471188E+04  0.50400001928E-02 0.  1.
       -1    1    3    3    0  502  0.84400437330E+03 -0.19332198776E+03 -0.14088028818E+03  0.87724798587E+03  0.50400001928E-02 0. -1.
</event>
<event>
 5   0  0.2651828E-04  0.1901014E+04  0.7818609E-02  0.8654352E-01
        2   -1    0    0  501    0  0.00000000000E+00  0.00000000000E+00  0.16471482115E+04  0.16471482116E+04  0.25500000920E-02 0.  1.
       -2   -1    0    0    0  501  0.00000000000E+00  0.00000000000E+00 -0.54850177221E+03  0.54850177222E+03  0.25500000920E-02 0. -1.
    10030    2    1    2    0    0  0.00000000000E+00  0.00000000000E+00  0.10986464393E+04  0.21956499838E+04  0.19010141642E+04 0.  0.
        3    1    3    3  502    0  0.59682084032E+03  0.52902095910E+03 -0.47935986569E+02  0.79897193919E+03  0.10100000352E+00 0. -1.
       -3    1    3    3    0  502 -0.59682084032E+03 -0.52902095910E+03  0.11465824259E+04  0.13966780446E+04  0.10100000352E+00 0.  1.
</event>
<event>
 5   0  0.1277709E-04  0.1888170E+04  0.7818609E-02  0.8660767E-01
       -1   -1    0    0    0  501  0.00000000000E+00  0.00000000000E+00  0.95564691381E+03  0.95564691383E+03  0.50400001928E-02 0.  1.
        1   -1    0    0  501    0  0.00000000000E+00  0.00000000000E+00 -0.93266293157E+03  0.93266293159E+03  0.50400001928E-02 0. -1.
    10030    2    1    2    0    0  0.00000000000E+00  0.00000000000E+00  0.22983982242E+02  0.18883098454E+04  0.18881699629E+04 0.  0.
        4    1    3    3  502    0 -0.12950334474E+03  0.71763790464E+03  0.61113591200E+03  0.95145362173E+03  0.12699999809E+01 0.  1.
       -4    1    3    3    0  502  0.12950334474E+03 -0.71763790464E+03 -0.58815192976E+03  0.93685622368E+03  0.12699999809E+01 0. -1.
</event>
<event>
 5   0  0.1277709E-04  0.1945012E+04  0.7818609E-02  0.8632770E-01
       -1   -1    0    0    0  501  0.00000000000E+00  0.00000000000E+00  0.47597731245E+03  0.47597731248E+03  0.50400001928E-02 0.  1.
        1   -1    0    0  501    0  0.00000000000E+00  0.00000000000E+00 -0.19870027921E+04  0.19870027921E+04  0.50400001928E-02 0. -1.
    10030    2    1    2    0    0  0.00000000000E+00  0.00000000000E+00 -0.15110254796E+04  0.24629801045E+04  0.19450123381E+04 0.  0.
        4    1    3    3  502    0 -0.90018258223E+03 -0.36398492683E+03 -0.68670061872E+03  0.11892741740E+04  0.12699999809E+01 0.  1.
       -4    1    3    3    0  502  0.90018258223E+03  0.36398492683E+03 -0.82432486089E+03  0.12737059305E+04  0.12699999809E+01 0. -1.
</event>
<event>
 5   0  0.1317527E-04  0.1730869E+04  0.7818609E-02  0.8743952E-01
       -1   -1    0    0    0  501  0.00000000000E+00  0.00000000000E+00  0.13772191434E+04  0.13772191434E+04  0.50400001928E-02 0. -1.
        1   -1    0    0  501    0  0.00000000000E+00  0.00000000000E+00 -0.54383295572E+03  0.54383295574E+03  0.50400001928E-02 0.  1.
    10030    2    1    2    0    0  0.00000000000E+00  0.00000000000E+00  0.83338618768E+03  0.19210520992E+04  0.17308693278E+04 0.  0.
        1    1    3    3  502    0 -0.13279614281E+03  0.18544314647E+03  0.13432597417E+04  0.13624869577E+04  0.50400001928E-02 0. -1.
       -1    1    3    3    0  502  0.13279614281E+03 -0.18544314647E+03 -0.50987355404E+03  0.55856514146E+03  0.50400001928E-02 0.  1.
</event>
<event>
 5   0  0.2541124E-04  0.1900067E+04  0.7818609E-02  0.8654823E-01
       -2   -1    0    0    0  501  0.00000000000E+00  0.00000000000E+00  0.14569275657E+04  0.14569275657E+04  0.25500000920E-02 0.  1.
        2   -1    0    0  501    0  0.00000000000E+00  0.00000000000E+00 -0.61949805714E+03  0.61949805714E+03  0.25500000920E-02 0. -1.
    10030    2    1    2    0    0  0.00000000000E+00  0.00000000000E+00  0.83742950854E+03  0.20764256228E+04  0.19000671528E+04 0.  0.
        5    1    3    3  502    0  0.45869828067E+03  0.20143518393E+02 -0.49018567801E+03  0.67165017899E+03  0.46999998093E+01 0. -1.
       -5    1    3    3    0  502 -0.45869828067E+03 -0.20143518393E+02  0.13276151865E+04  0.14047754438E+04  0.46999998093E+01 0.  1.
</event>
<event>
 5   0  0.1239615E-04  0.1903361E+04  0.7818609E-02  0.8653185E-01
       -1   -1    0    0    0  501  0.00000000000E+00  0.00000000000E+00  0.11943366775E+04  0.11943366775E+04  0.50400001928E-02 0.  1.
        1   -1    0    0  501    0  0.00000000000E+00  0.00000000000E+00 -0.75832501574E+03  0.75832501576E+03  0.50400001928E-02 0. -1.
    10030    2    1    2    0    0  0.00000000000E+00  0.00000000000E+00  0.43601166175E+03  0.19526616933E+04  0.19033605857E+04 0.  0.
        3    1    3    3  502    0 -0.38200839309E+03 -0.70009040188E+03 -0.31471146139E+03  0.85737990257E+03  0.10100000352E+00 0. -1.
       -3    1    3    3    0  502  0.38200839309E+03  0.70009040188E+03  0.75072312314E+03  0.10952817907E+04  0.10100000352E+00 0.  1.
</event>
<event>
 5   0  0.2541124E-04  0.1899422E+04  0.7818609E-02  0.8655144E-01
        2   -1    0    0  501    0  0.00000000000E+00  0.00000000000E+00  0.12611025220E+04  0.12611025220E+04  0.25500000920E-02 0. -1.
       -2   -1    0    0    0  501  0.00000000000E+00  0.00000000000E+00 -0.71520802421E+03  0.71520802422E+03  0.25500000920E-02 0.  1.
    10030    2    1    2    0    0  0.00000000000E+00  0.00000000000E+00  0.54589449783E+03  0.19763105463E+04  0.18994216416E+04 0.  0.
        5    1    3    3  502    0 -0.76609856764E+03 -0.53349786221E+03  0.45436584582E+03  0.10382665343E+04  0.46999998093E+01 0. -1.
       -5    1    3    3    0  502  0.76609856764E+03  0.53349786221E+03  0.91528652003E+02  0.93804401200E+03  0.46999998093E+01 0.  1.
</event>
<event>
 5   0  0.2595012E-04  0.1905988E+04  0.7818609E-02  0.8651881E-01
       -2   -1    0    0    0  501  0.00000000000E+00  0.00000000000E+00  0.57674074682E+03  0.57674074682E+03  0.25500000920E-02 0. -1.
        2   -1    0    0  501    0  0.00000000000E+00  0.00000000000E+00 -0.15747075942E+04  0.15747075942E+04  0.25500000920E-02 0.  1.
    10030    2    1    2    0    0  0.00000000000E+00  0.00000000000E+00 -0.99796684735E+03  0.21514483410E+04  0.19059884930E+04 0.  0.
        1    1    3    3  502    0 -0.49461985462E+03  0.37757213873E+03 -0.13137340862E+04  0.14536529056E+04  0.50400001928E-02 0.  1.
       -1    1    3    3    0  502  0.49461985462E+03 -0.37757213873E+03  0.31576723887E+03  0.69779543543E+03  0.50400001928E-02 0. -1.
</event>
<event>
 5   0  0.2562925E-04  0.1730148E+04  0.7818609E-02  0.8744354E-01
       -2   -1    0    0    0  501  0.00000000000E+00  0.00000000000E+00  0.85937355568E+03  0.85937355568E+03  0.25500000920E-02 0.  1.
        2   -1    0    0  501    0  0.00000000000E+00  0.00000000000E+00 -0.87081265305E+03  0.87081265305E+03  0.25500000920E-02 0. -1.
    10030    2    1    2    0    0  0.00000000000E+00  0.00000000000E+00 -0.11439097367E+02  0.17301862087E+04  0.17301483936E+04 0.  0.
        4    1    3    3  502    0 -0.58140661674E+03  0.31673881505E+02  0.63407163363E+03  0.86086313560E+03  0.12699999809E+01 0.  1.
       -4    1    3    3    0  502  0.58140661674E+03 -0.31673881505E+02 -0.64551073099E+03  0.86932307314E+03  0.12699999809E+01 0. -1.
</event>
<event>
 5   0  0.2541124E-04  0.1888037E+04  0.7818609E-02  0.8660834E-01
       -2   -1    0    0    0  501  0.00000000000E+00  0.00000000000E+00  0.73129723481E+03  0.73129723481E+03  0.25500000920E-02 0. -1.
        2   -1    0    0  501    0  0.00000000000E+00  0.00000000000E+00 -0.12186169662E+04  0.12186169662E+04  0.25500000920E-02 0.  1.
    10030    2    1    2    0    0  0.00000000000E+00  0.00000000000E+00 -0.48731973135E+03  0.19499142010E+04  0.18880373065E+04 0.  0.
        5    1    3    3  502    0 -0.18051546039E+03  0.74223757878E+03  0.32917710852E+03  0.83179451403E+03  0.46999998093E+01 0. -1.
       -5    1    3    3    0  502  0.18051546039E+03 -0.74223757878E+03 -0.81649683987E+03  0.11181196869E+04  0.46999998093E+01 0.  1.
</event>
<event>
 5   0  0.1277709E-04  0.1907282E+04  0.7818609E-02  0.8651240E-01
       -1   -1    0    0    0  501  0.00000000000E+00  0.00000000000E+00  0.48401695262E+03  0.48401695265E+03  0.50400001928E-02 0. -1.
        1   -1    0    0  501    0  0.00000000000E+00  0.00000000000E+00 -0.18789233232E+04  0.18789233232E+04  0.50400001928E-02 0.  1.
    10030    2    1    2    0    0  0.00000000000E+00  0.00000000000E+00 -0.13949063706E+04  0.23629402759E+04  0.19072815641E+04 0.  0.
        4    1    3    3  502    0 -0.56481627934E+03  0.82737274765E+02  0.24896486471E+03  0.62277443975E+03  0.12699999809E+01 0. -1.
       -4    1    3    3    0  502  0.56481627934E+03 -0.82737274765E+02 -0.16438712353E+04  0.17401658361E+04  0.12699999809E+01 0.  1.
</event>
<event>
 5   0  0.2595012E-04  0.1892410E+04  0.7818609E-02  0.8658644E-01
        2   -1    0    0  501    0  0.00000000000E+00  0.00000000000E+00  0.37006498452E+03  0.37006498452E+03  0.25500000920E-02 0.  1.
       -2   -1    0    0    0  501  0.00000000000E+00  0.00000000000E+00 -0.24193151234E+04  0.24193151234E+04  0.25500000920E-02 0. -1.
    10030    2    1    2    0    0  0.00000000000E+00  0.00000000000E+00 -0.20492501389E+04  0.27893801079E+04  0.18924099066E+04 0.  0.
        1    1    3    3  502    0  0.30093697340E+03  0.61910905321E+03 -0.19815167998E+04  0.20976815558E+04  0.50400001928E-02 0. -1.
       -1    1    3    3    0  502 -0.30093697340E+03 -0.61910905321E+03 -0.67733339074E+02  0.69169855209E+03  0.50400001928E-02 0.  1.
</event>
<event>
 5   0  0.1277709E-04  0.1941158E+04  0.7818609E-02  0.8634636E-01
       -1   -1    0    0    0  501  0.00000000000E+00  0.00000000000E+00  0.12319496905E+04  0.12319496905E+04  0.50400001928E-02 0. -1.
        1   -1    0    0  501    0  0.00000000000E+00  0.00000000000E+00 -0.76466114994E+03  0.76466114995E+03  0.50400001928E-02 0.  1.
    10030    2    1    2    0    0  0.00000000000E+00  0.00000000000E+00  0.46728854053E+03  0.19966108404E+04  0.19411584861E+04 0.  0.
        4    1    3    3  502    0  0.36041716707E+03  0.45305852254E+03 -0.56762160779E+03  0.81077645606E+03  0.12699999809E+01 0.  1.
       -4    1    3    3    0  502 -0.36041716707E+03 -0.45305852254E+03  0.10349101483E+04  0.11858343844E+04  0.12699999809E+01 0. -1.
</event>
<event>
 5   0  0.1255141E-04  0.1919400E+04  0.7818609E-02  0.8645260E-01
        1   -1    0    0  501    0  0.00000000000E+00  0.00000000000E+00  0.19171634705E+04  0.19171634705E+04  0.50400001928E-02 0.  1.
       -1   -1    0    0    0  501  0.00000000000E+00  0.00000000000E+00 -0.48040961345E+03  0.48040961348E+03  0.50400001928E-02 0. -1.
    10030    2    1    2    0    0  0.00000000000E+00  0.00000000000E+00  0.14367538570E+04  0.23975730840E+04  0.19193996580E+04 0.  0.
        2    1    3    3  502    0  0.60712645495E+03 -0.62102177436E+03  0.12284630538E+04  0.15044573942E+04  0.25500000920E-02 0.  1.
       -2    1    3    3    0  502 -0.60712645495E+03  0.62102177436E+03  0.20829080325E+03  0.89311568974E+03  0.25500000920E-02 0. -1.
</event>
<event>
 5   0  0.1255141E-04  0.1896444E+04  0.7818609E-02  0.8656628E-01
        1   -1    0    0  501    0  0.00000000000E+00  0.00000000000E+00  0.83551972770E+03  0.83551972771E+03  0.50400001928E-02 0.  1.
       -1   -1    0    0    0  501  0.00000000000E+00  0.00000000000E+00 -0.10761270145E+04  0.10761270145E+04  0.50400001928E-02 0. -1.
    10030    2    1    2    0    0  0.00000000000E+00  0.00000000000E+00 -0.24060728680E+03  0.19116467422E+04  0.18964444101E+04 0.  0.
        2    1    3    3  502    0 -0.73800532676E+03  0.34723116592E+03 -0.60781681439E+03  0.10171836731E+04  0.25500000920E-02 0. -1.
       -2    1    3    3    0  502  0.73800532676E+03 -0.34723116592E+03  0.36720952759E+03  0.89446306915E+03  0.25500000920E-02 0.  1.
</event>
<event>
 5   0  0.1317527E-04  0.1904879E+04  0.7818609E-02  0.8652431E-01
        1   -1    0    0  501    0  0.00000000000E+00  0.00000000000E+00  0.30097994030E+04  0.30097994030E+04  0.50400001928E-02 0. -1.
       -1   -1    0    0    0  501  0.00000000000E+00  0.00000000000E+00 -0.30139591151E+03  0.30139591155E+03  0.50400001928E-02 0.  1.
    10030    2    1    2    0    0  0.00000000000E+00  0.00000000000E+00  0.27084034915E+04  0.33111953145E+04  0.19048792451E+04 0.  0.
        1    1    3    3  502    0  0.15370122075E+03  0.31297465712E+03 -0.18646299871E+03  0.39540567924E+03  0.50400001928E-02 0.  1.
       -1    1    3    3    0  502 -0.15370122075E+03 -0.31297465712E+03  0.28948664902E+04  0.29157896353E+04  0.50400001928E-02 0. -1.
</event>
<event>
 5   0  0.1277709E-04  0.1904958E+04  0.7818609E-02  0.8652393E-01
        1   -1    0    0  501    0  0.00000000000E+00  0.00000000000E+00  0.73954639786E+03  0.73954639788E+03  0.50400001928E-02 0.  1.
       -1   -1    0    0    0  501  0.00000000000E+00  0.00000000000E+00 -0.12267194369E+04  0.12267194369E+04  0.50400001928E-02 0. -1.
    10030    2    1    2    0    0  0.00000000000E+00  0.00000000000E+00 -0.48717303904E+03  0.19662658348E+04  0.19049576801E+04 0.  0.
        4    1    3    3  502    0 -0.19771585264E+03 -0.90608853715E+03 -0.19513935818E+02  0.92761543871E+03  0.12699999809E+01 0. -1.
       -4    1    3    3    0  502  0.19771585264E+03  0.90608853715E+03 -0.46765910322E+03  0.10386503961E+04  0.12699999809E+01 0.  1.
</event>
<event>
 5   0  0.2562925E-04  0.1906881E+04  0.7818609E-02  0.8651439E-01
        2   -1    0    0  501    0  0.00000000000E+00  0.00000000000E+00  0.17426478546E+04  0.17426478546E+04  0.25500000920E-02 0.  1.
       -2   -1    0    0    0  501  0.00000000000E+00  0.00000000000E+00 -0.52164793960E+03  0.52164793961E+03  0.25500000920E-02 0. -1.
    10030    2    1    2    0    0  0.00000000000E+00  0.00000000000E+00  0.12209999150E+04  0.22642957942E+04  0.19068808697E+04 0.  0.
        4    1    3    3  502    0 -0.63505500023E+03  0.58559966035E+03  0.13135110317E+03  0.87377144650E+03  0.12699999809E+01 0.  1.
       -4    1    3    3    0  502  0.63505500023E+03 -0.58559966035E+03  0.10896488118E+04  0.13905243477E+04  0.12699999809E+01 0. -1.
</event>
<event>
 5   0  0.2562925E-04  0.1890201E+04  0.7818609E-02  0.8659749E-01
       -2   -1    0    0    0  501  0.00000000000E+00  0.00000000000E+00  0.69952404552E+03  0.69952404553E+03  0.25500000920E-02 0. -1.
        2   -1    0    0  501    0  0.00000000000E+00  0.00000000000E+00 -0.12768899216E+04  0.12768899216E+04  0.25500000920E-02 0.  1.
    10030    2    1    2    0    0  0.00000000000E+00  0.00000000000E+00 -0.57736587605E+03  0.19764139671E+04  0.18902012630E+04 0.  0.
        4    1    3    3  502    0 -0.49000185043E+01  0.38196677442E+03 -0.11925711669E+04  0.12522580517E+04  0.12699999809E+01 0.  1.
       -4    1    3    3    0  502  0.49000185043E+01 -0.38196677442E+03  0.61520529090E+03  0.72415591539E+03  0.12699999809E+01 0. -1.
</event>
<event>
 5   0  0.1324058E-04  0.2008239E+04  0.7818609E-02  0.8602779E-01
        1   -1    0    0  501    0  0.00000000000E+00  0.00000000000E+00  0.17044727140E+04  0.17044727140E+04  0.50400001928E-02 0. -1.
       -1   -1    0    0    0  501  0.00000000000E+00  0.00000000000E+00 -0.59153513466E+03  0.59153513468E+03  0.50400001928E-02 0.  1.
    10030    2    1    2    0    0  0.00000000000E+00  0.00000000000E+00  0.11129375793E+04  0.22960078487E+04  0.20082385281E+04 0.  0.
        5    1    3    3  502    0 -0.86675984006E+03  0.49111337053E+03  0.70003508215E+03  0.12175944190E+04  0.46999998093E+01 0.  1.
       -5    1    3    3    0  502  0.86675984006E+03 -0.49111337053E+03  0.41290249719E+03  0.10784134296E+04  0.46999998093E+01 0. -1.
</event>
<event>
 5   0  0.2608744E-04  0.1896125E+04  0.7818609E-02  0.8656788E-01
       -2   -1    0    0    0  501  0.00000000000E+00  0.00000000000E+00  0.77500759650E+03  0.77500759651E+03  0.25500000920E-02 0. -1.
        2   -1    0    0  501    0  0.00000000000E+00  0.00000000000E+00 -0.11597593008E+04  0.11597593008E+04  0.25500000920E-02 0.  1.
    10030    2    1    2    0    0  0.00000000000E+00  0.00000000000E+00 -0.38475170433E+03  0.19347668973E+04  0.18961247515E+04 0.  0.
        2    1    3    3  502    0  0.89287975234E+03 -0.47920912850E+02 -0.51390326077E+03  0.10313230471E+04  0.25500000920E-02 0.  1.
       -2    1    3    3    0  502 -0.89287975234E+03  0.47920912850E+02  0.12915155644E+03  0.90344385025E+03  0.25500000920E-02 0. -1.
</event>
<event>
 5   0  0.9266125E-05  0.1889889E+04  0.7818609E-02  0.8659905E-01
        3   -1    0    0  501    0  0.00000000000E+00  0.00000000000E+00  0.14743637348E+04  0.14743637383E+04  0.10100000352E+00 0.  1.
       -3   -1    0    0    0  501  0.00000000000E+00  0.00000000000E+00 -0.60563105387E+03  0.60563106229E+03  0.10100000352E+00 0. -1.
    10030    2    1    2    0    0  0.00000000000E+00  0.00000000000E+00  0.86873268098E+03  0.20799948006E+04  0.18898893882E+04 0.  0.
        2    1    3    3  502    0  0.75985554301E+03 -0.13319930088E+03 -0.16623560264E+03  0.78914940005E+03  0.25500000920E-02 0. -1.
       -2    1    3    3    0  502 -0.75985554301E+03  0.13319930088E+03  0.10349682836E+04  0.12908454005E+04  0.25500000920E-02 0.  1.
</event>
<event>
 5   0  0.2595012E-04  0.1805654E+04  0.7818609E-02  0.8703298E-01
        2   -1    0    0  501    0  0.00000000000E+00  0.00000000000E+00  0.12962507896E+04  0.12962507896E+04  0.25500000920E-02 0.  1.
       -2   -1    0    0    0  501  0.00000000000E+00  0.00000000000E+00 -0.62881104917E+03  0.62881104917E+03  0.25500000920E-02 0. -1.
    10030    2    1    2    0    0  0.00000000000E+00  0.00000000000E+00  0.66743974044E+03  0.19250618388E+04  0.18056542515E+04 0.  0.
        1    1    3    3  502    0  0.18545795759E+03  0.57823278128E+03  0.10459943444E+04  0.12094841759E+04  0.50400001928E-02 0.  1.
       -1    1    3    3    0  502 -0.18545795759E+03 -0.57823278128E+03 -0.37855460393E+03  0.71557766284E+03  0.50400001928E-02 0. -1.
</event>
<event>
 5   0  0.2562925E-04  0.1954677E+04  0.7818609E-02  0.8628109E-01
       -2   -1    0    0    0  501  0.00000000000E+00  0.00000000000E+00  0.12331978660E+04  0.12331978660E+04  0.25500000920E-02 0.  1.
        2   -1    0    0  501    0  0.00000000000E+00  0.00000000000E+00 -0.77456411353E+03  0.77456411354E+03  0.25500000920E-02 0. -1.
    10030    2    1    2    0    0  0.00000000000E+00  0.00000000000E+00  0.45863375246E+03  0.20077619795E+04  0.19546772745E+04 0.  0.
        4    1    3    3  502    0 -0.43374864145E+03 -0.49865728738E+03 -0.51023118278E+03  0.83494577489E+03  0.12699999809E+01 0. -1.
       -4    1    3    3    0  502  0.43374864145E+03  0.49865728738E+03  0.96886493524E+03  0.11728162046E+04  0.12699999809E+01 0.  1.
</event>
<event>
 5   0  0.1324058E-04  0.1719119E+04  0.7818609E-02  0.8750535E-01
       -1   -1    0    0    0  501  0.00000000000E+00  0.00000000000E+00  0.53039956082E+03  0.53039956085E+03  0.50400001928E-02 0. -1.
        1   -1    0    0  501    0  0.00000000000E+00  0.00000000000E+00 -0.13929916659E+04  0.13929916659E+04  0.50400001928E-02 0.  1.
    10030    2    1    2    0    0  0.00000000000E+00  0.00000000000E+00 -0.86259210511E+03  0.19233912268E+04  0.17191185740E+04 0.  0.
        5    1    3    3  502    0  0.26015292250E+03  0.76101130047E+03 -0.77065650004E+03  0.11138901533E+04  0.46999998093E+01 0.  1.
       -5    1    3    3    0  502 -0.26015292250E+03 -0.76101130047E+03 -0.91935605073E+02  0.80950107351E+03  0.46999998093E+01 0. -1.
</event>
<event>
 5   0  0.2562925E-04  0.1892229E+04  0.7818609E-02  0.8658734E-01
       -2   -1    0    0    0  501  0.00000000000E+00  0.00000000000E+00  0.60066781195E+03  0.60066781196E+03  0.25500000920E-02 0. -1.
        2   -1    0    0  501    0  0.00000000000E+00  0.00000000000E+00 -0.14902283910E+04  0.14902283910E+04  0.25500000920E-02 0.  1.
    10030    2    1    2    0    0  0.00000000000E+00  0.00000000000E+00 -0.88956057903E+03  0.20908962029E+04  0.18922285559E+04 0.  0.
        4    1    3    3  502    0  0.86210274206E+03 -0.69107103257E+02 -0.86863297288E+03  0.12257739531E+04  0.12699999809E+01 0. -1.
       -4    1    3    3    0  502 -0.86210274206E+03  0.69107103257E+02 -0.20927606148E+02  0.86512224985E+03  0.12699999809E+01 0.  1.
</event>
<event>
 5   0  0.2541124E-04  0.1897647E+04  0.7818609E-02  0.8656029E-01
       -2   -1    0    0    0  501  0.00000000000E+00  0.00000000000E+00  0.99579189873E+03  0.99579189873E+03  0.25500000920E-02 0. -1.
        2   -1    0    0  501    0  0.00000000000E+00  0.00000000000E+00 -0.90407036371E+03  0.90407036371E+03  0.25500000920E-02 0.  1.
    10030    2    1    2    0    0  0.00000000000E+00  0.00000000000E+00  0.91721535020E+02  0.18998622624E+04  0.18976469051E+04 0.  0.
        5    1    3    3  502    0  0.69482939253E+03 -0.48291940782E+03  0.47559935016E+03  0.97067804706E+03  0.46999998093E+01 0. -1.
       -5    1    3    3    0  502 -0.69482939253E+03  0.48291940782E+03 -0.38387781514E+03  0.92918421539E+03  0.46999998093E+01 0.  1.
</event>
<event>
 5   0  0.2595012E-04  0.1937506E+04  0.7818609E-02  0.8636409E-01
       -2   -1    0    0    0  501  0.00000000000E+00  0.00000000000E+00  0.43386318069E+03  0.43386318070E+03  0.25500000920E-02 0. -1.
        2   -1    0    0  501    0  0.00000000000E+00  0.00000000000E+00 -0.21630829416E+04  0.21630829416E+04  0.25500000920E-02 0.  1.
    10030    2    1    2    0    0  0.00000000000E+00  0.00000000000E+00 -0.17292197609E+04  0.25969461223E+04  0.19375056595E+04 0.  0.
        1    1    3    3  502    0 -0.52808901938E+03 -0.32324385399E+03 -0.18632577896E+04  0.19634393783E+04  0.50400001928E-02 0.  1.
       -1    1    3    3    0  502  0.52808901938E+03  0.32324385399E+03  0.13403802874E+03  0.63350674401E+03  0.50400001928E-02 0. -1.
</event>
<event>
 5   0  0.1277709E-04  0.1897452E+04  0.7818609E-02  0.8656126E-01
        1   -1    0    0  501    0  0.00000000000E+00  0.00000000000E+00  0.13948084949E+04  0.13948084949E+04  0.50400001928E-02 0.  1.
       -1   -1    0    0    0  501  0.00000000000E+00  0.00000000000E+00 -0.64530802085E+03  0.64530802087E+03  0.50400001928E-02 0. -1.
    10030    2    1    2    0    0  0.00000000000E+00  0.00000000000E+00  0.74950047408E+03  0.20401165158E+04  0.18974520909E+04 0.  0.
        4    1    3    3  502    0 -0.81289400836E+03 -0.31569206346E+03  0.77650410525E+03  0.11676550801E+04  0.12699999809E+01 0.  1.
       -4    1    3    3    0  502  0.81289400836E+03  0.31569206346E+03 -0.27003631169E+02  0.87246143568E+03  0.12699999809E+01 0. -1.
</event>
<event>
 5   0  0.2595012E-04  0.1896984E+04  0.7818609E-02  0.8656359E-01
       -2   -1    0    0    0  501  0.00000000000E+00  0.00000000000E+00  0.48932075094E+03  0.48932075095E+03  0.25500000920E-02 0. -1.
        2   -1    0    0  501    0  0.00000000000E+00  0.00000000000E+00 -0.18385435365E+04  0.18385435365E+04  0.25500000920E-02 0.  1.
    10030    2    1    2    0    0  0.00000000000E+00  0.00000000000E+00 -0.13492227855E+04  0.23278642874E+04  0.18969844532E+04 0.  0.
        1    1    3    3  502    0 -0.88938005789E+03 -0.30521927100E+03 -0.82729935406E+03  0.12524296036E+04  0.50400001928E-02 0.  1.
       -1    1    3    3    0  502  0.88938005789E+03  0.30521927100E+03 -0.52192343145E+03  0.10754346838E+04  0.50400001928E-02 0. -1.
</event>
<event>
 5   0  0.1255141E-04  0.1877125E+04  0.7818609E-02  0.8666327E-01
        1   -1    0    0  501    0  0.00000000000E+00  0.00000000000E+00  0.60819969853E+03  0.60819969855E+03  0.50400001928E-02 0.  1.
       -1   -1    0    0    0  501  0.00000000000E+00  0.00000000000E+00 -0.14483719690E+04  0.14483719690E+04  0.50400001928E-02 0. -1.
    10030    2    1    2    0    0  0.00000000000E+00  0.00000000000E+00 -0.84017227042E+03  0.20565716675E+04  0.18771248173E+04 0.  0.
        2    1    3    3  502    0 -0.82714592059E+03  0.42532801962E+03 -0.55790982827E+03  0.10845910173E+04  0.25500000920E-02 0. -1.
       -2    1    3    3    0  502  0.82714592059E+03 -0.42532801962E+03 -0.28226244215E+03  0.97198065026E+03  0.25500000920E-02 0.  1.
</event>
<event>
 5   0  0.2651828E-04  0.1914173E+04  0.7818609E-02  0.8647833E-01
        2   -1    0    0  501    0  0.00000000000E+00  0.00000000000E+00  0.20830090230E+04  0.20830090230E+04  0.25500000920E-02 0. -1.
       -2   -1    0    0    0  501  0.00000000000E+00  0.00000000000E+00 -0.43975559685E+03  0.43975559685E+03  0.25500000920E-02 0.  1.
    10030    2    1    2    0    0  0.00000000000E+00  0.00000000000E+00  0.16432534261E+04  0.25227646198E+04  0.19141733215E+04 0.  0.
        3    1    3    3  502    0  0.76763653176E+03 -0.36787405065E+03  0.24501093238E+03  0.88579203497E+03  0.10100000352E+00 0.  1.
       -3    1    3    3    0  502 -0.76763653176E+03  0.36787405065E+03  0.13982424937E+04  0.16369725849E+04  0.10100000352E+00 0. -1.
</event>
<event>
 5   0  0.1277709E-04  0.1884055E+04  0.7818609E-02  0.8662834E-01
       -1   -1    0    0    0  501  0.00000000000E+00  0.00000000000E+00  0.92742056240E+03  0.92742056241E+03  0.50400001928E-02 0.  1.
        1   -1    0    0  501    0  0.00000000000E+00  0.00000000000E+00 -0.95686500478E+03  0.95686500479E+03  0.50400001928E-02 0. -1.
    10030    2    1    2    0    0  0.00000000000E+00  0.00000000000E+00 -0.29444442383E+02  0.18842855672E+04  0.18840554991E+04 0.  0.
        4    1    3    3  502    0 -0.74287095682E+03  0.32244834909E+03  0.46656878661E+03  0.93462197805E+03  0.12699999809E+01 0.  1.
       -4    1    3    3    0  502  0.74287095682E+03 -0.32244834909E+03 -0.49601322900E+03  0.94966358915E+03  0.12699999809E+01 0. -1.
</event>
<event>
 5   0  0.1317527E-04  0.1933995E+04  0.7818609E-02  0.8638118E-01
       -1   -1    0    0    0  501  0.00000000000E+00  0.00000000000E+00  0.12812505824E+04  0.12812505824E+04  0.50400001928E-02 0. -1.
        1   -1    0    0  501    0  0.00000000000E+00  0.00000000000E+00 -0.72982146078E+03  0.72982146079E+03  0.50400001928E-02 0.  1.
    10030    2    1    2    0    0  0.00000000000E+00  0.00000000000E+00  0.55142912163E+03  0.20110720432E+04  0.19339950069E+04 0.  0.
        1    1    3    3  502    0 -0.12446220221E+03  0.11396472870E+03 -0.71439082835E+03  0.73405248778E+03  0.50400001928E-02 0.  1.
       -1    1    3    3    0  502  0.12446220221E+03 -0.11396472870E+03  0.12658199500E+04  0.12770195554E+04  0.50400001928E-02 0. -1.
</event>
<event>
 5   0  0.2595012E-04  0.1906190E+04  0.7818609E-02  0.8651781E-01
        2   -1    0    0  501    0  0.00000000000E+00  0.00000000000E+00  0.10771796567E+04  0.10771796567E+04  0.25500000920E-02 0. -1.
       -2   -1    0    0    0  501  0.00000000000E+00  0.00000000000E+00 -0.84330456266E+03  0.84330456266E+03  0.25500000920E-02 0.  1.
    10030    2    1    2    0    0  0.00000000000E+00  0.00000000000E+00  0.23387509405E+03  0.19204842194E+04  0.19061904620E+04 0.  0.
        1    1    3    3  502    0 -0.87715054160E+03 -0.68362268850E+02 -0.25231315915E+03  0.91527504213E+03  0.50400001928E-02 0.  1.
       -1    1    3    3    0  502  0.87715054160E+03  0.68362268850E+02  0.48618825320E+03  0.10052091772E+04  0.50400001928E-02 0. -1.
</event>
<event>
 5   0  0.2562925E-04  0.1903145E+04  0.7818609E-02  0.8653293E-01
        2   -1    0    0  501    0  0.00000000000E+00  0.00000000000E+00  0.14429490091E+04  0.14429490091E+04  0.25500000920E-02 0.  1.
       -2   -1    0    0    0  501  0.00000000000E+00  0.00000000000E+00 -0.62752741591E+03  0.62752741591E+03  0.25500000920E-02 0. -1.
    10030    2    1    2    0    0  0.00000000000E+00  0.00000000000E+00  0.81542159318E+03  0.20704764250E+04  0.19031448321E+04 0.  0.
        4    1    3    3  502    0  0.13814502952E+03 -0.59717809227E+02  0.14299181582E+04  0.14378170322E+04  0.12699999809E+01 0.  1.
       -4    1    3    3    0  502 -0.13814502952E+03  0.59717809227E+02 -0.61449656506E+03  0.63265939280E+03  0.12699999809E+01 0. -1.
</event>
<event>
 5   0  0.9266125E-05  0.1900720E+04  0.7818609E-02  0.8654498E-01
       -3   -1    0    0    0  501  0.00000000000E+00  0.00000000000E+00  0.14026846361E+04  0.14026846398E+04  0.10100000352E+00 0.  1.
        3   -1    0    0  501    0  0.00000000000E+00  0.00000000000E+00 -0.64389649199E+03  0.64389649991E+03  0.10100000352E+00 0. -1.
    10030    2    1    2    0    0  0.00000000000E+00  0.00000000000E+00  0.75878814412E+03  0.20465811397E+04  0.19007195778E+04 0.  0.
        2    1    3    3  502    0  0.25173669982E+02  0.60991612197E+03 -0.40489296370E+03  0.73250918189E+03  0.25500000920E-02 0. -1.
       -2    1    3    3    0  502 -0.25173669982E+02 -0.60991612197E+03  0.11636811078E+04  0.13140719578E+04  0.25500000920E-02 0.  1.
</event>
<event>
 5   0  0.2595012E-04  0.1902985E+04  0.7818609E-02  0.8653372E-01
        2   -1    0    0  501    0  0.00000000000E+00  0.00000000000E+00  0.89473772892E+03  0.89473772893E+03  0.25500000920E-02 0. -1.
       -2   -1    0    0    0  501  0.00000000000E+00  0.00000000000E+00 -0.10118472852E+04  0.10118472852E+04  0.25500000920E-02 0.  1.
    10030    2    1    2    0    0  0.00000000000E+00  0.00000000000E+00 -0.11710955631E+03  0.19065850142E+04  0.19029849627E+04 0.  0.
        1    1    3    3  502    0 -0.86036990716E+03 -0.30163003016E+03 -0.33132134066E+03  0.97004684580E+03  0.50400001928E-02 0.  1.
       -1    1    3    3    0  502  0.86036990716E+03  0.30163003016E+03  0.21421178434E+03  0.93653816837E+03  0.50400001928E-02 0. -1.
</event>
<event>
 5   0  0.2651828E-04  0.1906976E+04  0.7818609E-02  0.8651392E-01
       -2   -1    0    0    0  501  0.00000000000E+00  0.00000000000E+00  0.73480869724E+03  0.73480869724E+03  0.25500000920E-02 0. -1.
        2   -1    0    0  501    0  0.00000000000E+00  0.00000000000E+00 -0.12372468992E+04  0.12372468992E+04  0.25500000920E-02 0.  1.
    10030    2    1    2    0    0  0.00000000000E+00  0.00000000000E+00 -0.50243820199E+03  0.19720555965E+04  0.19069764363E+04 0.  0.
        3    1    3    3  502    0 -0.32819066515E+02 -0.61952071068E+03  0.49754644340E+03  0.79525811887E+03  0.10100000352E+00 0. -1.
       -3    1    3    3    0  502  0.32819066515E+02  0.61952071068E+03 -0.99998464539E+03  0.11767974776E+04  0.10100000352E+00 0.  1.
</event>
<event>
 5   0  0.1317527E-04  0.1922199E+04  0.7818609E-02  0.8643885E-01
        1   -1    0    0  501    0  0.00000000000E+00  0.00000000000E+00  0.87209079516E+03  0.87209079518E+03  0.50400001928E-02 0. -1.
       -1   -1    0    0    0  501  0.00000000000E+00  0.00000000000E+00 -0.10591925574E+04  0.10591925574E+04  0.50400001928E-02 0.  1.
    10030    2    1    2    0    0  0.00000000000E+00  0.00000000000E+00 -0.18710176225E+03  0.19312833526E+04  0.19221988239E+04 0.  0.
        1    1    3    3  502    0 -0.94676124363E+03 -0.15907332274E+03 -0.48049929367E+02  0.96123356693E+03  0.50400001928E-02 0.  1.
       -1    1    3    3    0  502  0.94676124363E+03  0.15907332274E+03 -0.13905183289E+03  0.97004978568E+03  0.50400001928E-02 0. -1.
</event>
<event>
 5   0  0.1317527E-04  0.1902812E+04  0.7818609E-02  0.8653458E-01
       -1   -1    0    0    0  501  0.00000000000E+00  0.00000000000E+00  0.64758212596E+03  0.64758212597E+03  0.50400001928E-02 0. -1.
        1   -1    0    0  501    0  0.00000000000E+00  0.00000000000E+00 -0.13977737630E+04  0.13977737630E+04  0.50400001928E-02 0.  1.
    10030    2    1    2    0    0  0.00000000000E+00  0.00000000000E+00 -0.75019163701E+03  0.20453558889E+04  0.19028119246E+04 0.  0.
        1    1    3    3  502    0  0.59776309348E+03 -0.38233612294E+03  0.30615749326E+03  0.77280918573E+03  0.50400001928E-02 0. -1.
       -1    1    3    3    0  502 -0.59776309348E+03  0.38233612294E+03 -0.10563491303E+04  0.12725467032E+04  0.50400001928E-02 0.  1.
</event>
<event>
 5   0  0.1239615E-04  0.2114950E+04  0.7818609E-02  0.8554686E-01
       -1   -1    0    0    0  501  0.00000000000E+00  0.00000000000E+00  0.15221279047E+04  0.15221279047E+04  0.50400001928E-02 0. -1.
        1   -1    0    0  501    0  0.00000000000E+00  0.00000000000E+00 -0.73466441084E+03  0.73466441085E+03  0.50400001928E-02 0.  1.
    10030    2    1    2    0    0  0.00000000000E+00  0.00000000000E+00  0.78746349385E+03  0.22567923155E+04  0.21149498342E+04 0.  0.
        3    1    3    3  502    0 -0.10309363633E+04 -0.35324893372E+02  0.64209836032E+03  0.12150588249E+04  0.10100000352E+00 0.  1.
       -3    1    3    3    0  502  0.10309363633E+04  0.35324893372E+02  0.14536513353E+03  0.10417334907E+04  0.10100000352E+00 0. -1.
</event>
<event>
 5   0  0.1324058E-04  0.2018859E+04  0.7818609E-02  0.8597854E-01
       -1   -1    0    0    0  501  0.00000000000E+00  0.00000000000E+00  0.10316601734E+04  0.10316601735E+04  0.50400001928E-02 0. -1.
        1   -1    0    0  501    0  0.00000000000E+00  0.00000000000E+00 -0.98767785811E+03  0.98767785812E+03  0.50400001928E-02 0.  1.
    10030    2    1    2    0    0  0.00000000000E+00  0.00000000000E+00  0.43982315343E+02  0.20193380316E+04  0.20188589950E+04 0.  0.
        5    1    3    3  502    0  0.60537710663E+03  0.36227655139E+03 -0.70012202628E+03  0.99394098548E+03  0.46999998093E+01 0.  1.
       -5    1    3    3    0  502 -0.60537710663E+03 -0.36227655139E+03  0.74410434163E+03  0.10253970461E+04  0.46999998093E+01 0. -1.
</event>
<event>
 5   0  0.1324058E-04  0.1910951E+04  0.7818609E-02  0.8649424E-01
        1   -1    0    0  501    0  0.00000000000E+00  0.00000000000E+00  0.68059995105E+03  0.68059995107E+03  0.50400001928E-02 0. -1.
       -1   -1    0    0    0  501  0.00000000000E+00  0.00000000000E+00 -0.13413663407E+04  0.13413663407E+04  0.50400001928E-02 0.  1.
    10030    2    1    2    0    0  0.00000000000E+00  0.00000000000E+00 -0.66076638968E+03  0.20219662918E+04  0.19109514550E+04 0.  0.
        5    1    3    3  502    0  0.93684344271E+03 -0.16993179121E+03 -0.24600508294E+03  0.98340888782E+03  0.46999998093E+01 0. -1.
       -5    1    3    3    0  502 -0.93684344271E+03  0.16993179121E+03 -0.41476130674E+03  0.10385574040E+04  0.46999998093E+01 0.  1.
</event>
<event>
 5   0  0.2562925E-04  0.1929199E+04  0.7818609E-02  0.8640457E-01
       -2   -1    0    0    0  501  0.00000000000E+00  0.00000000000E+00  0.50025990452E+03  0.50025990453E+03  0.25500000920E-02 0. -1.
        2   -1    0    0  501    0  0.00000000000E+00  0.00000000000E+00 -0.18599377486E+04  0.18599377486E+04  0.25500000920E-02 0.  1.
    10030    2    1    2    0    0  0.00000000000E+00  0.00000000000E+00 -0.13596778441E+04  0.23601976532E+04  0.19291990883E+04 0.  0.
        4    1    3    3  502    0 -0.13071233993E+03 -0.59530378266E+03  0.23484031968E+03  0.65316452606E+03  0.12699999809E+01 0. -1.
       -4    1    3    3    0  502  0.13071233993E+03  0.59530378266E+03 -0.15945181638E+04  0.17070331271E+04  0.12699999809E+01 0.  1.
</event>
<event>
 5   0  0.2595012E-04  0.1912590E+04  0.7818609E-02  0.8648615E-01
       -2   -1    0    0    0  501  0.00000000000E+00  0.00000000000E+00  0.83747744309E+03  0.83747744310E+03  0.25500000920E-02 0. -1.
        2   -1    0    0  501    0  0.00000000000E+00  0.00000000000E+00 -0.10919697838E+04  0.10919697838E+04  0.25500000920E-02 0.  1.
    10030    2    1    2    0    0  0.00000000000E+00  0.00000000000E+00 -0.25449234068E+03  0.19294472269E+04  0.19125899325E+04 0.  0.
        1    1    3    3  502    0 -0.75195507397E+03 -0.49967245824E+01  0.46875595251E+03  0.88611147356E+03  0.50400001928E-02 0.  1.
       -1    1    3    3    0  502  0.75195507397E+03  0.49967245824E+01 -0.72324829319E+03  0.10433357533E+04  0.50400001928E-02 0. -1.
</event>
<event>
 5   0  0.1255141E-04  0.1914532E+04  0.7818609E-02  0.8647657E-01
        1   -1    0    0  501    0  0.00000000000E+00  0.00000000000E+00  0.12479755870E+04  0.12479755870E+04  0.50400001928E-02 0. -1.
       -1   -1    0    0    0  501  0.00000000000E+00  0.00000000000E+00 -0.73427568105E+03  0.73427568107E+03  0.50400001928E-02 0.  1.
    10030    2    1    2    0    0  0.00000000000E+00  0.00000000000E+00  0.51369990597E+03  0.19822512681E+04  0.19145319262E+04 0.  0.
        2    1    3    3  502    0  0.46959670831E+03  0.21933982685E+03 -0.57643228371E+03  0.77518075686E+03  0.25500000920E-02 0.  1.
       -2    1    3    3    0  502 -0.46959670831E+03 -0.21933982685E+03  0.10901321897E+04  0.12070705112E+04  0.25500000920E-02 0. -1.
</event>
<event>
 5   0  0.2541124E-04  0.1940780E+04  0.7818609E-02  0.8634820E-01
        2   -1    0    0  501    0  0.00000000000E+00  0.00000000000E+00  0.91620080895E+03  0.91620080895E+03  0.25500000920E-02 0.  1.
       -2   -1    0    0    0  501  0.00000000000E+00  0.00000000000E+00 -0.10277844946E+04  0.10277844946E+04  0.25500000920E-02 0. -1.
    10030    2    1    2    0    0  0.00000000000E+00  0.00000000000E+00 -0.11158368565E+03  0.19439853036E+04  0.19407802404E+04 0.  0.
        5    1    3    3  502    0 -0.50250879190E+03  0.35544619403E+03 -0.80721590685E+03  0.10151239792E+04  0.46999998093E+01 0. -1.
       -5    1    3    3    0  502  0.50250879190E+03 -0.35544619403E+03  0.69563222120E+03  0.92886132440E+03  0.46999998093E+01 0.  1.
</event>
<event>
 5   0  0.1255141E-04  0.1919411E+04  0.7818609E-02  0.8645254E-01
        1   -1    0    0  501    0  0.00000000000E+00  0.00000000000E+00  0.15801769135E+04  0.15801769135E+04  0.50400001928E-02 0. -1.
       -1   -1    0    0    0  501  0.00000000000E+00  0.00000000000E+00 -0.58286813747E+03  0.58286813749E+03  0.50400001928E-02 0.  1.
    10030    2    1    2    0    0  0.00000000000E+00  0.00000000000E+00  0.99730877598E+03  0.21630450510E+04  0.19194111331E+04 0.  0.
        2    1    3    3  502    0 -0.52136423499E+03 -0.57917205771E+03 -0.13260219370E+03  0.79047092277E+03  0.25500000920E-02 0.  1.
       -2    1    3    3    0  502  0.52136423499E+03  0.57917205771E+03  0.11299109697E+04  0.13725741282E+04  0.25500000920E-02 0. -1.
</event>
<event>
 5   0  0.2608744E-04  0.1815102E+04  0.7818609E-02  0.8698310E-01
       -2   -1    0    0    0  501  0.00000000000E+00  0.00000000000E+00  0.53300849598E+03  0.53300849599E+03  0.25500000920E-02 0. -1.
        2   -1    0    0  501    0  0.00000000000E+00  0.00000000000E+00 -0.15452823204E+04  0.15452823204E+04  0.25500000920E-02 0.  1.
    10030    2    1    2    0    0  0.00000000000E+00  0.00000000000E+00 -0.10122738244E+04  0.20782908164E+04  0.18151017662E+04 0.  0.
        2    1    3    3  502    0 -0.23571462528E+03  0.69534886240E+02  0.49418400202E+03  0.55191875565E+03  0.25500000920E-02 0. -1.
       -2    1    3    3    0  502  0.23571462528E+03 -0.69534886240E+02 -0.15064578264E+04  0.15263720607E+04  0.25500000920E-02 0.  1.
</event>
<event>
 5   0  0.2651828E-04  0.1829635E+04  0.7818609E-02  0.8690697E-01
        2   -1    0    0  501    0  0.00000000000E+00  0.00000000000E+00  0.66611587074E+03  0.66611587074E+03  0.25500000920E-02 0.  1.
       -2   -1    0    0    0  501  0.00000000000E+00  0.00000000000E+00 -0.12563746944E+04  0.12563746944E+04  0.25500000920E-02 0. -1.
    10030    2    1    2    0    0  0.00000000000E+00  0.00000000000E+00 -0.59025882364E+03  0.19224905651E+04  0.18296350713E+04 0.  0.
        3    1    3    3  502    0 -0.20419494370E+03 -0.76095604266E+03 -0.78363412743E+03  0.11112300076E+04  0.10100000352E+00 0. -1.
       -3    1    3    3    0  502  0.20419494370E+03  0.76095604266E+03  0.19337530379E+03  0.81126055753E+03  0.10100000352E+00 0.  1.
</event>
<event>
 5   0  0.2595012E-04  0.1893052E+04  0.7818609E-02  0.8658323E-01
       -2   -1    0    0    0  501  0.00000000000E+00  0.00000000000E+00  0.10564546316E+04  0.10564546316E+04  0.25500000920E-02 0.  1.
        2   -1    0    0  501    0  0.00000000000E+00  0.00000000000E+00 -0.84803601294E+03  0.84803601294E+03  0.25500000920E-02 0. -1.
    10030    2    1    2    0    0  0.00000000000E+00  0.00000000000E+00  0.20841861867E+03  0.19044906446E+04  0.18930521109E+04 0.  0.
        1    1    3    3  502    0  0.52783921908E+03 -0.35854272064E+03  0.80753615376E+03  0.10292141485E+04  0.50400001928E-02 0.  1.
       -1    1    3    3    0  502 -0.52783921908E+03  0.35854272064E+03 -0.59911753510E+03  0.87527649609E+03  0.50400001928E-02 0. -1.
</event>
<event>
 5   0  0.2562925E-04  0.1901437E+04  0.7818609E-02  0.8654141E-01
        2   -1    0    0  501    0  0.00000000000E+00  0.00000000000E+00  0.19089384293E+04  0.19089384293E+04  0.25500000920E-02 0.  1.
       -2   -1    0    0    0  501  0.00000000000E+00  0.00000000000E+00 -0.47349121159E+03  0.47349121159E+03  0.25500000920E-02 0. -1.
    10030    2    1    2    0    0  0.00000000000E+00  0.00000000000E+00  0.14354472177E+04  0.23824296409E+04  0.19014368985E+04 0.  0.
        4    1    3    3  502    0  0.79060815168E+03  0.44258962123E+03  0.10785184416E+04  0.14085987590E+04  0.12699999809E+01 0.  1.
       -4    1    3    3    0  502 -0.79060815168E+03 -0.44258962123E+03  0.35692877619E+03  0.97383088187E+03  0.12699999809E+01 0. -1.
</event>
<event>
 5   0  0.1324058E-04  0.1978386E+04  0.7818609E-02  0.8616793E-01
        1   -1    0    0  501    0  0.00000000000E+00  0.00000000000E+00  0.11188670164E+04  0.11188670164E+04  0.50400001928E-02 0. -1.
       -1   -1    0    0    0  501  0.00000000000E+00  0.00000000000E+00 -0.87454823798E+03  0.87454823799E+03  0.50400001928E-02 0.  1.
    10030    2    1    2    0    0  0.00000000000E+00  0.00000000000E+00  0.24431877844E+03  0.19934152544E+04  0.19783863907E+04 0.  0.
        5    1    3    3  502    0  0.10866610972E+03  0.86494821714E+03 -0.34887161452E+03  0.93897669574E+03  0.46999998093E+01 0.  1.
       -5    1    3    3    0  502 -0.10866610972E+03 -0.86494821714E+03  0.59319039296E+03  0.10544385587E+04  0.46999998093E+01 0. -1.
</event>
<event>
 5   0  0.1277709E-04  0.1933749E+04  0.7818609E-02  0.8638237E-01
       -1   -1    0    0    0  501  0.00000000000E+00  0.00000000000E+00  0.87148641095E+03  0.87148641097E+03  0.50400001928E-02 0. -1.
        1   -1    0    0  501    0  0.00000000000E+00  0.00000000000E+00 -0.10727035277E+04  0.10727035277E+04  0.50400001928E-02 0.  1.
    10030    2    1    2    0    0  0.00000000000E+00  0.00000000000E+00 -0.20121711677E+03  0.19441899387E+04  0.19337492572E+04 0.  0.
        4    1    3    3  502    0 -0.23264252604E+03 -0.12811266502E+03 -0.10353105830E+04  0.10688334838E+04  0.12699999809E+01 0.  1.
       -4    1    3    3    0  502  0.23264252604E+03  0.12811266502E+03  0.83409346623E+03  0.87535645492E+03  0.12699999809E+01 0. -1.
</event>
<event>
 5   0  0.9266125E-05  0.1883125E+04  0.7818609E-02  0.8663302E-01
       -3   -1    0    0    0  501  0.00000000000E+00  0.00000000000E+00  0.11953191903E+04  0.11953191946E+04  0.10100000352E+00 0.  1.
        3   -1    0    0  501    0  0.00000000000E+00  0.00000000000E+00 -0.74167647453E+03  0.74167648140E+03  0.10100000352E+00 0. -1.
    10030    2    1    2    0    0  0.00000000000E+00  0.00000000000E+00  0.45364271580E+03  0.19369956760E+04  0.18831252043E+04 0.  0.
        4    1    3    3  502    0  0.57250772596E+03 -0.61242051872E+03  0.66770218373E+03  0.10717517470E+04  0.12699999809E+01 0.  1.
       -4    1    3    3    0  502 -0.57250772596E+03  0.61242051872E+03 -0.21405946793E+03  0.86524392904E+03  0.12699999809E+01 0. -1.
</event>
<event>
 5   0  0.2651828E-04  0.1922170E+04  0.7818609E-02  0.8643899E-01
       -2   -1    0    0    0  501  0.00000000000E+00  0.00000000000E+00  0.36701797951E+03  0.36701797952E+03  0.25500000920E-02 0.  1.
        2   -1    0    0  501    0  0.00000000000E+00  0.00000000000E+00 -0.25167278460E+04  0.25167278460E+04  0.25500000920E-02 0. -1.
    10030    2    1    2    0    0  0.00000000000E+00  0.00000000000E+00 -0.21497098665E+04  0.28837458255E+04  0.19221699915E+04 0.  0.
        3    1    3    3  502    0 -0.48057667468E+03 -0.82711812480E+03 -0.93567823862E+03  0.13381226061E+04  0.10100000352E+00 0. -1.
       -3    1    3    3    0  502  0.48057667468E+03  0.82711812480E+03 -0.12140316278E+04  0.15456232193E+04  0.10100000352E+00 0.  1.
</event>
<event>
 5   0  0.2608744E-04  0.1910356E+04  0.7818609E-02  0.8649719E-01
        2   -1    0    0  501    0  0.00000000000E+00  0.00000000000E+00  0.79159677724E+03  0.79159677724E+03  0.25500000920E-02 0.  1.
       -2   -1    0    0    0  501  0.00000000000E+00  0.00000000000E+00 -0.11525623301E+04  0.11525623301E+04  0.25500000920E-02 0. -1.
    10030    2    1    2    0    0  0.00000000000E+00  0.00000000000E+00 -0.36096555286E+03  0.19441591073E+04  0.19103555963E+04 0.  0.
        2    1    3    3  502    0  0.48661630391E+03  0.11244074835E+03  0.64812729195E+03  0.81823427922E+03  0.25500000920E-02 0.  1.
       -2    1    3    3    0  502 -0.48661630391E+03 -0.11244074835E+03 -0.10090928448E+04  0.11259248281E+04  0.25500000920E-02 0. -1.
</event>
<event>
 5   0  0.2541124E-04  0.1911751E+04  0.7818609E-02  0.8649029E-01
       -2   -1    0    0    0  501  0.00000000000E+00  0.00000000000E+00  0.65943944830E+03  0.65943944830E+03  0.25500000920E-02 0. -1.
        2   -1    0    0  501    0  0.00000000000E+00  0.00000000000E+00 -0.13855679504E+04  0.13855679504E+04  0.25500000920E-02 0.  1.
    10030    2    1    2    0    0  0.00000000000E+00  0.00000000000E+00 -0.72612850213E+03  0.20450073987E+04  0.19117512022E+04 0.  0.
        5    1    3    3  502    0  0.68737467198E+03 -0.28968889770E+03  0.27632199893E+03  0.79547440828E+03  0.46999998093E+01 0. -1.
       -5    1    3    3    0  502 -0.68737467198E+03  0.28968889770E+03 -0.10024505011E+04  0.12495329904E+04  0.46999998093E+01 0.  1.
</event>
<event>
 5   0  0.1277709E-04  0.1805005E+04  0.7818609E-02  0.8703643E-01
        1   -1    0    0  501    0  0.00000000000E+00  0.00000000000E+00  0.10709083279E+04  0.10709083279E+04  0.50400001928E-02 0. -1.
       -1   -1    0    0    0  501  0.00000000000E+00  0.00000000000E+00 -0.76057918299E+03  0.76057918301E+03  0.50400001928E-02 0.  1.
    10030    2    1    2    0    0  0.00000000000E+00  0.00000000000E+00  0.31032914486E+03  0.18314875109E+04  0.18050047990E+04 0.  0.
        4    1    3    3  502    0 -0.47779112562E+03  0.16198937415E+03 -0.60413547959E+03  0.78708716650E+03  0.12699999809E+01 0.  1.
       -4    1    3    3    0  502  0.47779112562E+03 -0.16198937415E+03  0.91446462446E+03  0.10444003444E+04  0.12699999809E+01 0. -1.
</event>
<event>
 5   0  0.1317527E-04  0.1873084E+04  0.7818609E-02  0.8668372E-01
        1   -1    0    0  501    0  0.00000000000E+00  0.00000000000E+00  0.16999109774E+04  0.16999109774E+04  0.50400001928E-02 0.  1.
       -1   -1    0    0    0  501  0.00000000000E+00  0.00000000000E+00 -0.51597436478E+03  0.51597436481E+03  0.50400001928E-02 0. -1.
    10030    2    1    2    0    0  0.00000000000E+00  0.00000000000E+00  0.11839366126E+04  0.22158853422E+04  0.18730835398E+04 0.  0.
        1    1    3    3  502    0 -0.92075349964E+03 -0.71500996650E+02  0.77604435481E+03  0.12062935962E+04  0.50400001928E-02 0.  1.
       -1    1    3    3    0  502  0.92075349964E+03  0.71500996650E+02  0.40789225783E+03  0.10095917460E+04  0.50400001928E-02 0. -1.
</event>
<event>
 5   0  0.2608744E-04  0.1900181E+04  0.7818609E-02  0.8654766E-01
       -2   -1    0    0    0  501  0.00000000000E+00  0.00000000000E+00  0.59267284677E+03  0.59267284677E+03  0.25500000920E-02 0. -1.
        2   -1    0    0  501    0  0.00000000000E+00  0.00000000000E+00 -0.15230521717E+04  0.15230521717E+04  0.25500000920E-02 0.  1.
    10030    2    1    2    0    0  0.00000000000E+00  0.00000000000E+00 -0.93037932490E+03  0.21157250184E+04  0.19001806928E+04 0.  0.
        2    1    3    3  502    0  0.83536073961E+03 -0.12227603340E+03 -0.95038701689E+03  0.12712255801E+04  0.25500000920E-02 0.  1.
       -2    1    3    3    0  502 -0.83536073961E+03  0.12227603340E+03  0.20007691987E+02  0.84449943835E+03  0.25500000920E-02 0. -1.
</event>
<event>
 5   0  0.1277709E-04  0.1833979E+04  0.7818609E-02  0.8688435E-01
        1   -1    0    0  501    0  0.00000000000E+00  0.00000000000E+00  0.12159748815E+04  0.12159748815E+04  0.50400001928E-02 0.  1.
       -1   -1    0    0    0  501  0.00000000000E+00  0.00000000000E+00 -0.69151935695E+03  0.69151935697E+03  0.50400001928E-02 0. -1.
    10030    2    1    2    0    0  0.00000000000E+00  0.00000000000E+00  0.52445552451E+03  0.19074942384E+04  0.18339794635E+04 0.  0.
        4    1    3    3  502    0  0.27956921215E+03 -0.27331510819E+03  0.11249394001E+04  0.11909451539E+04  0.12699999809E+01 0.  1.
       -4    1    3    3    0  502 -0.27956921215E+03  0.27331510819E+03 -0.60048387562E+03  0.71654908452E+03  0.12699999809E+01 0. -1.
</event>
<event>
 5   0  0.2562925E-04  0.1897444E+04  0.7818609E-02  0.8656130E-01
       -2   -1    0    0    0  501  0.00000000000E+00  0.00000000000E+00  0.76549796785E+03  0.76549796786E+03  0.25500000920E-02 0. -1.
        2   -1    0    0  501    0  0.00000000000E+00  0.00000000000E+00 -0.11758009537E+04  0.11758009537E+04  0.25500000920E-02 0.  1.
    10030    2    1    2    0    0  0.00000000000E+00  0.00000000000E+00 -0.41030298587E+03  0.19412989216E+04  0.18974437970E+04 0.  0.
        4    1    3    3  502    0  0.13071329080E+03  0.58962525576E+03  0.54342012897E+03  0.81243520116E+03  0.12699999809E+01 0. -1.
       -4    1    3    3    0  502 -0.13071329080E+03 -0.58962525576E+03 -0.95372311483E+03  0.11288637204E+04  0.12699999809E+01 0.  1.
</event>
<event>
 5   0  0.1324058E-04  0.1902062E+04  0.7818609E-02  0.8653831E-01
        1   -1    0    0  501    0  0.00000000000E+00  0.00000000000E+00  0.12104953436E+04  0.12104953436E+04  0.50400001928E-02 0. -1.
       -1   -1    0    0    0  501  0.00000000000E+00  0.00000000000E+00 -0.74718155663E+03  0.74718155664E+03  0.50400001928E-02 0.  1.
    10030    2    1    2    0    0  0.00000000000E+00  0.00000000000E+00  0.46331378697E+03  0.19576769002E+04  0.19020618235E+04 0.  0.
        5    1    3    3  502    0  0.91789350932E+03  0.17695070911E+02  0.48709928884E+03  0.10392927485E+04  0.46999998093E+01 0. -1.
       -5    1    3    3    0  502 -0.91789350932E+03 -0.17695070911E+02 -0.23785501876E+02  0.91838415170E+03  0.46999998093E+01 0.  1.
</event>
<event>
 5   0  0.2541124E-04  0.1904722E+04  0.7818609E-02  0.8652510E-01
       -2   -1    0    0    0  501  0.00000000000E+00  0.00000000000E+00  0.12598605208E+04  0.12598605208E+04  0.25500000920E-02 0.  1.
        2   -1    0    0  501    0  0.00000000000E+00  0.00000000000E+00 -0.71991417350E+03  0.71991417351E+03  0.25500000920E-02 0. -1.
    10030    2    1    2    0    0  0.00000000000E+00  0.00000000000E+00  0.53994634728E+03  0.19797746943E+04  0.19047219698E+04 0.  0.
        5    1    3    3  502    0 -0.42391953159E+03 -0.12723315814E+03  0.11464518736E+04  0.12289304433E+04  0.46999998093E+01 0.  1.
       -5    1    3    3    0  502  0.42391953159E+03  0.12723315814E+03 -0.60650552637E+03  0.75084425103E+03  0.46999998093E+01 0. -1.
</event>
<event>
 5   0  0.2595012E-04  0.1871416E+04  0.7818609E-02  0.8669217E-01
        2   -1    0    0  501    0  0.00000000000E+00  0.00000000000E+00  0.12074741981E+04  0.12074741981E+04  0.25500000920E-02 0. -1.
       -2   -1    0    0    0  501  0.00000000000E+00  0.00000000000E+00 -0.72510784241E+03  0.72510784241E+03  0.25500000920E-02 0.  1.
    10030    2    1    2    0    0  0.00000000000E+00  0.00000000000E+00  0.48236635572E+03  0.19325820405E+04  0.18714155183E+04 0.  0.
        1    1    3    3  502    0  0.92192710333E+03  0.12323399945E+03  0.34656158865E+03  0.99259313781E+03  0.50400001928E-02 0. -1.
       -1    1    3    3    0  502 -0.92192710333E+03 -0.12323399945E+03  0.13580476708E+03  0.93998890273E+03  0.50400001928E-02 0.  1.
</event>
<event>
 5   0  0.1239615E-04  0.1832463E+04  0.7818609E-02  0.8689224E-01
       -1   -1    0    0    0  501  0.00000000000E+00  0.00000000000E+00  0.89062574658E+03  0.89062574659E+03  0.50400001928E-02 0. -1.
        1   -1    0    0  501    0  0.00000000000E+00  0.00000000000E+00 -0.94257370233E+03  0.94257370235E+03  0.50400001928E-02 0.  1.
    10030    2    1    2    0    0  0.00000000000E+00  0.00000000000E+00 -0.51947955753E+02  0.18331994489E+04  0.18324632682E+04 0.  0.
        3    1    3    3  502    0  0.22869917683E+03 -0.37564311478E+03 -0.83008127602E+03  0.93938596869E+03  0.10100000352E+00 0.  1.
       -3    1    3    3    0  502 -0.22869917683E+03  0.37564311478E+03  0.77813332027E+03  0.89381348025E+03  0.10100000352E+00 0. -1.
</event>
<event>
 5   0  0.1277709E-04  0.1839463E+04  0.7818609E-02  0.8685590E-01
       -1   -1    0    0    0  501  0.00000000000E+00  0.00000000000E+00  0.12298552949E+04  0.12298552949E+04  0.50400001928E-02 0. -1.
        1   -1    0    0  501    0  0.00000000000E+00  0.00000000000E+00 -0.68780976048E+03  0.68780976050E+03  0.50400001928E-02 0.  1.
    10030    2    1    2    0    0  0.00000000000E+00  0.00000000000E+00  0.54204553440E+03  0.19176650554E+04  0.18394634825E+04 0.  0.
        4    1    3    3  502    0 -0.64237930450E+03  0.11271782408E+03  0.94708950326E+03  0.11499289625E+04  0.12699999809E+01 0. -1.
       -4    1    3    3    0  502  0.64237930450E+03 -0.11271782408E+03 -0.40504396886E+03  0.76773609289E+03  0.12699999809E+01 0.  1.
</event>
<event>
 5   0  0.1277709E-04  0.1918592E+04  0.7818609E-02  0.8645657E-01
       -1   -1    0    0    0  501  0.00000000000E+00  0.00000000000E+00  0.57840334996E+03  0.57840334998E+03  0.50400001928E-02 0. -1.
        1   -1    0    0  501    0  0.00000000000E+00  0.00000000000E+00 -0.15910158290E+04  0.15910158290E+04  0.50400001928E-02 0.  1.
    10030    2    1    2    0    0  0.00000000000E+00  0.00000000000E+00 -0.10126124791E+04  0.21694191790E+04  0.19185920727E+04 0.  0.
        4    1    3    3  502    0 -0.64257769660E+03  0.70991242166E+03 -0.57190378001E+03  0.11153283324E+04  0.12699999809E+01 0. -1.
       -4    1    3    3    0  502  0.64257769660E+03 -0.70991242166E+03 -0.44070869906E+03  0.10540908466E+04  0.12699999809E+01 0.  1.
</event>
<event>
 5   0  0.1277709E-04  0.1898552E+04  0.7818609E-02  0.8655578E-01
        1   -1    0    0  501    0  0.00000000000E+00  0.00000000000E+00  0.17576529241E+04  0.17576529242E+04  0.50400001928E-02 0. -1.
       -1   -1    0    0    0  501  0.00000000000E+00  0.00000000000E+00 -0.51268624755E+03  0.51268624758E+03  0.50400001928E-02 0.  1.
    10030    2    1    2    0    0  0.00000000000E+00  0.00000000000E+00  0.12449666766E+04  0.22703391717E+04  0.18985515344E+04 0.  0.
        4    1    3    3  502    0 -0.60202541781E+03 -0.48614626183E+03  0.12800251812E+04  0.14957402412E+04  0.12699999809E+01 0. -1.
       -4    1    3    3    0  502  0.60202541781E+03  0.48614626183E+03 -0.35058504639E+02  0.77459893056E+03  0.12699999809E+01 0.  1.
</event>
<event>
 5   0  0.1239615E-04  0.1909514E+04  0.7818609E-02  0.8650135E-01
        1   -1    0    0  501    0  0.00000000000E+00  0.00000000000E+00  0.84951310255E+03  0.84951310257E+03  0.50400001928E-02 0.  1.
       -1   -1    0    0    0  501  0.00000000000E+00  0.00000000000E+00 -0.10730389554E+04  0.10730389555E+04  0.50400001928E-02 0. -1.
    10030    2    1    2    0    0  0.00000000000E+00  0.00000000000E+00 -0.22352585289E+03  0.19225520580E+04  0.19095137101E+04 0.  0.
        3    1    3    3  502    0 -0.46971241972E+03  0.83099718762E+03 -0.92277253192E+02  0.95901052379E+03  0.10100000352E+00 0. -1.
       -3    1    3    3    0  502  0.46971241972E+03 -0.83099718762E+03 -0.13124859970E+03  0.96354153424E+03  0.10100000352E+00 0.  1.
</event>
<event>
 5   0  0.2541124E-04  0.1963400E+04  0.7818609E-02  0.8623926E-01
       -2   -1    0    0    0  501  0.00000000000E+00  0.00000000000E+00  0.48523561772E+03  0.48523561773E+03  0.25500000920E-02 0. -1.
        2   -1    0    0  501    0  0.00000000000E+00  0.00000000000E+00 -0.19861163644E+04  0.19861163644E+04  0.25500000920E-02 0.  1.
    10030    2    1    2    0    0  0.00000000000E+00  0.00000000000E+00 -0.15008807467E+04  0.24713519822E+04  0.19633995019E+04 0.  0.
        5    1    3    3  502    0  0.32899502151E+03  0.28684196781E+03  0.35636383936E+03  0.56350094470E+03  0.46999998093E+01 0. -1.
       -5    1    3    3    0  502 -0.32899502151E+03 -0.28684196781E+03 -0.18572445861E+04  0.19078510375E+04  0.46999998093E+01 0.  1.
</event>
<event>
 5   0  0.2608744E-04  0.1903637E+04  0.7818609E-02  0.8653048E-01
       -2   -1    0    0    0  501  0.00000000000E+00  0.00000000000E+00  0.17916534654E+04  0.17916534654E+04  0.25500000920E-02 0. -1.
        2   -1    0    0  501    0  0.00000000000E+00  0.00000000000E+00 -0.50565490761E+03  0.50565490761E+03  0.25500000920E-02 0.  1.
    10030    2    1    2    0    0  0.00000000000E+00  0.00000000000E+00  0.12859985578E+04  0.22973083730E+04  0.19036369061E+04 0.  0.
        2    1    3    3  502    0 -0.11636283764E+03  0.31277392633E+03 -0.43273961618E+03  0.54647178737E+03  0.25500000920E-02 0.  1.
       -2    1    3    3    0  502  0.11636283764E+03 -0.31277392633E+03  0.17187381740E+04  0.17508365856E+04  0.25500000920E-02 0. -1.
</event>
<event>
 5   0  0.1255141E-04  0.1858667E+04  0.7818609E-02  0.8675708E-01
        1   -1    0    0  501    0  0.00000000000E+00  0.00000000000E+00  0.69693774330E+03  0.69693774332E+03  0.50400001928E-02 0.  1.
       -1   -1    0    0    0  501  0.00000000000E+00  0.00000000000E+00 -0.12392228170E+04  0.12392228170E+04  0.50400001928E-02 0. -1.
    10030    2    1    2    0    0  0.00000000000E+00  0.00000000000E+00 -0.54228507374E+03  0.19361605604E+04  0.18586674297E+04 0.  0.
        2    1    3    3  502    0  0.75673917181E+03 -0.53927862314E+03 -0.25695308798E+03  0.96410606105E+03  0.25500000920E-02 0. -1.
       -2    1    3    3    0  502 -0.75673917181E+03  0.53927862314E+03 -0.28533198575E+03  0.97205449931E+03  0.25500000920E-02 0.  1.
</event>
<event>
 5   0  0.1317527E-04  0.1885415E+04  0.7818609E-02  0.8662150E-01
       -1   -1    0    0    0  501  0.00000000000E+00  0.00000000000E+00  0.80957155722E+03  0.80957155724E+03  0.50400001928E-02 0.  1.
        1   -1    0    0  501    0  0.00000000000E+00  0.00000000000E+00 -0.10977384937E+04  0.10977384937E+04  0.50400001928E-02 0. -1.
    10030    2    1    2    0    0  0.00000000000E+00  0.00000000000E+00 -0.28816693649E+03  0.19073100510E+04  0.18854154575E+04 0.  0.
        1    1    3    3  502    0 -0.73365057412E+01 -0.30515882683E+03 -0.10463614641E+04  0.10899761683E+04  0.50400001928E-02 0. -1.
       -1    1    3    3    0  502  0.73365057412E+01  0.30515882683E+03  0.75819452764E+03  0.81733388262E+03  0.50400001928E-02 0.  1.
</event>
<event>
 5   0  0.1239615E-04  0.1877671E+04  0.7818609E-02  0.8666052E-01
       -1   -1    0    0    0  501  0.00000000000E+00  0.00000000000E+00  0.55125544933E+03  0.55125544935E+03  0.50400001928E-02 0.  1.
        1   -1    0    0  501    0  0.00000000000E+00  0.00000000000E+00 -0.15989172732E+04  0.15989172732E+04  0.50400001928E-02 0. -1.
    10030    2    1    2    0    0  0.00000000000E+00  0.00000000000E+00 -0.10476618238E+04  0.21501727225E+04  0.18776707485E+04 0.  0.
        3    1    3    3  502    0 -0.73602041324E+02 -0.92058147685E+03 -0.71723322394E+03  0.11693207531E+04  0.10100000352E+00 0. -1.
       -3    1    3    3    0  502  0.73602041324E+02  0.92058147685E+03 -0.33042859990E+03  0.98085196939E+03  0.10100000352E+00 0.  1.
</event>
<event>
 5   0  0.1317527E-04  0.1863185E+04  0.7818609E-02  0.8673402E-01
       -1   -1    0    0    0  501  0.00000000000E+00  0.00000000000E+00  0.65646447969E+03  0.65646447971E+03  0.50400001928E-02 0.  1.
        1   -1    0    0  501    0  0.00000000000E+00  0.00000000000E+00 -0.13220287719E+04  0.13220287719E+04  0.50400001928E-02 0. -1.
    10030    2    1    2    0    0  0.00000000000E+00  0.00000000000E+00 -0.66556429221E+03  0.19784932516E+04  0.18631853691E+04 0.  0.
        1    1    3    3  502    0 -0.10337144038E+03 -0.39495357196E+02  0.64946057141E+03  0.65882059149E+03  0.50400001928E-02 0.  1.
       -1    1    3    3    0  502  0.10337144038E+03  0.39495357196E+02 -0.13150248636E+04  0.13196726601E+04  0.50400001928E-02 0. -1.
</event>
<event>
 5   0  0.1277709E-04  0.1886436E+04  0.7818609E-02  0.8661638E-01
        1   -1    0    0  501    0  0.00000000000E+00  0.00000000000E+00  0.10279088653E+04  0.10279088653E+04  0.50400001928E-02 0.  1.
       -1   -1    0    0    0  501  0.00000000000E+00  0.00000000000E+00 -0.86550494224E+03  0.86550494226E+03  0.50400001928E-02 0. -1.
    10030    2    1    2    0    0  0.00000000000E+00  0.00000000000E+00  0.16240392306E+03  0.18934138076E+04  0.18864360081E+04 0.  0.
        4    1    3    3  502    0 -0.37635769562E+03  0.52151792920E+03 -0.61130122417E+03  0.88730877664E+03  0.12699999809E+01 0. -1.
       -4    1    3    3    0  502  0.37635769562E+03 -0.52151792920E+03  0.77370514722E+03  0.10061050309E+04  0.12699999809E+01 0.  1.
</event>
<event>
 5   0  0.1277709E-04  0.1903465E+04  0.7818609E-02  0.8653134E-01
       -1   -1    0    0    0  501  0.00000000000E+00  0.00000000000E+00  0.65857937937E+03  0.65857937939E+03  0.50400001928E-02 0.  1.
        1   -1    0    0  501    0  0.00000000000E+00  0.00000000000E+00 -0.13753763332E+04  0.13753763332E+04  0.50400001928E-02 0. -1.
    10030    2    1    2    0    0  0.00000000000E+00  0.00000000000E+00 -0.71679695380E+03  0.20339557126E+04  0.19034647272E+04 0.  0.
        4    1    3    3  502    0  0.94190550219E+03  0.77365929390E+02 -0.23835164154E+03  0.97467152416E+03  0.12699999809E+01 0.  1.
       -4    1    3    3    0  502 -0.94190550219E+03 -0.77365929390E+02 -0.47844531226E+03  0.10592841884E+04  0.12699999809E+01 0. -1.
</event>
<event>
 5   0  0.1239615E-04  0.1668778E+04  0.7818609E-02  0.8779375E-01
        1   -1    0    0  501    0  0.00000000000E+00  0.00000000000E+00  0.71434004071E+03  0.71434004073E+03  0.50400001928E-02 0.  1.
       -1   -1    0    0    0  501  0.00000000000E+00  0.00000000000E+00 -0.97461252377E+03  0.97461252378E+03  0.50400001928E-02 0. -1.
    10030    2    1    2    0    0  0.00000000000E+00  0.00000000000E+00 -0.26027248306E+03  0.16889525645E+04  0.16687776963E+04 0.  0.
        3    1    3    3  502    0  0.19766957257E+03  0.59614246561E+03  0.42581853743E+03  0.75880204022E+03  0.10100000352E+00 0.  1.
       -3    1    3    3    0  502 -0.19766957257E+03 -0.59614246561E+03 -0.68609102049E+03  0.93015052429E+03  0.10100000352E+00 0. -1.
</event>
<event>
 5   0  0.2608744E-04  0.1919766E+04  0.7818609E-02  0.8645080E-01
       -2   -1    0    0    0  501  0.00000000000E+00  0.00000000000E+00  0.80544250726E+03  0.80544250726E+03  0.25500000920E-02 0. -1.
        2   -1    0    0  501    0  0.00000000000E+00  0.00000000000E+00 -0.11439364940E+04  0.11439364940E+04  0.25500000920E-02 0.  1.
    10030    2    1    2    0    0  0.00000000000E+00  0.00000000000E+00 -0.33849398675E+03  0.19493790013E+04  0.19197656918E+04 0.  0.
        2    1    3    3  502    0  0.26854735175E+03 -0.58749548367E+03 -0.89020370043E+03  0.10998778349E+04  0.25500000920E-02 0.  1.
       -2    1    3    3    0  502 -0.26854735175E+03  0.58749548367E+03  0.55170971369E+03  0.84950116636E+03  0.25500000920E-02 0. -1.
</event>
<event>
 5   0  0.9266125E-05  0.1657937E+04  0.7818609E-02  0.8785725E-01
        3   -1    0    0  501    0  0.00000000000E+00  0.00000000000E+00  0.55292658612E+03  0.55292659535E+03  0.10100000352E+00 0.  1.
       -3   -1    0    0    0  501  0.00000000000E+00  0.00000000000E+00 -0.12428216622E+04  0.12428216663E+04  0.10100000352E+00 0. -1.
    10030    2    1    2    0    0  0.00000000000E+00  0.00000000000E+00 -0.68989507611E+03  0.17957482617E+04  0.16579374546E+04 0.  0.
        4    1    3    3  502    0 -0.82587913493E+03 -0.68208700923E+02 -0.32174835452E+03  0.88896141026E+03  0.12699999809E+01 0.  1.
       -4    1    3    3    0  502  0.82587913493E+03  0.68208700923E+02 -0.36814672160E+03  0.90678685143E+03  0.12699999809E+01 0. -1.
</event>
<event>
 5   0  0.2595012E-04  0.1892555E+04  0.7818609E-02  0.8658571E-01
       -2   -1    0    0    0  501  0.00000000000E+00  0.00000000000E+00  0.40100727495E+03  0.40100727495E+03  0.25500000920E-02 0. -1.
        2   -1    0    0  501    0  0.00000000000E+00  0.00000000000E+00 -0.22329793939E+04  0.22329793939E+04  0.25500000920E-02 0.  1.
    10030    2    1    2    0    0  0.00000000000E+00  0.00000000000E+00 -0.18319721189E+04  0.26339866688E+04  0.18925548676E+04 0.  0.
        1    1    3    3  502    0 -0.28277565576E+03  0.39852800865E+03  0.21181760614E+03  0.53259115977E+03  0.50400001928E-02 0. -1.
       -1    1    3    3    0  502  0.28277565576E+03 -0.39852800865E+03 -0.20437897251E+04  0.21013955091E+04  0.50400001928E-02 0.  1.
</event>
<event>
 5   0  0.1239615E-04  0.1874954E+04  0.7818609E-02  0.8667425E-01
        1   -1    0    0  501    0  0.00000000000E+00  0.00000000000E+00  0.79360432391E+03  0.79360432393E+03  0.50400001928E-02 0.  1.
       -1   -1    0    0    0  501  0.00000000000E+00  0.00000000000E+00 -0.11074318558E+04  0.11074318558E+04  0.50400001928E-02 0. -1.
    10030    2    1    2    0    0  0.00000000000E+00  0.00000000000E+00 -0.31382753185E+03  0.19010361797E+04  0.18749535559E+04 0.  0.
        3    1    3    3  502    0  0.19094897310E+03 -0.41896844605E+03 -0.98489283997E+03  0.10872028263E+04  0.10100000352E+00 0. -1.
       -3    1    3    3    0  502 -0.19094897310E+03  0.41896844605E+03  0.67106530812E+03  0.81383335338E+03  0.10100000352E+00 0.  1.
</event>
<event>
 5   0  0.2595012E-04  0.1893138E+04  0.7818609E-02  0.8658280E-01
       -2   -1    0    0    0  501  0.00000000000E+00  0.00000000000E+00  0.33972546553E+03  0.33972546554E+03  0.25500000920E-02 0.  1.
        2   -1    0    0  501    0  0.00000000000E+00  0.00000000000E+00 -0.26374030531E+04  0.26374030531E+04  0.25500000920E-02 0. -1.
    10030    2    1    2    0    0  0.00000000000E+00  0.00000000000E+00 -0.22976775876E+04  0.29771285187E+04  0.18931381144E+04 0.  0.
        1    1    3    3  502    0  0.46406404122E+03 -0.32595792859E+03  0.43002233415E+02  0.56872945912E+03  0.50400001928E-02 0.  1.
       -1    1    3    3    0  502 -0.46406404122E+03  0.32595792859E+03 -0.23406798210E+04  0.24083990595E+04  0.50400001928E-02 0. -1.
</event>
<event>
 5   0  0.1317527E-04  0.1914695E+04  0.7818609E-02  0.8647576E-01
        1   -1    0    0  501    0  0.00000000000E+00  0.00000000000E+00  0.99768536453E+03  0.99768536454E+03  0.50400001928E-02 0. -1.
       -1   -1    0    0    0  501  0.00000000000E+00  0.00000000000E+00 -0.91864081540E+03  0.91864081542E+03  0.50400001928E-02 0.  1.
    10030    2    1    2    0    0  0.00000000000E+00  0.00000000000E+00  0.79044549123E+02  0.19163261800E+04  0.19146952727E+04 0.  0.
        1    1    3    3  502    0  0.28383467971E+03 -0.10534482035E+03  0.94851107283E+03  0.99565702523E+03  0.50400001928E-02 0. -1.
       -1    1    3    3    0  502 -0.28383467971E+03  0.10534482035E+03 -0.86946652371E+03  0.92066915472E+03  0.50400001928E-02 0.  1.
</event>
<event>
 5   0  0.2541124E-04  0.1986050E+04  0.7818609E-02  0.8613171E-01
        2   -1    0    0  501    0  0.00000000000E+00  0.00000000000E+00  0.13157911016E+04  0.13157911016E+04  0.25500000920E-02 0.  1.
       -2   -1    0    0    0  501  0.00000000000E+00  0.00000000000E+00 -0.74943387311E+03  0.74943387312E+03  0.25500000920E-02 0. -1.
    10030    2    1    2    0    0  0.00000000000E+00  0.00000000000E+00  0.56635722853E+03  0.20652249748E+04  0.19860497693E+04 0.  0.
        5    1    3    3  502    0  0.42080358694E+03 -0.14992277772E+03  0.12053957434E+04  0.12855168168E+04  0.46999998093E+01 0.  1.
       -5    1    3    3    0  502 -0.42080358694E+03  0.14992277772E+03 -0.63903851489E+03  0.77970815795E+03  0.46999998093E+01 0. -1.
</event>
<event>
 5   0  0.1255141E-04  0.1983674E+04  0.7818609E-02  0.8614292E-01
       -1   -1    0    0    0  501  0.00000000000E+00  0.00000000000E+00  0.69253225456E+03  0.69253225458E+03  0.50400001928E-02 0. -1.
        1   -1    0    0  501    0  0.00000000000E+00  0.00000000000E+00 -0.14204977446E+04  0.14204977446E+04  0.50400001928E-02 0.  1.
    10030    2    1    2    0    0  0.00000000000E+00  0.00000000000E+00 -0.72796549007E+03  0.21130299992E+04  0.19836738701E+04 0.  0.
        2    1    3    3  502    0  0.20676100295E+03 -0.57127584983E+03  0.47112744970E+03  0.76880900282E+03  0.25500000920E-02 0. -1.
       -2    1    3    3    0  502 -0.20676100295E+03  0.57127584983E+03 -0.11990929398E+04  0.13442209964E+04  0.25500000920E-02 0.  1.
</event>
<event>
 5   0  0.2651828E-04  0.1747011E+04  0.7818609E-02  0.8734997E-01
       -2   -1    0    0    0  501  0.00000000000E+00  0.00000000000E+00  0.38688383448E+03  0.38688383449E+03  0.25500000920E-02 0.  1.
        2   -1    0    0  501    0  0.00000000000E+00  0.00000000000E+00 -0.19721990308E+04  0.19721990308E+04  0.25500000920E-02 0. -1.
    10030    2    1    2    0    0  0.00000000000E+00  0.00000000000E+00 -0.15853151963E+04  0.23590828653E+04  0.17470110743E+04 0.  0.
        3    1    3    3  502    0  0.74523852073E+02 -0.82465421610E+03 -0.41696907427E+03  0.92707691146E+03  0.10100000352E+00 0.  1.
       -3    1    3    3    0  502 -0.74523852073E+02  0.82465421610E+03 -0.11683461220E+04  0.14320059538E+04  0.10100000352E+00 0. -1.
</event>
<event>
 5   0  0.2608744E-04  0.1890354E+04  0.7818609E-02  0.8659673E-01
       -2   -1    0    0    0  501  0.00000000000E+00  0.00000000000E+00  0.39599244640E+03  0.39599244641E+03  0.25500000920E-02 0. -1.
        2   -1    0    0  501    0  0.00000000000E+00  0.00000000000E+00 -0.22560024553E+04  0.22560024553E+04  0.25500000920E-02 0.  1.
    10030    2    1    2    0    0  0.00000000000E+00  0.00000000000E+00 -0.18600100089E+04  0.26519949017E+04  0.18903543915E+04 0.  0.
        2    1    3    3  502    0  0.45223795423E+03  0.21401545197E+03  0.19498282505E+03  0.53697307474E+03  0.25500000920E-02 0. -1.
       -2    1    3    3    0  502 -0.45223795423E+03 -0.21401545197E+03 -0.20549928340E+04  0.21150218270E+04  0.25500000920E-02 0.  1.
</event>
<event>
 5   0  0.1255141E-04  0.1918937E+04  0.7818609E-02  0.8645487E-01
       -1   -1    0    0    0  501  0.00000000000E+00  0.00000000000E+00  0.40605043418E+03  0.40605043421E+03  0.50400001928E-02 0.  1.
        1   -1    0    0  501    0  0.00000000000E+00  0.00000000000E+00 -0.22671556887E+04  0.22671556887E+04  0.50400001928E-02 0. -1.
    10030    2    1    2    0    0  0.00000000000E+00  0.00000000000E+00 -0.18611052546E+04  0.26732061230E+04  0.19189367387E+04 0.  0.
        2    1    3    3  502    0  0.22951713087E+02  0.15579025735E+03 -0.22490309551E+04  0.22545371194E+04  0.25500000920E-02 0. -1.
       -2    1    3    3    0  502 -0.22951713087E+02 -0.15579025735E+03  0.38792570056E+03  0.41866900361E+03  0.25500000920E-02 0.  1.
</event>
<event>
 5   0  0.2541124E-04  0.1825251E+04  0.7818609E-02  0.8692985E-01
        2   -1    0    0  501    0  0.00000000000E+00  0.00000000000E+00  0.50570041170E+03  0.50570041170E+03  0.25500000920E-02 0.  1.
       -2   -1    0    0    0  501  0.00000000000E+00  0.00000000000E+00 -0.16469930786E+04  0.16469930786E+04  0.25500000920E-02 0. -1.
    10030    2    1    2    0    0  0.00000000000E+00  0.00000000000E+00 -0.11412926669E+04  0.21526934903E+04  0.18252507531E+04 0.  0.
        5    1    3    3  502    0  0.53592430138E+03 -0.41792260838E+03  0.14771024775E+03  0.69549591709E+03  0.46999998093E+01 0.  1.
       -5    1    3    3    0  502 -0.53592430138E+03  0.41792260838E+03 -0.12890029146E+04  0.14571975732E+04  0.46999998093E+01 0. -1.
</event>
<event>
 5   0  0.2541124E-04  0.1913257E+04  0.7818609E-02  0.8648286E-01
       -2   -1    0    0    0  501  0.00000000000E+00  0.00000000000E+00  0.80729875990E+03  0.80729875990E+03  0.25500000920E-02 0.  1.
        2   -1    0    0  501    0  0.00000000000E+00  0.00000000000E+00 -0.11335804672E+04  0.11335804672E+04  0.25500000920E-02 0. -1.
    10030    2    1    2    0    0  0.00000000000E+00  0.00000000000E+00 -0.32628170726E+03  0.19408792271E+04  0.19132570192E+04 0.  0.
        5    1    3    3  502    0  0.32262204105E+03  0.61393364851E+03  0.50524669009E+03  0.85807681123E+03  0.46999998093E+01 0.  1.
       -5    1    3    3    0  502 -0.32262204105E+03 -0.61393364851E+03 -0.83152839735E+03  0.10828024158E+04  0.46999998093E+01 0. -1.
</event>
<event>
 5   0  0.2651828E-04  0.1893621E+04  0.7818609E-02  0.8658038E-01
       -2   -1    0    0    0  501  0.00000000000E+00  0.00000000000E+00  0.91950620071E+03  0.91950620071E+03  0.25500000920E-02 0. -1.
        2   -1    0    0  501    0  0.00000000000E+00  0.00000000000E+00 -0.97492573053E+03  0.97492573053E+03  0.25500000920E-02 0.  1.
    10030    2    1    2    0    0  0.00000000000E+00  0.00000000000E+00 -0.55419529822E+02  0.18944319312E+04  0.18936211389E+04 0.  0.
        3    1    3    3  502    0  0.29099091015E+03  0.46256166980E+03  0.74580382625E+03  0.92458767330E+03  0.10100000352E+00 0. -1.
       -3    1    3    3    0  502 -0.29099091015E+03 -0.46256166980E+03 -0.80122335607E+03  0.96984425795E+03  0.10100000352E+00 0.  1.
</event>
<event>
 5   0  0.2595012E-04  0.2029967E+04  0.7818609E-02  0.8592737E-01
        2   -1    0    0  501    0  0.00000000000E+00  0.00000000000E+00  0.91098236168E+03  0.91098236168E+03  0.25500000920E-02 0. -1.
       -2   -1    0    0    0  501  0.00000000000E+00  0.00000000000E+00 -0.11308575679E+04  0.11308575679E+04  0.25500000920E-02 0.  1.
    10030    2    1    2    0    0  0.00000000000E+00  0.00000000000E+00 -0.21987520619E+03  0.20418399296E+04  0.20299667957E+04 0.  0.
        1    1    3    3  502    0  0.93357808033E+03  0.39708043842E+03 -0.78928873899E+02  0.10175807947E+04  0.50400001928E-02 0. -1.
       -1    1    3    3    0  502 -0.93357808033E+03 -0.39708043842E+03 -0.14094633229E+03  0.10242591348E+04  0.50400001928E-02 0.  1.
</event>
<event>
 5   0  0.1324058E-04  0.2268009E+04  0.7818609E-02  0.8490643E-01
       -1   -1    0    0    0  501  0.00000000000E+00  0.00000000000E+00  0.11731805540E+04  0.11731805540E+04  0.50400001928E-02 0. -1.
        1   -1    0    0  501    0  0.00000000000E+00  0.00000000000E+00 -0.10961367038E+04  0.10961367038E+04  0.50400001928E-02 0.  1.
    10030    2    1    2    0    0  0.00000000000E+00  0.00000000000E+00  0.77043850192E+02  0.22693172578E+04  0.22680090524E+04 0.  0.
        5    1    3    3  502    0  0.66646198878E+03  0.65181153392E+03 -0.60753953852E+03  0.11127246915E+04  0.46999998093E+01 0.  1.
       -5    1    3    3    0  502 -0.66646198878E+03 -0.65181153392E+03  0.68458338871E+03  0.11565925663E+04  0.46999998093E+01 0. -1.
</event>
<event>
 5   0  0.1317527E-04  0.1851828E+04  0.7818609E-02  0.8679213E-01
        1   -1    0    0  501    0  0.00000000000E+00  0.00000000000E+00  0.95400295701E+03  0.95400295702E+03  0.50400001928E-02 0. -1.
       -1   -1    0    0    0  501  0.00000000000E+00  0.00000000000E+00 -0.89865187851E+03  0.89865187852E+03  0.50400001928E-02 0.  1.
    10030    2    1    2    0    0  0.00000000000E+00  0.00000000000E+00  0.55351078499E+02  0.18526548355E+04  0.18518277992E+04 0.  0.
        1    1    3    3  502    0  0.86710378536E+03  0.30687619100E+03  0.13390477746E+03  0.92950118916E+03  0.50400001928E-02 0.  1.
       -1    1    3    3    0  502 -0.86710378536E+03 -0.30687619100E+03 -0.78553698964E+02  0.92315364639E+03  0.50400001928E-02 0. -1.
</event>
<event>
 5   0  0.2608744E-04  0.1884247E+04  0.7818609E-02  0.8662738E-01
        2   -1    0    0  501    0  0.00000000000E+00  0.00000000000E+00  0.62196487775E+03  0.62196487775E+03  0.25500000920E-02 0. -1.
       -2   -1    0    0    0  501  0.00000000000E+00  0.00000000000E+00 -0.14270845298E+04  0.14270845298E+04  0.25500000920E-02 0.  1.
    10030    2    1    2    0    0  0.00000000000E+00  0.00000000000E+00 -0.80511965208E+03  0.20490494076E+04  0.18842467515E+04 0.  0.
        2    1    3    3  502    0  0.63903835355E+03 -0.67974505259E+03 -0.26005189953E+03  0.96852999142E+03  0.25500000920E-02 0. -1.
       -2    1    3    3    0  502 -0.63903835355E+03  0.67974505259E+03 -0.54506775255E+03  0.10805194162E+04  0.25500000920E-02 0.  1.
</event>
<event>
 5   0  0.1255141E-04  0.1882130E+04  0.7818609E-02  0.8663803E-01
        1   -1    0    0  501    0  0.00000000000E+00  0.00000000000E+00  0.69155868685E+03  0.69155868687E+03  0.50400001928E-02 0.  1.
       -1   -1    0    0    0  501  0.00000000000E+00  0.00000000000E+00 -0.12805908571E+04  0.12805908571E+04  0.50400001928E-02 0. -1.
    10030    2    1    2    0    0  0.00000000000E+00  0.00000000000E+00 -0.58903217024E+03  0.19721495440E+04  0.18821304222E+04 0.  0.
        2    1    3    3  502    0  0.43649946300E+03  0.63670410957E+03 -0.85847732322E+03  0.11545160106E+04  0.25500000920E-02 0. -1.
       -2    1    3    3    0  502 -0.43649946300E+03 -0.63670410957E+03  0.26944515298E+03  0.81763353333E+03  0.25500000920E-02 0.  1.
</event>
<event>
 5   0  0.2651828E-04  0.1723083E+04  0.7818609E-02  0.8748308E-01
        2   -1    0    0  501    0  0.00000000000E+00  0.00000000000E+00  0.98973918656E+03  0.98973918656E+03  0.25500000920E-02 0.  1.
       -2   -1    0    0    0  501  0.00000000000E+00  0.00000000000E+00 -0.74994873484E+03  0.74994873484E+03  0.25500000920E-02 0. -1.
    10030    2    1    2    0    0  0.00000000000E+00  0.00000000000E+00  0.23979045172E+03  0.17396879214E+04  0.17230828776E+04 0.  0.
        3    1    3    3  502    0 -0.67644801782E+03 -0.21994265980E+03  0.61068356529E+03  0.93749193144E+03  0.10100000352E+00 0.  1.
       -3    1    3    3    0  502  0.67644801782E+03  0.21994265980E+03 -0.37089311357E+03  0.80219598996E+03  0.10100000352E+00 0. -1.
</event>
<event>
 5   0  0.2541124E-04  0.1638641E+04  0.7818609E-02  0.8797155E-01
       -2   -1    0    0    0  501  0.00000000000E+00  0.00000000000E+00  0.73132644636E+03  0.73132644637E+03  0.25500000920E-02 0.  1.
        2   -1    0    0  501    0  0.00000000000E+00  0.00000000000E+00 -0.91790230222E+03  0.91790230222E+03  0.25500000920E-02 0. -1.
    10030    2    1    2    0    0  0.00000000000E+00  0.00000000000E+00 -0.18657585586E+03  0.16492287486E+04  0.16386411795E+04 0.  0.
        5    1    3    3  502    0 -0.17483007352E+03  0.27692122819E+02 -0.89841393324E+03  0.91569759949E+03  0.46999998093E+01 0. -1.
       -5    1    3    3    0  502  0.17483007352E+03 -0.27692122819E+02  0.71183807739E+03  0.73353114909E+03  0.46999998093E+01 0.  1.
</event>
<event>
 5   0  0.1324058E-04  0.1899187E+04  0.7818609E-02  0.8655261E-01
        1   -1    0    0  501    0  0.00000000000E+00  0.00000000000E+00  0.76209281555E+03  0.76209281556E+03  0.50400001928E-02 0. -1.
       -1   -1    0    0    0  501  0.00000000000E+00  0.00000000000E+00 -0.11832262705E+04  0.11832262705E+04  0.50400001928E-02 0.  1.
    10030    2    1    2    0    0  0.00000000000E+00  0.00000000000E+00 -0.42113345494E+03  0.19453190861E+04  0.18991874472E+04 0.  0.
        5    1    3    3  502    0 -0.51862947754E+01  0.77633573354E+03  0.34950751086E+03  0.85141156850E+03  0.46999998093E+01 0. -1.
       -5    1    3    3    0  502  0.51862947754E+01 -0.77633573354E+03 -0.77064096580E+03  0.10939075176E+04  0.46999998093E+01 0.  1.
</event>
<event>
 5   0  0.1324058E-04  0.1907534E+04  0.7818609E-02  0.8651116E-01
        1   -1    0    0  501    0  0.00000000000E+00  0.00000000000E+00  0.19974823905E+04  0.19974823905E+04  0.50400001928E-02 0. -1.
       -1   -1    0    0    0  501  0.00000000000E+00  0.00000000000E+00 -0.45540878512E+03  0.45540878514E+03  0.50400001928E-02 0.  1.
    10030    2    1    2    0    0  0.00000000000E+00  0.00000000000E+00  0.15420736054E+04  0.24528911757E+04  0.19075335162E+04 0.  0.
        5    1    3    3  502    0  0.40609984673E+03 -0.85501638655E+02 -0.33320440283E+03  0.53223573705E+03  0.46999998093E+01 0.  1.
       -5    1    3    3    0  502 -0.40609984673E+03  0.85501638655E+02  0.18752780083E+04  0.19206554386E+04  0.46999998093E+01 0. -1.
</event>
<event>
 5   0  0.2595012E-04  0.1825945E+04  0.7818609E-02  0.8692623E-01
        2   -1    0    0  501    0  0.00000000000E+00  0.00000000000E+00  0.45632452079E+03  0.45632452079E+03  0.25500000920E-02 0. -1.
       -2   -1    0    0    0  501  0.00000000000E+00  0.00000000000E+00 -0.18265925344E+04  0.18265925344E+04  0.25500000920E-02 0.  1.
    10030    2    1    2    0    0  0.00000000000E+00  0.00000000000E+00 -0.13702680136E+04  0.22829170552E+04  0.18259451941E+04 0.  0.
        1    1    3    3  502    0  0.65110790837E+03  0.10500734256E+03 -0.14744379975E+04  0.16152199413E+04  0.50400001928E-02 0.  1.
       -1    1    3    3    0  502 -0.65110790837E+03 -0.10500734256E+03  0.10416998388E+03  0.66769711389E+03  0.50400001928E-02 0. -1.
</event>
<event>
 5   0  0.2562925E-04  0.1916168E+04  0.7818609E-02  0.8646850E-01
        2   -1    0    0  501    0  0.00000000000E+00  0.00000000000E+00  0.12476516781E+04  0.12476516781E+04  0.25500000920E-02 0.  1.
       -2   -1    0    0    0  501  0.00000000000E+00  0.00000000000E+00 -0.73572219472E+03  0.73572219472E+03  0.25500000920E-02 0. -1.
    10030    2    1    2    0    0  0.00000000000E+00  0.00000000000E+00  0.51192948339E+03  0.19833738728E+04  0.19161680833E+04 0.  0.
        4    1    3    3  502    0  0.95467267699E+03  0.80766629014E+02  0.25544780765E+03  0.99155351035E+03  0.12699999809E+01 0. -1.
       -4    1    3    3    0  502 -0.95467267699E+03 -0.80766629014E+02  0.25648167574E+03  0.99182036248E+03  0.12699999809E+01 0.  1.
</event>
<event>
 5   0  0.1255141E-04  0.1890176E+04  0.7818609E-02  0.8659762E-01
        1   -1    0    0  501    0  0.00000000000E+00  0.00000000000E+00  0.10500422308E+04  0.10500422308E+04  0.50400001928E-02 0.  1.
       -1   -1    0    0    0  501  0.00000000000E+00  0.00000000000E+00 -0.85062444610E+03  0.85062444611E+03  0.50400001928E-02 0. -1.
    10030    2    1    2    0    0  0.00000000000E+00  0.00000000000E+00  0.19941778474E+03  0.19006666770E+04  0.18901762786E+04 0.  0.
        2    1    3    3  502    0  0.83655973601E+03  0.20456734950E+03 -0.29169630867E+03  0.90926713836E+03  0.25500000920E-02 0. -1.
       -2    1    3    3    0  502 -0.83655973601E+03 -0.20456734950E+03  0.49111409340E+03  0.99139953860E+03  0.25500000920E-02 0.  1.
</event>
<event>
 5   0  0.1277709E-04  0.1926324E+04  0.7818609E-02  0.8641863E-01
        1   -1    0    0  501    0  0.00000000000E+00  0.00000000000E+00  0.96786052834E+03  0.96786052836E+03  0.50400001928E-02 0.  1.
       -1   -1    0    0    0  501  0.00000000000E+00  0.00000000000E+00 -0.95848620291E+03  0.95848620292E+03  0.50400001928E-02 0. -1.
    10030    2    1    2    0    0  0.00000000000E+00  0.00000000000E+00  0.93743254346E+01  0.19263467313E+04  0.19263239217E+04 0.  0.
        4    1    3    3  502    0 -0.45350872309E+03 -0.82633738608E+03 -0.19324373456E+03  0.96221015968E+03  0.12699999809E+01 0.  1.
       -4    1    3    3    0  502  0.45350872309E+03  0.82633738608E+03  0.20261806000E+03  0.96413657160E+03  0.12699999809E+01 0. -1.
</event>
<event>
 5   0  0.2541124E-04  0.1886813E+04  0.7818609E-02  0.8661448E-01
       -2   -1    0    0    0  501  0.00000000000E+00  0.00000000000E+00  0.52599359492E+03  0.52599359492E+03  0.25500000920E-02 0. -1.
        2   -1    0    0  501    0  0.00000000000E+00  0.00000000000E+00 -0.16920658060E+04  0.16920658060E+04  0.25500000920E-02 0.  1.
    10030    2    1    2    0    0  0.00000000000E+00  0.00000000000E+00 -0.11660722111E+04  0.22180594009E+04  0.18868129490E+04 0.  0.
        5    1    3    3  502    0 -0.16974132509E+02 -0.67000477260E+03  0.19744915963E+03  0.69871509009E+03  0.46999998093E+01 0. -1.
       -5    1    3    3    0  502  0.16974132509E+02  0.67000477260E+03 -0.13635213707E+04  0.15193443108E+04  0.46999998093E+01 0.  1.
</event>
<event>
 5   0  0.1317527E-04  0.1948825E+04  0.7818609E-02  0.8630927E-01
       -1   -1    0    0    0  501  0.00000000000E+00  0.00000000000E+00  0.85258996972E+03  0.85258996974E+03  0.50400001928E-02 0. -1.
        1   -1    0    0  501    0  0.00000000000E+00  0.00000000000E+00 -0.11136418716E+04  0.11136418716E+04  0.50400001928E-02 0.  1.
    10030    2    1    2    0    0  0.00000000000E+00  0.00000000000E+00 -0.26105190183E+03  0.19662318413E+04  0.19488251739E+04 0.  0.
        1    1    3    3  502    0  0.14746216400E+03  0.22426111586E+02  0.84100360861E+03  0.85412826321E+03  0.50400001928E-02 0. -1.
       -1    1    3    3    0  502 -0.14746216400E+03 -0.22426111586E+02 -0.11020555104E+04  0.11121035781E+04  0.50400001928E-02 0.  1.
</event>
<event>
 5   0  0.2541124E-04  0.1469232E+04  0.7818609E-02  0.8905175E-01
        2   -1    0    0  501    0  0.00000000000E+00  0.00000000000E+00  0.13142658182E+04  0.13142658182E+04  0.25500000920E-02 0.  1.
       -2   -1    0    0    0  501  0.00000000000E+00  0.00000000000E+00 -0.41061737592E+03  0.41061737593E+03  0.25500000920E-02 0. -1.
    10030    2    1    2    0    0  0.00000000000E+00  0.00000000000E+00  0.90364844227E+03  0.17248831941E+04  0.14692316108E+04 0.  0.
        5    1    3    3  502    0 -0.39755509275E+03 -0.58043852953E+03  0.69997912727E+03  0.99244738246E+03  0.46999998093E+01 0.  1.
       -5    1    3    3    0  502  0.39755509275E+03  0.58043852953E+03  0.20366931501E+03  0.73243581167E+03  0.46999998093E+01 0. -1.
</event>
<event>
 5   0  0.1255141E-04  0.1878410E+04  0.7818609E-02  0.8665678E-01
        1   -1    0    0  501    0  0.00000000000E+00  0.00000000000E+00  0.14911260082E+04  0.14911260082E+04  0.50400001928E-02 0. -1.
       -1   -1    0    0    0  501  0.00000000000E+00  0.00000000000E+00 -0.59157034350E+03  0.59157034352E+03  0.50400001928E-02 0.  1.
    10030    2    1    2    0    0  0.00000000000E+00  0.00000000000E+00  0.89955566473E+03  0.20826963518E+04  0.18784098860E+04 0.  0.
        2    1    3    3  502    0  0.22138654063E+03 -0.90685397935E+03  0.33503489567E+03  0.99178854680E+03  0.25500000920E-02 0.  1.
       -2    1    3    3    0  502 -0.22138654063E+03  0.90685397935E+03  0.56452076906E+03  0.10909078050E+04  0.25500000920E-02 0. -1.
</event>
<event>
 5   0  0.2595012E-04  0.1898744E+04  0.7818609E-02  0.8655482E-01
       -2   -1    0    0    0  501  0.00000000000E+00  0.00000000000E+00  0.68323567817E+03  0.68323567817E+03  0.25500000920E-02 0. -1.
        2   -1    0    0  501    0  0.00000000000E+00  0.00000000000E+00 -0.13191750475E+04  0.13191750475E+04  0.25500000920E-02 0.  1.
    10030    2    1    2    0    0  0.00000000000E+00  0.00000000000E+00 -0.63593936930E+03  0.20024107256E+04  0.18987442779E+04 0.  0.
        1    1    3    3  502    0  0.90720154151E+03  0.16656290191E+03 -0.80861996306E+02  0.92590307251E+03  0.50400001928E-02 0. -1.
       -1    1    3    3    0  502 -0.90720154151E+03 -0.16656290191E+03 -0.55507737300E+03  0.10765076531E+04  0.50400001928E-02 0.  1.
</event>
<event>
 5   0  0.2608744E-04  0.1893263E+04  0.7818609E-02  0.8658217E-01
       -2   -1    0    0    0  501  0.00000000000E+00  0.00000000000E+00  0.49910584561E+03  0.49910584561E+03  0.25500000920E-02 0. -1.
        2   -1    0    0  501    0  0.00000000000E+00  0.00000000000E+00 -0.17954325148E+04  0.17954325148E+04  0.25500000920E-02 0.  1.
    10030    2    1    2    0    0  0.00000000000E+00  0.00000000000E+00 -0.12963266692E+04  0.22945383604E+04  0.18932626479E+04 0.  0.
        2    1    3    3  502    0 -0.65122679937E+03  0.13597326360E+03 -0.14643423989E+04  0.16083792257E+04  0.25500000920E-02 0.  1.
       -2    1    3    3    0  502  0.65122679937E+03 -0.13597326360E+03  0.16801572970E+03  0.68615913465E+03  0.25500000920E-02 0. -1.
</event>
<event>
 5   0  0.9266125E-05  0.1892780E+04  0.7818609E-02  0.8658459E-01
       -3   -1    0    0    0  501  0.00000000000E+00  0.00000000000E+00  0.12473015138E+04  0.12473015179E+04  0.10100000352E+00 0.  1.
        3   -1    0    0  501    0  0.00000000000E+00  0.00000000000E+00 -0.71807349823E+03  0.71807350533E+03  0.10100000352E+00 0. -1.
    10030    2    1    2    0    0  0.00000000000E+00  0.00000000000E+00  0.52922801560E+03  0.19653750232E+04  0.18927801482E+04 0.  0.
        5    1    3    3  502    0 -0.20910242930E+03 -0.41542999764E+03  0.11204379541E+04  0.12131402260E+04  0.46999998093E+01 0.  1.
       -5    1    3    3    0  502  0.20910242930E+03  0.41542999764E+03 -0.59120993849E+03  0.75223479728E+03  0.46999998093E+01 0. -1.
</event>
<event>
 5   0  0.1277709E-04  0.1650023E+04  0.7818609E-02  0.8790393E-01
        1   -1    0    0  501    0  0.00000000000E+00  0.00000000000E+00  0.74899716048E+03  0.74899716050E+03  0.50400001928E-02 0. -1.
       -1   -1    0    0    0  501  0.00000000000E+00  0.00000000000E+00 -0.90874055146E+03  0.90874055147E+03  0.50400001928E-02 0.  1.
    10030    2    1    2    0    0  0.00000000000E+00  0.00000000000E+00 -0.15974339098E+03  0.16577377120E+04  0.16500231425E+04 0.  0.
        4    1    3    3  502    0 -0.76979850560E+03 -0.23150063811E+03 -0.26637419126E+03  0.84684066231E+03  0.12699999809E+01 0.  1.
       -4    1    3    3    0  502  0.76979850560E+03  0.23150063811E+03  0.10663080028E+03  0.81089704966E+03  0.12699999809E+01 0. -1.
</event>
<event>
 5   0  0.2562925E-04  0.1907834E+04  0.7818609E-02  0.8650967E-01
        2   -1    0    0  501    0  0.00000000000E+00  0.00000000000E+00  0.11707362902E+04  0.11707362902E+04  0.25500000920E-02 0.  1.
       -2   -1    0    0    0  501  0.00000000000E+00  0.00000000000E+00 -0.77725270362E+03  0.77725270363E+03  0.25500000920E-02 0. -1.
    10030    2    1    2    0    0  0.00000000000E+00  0.00000000000E+00  0.39348358656E+03  0.19479889938E+04  0.19078343186E+04 0.  0.
        4    1    3    3  502    0  0.45921824381E+02 -0.30562046423E+03 -0.72471794321E+03  0.78786445041E+03  0.12699999809E+01 0. -1.
       -4    1    3    3    0  502 -0.45921824381E+02  0.30562046423E+03  0.11182015298E+04  0.11601245434E+04  0.12699999809E+01 0.  1.
</event>
<event>
 5   0  0.2541124E-04  0.1844899E+04  0.7818609E-02  0.8682780E-01
        2   -1    0    0  501    0  0.00000000000E+00  0.00000000000E+00  0.20707193145E+04  0.20707193145E+04  0.25500000920E-02 0.  1.
       -2   -1    0    0    0  501  0.00000000000E+00  0.00000000000E+00 -0.41092648500E+03  0.41092648501E+03  0.25500000920E-02 0. -1.
    10030    2    1    2    0    0  0.00000000000E+00  0.00000000000E+00  0.16597928295E+04  0.24816457995E+04  0.18448993570E+04 0.  0.
        5    1    3    3  502    0  0.51658050747E+03 -0.60436509018E+03  0.20072400342E+03  0.82001512088E+03  0.46999998093E+01 0. -1.
       -5    1    3    3    0  502 -0.51658050747E+03  0.60436509018E+03  0.14590688260E+04  0.16616306786E+04  0.46999998093E+01 0.  1.
</event>
<event>
 5   0  0.1317527E-04  0.1884416E+04  0.7818609E-02  0.8662653E-01
        1   -1    0    0  501    0  0.00000000000E+00  0.00000000000E+00  0.16045219546E+04  0.16045219546E+04  0.50400001928E-02 0.  1.
       -1   -1    0    0    0  501  0.00000000000E+00  0.00000000000E+00 -0.55328347689E+03  0.55328347691E+03  0.50400001928E-02 0. -1.
    10030    2    1    2    0    0  0.00000000000E+00  0.00000000000E+00  0.10512384777E+04  0.21578054315E+04  0.18844155442E+04 0.  0.
        1    1    3    3  502    0 -0.48203032293E+03 -0.53489985960E+03 -0.17023148149E+03  0.73989853990E+03  0.50400001928E-02 0. -1.
       -1    1    3    3    0  502  0.48203032293E+03  0.53489985960E+03  0.12214699592E+04  0.14179068916E+04  0.50400001928E-02 0.  1.
</event>
<event>
 5   0  0.2562925E-04  0.1852610E+04  0.7818609E-02  0.8678812E-01
       -2   -1    0    0    0  501  0.00000000000E+00  0.00000000000E+00  0.42461900812E+03  0.42461900812E+03  0.25500000920E-02 0.  1.
        2   -1    0    0  501    0  0.00000000000E+00  0.00000000000E+00 -0.20207308670E+04  0.20207308670E+04  0.25500000920E-02 0. -1.
    10030    2    1    2    0    0  0.00000000000E+00  0.00000000000E+00 -0.15961118589E+04  0.24453498751E+04  0.18526097662E+04 0.  0.
        4    1    3    3  502    0  0.38060496733E+03  0.57547252550E+02 -0.19101605391E+04  0.19485601672E+04  0.12699999809E+01 0. -1.
       -4    1    3    3    0  502 -0.38060496733E+03 -0.57547252550E+02  0.31404868019E+03  0.49678970788E+03  0.12699999809E+01 0.  1.
</event>
<event>
 5   0  0.1239615E-04  0.1919193E+04  0.7818609E-02  0.8645362E-01
       -1   -1    0    0    0  501  0.00000000000E+00  0.00000000000E+00  0.73002312554E+03  0.73002312555E+03  0.50400001928E-02 0.  1.
        1   -1    0    0  501    0  0.00000000000E+00  0.00000000000E+00 -0.12613642537E+04  0.12613642537E+04  0.50400001928E-02 0. -1.
    10030    2    1    2    0    0  0.00000000000E+00  0.00000000000E+00 -0.53134112815E+03  0.19913873792E+04  0.19191926166E+04 0.  0.
        3    1    3    3  502    0  0.31323545142E+03  0.21003257662E+02  0.67523003160E+03  0.74464299542E+03  0.10100000352E+00 0.  1.
       -3    1    3    3    0  502 -0.31323545142E+03 -0.21003257662E+02 -0.12065711597E+04  0.12467443838E+04  0.10100000352E+00 0. -1.
</event>
<event>
 5   0  0.1255141E-04  0.1863179E+04  0.7818609E-02  0.8673405E-01
        1   -1    0    0  501    0  0.00000000000E+00  0.00000000000E+00  0.15201106150E+04  0.15201106150E+04  0.50400001928E-02 0. -1.
       -1   -1    0    0    0  501  0.00000000000E+00  0.00000000000E+00 -0.57091834288E+03  0.57091834290E+03  0.50400001928E-02 0.  1.
    10030    2    1    2    0    0  0.00000000000E+00  0.00000000000E+00  0.94919227214E+03  0.20910289579E+04  0.18631790395E+04 0.  0.
        2    1    3    3  502    0  0.30556994575E+03 -0.41203150293E+03 -0.39813649987E+03  0.64935015491E+03  0.25500000920E-02 0.  1.
       -2    1    3    3    0  502 -0.30556994575E+03  0.41203150293E+03  0.13473287720E+04  0.14416788030E+04  0.25500000920E-02 0. -1.
</event>
<event>
 5   0  0.1255141E-04  0.1904117E+04  0.7818609E-02  0.8652810E-01
        1   -1    0    0  501    0  0.00000000000E+00  0.00000000000E+00  0.66927552128E+03  0.66927552130E+03  0.50400001928E-02 0. -1.
       -1   -1    0    0    0  501  0.00000000000E+00  0.00000000000E+00 -0.13543226922E+04  0.13543226923E+04  0.50400001928E-02 0.  1.
    10030    2    1    2    0    0  0.00000000000E+00  0.00000000000E+00 -0.68504717097E+03  0.20235982136E+04  0.19041166202E+04 0.  0.
        2    1    3    3  502    0 -0.13158466323E+03  0.81519829761E+02  0.65581310499E+03  0.67383294289E+03  0.25500000920E-02 0. -1.
       -2    1    3    3    0  502  0.13158466323E+03 -0.81519829761E+02 -0.13408602760E+04  0.13497652707E+04  0.25500000920E-02 0.  1.
</event>
<event>
 5   0  0.1317527E-04  0.1888884E+04  0.7818609E-02  0.8660410E-01
       -1   -1    0    0    0  501  0.00000000000E+00  0.00000000000E+00  0.63174166527E+03  0.63174166529E+03  0.50400001928E-02 0. -1.
        1   -1    0    0  501    0  0.00000000000E+00  0.00000000000E+00 -0.14119224611E+04  0.14119224611E+04  0.50400001928E-02 0.  1.
    10030    2    1    2    0    0  0.00000000000E+00  0.00000000000E+00 -0.78018079587E+03  0.20436641264E+04  0.18888835293E+04 0.  0.
        1    1    3    3  502    0  0.87359730065E+03  0.30213717739E+03 -0.18054196824E+03  0.94183571815E+03  0.50400001928E-02 0. -1.
       -1    1    3    3    0  502 -0.87359730065E+03 -0.30213717739E+03 -0.59963882763E+03  0.11018284083E+04  0.50400001928E-02 0.  1.
</event>
<event>
 5   0  0.1324058E-04  0.1901455E+04  0.7818609E-02  0.8654133E-01
       -1   -1    0    0    0  501  0.00000000000E+00  0.00000000000E+00  0.12276505389E+04  0.12276505389E+04  0.50400001928E-02 0. -1.
        1   -1    0    0  501    0  0.00000000000E+00  0.00000000000E+00 -0.73627028953E+03  0.73627028954E+03  0.50400001928E-02 0.  1.
    10030    2    1    2    0    0  0.00000000000E+00  0.00000000000E+00  0.49138024940E+03  0.19639208285E+04  0.19014548301E+04 0.  0.
        5    1    3    3  502    0 -0.10644019569E+03  0.60191753929E+03  0.99777800659E+03  0.11701355818E+04  0.46999998093E+01 0. -1.
       -5    1    3    3    0  502  0.10644019569E+03 -0.60191753929E+03 -0.50639775719E+03  0.79378524668E+03  0.46999998093E+01 0.  1.
</event>
<event>
 5   0  0.1255141E-04  0.1910527E+04  0.7818609E-02  0.8649634E-01
       -1   -1    0    0    0  501  0.00000000000E+00  0.00000000000E+00  0.12093565328E+04  0.12093565328E+04  0.50400001928E-02 0. -1.
        1   -1    0    0  501    0  0.00000000000E+00  0.00000000000E+00 -0.75455660852E+03  0.75455660854E+03  0.50400001928E-02 0.  1.
    10030    2    1    2    0    0  0.00000000000E+00  0.00000000000E+00  0.45479992427E+03  0.19639131413E+04  0.19105265912E+04 0.  0.
        2    1    3    3  502    0  0.10953874497E+03 -0.53380825021E+03  0.10339117648E+04  0.11687273087E+04  0.25500000920E-02 0. -1.
       -2    1    3    3    0  502 -0.10953874497E+03  0.53380825021E+03 -0.57911184053E+03  0.79518583267E+03  0.25500000920E-02 0.  1.
</event>
<event>
 5   0  0.2562925E-04  0.1899795E+04  0.7818609E-02  0.8654958E-01
        2   -1    0    0  501    0  0.00000000000E+00  0.00000000000E+00  0.10562276058E+04  0.10562276058E+04  0.25500000920E-02 0.  1.
       -2   -1    0    0    0  501  0.00000000000E+00  0.00000000000E+00 -0.85427163386E+03  0.85427163386E+03  0.25500000920E-02 0. -1.
    10030    2    1    2    0    0  0.00000000000E+00  0.00000000000E+00  0.20195597191E+03  0.19104992396E+04  0.18997950232E+04 0.  0.
        4    1    3    3  502    0  0.48362545297E+03 -0.40103878994E+01  0.92313808791E+03  0.10421589151E+04  0.12699999809E+01 0.  1.
       -4    1    3    3    0  502 -0.48362545297E+03  0.40103878994E+01 -0.72118211600E+03  0.86834032459E+03  0.12699999809E+01 0. -1.
</event>
<event>
 5   0  0.2562925E-04  0.1885644E+04  0.7818609E-02  0.8662036E-01
        2   -1    0    0  501    0  0.00000000000E+00  0.00000000000E+00  0.98926339856E+03  0.98926339856E+03  0.25500000920E-02 0.  1.
       -2   -1    0    0    0  501  0.00000000000E+00  0.00000000000E+00 -0.89856062063E+03  0.89856062064E+03  0.25500000920E-02 0. -1.
    10030    2    1    2    0    0  0.00000000000E+00  0.00000000000E+00  0.90702777922E+02  0.18878240192E+04  0.18856437982E+04 0.  0.
        4    1    3    3  502    0  0.40327663239E+03  0.19879477511E+03  0.87501947122E+03  0.98377441152E+03  0.12699999809E+01 0.  1.
       -4    1    3    3    0  502 -0.40327663239E+03 -0.19879477511E+03 -0.78431669330E+03  0.90404960768E+03  0.12699999809E+01 0. -1.
</event>
<event>
 5   0  0.2595012E-04  0.1894084E+04  0.7818609E-02  0.8657807E-01
       -2   -1    0    0    0  501  0.00000000000E+00  0.00000000000E+00  0.10441842921E+04  0.10441842921E+04  0.25500000920E-02 0. -1.
        2   -1    0    0  501    0  0.00000000000E+00  0.00000000000E+00 -0.85893707519E+03  0.85893707519E+03  0.25500000920E-02 0.  1.
    10030    2    1    2    0    0  0.00000000000E+00  0.00000000000E+00  0.18524721687E+03  0.19031213673E+04  0.18940840549E+04 0.  0.
        1    1    3    3  502    0 -0.45960417016E+03 -0.82274593358E+03  0.18656697368E+03  0.96070500162E+03  0.50400001928E-02 0.  1.
       -1    1    3    3    0  502  0.45960417016E+03  0.82274593358E+03 -0.13197568093E+01  0.94241636564E+03  0.50400001928E-02 0. -1.
</event>
<event>
 5   0  0.1277709E-04  0.1831398E+04  0.7818609E-02  0.8689778E-01
        1   -1    0    0  501    0  0.00000000000E+00  0.00000000000E+00  0.14190482509E+04  0.14190482509E+04  0.50400001928E-02 0.  1.
       -1   -1    0    0    0  501  0.00000000000E+00  0.00000000000E+00 -0.59089231323E+03  0.59089231325E+03  0.50400001928E-02 0. -1.
    10030    2    1    2    0    0  0.00000000000E+00  0.00000000000E+00  0.82815593770E+03  0.20099405642E+04  0.18313980492E+04 0.  0.
        4    1    3    3  502    0  0.59812961157E+03  0.19215105547E+03  0.11452252945E+04  0.13062249609E+04  0.12699999809E+01 0.  1.
       -4    1    3    3    0  502 -0.59812961157E+03 -0.19215105547E+03 -0.31706935683E+03  0.70371560328E+03  0.12699999809E+01 0. -1.
</event>
<event>
 5   0  0.1277709E-04  0.1904273E+04  0.7818609E-02  0.8652732E-01
       -1   -1    0    0    0  501  0.00000000000E+00  0.00000000000E+00  0.12238563310E+04  0.12238563310E+04  0.50400001928E-02 0. -1.
        1   -1    0    0  501    0  0.00000000000E+00  0.00000000000E+00 -0.74074383012E+03  0.74074383013E+03  0.50400001928E-02 0.  1.
    10030    2    1    2    0    0  0.00000000000E+00  0.00000000000E+00  0.48311250090E+03  0.19646001612E+04  0.19042731171E+04 0.  0.
        4    1    3    3  502    0  0.83773401765E+03  0.40564202411E+03  0.34657041516E+02  0.93142174094E+03  0.12699999809E+01 0. -1.
       -4    1    3    3    0  502 -0.83773401765E+03 -0.40564202411E+03  0.44845545938E+03  0.10331784202E+04  0.12699999809E+01 0.  1.
</event>
<event>
 5   0  0.2541124E-04  0.1835970E+04  0.7818609E-02  0.8687402E-01
        2   -1    0    0  501    0  0.00000000000E+00  0.00000000000E+00  0.63814436642E+03  0.63814436642E+03  0.25500000920E-02 0.  1.
       -2   -1    0    0    0  501  0.00000000000E+00  0.00000000000E+00 -0.13205413891E+04  0.13205413891E+04  0.25500000920E-02 0. -1.
    10030    2    1    2    0    0  0.00000000000E+00  0.00000000000E+00 -0.68239702265E+03  0.19586857555E+04  0.18359695510E+04 0.  0.
        5    1    3    3  502    0 -0.14287236523E+03 -0.85436026043E+03 -0.66536691812E+03  0.10922816455E+04  0.46999998093E+01 0. -1.
       -5    1    3    3    0  502  0.14287236523E+03  0.85436026043E+03 -0.17030104523E+02  0.86640410999E+03  0.46999998093E+01 0.  1.
</event>
<event>
 5   0  0.1324058E-04  0.1920661E+04  0.7818609E-02  0.8644640E-01
       -1   -1    0    0    0  501  0.00000000000E+00  0.00000000000E+00  0.37511191746E+03  0.37511191749E+03  0.50400001928E-02 0.  1.
        1   -1    0    0  501    0  0.00000000000E+00  0.00000000000E+00 -0.24585589869E+04  0.24585589869E+04  0.50400001928E-02 0. -1.
    10030    2    1    2    0    0  0.00000000000E+00  0.00000000000E+00 -0.20834470695E+04  0.28336709044E+04  0.19206611110E+04 0.  0.
        5    1    3    3  502    0  0.18068359031E+03  0.89527945929E+03 -0.60395887655E+03  0.10949704492E+04  0.46999998093E+01 0.  1.
       -5    1    3    3    0  502 -0.18068359031E+03 -0.89527945929E+03 -0.14794881929E+04  0.17387004552E+04  0.46999998093E+01 0. -1.
</event>
<event>
 5   0  0.9266125E-05  0.1920469E+04  0.7818609E-02  0.8644734E-01
       -3   -1    0    0    0  501  0.00000000000E+00  0.00000000000E+00  0.13904929520E+04  0.13904929557E+04  0.10100000352E+00 0.  1.
        3   -1    0    0  501    0  0.00000000000E+00  0.00000000000E+00 -0.66311034733E+03  0.66311035502E+03  0.10100000352E+00 0. -1.
    10030    2    1    2    0    0  0.00000000000E+00  0.00000000000E+00  0.72738260467E+03  0.20536033107E+04  0.19204689802E+04 0.  0.
        4    1    3    3  502    0  0.56716299790E+03 -0.21482969996E+03 -0.43237919714E+03  0.74483491406E+03  0.12699999809E+01 0. -1.
       -4    1    3    3    0  502 -0.56716299790E+03  0.21482969996E+03  0.11597618018E+04  0.13087683966E+04  0.12699999809E+01 0.  1.
</event>
<event>
 5   0  0.2608744E-04  0.1848508E+04  0.7818609E-02  0.8680921E-01
       -2   -1    0    0    0  501  0.00000000000E+00  0.00000000000E+00  0.40210021507E+03  0.40210021508E+03  0.25500000920E-02 0.  1.
        2   -1    0    0  501    0  0.00000000000E+00  0.00000000000E+00 -0.21244580492E+04  0.21244580492E+04  0.25500000920E-02 0. -1.
    10030    2    1    2    0    0  0.00000000000E+00  0.00000000000E+00 -0.17223578341E+04  0.25265582643E+04  0.18485075477E+04 0.  0.
        2    1    3    3  502    0 -0.13859654043E+03 -0.64765056230E+03  0.19946867119E+02  0.66261461603E+03  0.25500000920E-02 0.  1.
       -2    1    3    3    0  502  0.13859654043E+03  0.64765056230E+03 -0.17423047012E+04  0.18639436482E+04  0.25500000920E-02 0. -1.
</event>
<event>
 5   0  0.1239615E-04  0.1899304E+04  0.7818609E-02  0.8655203E-01
       -1   -1    0    0    0  501  0.00000000000E+00  0.00000000000E+00  0.10014834737E+04  0.10014834738E+04  0.50400001928E-02 0.  1.
        1   -1    0    0  501    0  0.00000000000E+00  0.00000000000E+00 -0.90050300482E+03  0.90050300483E+03  0.50400001928E-02 0. -1.
    10030    2    1    2    0    0  0.00000000000E+00  0.00000000000E+00  0.10098046893E+03  0.19019864786E+04  0.18993039540E+04 0.  0.
        3    1    3    3  502    0 -0.41087001011E+03  0.62183630165E+03  0.63983168148E+03  0.98228261824E+03  0.10100000352E+00 0.  1.
       -3    1    3    3    0  502  0.41087001011E+03 -0.62183630165E+03 -0.53885121256E+03  0.91970386035E+03  0.10100000352E+00 0. -1.
</event>
<event>
 5   0  0.2651828E-04  0.1555764E+04  0.7818609E-02  0.8848194E-01
        2   -1    0    0  501    0  0.00000000000E+00  0.00000000000E+00  0.10704654111E+04  0.10704654111E+04  0.25500000920E-02 0. -1.
       -2   -1    0    0    0  501  0.00000000000E+00  0.00000000000E+00 -0.56526877276E+03  0.56526877276E+03  0.25500000920E-02 0.  1.
    10030    2    1    2    0    0  0.00000000000E+00  0.00000000000E+00  0.50519663839E+03  0.16357341839E+04  0.15557643385E+04 0.  0.
        3    1    3    3  502    0  0.93554066736E+02 -0.72494688923E+03 -0.27162233291E+02  0.73146302211E+03  0.10100000352E+00 0.  1.
       -3    1    3    3    0  502 -0.93554066736E+02  0.72494688923E+03  0.53235887168E+03  0.90427116180E+03  0.10100000352E+00 0. -1.
</event>
<event>
 5   0  0.2562925E-04  0.1999723E+04  0.7818609E-02  0.8606750E-01
        2   -1    0    0  501    0  0.00000000000E+00  0.00000000000E+00  0.30948425147E+04  0.30948425147E+04  0.25500000920E-02 0. -1.
       -2   -1    0    0    0  501  0.00000000000E+00  0.00000000000E+00 -0.32302873483E+03  0.32302873484E+03  0.25500000920E-02 0.  1.
    10030    2    1    2    0    0  0.00000000000E+00  0.00000000000E+00  0.27718137799E+04  0.34178712496E+04  0.19997230429E+04 0.  0.
        4    1    3    3  502    0  0.87285068158E+03  0.15292222951E+03  0.59437753400E+03  0.10670237984E+04  0.12699999809E+01 0. -1.
       -4    1    3    3    0  502 -0.87285068158E+03 -0.15292222951E+03  0.21774362459E+04  0.23508474511E+04  0.12699999809E+01 0.  1.
</event>
<event>
 5   0  0.2562925E-04  0.1866047E+04  0.7818609E-02  0.8671944E-01
       -2   -1    0    0    0  501  0.00000000000E+00  0.00000000000E+00  0.47168208129E+03  0.47168208130E+03  0.25500000920E-02 0. -1.
        2   -1    0    0  501    0  0.00000000000E+00  0.00000000000E+00 -0.18455931084E+04  0.18455931084E+04  0.25500000920E-02 0.  1.
    10030    2    1    2    0    0  0.00000000000E+00  0.00000000000E+00 -0.13739110271E+04  0.23172751897E+04  0.18660473720E+04 0.  0.
        4    1    3    3  502    0  0.80488358768E+02 -0.17191578365E+03 -0.18213592343E+04  0.18312248594E+04  0.12699999809E+01 0.  1.
       -4    1    3    3    0  502 -0.80488358768E+02  0.17191578365E+03  0.44744820717E+03  0.48605033028E+03  0.12699999809E+01 0. -1.
</event>
<event>
 5   0  0.1255141E-04  0.1923027E+04  0.7818609E-02  0.8643478E-01
        1   -1    0    0  501    0  0.00000000000E+00  0.00000000000E+00  0.15999943891E+04  0.15999943891E+04  0.50400001928E-02 0. -1.
       -1   -1    0    0    0  501  0.00000000000E+00  0.00000000000E+00 -0.57781979797E+03  0.57781979799E+03  0.50400001928E-02 0.  1.
    10030    2    1    2    0    0  0.00000000000E+00  0.00000000000E+00  0.10221745911E+04  0.21778141871E+04  0.19230272330E+04 0.  0.
        2    1    3    3  502    0 -0.52649928123E+03  0.56017128882E+03  0.11651104417E+04  0.13958781134E+04  0.25500000920E-02 0. -1.
       -2    1    3    3    0  502  0.52649928123E+03 -0.56017128882E+03 -0.14293585063E+03  0.78193607370E+03  0.25500000920E-02 0.  1.
</event>
<event>
 5   0  0.2595012E-04  0.1903987E+04  0.7818609E-02  0.8652875E-01
        2   -1    0    0  501    0  0.00000000000E+00  0.00000000000E+00  0.73534115342E+03  0.73534115343E+03  0.25500000920E-02 0.  1.
       -2   -1    0    0    0  501  0.00000000000E+00  0.00000000000E+00 -0.12324771452E+04  0.12324771452E+04  0.25500000920E-02 0. -1.
    10030    2    1    2    0    0  0.00000000000E+00  0.00000000000E+00 -0.49713599181E+03  0.19678182987E+04  0.19039865184E+04 0.  0.
        1    1    3    3  502    0  0.31281837953E+03 -0.73964472313E+03 -0.77694260740E+03  0.11173940533E+04  0.50400001928E-02 0.  1.
       -1    1    3    3    0  502 -0.31281837953E+03  0.73964472313E+03  0.27980661560E+03  0.85042424541E+03  0.50400001928E-02 0. -1.
</event>
<event>
 5   0  0.1317527E-04  0.1916872E+04  0.7818609E-02  0.8646504E-01
       -1   -1    0    0    0  501  0.00000000000E+00  0.00000000000E+00  0.99894955562E+03  0.99894955563E+03  0.50400001928E-02 0. -1.
        1   -1    0    0  501    0  0.00000000000E+00  0.00000000000E+00 -0.91956514980E+03  0.91956514981E+03  0.50400001928E-02 0.  1.
    10030    2    1    2    0    0  0.00000000000E+00  0.00000000000E+00  0.79384405825E+02  0.19185147054E+04  0.19168716157E+04 0.  0.
        1    1    3    3  502    0  0.82556260547E+03  0.17880951830E+03  0.49292994902E+03  0.97801144883E+03  0.50400001928E-02 0. -1.
       -1    1    3    3    0  502 -0.82556260547E+03 -0.17880951830E+03 -0.41354554319E+03  0.94050325661E+03  0.50400001928E-02 0.  1.
</event>
<event>
 5   0  0.1324058E-04  0.1880729E+04  0.7818609E-02  0.8664508E-01
       -1   -1    0    0    0  501  0.00000000000E+00  0.00000000000E+00  0.10237238369E+04  0.10237238369E+04  0.50400001928E-02 0.  1.
        1   -1    0    0  501    0  0.00000000000E+00  0.00000000000E+00 -0.86379325877E+03  0.86379325878E+03  0.50400001928E-02 0. -1.
    10030    2    1    2    0    0  0.00000000000E+00  0.00000000000E+00  0.15993057813E+03  0.18875170957E+04  0.18807293789E+04 0.  0.
        5    1    3    3  502    0  0.41027355634E+01 -0.80173646653E+03  0.57313011967E+03  0.98554473175E+03  0.46999998093E+01 0.  1.
       -5    1    3    3    0  502 -0.41027355634E+01  0.80173646653E+03 -0.41319954153E+03  0.90197236395E+03  0.46999998093E+01 0. -1.
</event>
<event>
 5   0  0.2595012E-04  0.1916183E+04  0.7818609E-02  0.8646843E-01
        2   -1    0    0  501    0  0.00000000000E+00  0.00000000000E+00  0.11221415851E+04  0.11221415851E+04  0.25500000920E-02 0.  1.
       -2   -1    0    0    0  501  0.00000000000E+00  0.00000000000E+00 -0.81802451103E+03  0.81802451103E+03  0.25500000920E-02 0. -1.
    10030    2    1    2    0    0  0.00000000000E+00  0.00000000000E+00  0.30411707408E+03  0.19401660961E+04  0.19161829991E+04 0.  0.
        1    1    3    3  502    0 -0.22682372216E+03 -0.16727571559E+03  0.10792209839E+04  0.11154138685E+04  0.50400001928E-02 0.  1.
       -1    1    3    3    0  502  0.22682372216E+03  0.16727571559E+03 -0.77510390981E+03  0.82475222764E+03  0.50400001928E-02 0. -1.
</event>
<event>
 5   0  0.1324058E-04  0.1904713E+04  0.7818609E-02  0.8652514E-01
       -1   -1    0    0    0  501  0.00000000000E+00  0.00000000000E+00  0.36204422078E+03  0.36204422082E+03  0.50400001928E-02 0.  1.
        1   -1    0    0  501    0  0.00000000000E+00  0.00000000000E+00 -0.25051716028E+04  0.25051716028E+04  0.50400001928E-02 0. -1.
    10030    2    1    2    0    0  0.00000000000E+00  0.00000000000E+00 -0.21431273821E+04  0.28672158237E+04  0.19047129977E+04 0.  0.
        5    1    3    3  502    0 -0.14626927319E+03 -0.16911714896E+03  0.32195407094E+03  0.39200997965E+03  0.46999998093E+01 0.  1.
       -5    1    3    3    0  502  0.14626927319E+03  0.16911714896E+03 -0.24650814530E+04  0.24752058440E+04  0.46999998093E+01 0. -1.
</event>
<event>
 5   0  0.1239615E-04  0.1889648E+04  0.7818609E-02  0.8660027E-01
        1   -1    0    0  501    0  0.00000000000E+00  0.00000000000E+00  0.63841703735E+03  0.63841703737E+03  0.50400001928E-02 0.  1.
       -1   -1    0    0    0  501  0.00000000000E+00  0.00000000000E+00 -0.13982898895E+04  0.13982898895E+04  0.50400001928E-02 0. -1.
    10030    2    1    2    0    0  0.00000000000E+00  0.00000000000E+00 -0.75987285216E+03  0.20367069269E+04  0.18896476800E+04 0.  0.
        3    1    3    3  502    0  0.35386300106E+03  0.83261418909E+03 -0.86287996970E+02  0.90879647887E+03  0.10100000352E+00 0.  1.
       -3    1    3    3    0  502 -0.35386300106E+03 -0.83261418909E+03 -0.67358485519E+03  0.11279104480E+04  0.10100000352E+00 0. -1.
</event>
<event>
 5   0  0.1277709E-04  0.1910796E+04  0.7818609E-02  0.8649501E-01
        1   -1    0    0  501    0  0.00000000000E+00  0.00000000000E+00  0.79295816622E+03  0.79295816623E+03  0.50400001928E-02 0. -1.
       -1   -1    0    0    0  501  0.00000000000E+00  0.00000000000E+00 -0.11511143210E+04  0.11511143210E+04  0.50400001928E-02 0.  1.
    10030    2    1    2    0    0  0.00000000000E+00  0.00000000000E+00 -0.35815615479E+03  0.19440724873E+04  0.19107961703E+04 0.  0.
        4    1    3    3  502    0  0.50564961831E+03  0.27427087885E+03  0.59701533972E+03  0.82905668095E+03  0.12699999809E+01 0. -1.
       -4    1    3    3    0  502 -0.50564961831E+03 -0.27427087885E+03 -0.95517149450E+03  0.11150158063E+04  0.12699999809E+01 0.  1.
</event>
<event>
 5   0  0.2541124E-04  0.1885712E+04  0.7818609E-02  0.8662001E-01
       -2   -1    0    0    0  501  0.00000000000E+00  0.00000000000E+00  0.93114305712E+03  0.93114305712E+03  0.25500000920E-02 0.  1.
        2   -1    0    0  501    0  0.00000000000E+00  0.00000000000E+00 -0.95471647665E+03  0.95471647666E+03  0.25500000920E-02 0. -1.
    10030    2    1    2    0    0  0.00000000000E+00  0.00000000000E+00 -0.23573419537E+02  0.18858595338E+04  0.18857121931E+04 0.  0.
        5    1    3    3  502    0  0.38898496132E+03  0.56886130188E+02 -0.86883103070E+03  0.95364290060E+03  0.46999998093E+01 0. -1.
       -5    1    3    3    0  502 -0.38898496132E+03 -0.56886130188E+02  0.84525761117E+03  0.93221663318E+03  0.46999998093E+01 0.  1.
</event>
<event>
 5   0  0.2595012E-04  0.1766870E+04  0.7818609E-02  0.8724119E-01
       -2   -1    0    0    0  501  0.00000000000E+00  0.00000000000E+00  0.14976691199E+04  0.14976691199E+04  0.25500000920E-02 0.  1.
        2   -1    0    0  501    0  0.00000000000E+00  0.00000000000E+00 -0.52111463384E+03  0.52111463384E+03  0.25500000920E-02 0. -1.
    10030    2    1    2    0    0  0.00000000000E+00  0.00000000000E+00  0.97655448609E+03  0.20187837538E+04  0.17668698821E+04 0.  0.
        1    1    3    3  502    0  0.51915809518E+03  0.17082869346E+03 -0.30476435955E+03  0.62577063304E+03  0.50400001928E-02 0. -1.
       -1    1    3    3    0  502 -0.51915809518E+03 -0.17082869346E+03  0.12813188456E+04  0.13930131207E+04  0.50400001928E-02 0.  1.
</event>
<event>
 5   0  0.1255141E-04  0.1875470E+04  0.7818609E-02  0.8667164E-01
       -1   -1    0    0    0  501  0.00000000000E+00  0.00000000000E+00  0.15157147838E+04  0.15157147838E+04  0.50400001928E-02 0.  1.
        1   -1    0    0  501    0  0.00000000000E+00  0.00000000000E+00 -0.58015351511E+03  0.58015351513E+03  0.50400001928E-02 0. -1.
    10030    2    1    2    0    0  0.00000000000E+00  0.00000000000E+00  0.93556126872E+03  0.20958682990E+04  0.18754703514E+04 0.  0.
        2    1    3    3  502    0 -0.66192058353E+03 -0.64746096280E+03  0.30201603073E+03  0.97393954641E+03  0.25500000920E-02 0. -1.
       -2    1    3    3    0  502  0.66192058353E+03  0.64746096280E+03  0.63354523799E+03  0.11219287526E+04  0.25500000920E-02 0.  1.
</event>
<event>
 5   0  0.1324058E-04  0.1925446E+04  0.7818609E-02  0.8642293E-01
        1   -1    0    0  501    0  0.00000000000E+00  0.00000000000E+00  0.14604715957E+04  0.14604715957E+04  0.50400001928E-02 0.  1.
       -1   -1    0    0    0  501  0.00000000000E+00  0.00000000000E+00 -0.63461391553E+03  0.63461391555E+03  0.50400001928E-02 0. -1.
    10030    2    1    2    0    0  0.00000000000E+00  0.00000000000E+00  0.82585768016E+03  0.20950855112E+04  0.19254460241E+04 0.  0.
        5    1    3    3  502    0 -0.20760472001E+03  0.71465966544E+03 -0.25159485362E+03  0.78559545412E+03  0.46999998093E+01 0. -1.
       -5    1    3    3    0  502  0.20760472001E+03 -0.71465966544E+03  0.10774525338E+04  0.13094900571E+04  0.46999998093E+01 0.  1.
</event>
<event>
 5   0  0.2651828E-04  0.1972542E+04  0.7818609E-02  0.8619567E-01
        2   -1    0    0  501    0  0.00000000000E+00  0.00000000000E+00  0.70546441699E+03  0.70546441700E+03  0.25500000920E-02 0. -1.
       -2   -1    0    0    0  501  0.00000000000E+00  0.00000000000E+00 -0.13788511996E+04  0.13788511996E+04  0.25500000920E-02 0.  1.
    10030    2    1    2    0    0  0.00000000000E+00  0.00000000000E+00 -0.67338678263E+03  0.20843156166E+04  0.19725419718E+04 0.  0.
        3    1    3    3  502    0 -0.36649756357E+03  0.15169995598E+03 -0.12908547235E+04  0.13504218852E+04  0.10100000352E+00 0.  1.
       -3    1    3    3    0  502  0.36649756357E+03 -0.15169995598E+03  0.61746794087E+03  0.73389373138E+03  0.10100000352E+00 0. -1.
</event>
<event>
 5   0  0.2595012E-04  0.1898020E+04  0.7818609E-02  0.8655843E-01
       -2   -1    0    0    0  501  0.00000000000E+00  0.00000000000E+00  0.66382583518E+03  0.66382583518E+03  0.25500000920E-02 0.  1.
        2   -1    0    0  501    0  0.00000000000E+00  0.00000000000E+00 -0.13567109677E+04  0.13567109677E+04  0.25500000920E-02 0. -1.
    10030    2    1    2    0    0  0.00000000000E+00  0.00000000000E+00 -0.69288513256E+03  0.20205368029E+04  0.18980198010E+04 0.  0.
        1    1    3    3  502    0  0.43232984187E+03  0.10880545987E+02 -0.12457146420E+04  0.13186479620E+04  0.50400001928E-02 0. -1.
       -1    1    3    3    0  502 -0.43232984187E+03 -0.10880545987E+02  0.55282950943E+03  0.70188884090E+03  0.50400001928E-02 0.  1.
</event>
<event>
 5   0  0.9266125E-05  0.1902450E+04  0.7818609E-02  0.8653638E-01
       -3   -1    0    0    0  501  0.00000000000E+00  0.00000000000E+00  0.75811478533E+03  0.75811479206E+03  0.10100000352E+00 0.  1.
        3   -1    0    0  501    0  0.00000000000E+00  0.00000000000E+00 -0.11935254684E+04  0.11935254727E+04  0.10100000352E+00 0. -1.
    10030    2    1    2    0    0  0.00000000000E+00  0.00000000000E+00 -0.43541068309E+03  0.19516402648E+04  0.19024503305E+04 0.  0.
        1    1    3    3  502    0 -0.53903861443E+03 -0.71408313340E+03 -0.54909332772E+03  0.10497527479E+04  0.50400001928E-02 0. -1.
       -1    1    3    3    0  502  0.53903861443E+03  0.71408313340E+03  0.11368264463E+03  0.90188751681E+03  0.50400001928E-02 0.  1.
</event>
<event>
 5   0  0.1255141E-04  0.1906143E+04  0.7818609E-02  0.8651804E-01
        1   -1    0    0  501    0  0.00000000000E+00  0.00000000000E+00  0.12445396586E+04  0.12445396586E+04  0.50400001928E-02 0.  1.
       -1   -1    0    0    0  501  0.00000000000E+00  0.00000000000E+00 -0.72986478249E+03  0.72986478251E+03  0.50400001928E-02 0. -1.
    10030    2    1    2    0    0  0.00000000000E+00  0.00000000000E+00  0.51467487614E+03  0.19744044411E+04  0.19061434020E+04 0.  0.
        2    1    3    3  502    0 -0.69076526175E+03 -0.65379094290E+03  0.32073739725E+03  0.10037289085E+04  0.25500000920E-02 0. -1.
       -2    1    3    3    0  502  0.69076526175E+03  0.65379094290E+03  0.19393747889E+03  0.97067553259E+03  0.25500000920E-02 0.  1.
</event>
<event>
 5   0  0.1324058E-04  0.1929359E+04  0.7818609E-02  0.8640379E-01
        1   -1    0    0  501    0  0.00000000000E+00  0.00000000000E+00  0.15921451732E+04  0.15921451732E+04  0.50400001928E-02 0.  1.
       -1   -1    0    0    0  501  0.00000000000E+00  0.00000000000E+00 -0.58449849987E+03  0.58449849989E+03  0.50400001928E-02 0. -1.
    10030    2    1    2    0    0  0.00000000000E+00  0.00000000000E+00  0.10076466733E+04  0.21766436731E+04  0.19293589250E+04 0.  0.
        5    1    3    3  502    0  0.25285700596E+03 -0.92869996995E+03  0.57662371178E+03  0.11220237496E+04  0.46999998093E+01 0.  1.
       -5    1    3    3    0  502 -0.25285700596E+03  0.92869996995E+03  0.43102296154E+03  0.10546199235E+04  0.46999998093E+01 0. -1.
</event>
<event>
 5   0  0.1255141E-04  0.1898231E+04  0.7818609E-02  0.8655737E-01
       -1   -1    0    0    0  501  0.00000000000E+00  0.00000000000E+00  0.12394811961E+04  0.12394811961E+04  0.50400001928E-02 0. -1.
        1   -1    0    0  501    0  0.00000000000E+00  0.00000000000E+00 -0.72677189530E+03  0.72677189532E+03  0.50400001928E-02 0.  1.
    10030    2    1    2    0    0  0.00000000000E+00  0.00000000000E+00  0.51270930076E+03  0.19662530914E+04  0.18982308585E+04 0.  0.
        2    1    3    3  502    0  0.82159398778E+03 -0.26990609237E+03  0.66146279729E+03  0.10887603096E+04  0.25500000920E-02 0. -1.
       -2    1    3    3    0  502 -0.82159398778E+03  0.26990609237E+03 -0.14875349653E+03  0.87749278184E+03  0.25500000920E-02 0.  1.
</event>
<event>
 5   0  0.1324058E-04  0.1773065E+04  0.7818609E-02  0.8720756E-01
        1   -1    0    0  501    0  0.00000000000E+00  0.00000000000E+00  0.13638333807E+04  0.13638333807E+04  0.50400001928E-02 0. -1.
       -1   -1    0    0    0  501  0.00000000000E+00  0.00000000000E+00 -0.57627284463E+03  0.57627284465E+03  0.50400001928E-02 0.  1.
    10030    2    1    2    0    0  0.00000000000E+00  0.00000000000E+00  0.78756053606E+03  0.19401062254E+04  0.17730653027E+04 0.  0.
        5    1    3    3  502    0  0.28618180172E+03 -0.77488846492E+03  0.74591524088E+03  0.11129976609E+04  0.46999998093E+01 0. -1.
       -5    1    3    3    0  502 -0.28618180172E+03  0.77488846492E+03  0.41645295179E+02  0.82710856441E+03  0.46999998093E+01 0.  1.
</event>
<event>
 5   0  0.1255141E-04  0.1656657E+04  0.7818609E-02  0.8786478E-01
       -1   -1    0    0    0  501  0.00000000000E+00  0.00000000000E+00  0.52930195913E+03  0.52930195915E+03  0.50400001928E-02 0. -1.
        1   -1    0    0  501    0  0.00000000000E+00  0.00000000000E+00 -0.12962883120E+04  0.12962883120E+04  0.50400001928E-02 0.  1.
    10030    2    1    2    0    0  0.00000000000E+00  0.00000000000E+00 -0.76698635283E+03  0.18255902711E+04  0.16566568059E+04 0.  0.
        2    1    3    3  502    0 -0.30073747670E+03 -0.74259681360E+03 -0.61526104040E+03  0.10101679095E+04  0.25500000920E-02 0.  1.
       -2    1    3    3    0  502  0.30073747670E+03  0.74259681360E+03 -0.15172531243E+03  0.81542236166E+03  0.25500000920E-02 0. -1.
</event>
<event>
 5   0  0.2651828E-04  0.1893016E+04  0.7818609E-02  0.8658340E-01
       -2   -1    0    0    0  501  0.00000000000E+00  0.00000000000E+00  0.43852788049E+03  0.43852788050E+03  0.25500000920E-02 0.  1.
        2   -1    0    0  501    0  0.00000000000E+00  0.00000000000E+00 -0.20429209194E+04  0.20429209194E+04  0.25500000920E-02 0. -1.
    10030    2    1    2    0    0  0.00000000000E+00  0.00000000000E+00 -0.16043930389E+04  0.24814487999E+04  0.18930164086E+04 0.  0.
        3    1    3    3  502    0 -0.43214560479E+03 -0.73119467350E+03 -0.13497501016E+04  0.15947478864E+04  0.10100000352E+00 0.  1.
       -3    1    3    3    0  502  0.43214560479E+03  0.73119467350E+03 -0.25464293736E+03  0.88670091352E+03  0.10100000352E+00 0. -1.
</event>
<event>
 5   0  0.2608744E-04  0.1788915E+04  0.7818609E-02  0.8712217E-01
       -2   -1    0    0    0  501  0.00000000000E+00  0.00000000000E+00  0.50935061791E+03  0.50935061792E+03  0.25500000920E-02 0. -1.
        2   -1    0    0  501    0  0.00000000000E+00  0.00000000000E+00 -0.15707334297E+04  0.15707334297E+04  0.25500000920E-02 0.  1.
    10030    2    1    2    0    0  0.00000000000E+00  0.00000000000E+00 -0.10613828118E+04  0.20800840476E+04  0.17889148029E+04 0.  0.
        2    1    3    3  502    0 -0.93390140778E+02 -0.53239889552E+03  0.29796287897E+03  0.61721323674E+03  0.25500000920E-02 0. -1.
       -2    1    3    3    0  502  0.93390140778E+02  0.53239889552E+03 -0.13593456907E+04  0.14628708109E+04  0.25500000920E-02 0.  1.
</event>
<event>
 5   0  0.2595012E-04  0.1962898E+04  0.7818609E-02  0.8624166E-01
       -2   -1    0    0    0  501  0.00000000000E+00  0.00000000000E+00  0.82702391731E+03  0.82702391731E+03  0.25500000920E-02 0. -1.
        2   -1    0    0  501    0  0.00000000000E+00  0.00000000000E+00 -0.11647084973E+04  0.11647084973E+04  0.25500000920E-02 0.  1.
    10030    2    1    2    0    0  0.00000000000E+00  0.00000000000E+00 -0.33768457997E+03  0.19917324146E+04  0.19628976376E+04 0.  0.
        1    1    3    3  502    0 -0.19442670590E+02  0.66408753130E+03  0.56416250277E+03  0.87159026855E+03  0.50400001928E-02 0. -1.
       -1    1    3    3    0  502  0.19442670590E+02 -0.66408753130E+03 -0.90184708275E+03  0.11201421461E+04  0.50400001928E-02 0.  1.
</event>
<event>
 5   0  0.1255141E-04  0.1853554E+04  0.7818609E-02  0.8678327E-01
        1   -1    0    0  501    0  0.00000000000E+00  0.00000000000E+00  0.10573944929E+04  0.10573944929E+04  0.50400001928E-02 0. -1.
       -1   -1    0    0    0  501  0.00000000000E+00  0.00000000000E+00 -0.81229412275E+03  0.81229412276E+03  0.50400001928E-02 0.  1.
    10030    2    1    2    0    0  0.00000000000E+00  0.00000000000E+00  0.24510037017E+03  0.18696886157E+04  0.18535537025E+04 0.  0.
        2    1    3    3  502    0 -0.67549047985E+03 -0.28761097022E+03 -0.44797730469E+03  0.86005297748E+03  0.25500000920E-02 0. -1.
       -2    1    3    3    0  502  0.67549047985E+03  0.28761097022E+03  0.69307767485E+03  0.10096356382E+04  0.25500000920E-02 0.  1.
</event>
<event>
 5   0  0.2562925E-04  0.1905283E+04  0.7818609E-02  0.8652231E-01
       -2   -1    0    0    0  501  0.00000000000E+00  0.00000000000E+00  0.57753115447E+03  0.57753115447E+03  0.25500000920E-02 0. -1.
        2   -1    0    0  501    0  0.00000000000E+00  0.00000000000E+00 -0.15713884701E+04  0.15713884701E+04  0.25500000920E-02 0.  1.
    10030    2    1    2    0    0  0.00000000000E+00  0.00000000000E+00 -0.99385731564E+03  0.21489196246E+04  0.19052829682E+04 0.  0.
        4    1    3    3  502    0  0.16815676342E+03 -0.71363935897E+02  0.55759136236E+03  0.58675314120E+03  0.12699999809E+01 0. -1.
       -4    1    3    3    0  502 -0.16815676342E+03  0.71363935897E+02 -0.15514486780E+04  0.15621664834E+04  0.12699999809E+01 0.  1.
</event>
<event>
 5   0  0.1317527E-04  0.1757649E+04  0.7818609E-02  0.8729151E-01
       -1   -1    0    0    0  501  0.00000000000E+00  0.00000000000E+00  0.68068611815E+03  0.68068611817E+03  0.50400001928E-02 0. -1.
        1   -1    0    0  501    0  0.00000000000E+00  0.00000000000E+00 -0.11346377773E+04  0.11346377773E+04  0.50400001928E-02 0.  1.
    10030    2    1    2    0    0  0.00000000000E+00  0.00000000000E+00 -0.45395165916E+03  0.18153238955E+04  0.17576486386E+04 0.  0.
        1    1    3    3  502    0  0.10763226918E+03 -0.87029146974E+03 -0.16728458018E+03  0.89273516704E+03  0.50400001928E-02 0.  1.
       -1    1    3    3    0  502 -0.10763226918E+03  0.87029146974E+03 -0.28666707898E+03  0.92258872846E+03  0.50400001928E-02 0. -1.
</event>
<event>
 5   0  0.1277709E-04  0.1900236E+04  0.7818609E-02  0.8654739E-01
        1   -1    0    0  501    0  0.00000000000E+00  0.00000000000E+00  0.73882452595E+03  0.73882452596E+03  0.50400001928E-02 0. -1.
       -1   -1    0    0    0  501  0.00000000000E+00  0.00000000000E+00 -0.12218378099E+04  0.12218378099E+04  0.50400001928E-02 0.  1.
    10030    2    1    2    0    0  0.00000000000E+00  0.00000000000E+00 -0.48301328391E+03  0.19606623358E+04  0.19002355019E+04 0.  0.
        4    1    3    3  502    0 -0.11460631671E+03 -0.65139609445E+03  0.46229164635E+03  0.80694898158E+03  0.12699999809E+01 0. -1.
       -4    1    3    3    0  502  0.11460631671E+03  0.65139609445E+03 -0.94530493026E+03  0.11537133542E+04  0.12699999809E+01 0.  1.
</event>
<event>
 5   0  0.2651828E-04  0.1858698E+04  0.7818609E-02  0.8675693E-01
       -2   -1    0    0    0  501  0.00000000000E+00  0.00000000000E+00  0.31127043949E+03  0.31127043950E+03  0.25500000920E-02 0. -1.
        2   -1    0    0  501    0  0.00000000000E+00  0.00000000000E+00 -0.27747232954E+04  0.27747232954E+04  0.25500000920E-02 0.  1.
    10030    2    1    2    0    0  0.00000000000E+00  0.00000000000E+00 -0.24634528559E+04  0.30859937349E+04  0.18586977588E+04 0.  0.
        3    1    3    3  502    0 -0.35297933470E+03 -0.61464097281E+03 -0.23373435205E+03  0.74633082055E+03  0.10100000352E+00 0. -1.
       -3    1    3    3    0  502  0.35297933470E+03  0.61464097281E+03 -0.22297185039E+04  0.23396629144E+04  0.10100000352E+00 0.  1.
</event>
<event>
 5   0  0.1324058E-04  0.1937944E+04  0.7818609E-02  0.8636196E-01
       -1   -1    0    0    0  501  0.00000000000E+00  0.00000000000E+00  0.71530128122E+03  0.71530128124E+03  0.50400001928E-02 0.  1.
        1   -1    0    0  501    0  0.00000000000E+00  0.00000000000E+00 -0.13126029010E+04  0.13126029010E+04  0.50400001928E-02 0. -1.
    10030    2    1    2    0    0  0.00000000000E+00  0.00000000000E+00 -0.59730161975E+03  0.20279041822E+04  0.19379437936E+04 0.  0.
        5    1    3    3  502    0 -0.73753818178E+03 -0.42875108228E+03  0.18212720102E+03  0.87234309046E+03  0.46999998093E+01 0.  1.
       -5    1    3    3    0  502  0.73753818178E+03  0.42875108228E+03 -0.77942882077E+03  0.11555610918E+04  0.46999998093E+01 0. -1.
</event>
<event>
 5   0  0.2651828E-04  0.1917486E+04  0.7818609E-02  0.8646201E-01
       -2   -1    0    0    0  501  0.00000000000E+00  0.00000000000E+00  0.37883376304E+03  0.37883376305E+03  0.25500000920E-02 0. -1.
        2   -1    0    0  501    0  0.00000000000E+00  0.00000000000E+00 -0.24263626895E+04  0.24263626895E+04  0.25500000920E-02 0.  1.
    10030    2    1    2    0    0  0.00000000000E+00  0.00000000000E+00 -0.20475289265E+04  0.28051964526E+04  0.19174859668E+04 0.  0.
        3    1    3    3  502    0  0.80423469488E+03  0.87394042406E+02 -0.27100753895E+03  0.85315664416E+03  0.10100000352E+00 0.  1.
       -3    1    3    3    0  502 -0.80423469488E+03 -0.87394042406E+02 -0.17765213875E+04  0.19520398084E+04  0.10100000352E+00 0. -1.
</event>
<event>
 5   0  0.1277709E-04  0.1944945E+04  0.7818609E-02  0.8632802E-01
       -1   -1    0    0    0  501  0.00000000000E+00  0.00000000000E+00  0.90788714137E+03  0.90788714138E+03  0.50400001928E-02 0.  1.
        1   -1    0    0  501    0  0.00000000000E+00  0.00000000000E+00 -0.10416518303E+04  0.10416518303E+04  0.50400001928E-02 0. -1.
    10030    2    1    2    0    0  0.00000000000E+00  0.00000000000E+00 -0.13376468891E+03  0.19495389717E+04  0.19449445262E+04 0.  0.
        4    1    3    3  502    0 -0.12480826961E+03  0.98619293829E+02  0.89475759653E+03  0.90878800538E+03  0.12699999809E+01 0.  1.
       -4    1    3    3    0  502  0.12480826961E+03 -0.98619293829E+02 -0.10285222854E+04  0.10407509663E+04  0.12699999809E+01 0. -1.
</event>
<event>
 5   0  0.1324058E-04  0.2050293E+04  0.7818609E-02  0.8583461E-01
       -1   -1    0    0    0  501  0.00000000000E+00  0.00000000000E+00  0.14694801088E+04  0.14694801088E+04  0.50400001928E-02 0. -1.
        1   -1    0    0  501    0  0.00000000000E+00  0.00000000000E+00 -0.71516844501E+03  0.71516844502E+03  0.50400001928E-02 0.  1.
    10030    2    1    2    0    0  0.00000000000E+00  0.00000000000E+00  0.75431166383E+03  0.21846485539E+04  0.20502934467E+04 0.  0.
        5    1    3    3  502    0 -0.37901720903E+03 -0.28801804686E+03  0.13445577922E+04  0.14263471480E+04  0.46999998093E+01 0. -1.
       -5    1    3    3    0  502  0.37901720903E+03  0.28801804686E+03 -0.59024612838E+03  0.75830140586E+03  0.46999998093E+01 0.  1.
</event>
<event>
 5   0  0.2541124E-04  0.1894233E+04  0.7818609E-02  0.8657732E-01
        2   -1    0    0  501    0  0.00000000000E+00  0.00000000000E+00  0.13131656891E+04  0.13131656891E+04  0.25500000920E-02 0. -1.
       -2   -1    0    0    0  501  0.00000000000E+00  0.00000000000E+00 -0.68310450361E+03  0.68310450362E+03  0.25500000920E-02 0.  1.
    10030    2    1    2    0    0  0.00000000000E+00  0.00000000000E+00  0.63006118553E+03  0.19962701928E+04  0.18942327167E+04 0.  0.
        5    1    3    3  502    0 -0.69620297698E+03  0.64002384757E+03  0.26049159681E+03  0.98092154254E+03  0.46999998093E+01 0. -1.
       -5    1    3    3    0  502  0.69620297698E+03 -0.64002384757E+03  0.36956958873E+03  0.10153486502E+04  0.46999998093E+01 0.  1.
</event>
<event>
 5   0  0.1317527E-04  0.1848255E+04  0.7818609E-02  0.8681051E-01
        1   -1    0    0  501    0  0.00000000000E+00  0.00000000000E+00  0.15150301957E+04  0.15150301957E+04  0.50400001928E-02 0. -1.
       -1   -1    0    0    0  501  0.00000000000E+00  0.00000000000E+00 -0.56369289877E+03  0.56369289880E+03  0.50400001928E-02 0.  1.
    10030    2    1    2    0    0  0.00000000000E+00  0.00000000000E+00  0.95133729689E+03  0.20787230945E+04  0.18482551369E+04 0.  0.
        1    1    3    3  502    0 -0.95777535762E+02  0.76809472762E+02 -0.55447986844E+03  0.56790928500E+03  0.50400001928E-02 0.  1.
       -1    1    3    3    0  502  0.95777535762E+02 -0.76809472762E+02  0.15058171653E+04  0.15108138095E+04  0.50400001928E-02 0. -1.
</event>
<event>
 5   0  0.2541124E-04  0.1845830E+04  0.7818609E-02  0.8682300E-01
        2   -1    0    0  501    0  0.00000000000E+00  0.00000000000E+00  0.50471579236E+03  0.50471579237E+03  0.25500000920E-02 0. -1.
       -2   -1    0    0    0  501  0.00000000000E+00  0.00000000000E+00 -0.16876273134E+04  0.16876273134E+04  0.25500000920E-02 0.  1.
    10030    2    1    2    0    0  0.00000000000E+00  0.00000000000E+00 -0.11829115210E+04  0.21923431058E+04  0.18458300645E+04 0.  0.
        5    1    3    3  502    0  0.43665246813E+03 -0.60981081659E+03 -0.12302008250E+04  0.14408160083E+04  0.46999998093E+01 0.  1.
       -5    1    3    3    0  502 -0.43665246813E+03  0.60981081659E+03  0.47289303974E+02  0.75152709746E+03  0.46999998093E+01 0. -1.
</event>
<event>
 5   0  0.1255141E-04  0.1898152E+04  0.7818609E-02  0.8655777E-01
        1   -1    0    0  501    0  0.00000000000E+00  0.00000000000E+00  0.15593171717E+04  0.15593171717E+04  0.50400001928E-02 0.  1.
       -1   -1    0    0    0  501  0.00000000000E+00  0.00000000000E+00 -0.57765353651E+03  0.57765353654E+03  0.50400001928E-02 0. -1.
    10030    2    1    2    0    0  0.00000000000E+00  0.00000000000E+00  0.98166363519E+03  0.21369707082E+04  0.18981518156E+04 0.  0.
        2    1    3    3  502    0 -0.71033000339E+03  0.70207669881E+02  0.11950273615E+04  0.13919727818E+04  0.25500000920E-02 0.  1.
       -2    1    3    3    0  502  0.71033000339E+03 -0.70207669881E+02 -0.21336372632E+03  0.74499792640E+03  0.25500000920E-02 0. -1.
</event>
<event>
 5   0  0.1239615E-04  0.1449778E+04  0.7818609E-02  0.8918555E-01
       -1   -1    0    0    0  501  0.00000000000E+00  0.00000000000E+00  0.44629190789E+03  0.44629190792E+03  0.50400001928E-02 0. -1.
        1   -1    0    0  501    0  0.00000000000E+00  0.00000000000E+00 -0.11773994092E+04  0.11773994092E+04  0.50400001928E-02 0.  1.
    10030    2    1    2    0    0  0.00000000000E+00  0.00000000000E+00 -0.73110750133E+03  0.16236913172E+04  0.14497776778E+04 0.  0.
        3    1    3    3  502    0  0.49045537827E+03 -0.51103623806E+03 -0.53818480197E+03  0.88957709388E+03  0.10100000352E+00 0.  1.
       -3    1    3    3    0  502 -0.49045537827E+03  0.51103623806E+03 -0.19292269937E+03  0.73411422328E+03  0.10100000352E+00 0. -1.
</event>
<event>
 5   0  0.1324058E-04  0.1945270E+04  0.7818609E-02  0.8632645E-01
       -1   -1    0    0    0  501  0.00000000000E+00  0.00000000000E+00  0.57967578587E+03  0.57967578589E+03  0.50400001928E-02 0. -1.
        1   -1    0    0  501    0  0.00000000000E+00  0.00000000000E+00 -0.16319798801E+04  0.16319798801E+04  0.50400001928E-02 0.  1.
    10030    2    1    2    0    0  0.00000000000E+00  0.00000000000E+00 -0.10523040942E+04  0.22116556660E+04  0.19452703869E+04 0.  0.
        5    1    3    3  502    0 -0.21170608667E+03 -0.25549321426E+03 -0.15656291516E+04  0.16004102536E+04  0.46999998093E+01 0.  1.
       -5    1    3    3    0  502  0.21170608667E+03  0.25549321426E+03  0.51332505734E+03  0.61124541238E+03  0.46999998093E+01 0. -1.
</event>
<event>
 5   0  0.2608744E-04  0.1877561E+04  0.7818609E-02  0.8666107E-01
        2   -1    0    0  501    0  0.00000000000E+00  0.00000000000E+00  0.22107862511E+04  0.22107862512E+04  0.25500000920E-02 0.  1.
       -2   -1    0    0    0  501  0.00000000000E+00  0.00000000000E+00 -0.39864028942E+03  0.39864028942E+03  0.25500000920E-02 0. -1.
    10030    2    1    2    0    0  0.00000000000E+00  0.00000000000E+00  0.18121459617E+04  0.26094265406E+04  0.18775606206E+04 0.  0.
        2    1    3    3  502    0 -0.75378337305E+03 -0.55373880225E+03  0.79408924315E+03  0.12269448890E+04  0.25500000920E-02 0.  1.
       -2    1    3    3    0  502  0.75378337305E+03  0.55373880225E+03  0.10180567186E+04  0.13824816516E+04  0.25500000920E-02 0. -1.
</event>
<event>
 5   0  0.2595012E-04  0.1901287E+04  0.7818609E-02  0.8654216E-01
       -2   -1    0    0    0  501  0.00000000000E+00  0.00000000000E+00  0.46602376794E+03  0.46602376795E+03  0.25500000920E-02 0.  1.
        2   -1    0    0  501    0  0.00000000000E+00  0.00000000000E+00 -0.19392209500E+04  0.19392209500E+04  0.25500000920E-02 0. -1.
    10030    2    1    2    0    0  0.00000000000E+00  0.00000000000E+00 -0.14731971820E+04  0.24052447179E+04  0.19012869894E+04 0.  0.
        1    1    3    3  502    0 -0.31204334305E+03  0.84951414276E+03 -0.36847284704E+03  0.97714766833E+03  0.50400001928E-02 0.  1.
       -1    1    3    3    0  502  0.31204334305E+03 -0.84951414276E+03 -0.11047243350E+04  0.14280970496E+04  0.50400001928E-02 0. -1.
</event>
<event>
 5   0  0.1317527E-04  0.1913267E+04  0.7818609E-02  0.8648281E-01
        1   -1    0    0  501    0  0.00000000000E+00  0.00000000000E+00  0.99337276219E+03  0.99337276220E+03  0.50400001928E-02 0.  1.
       -1   -1    0    0    0  501  0.00000000000E+00  0.00000000000E+00 -0.92125268187E+03  0.92125268189E+03  0.50400001928E-02 0. -1.
    10030    2    1    2    0    0  0.00000000000E+00  0.00000000000E+00  0.72120080320E+02  0.19146254441E+04  0.19132666529E+04 0.  0.
        1    1    3    3  502    0 -0.24142929394E+03  0.90645300088E+03  0.22381571389E+03  0.96438509973E+03  0.50400001928E-02 0.  1.
       -1    1    3    3    0  502  0.24142929394E+03 -0.90645300088E+03 -0.15169563357E+03  0.95024034436E+03  0.50400001928E-02 0. -1.
</event>
<event>
 5   0  0.1239615E-04  0.1824081E+04  0.7818609E-02  0.8693598E-01
        1   -1    0    0  501    0  0.00000000000E+00  0.00000000000E+00  0.13204474549E+04  0.13204474549E+04  0.50400001928E-02 0. -1.
       -1   -1    0    0    0  501  0.00000000000E+00  0.00000000000E+00 -0.62995117844E+03  0.62995117846E+03  0.50400001928E-02 0.  1.
    10030    2    1    2    0    0  0.00000000000E+00  0.00000000000E+00  0.69049627650E+03  0.19503986334E+04  0.18240805139E+04 0.  0.
        3    1    3    3  502    0  0.35350570719E+03  0.11761722729E+03 -0.54487773598E+03  0.66006958310E+03  0.10100000352E+00 0.  1.
       -3    1    3    3    0  502 -0.35350570719E+03 -0.11761722729E+03  0.12353740125E+04  0.12903290503E+04  0.10100000352E+00 0. -1.
</event>
<event>
 5   0  0.1239615E-04  0.1895338E+04  0.7818609E-02  0.8657180E-01
        1   -1    0    0  501    0  0.00000000000E+00  0.00000000000E+00  0.10990582268E+04  0.10990582268E+04  0.50400001928E-02 0.  1.
       -1   -1    0    0    0  501  0.00000000000E+00  0.00000000000E+00 -0.81713321228E+03  0.81713321229E+03  0.50400001928E-02 0. -1.
    10030    2    1    2    0    0  0.00000000000E+00  0.00000000000E+00  0.28192501448E+03  0.19161914391E+04  0.18953384704E+04 0.  0.
        3    1    3    3  502    0 -0.63903977903E+03 -0.63904612103E+03  0.42927578808E+03  0.10005146158E+04  0.10100000352E+00 0.  1.
       -3    1    3    3    0  502  0.63903977903E+03  0.63904612103E+03 -0.14735077360E+03  0.91567682327E+03  0.10100000352E+00 0. -1.
</event>
<event>
 5   0  0.1255141E-04  0.1898448E+04  0.7818609E-02  0.8655629E-01
       -1   -1    0    0    0  501  0.00000000000E+00  0.00000000000E+00  0.79595524952E+03  0.79595524953E+03  0.50400001928E-02 0.  1.
        1   -1    0    0  501    0  0.00000000000E+00  0.00000000000E+00 -0.11320065453E+04  0.11320065453E+04  0.50400001928E-02 0. -1.
    10030    2    1    2    0    0  0.00000000000E+00  0.00000000000E+00 -0.33605129574E+03  0.19279617948E+04  0.18984483688E+04 0.  0.
        2    1    3    3  502    0 -0.74561465776E+02  0.61947055268E+03  0.55844364312E+03  0.83735445324E+03  0.25500000920E-02 0.  1.
       -2    1    3    3    0  502  0.74561465776E+02 -0.61947055268E+03 -0.89449493886E+03  0.10906073416E+04  0.25500000920E-02 0. -1.
</event>
<event>
 5   0  0.2595012E-04  0.1919270E+04  0.7818609E-02  0.8645323E-01
        2   -1    0    0  501    0  0.00000000000E+00  0.00000000000E+00  0.21005986709E+04  0.21005986709E+04  0.25500000920E-02 0. -1.
       -2   -1    0    0    0  501  0.00000000000E+00  0.00000000000E+00 -0.43839864216E+03  0.43839864217E+03  0.25500000920E-02 0.  1.
    10030    2    1    2    0    0  0.00000000000E+00  0.00000000000E+00  0.16622000287E+04  0.25389973131E+04  0.19192702833E+04 0.  0.
        1    1    3    3  502    0 -0.22503815591E+03 -0.75163344206E+02  0.20611866589E+04  0.20747968919E+04  0.50400001928E-02 0. -1.
       -1    1    3    3    0  502  0.22503815591E+03  0.75163344206E+02 -0.39898663016E+03  0.46420042115E+03  0.50400001928E-02 0.  1.
</event>
<event>
 5   0  0.2651828E-04  0.1921483E+04  0.7818609E-02  0.8644236E-01
        2   -1    0    0  501    0  0.00000000000E+00  0.00000000000E+00  0.13546610693E+04  0.13546610693E+04  0.25500000920E-02 0. -1.
       -2   -1    0    0    0  501  0.00000000000E+00  0.00000000000E+00 -0.68136907207E+03  0.68136907208E+03  0.25500000920E-02 0.  1.
    10030    2    1    2    0    0  0.00000000000E+00  0.00000000000E+00  0.67329199722E+03  0.20360301414E+04  0.19214829229E+04 0.  0.
        3    1    3    3  502    0  0.93144118091E+03 -0.17662255373E+03  0.50163965124E+03  0.10725765939E+04  0.10100000352E+00 0. -1.
       -3    1    3    3    0  502 -0.93144118091E+03  0.17662255373E+03  0.17165234598E+03  0.96345354743E+03  0.10100000352E+00 0.  1.
</event>
<event>
 5   0  0.1239615E-04  0.1899637E+04  0.7818609E-02  0.8655037E-01
       -1   -1    0    0    0  501  0.00000000000E+00  0.00000000000E+00  0.56754645754E+03  0.56754645756E+03  0.50400001928E-02 0. -1.
        1   -1    0    0  501    0  0.00000000000E+00  0.00000000000E+00 -0.15895700292E+04  0.15895700292E+04  0.50400001928E-02 0.  1.
    10030    2    1    2    0    0  0.00000000000E+00  0.00000000000E+00 -0.10220235717E+04  0.21571164868E+04  0.18996366380E+04 0.  0.
        3    1    3    3  502    0 -0.24154099987E+03  0.52167482844E+03 -0.13695804989E+04  0.14853408478E+04  0.10100000352E+00 0.  1.
       -3    1    3    3    0  502  0.24154099987E+03 -0.52167482844E+03  0.34755692717E+03  0.67177563894E+03  0.10100000352E+00 0. -1.
</event>
<event>
 5   0  0.2562925E-04  0.1907454E+04  0.7818609E-02  0.8651155E-01
        2   -1    0    0  501    0  0.00000000000E+00  0.00000000000E+00  0.92274616360E+03  0.92274616361E+03  0.25500000920E-02 0. -1.
       -2   -1    0    0    0  501  0.00000000000E+00  0.00000000000E+00 -0.98574812934E+03  0.98574812934E+03  0.25500000920E-02 0.  1.
    10030    2    1    2    0    0  0.00000000000E+00  0.00000000000E+00 -0.63001965733E+02  0.19084942929E+04  0.19074541196E+04 0.  0.
        4    1    3    3  502    0  0.20082176759E+03  0.24348212880E+03  0.86897911186E+03  0.92452108636E+03  0.12699999809E+01 0. -1.
       -4    1    3    3    0  502 -0.20082176759E+03 -0.24348212880E+03 -0.93198107759E+03  0.98397320658E+03  0.12699999809E+01 0.  1.
</event>
<event>
 5   0  0.1239615E-04  0.1898457E+04  0.7818609E-02  0.8655625E-01
       -1   -1    0    0    0  501  0.00000000000E+00  0.00000000000E+00  0.11184468723E+04  0.11184468723E+04  0.50400001928E-02 0. -1.
        1   -1    0    0  501    0  0.00000000000E+00  0.00000000000E+00 -0.80561286601E+03  0.80561286603E+03  0.50400001928E-02 0.  1.
    10030    2    1    2    0    0  0.00000000000E+00  0.00000000000E+00  0.31283400629E+03  0.19240597383E+04  0.18984574689E+04 0.  0.
        3    1    3    3  502    0 -0.56180434643E+03 -0.30639404543E+03 -0.55413251500E+03  0.84650120444E+03  0.10100000352E+00 0.  1.
       -3    1    3    3    0  502  0.56180434643E+03  0.30639404543E+03  0.86696652129E+03  0.10775585339E+04  0.10100000352E+00 0. -1.
</event>
<event>
 5   0  0.1239615E-04  0.1955768E+04  0.7818609E-02  0.8627584E-01
        1   -1    0    0  501    0  0.00000000000E+00  0.00000000000E+00  0.94909064869E+03  0.94909064871E+03  0.50400001928E-02 0.  1.
       -1   -1    0    0    0  501  0.00000000000E+00  0.00000000000E+00 -0.10075509013E+04  0.10075509013E+04  0.50400001928E-02 0. -1.
    10030    2    1    2    0    0  0.00000000000E+00  0.00000000000E+00 -0.58460252621E+02  0.19566415500E+04  0.19557680216E+04 0.  0.
        3    1    3    3  502    0  0.72358046895E+03  0.30457813226E+03  0.55405737416E+03  0.96089339562E+03  0.10100000352E+00 0.  1.
       -3    1    3    3    0  502 -0.72358046895E+03 -0.30457813226E+03 -0.61251762678E+03  0.99574815441E+03  0.10100000352E+00 0. -1.
</event>
<event>
 5   0  0.2541124E-04  0.1885561E+04  0.7818609E-02  0.8662077E-01
        2   -1    0    0  501    0  0.00000000000E+00  0.00000000000E+00  0.21697880313E+04  0.21697880313E+04  0.25500000920E-02 0.  1.
       -2   -1    0    0    0  501  0.00000000000E+00  0.00000000000E+00 -0.40964137712E+03  0.40964137713E+03  0.25500000920E-02 0. -1.
    10030    2    1    2    0    0  0.00000000000E+00  0.00000000000E+00  0.17601466542E+04  0.25794294084E+04  0.18855608791E+04 0.  0.
        5    1    3    3  502    0 -0.69937360156E+03 -0.83946864402E+02  0.22874315162E+02  0.70478069986E+03  0.46999998093E+01 0. -1.
       -5    1    3    3    0  502  0.69937360156E+03  0.83946864402E+02  0.17372723390E+04  0.18746487086E+04  0.46999998093E+01 0.  1.
</event>
<event>
 5   0  0.1277709E-04  0.1843715E+04  0.7818609E-02  0.8683392E-01
       -1   -1    0    0    0  501  0.00000000000E+00  0.00000000000E+00  0.17251341108E+04  0.17251341108E+04  0.50400001928E-02 0.  1.
        1   -1    0    0  501    0  0.00000000000E+00  0.00000000000E+00 -0.49261174776E+03  0.49261174778E+03  0.50400001928E-02 0. -1.
    10030    2    1    2    0    0  0.00000000000E+00  0.00000000000E+00  0.12325223631E+04  0.22177458586E+04  0.18437150859E+04 0.  0.
        4    1    3    3  502    0  0.36588921424E+03 -0.29356666220E+03 -0.33830640034E+03  0.57836764749E+03  0.12699999809E+01 0. -1.
       -4    1    3    3    0  502 -0.36588921424E+03  0.29356666220E+03  0.15708287634E+04  0.16393782111E+04  0.12699999809E+01 0.  1.
</event>
<event>
 5   0  0.1239615E-04  0.1915369E+04  0.7818609E-02  0.8647244E-01
        1   -1    0    0  501    0  0.00000000000E+00  0.00000000000E+00  0.16586578988E+04  0.16586578988E+04  0.50400001928E-02 0. -1.
       -1   -1    0    0    0  501  0.00000000000E+00  0.00000000000E+00 -0.55295293590E+03  0.55295293592E+03  0.50400001928E-02 0.  1.
    10030    2    1    2    0    0  0.00000000000E+00  0.00000000000E+00  0.11057049629E+04  0.22116108347E+04  0.19153691600E+04 0.  0.
        3    1    3    3  502    0  0.58633281962E+03 -0.73395542759E+03  0.76789015046E+03  0.12133144846E+04  0.10100000352E+00 0. -1.
       -3    1    3    3    0  502 -0.58633281962E+03  0.73395542759E+03  0.33781481242E+03  0.99829635016E+03  0.10100000352E+00 0.  1.
</event>
<event>
 5   0  0.2608744E-04  0.1890869E+04  0.7818609E-02  0.8659415E-01
        2   -1    0    0  501    0  0.00000000000E+00  0.00000000000E+00  0.86374179487E+03  0.86374179488E+03  0.25500000920E-02 0.  1.
       -2   -1    0    0    0  501  0.00000000000E+00  0.00000000000E+00 -0.10348535462E+04  0.10348535462E+04  0.25500000920E-02 0. -1.
    10030    2    1    2    0    0  0.00000000000E+00  0.00000000000E+00 -0.17111175131E+03  0.18985953411E+04  0.18908688579E+04 0.  0.
        2    1    3    3  502    0  0.28149483530E+03  0.73640355521E+03  0.43841621647E+03  0.90207445220E+03  0.25500000920E-02 0.  1.
       -2    1    3    3    0  502 -0.28149483530E+03 -0.73640355521E+03 -0.60952796779E+03  0.99652088887E+03  0.25500000920E-02 0. -1.
</event>
<event>
 5   0  0.1277709E-04  0.1907458E+04  0.7818609E-02  0.8651153E-01
        1   -1    0    0  501    0  0.00000000000E+00  0.00000000000E+00  0.24422798426E+04  0.24422798426E+04  0.50400001928E-02 0.  1.
       -1   -1    0    0    0  501  0.00000000000E+00  0.00000000000E+00 -0.37243849152E+03  0.37243849156E+03  0.50400001928E-02 0. -1.
    10030    2    1    2    0    0  0.00000000000E+00  0.00000000000E+00  0.20698413511E+04  0.28147183341E+04  0.19074580158E+04 0.  0.
        4    1    3    3  502    0 -0.47007363750E+03  0.61052561686E+03  0.18642854644E+04  0.20172438274E+04  0.12699999809E+01 0. -1.
       -4    1    3    3    0  502  0.47007363750E+03 -0.61052561686E+03  0.20555588670E+03  0.79747450678E+03  0.12699999809E+01 0.  1.
</event>
<event>
 5   0  0.2595012E-04  0.1900747E+04  0.7818609E-02  0.8654485E-01
       -2   -1    0    0    0  501  0.00000000000E+00  0.00000000000E+00  0.50830981241E+03  0.50830981242E+03  0.25500000920E-02 0. -1.
        2   -1    0    0  501    0  0.00000000000E+00  0.00000000000E+00 -0.17768884688E+04  0.17768884688E+04  0.25500000920E-02 0.  1.
    10030    2    1    2    0    0  0.00000000000E+00  0.00000000000E+00 -0.12685786564E+04  0.22851982812E+04  0.19007470576E+04 0.  0.
        1    1    3    3  502    0 -0.17884071901E+03  0.92583759774E+03 -0.49177886533E+03  0.10634875235E+04  0.50400001928E-02 0. -1.
       -1    1    3    3    0  502  0.17884071901E+03 -0.92583759774E+03 -0.77679979104E+03  0.12217107577E+04  0.50400001928E-02 0.  1.
</event>
<event>
 5   0  0.1255141E-04  0.1879527E+04  0.7818609E-02  0.8665115E-01
        1   -1    0    0  501    0  0.00000000000E+00  0.00000000000E+00  0.59674192658E+03  0.59674192660E+03  0.50400001928E-02 0.  1.
       -1   -1    0    0    0  501  0.00000000000E+00  0.00000000000E+00 -0.14799619299E+04  0.14799619299E+04  0.50400001928E-02 0. -1.
    10030    2    1    2    0    0  0.00000000000E+00  0.00000000000E+00 -0.88322000329E+03  0.20767038565E+04  0.18795268908E+04 0.  0.
        2    1    3    3  502    0 -0.32209473741E+03  0.46904673442E+02 -0.14156914894E+04  0.14526277780E+04  0.25500000920E-02 0. -1.
       -2    1    3    3    0  502  0.32209473741E+03 -0.46904673442E+02  0.53247148609E+03  0.62407607850E+03  0.25500000920E-02 0.  1.
</event>
<event>
 5   0  0.1277709E-04  0.1869527E+04  0.7818609E-02  0.8670175E-01
        1   -1    0    0  501    0  0.00000000000E+00  0.00000000000E+00  0.12647280906E+04  0.12647280906E+04  0.50400001928E-02 0.  1.
       -1   -1    0    0    0  501  0.00000000000E+00  0.00000000000E+00 -0.69088602985E+03  0.69088602986E+03  0.50400001928E-02 0. -1.
    10030    2    1    2    0    0  0.00000000000E+00  0.00000000000E+00  0.57384206078E+03  0.19556141205E+04  0.18695271802E+04 0.  0.
        4    1    3    3  502    0  0.65368623303E+03  0.47275285489E+03 -0.20703094812E+03  0.83286516282E+03  0.12699999809E+01 0. -1.
       -4    1    3    3    0  502 -0.65368623303E+03 -0.47275285489E+03  0.78087300890E+03  0.11227489577E+04  0.12699999809E+01 0.  1.
</event>
<event>
 5   0  0.2651828E-04  0.1861796E+04  0.7818609E-02  0.8674110E-01
        2   -1    0    0  501    0  0.00000000000E+00  0.00000000000E+00  0.21676802077E+04  0.21676802077E+04  0.25500000920E-02 0. -1.
       -2   -1    0    0    0  501  0.00000000000E+00  0.00000000000E+00 -0.39976880599E+03  0.39976880600E+03  0.25500000920E-02 0.  1.
    10030    2    1    2    0    0  0.00000000000E+00  0.00000000000E+00  0.17679114017E+04  0.25674490137E+04  0.18617958303E+04 0.  0.
        3    1    3    3  502    0 -0.17567260783E+02 -0.36550017486E+03 -0.29643166285E+03  0.47092539474E+03  0.10100000352E+00 0.  1.
       -3    1    3    3    0  502  0.17567260783E+02  0.36550017486E+03  0.20643430645E+04  0.20965236189E+04  0.10100000352E+00 0. -1.
</event>
<event>
 5   0  0.1239615E-04  0.1923366E+04  0.7818609E-02  0.8643312E-01
        1   -1    0    0  501    0  0.00000000000E+00  0.00000000000E+00  0.12148792713E+04  0.12148792713E+04  0.50400001928E-02 0.  1.
       -1   -1    0    0    0  501  0.00000000000E+00  0.00000000000E+00 -0.76125578217E+03  0.76125578219E+03  0.50400001928E-02 0. -1.
    10030    2    1    2    0    0  0.00000000000E+00  0.00000000000E+00  0.45362348908E+03  0.19761350534E+04  0.19233656646E+04 0.  0.
        3    1    3    3  502    0 -0.37167274679E+03 -0.12975648955E+03  0.11282991187E+04  0.11950047233E+04  0.10100000352E+00 0.  1.
       -3    1    3    3    0  502  0.37167274679E+03  0.12975648955E+03 -0.67467562961E+03  0.78113033015E+03  0.10100000352E+00 0. -1.
</event>
<event>
 5   0  0.2608744E-04  0.1900813E+04  0.7818609E-02  0.8654452E-01
        2   -1    0    0  501    0  0.00000000000E+00  0.00000000000E+00  0.16597394085E+04  0.16597394085E+04  0.25500000920E-02 0.  1.
       -2   -1    0    0    0  501  0.00000000000E+00  0.00000000000E+00 -0.54422531333E+03  0.54422531333E+03  0.25500000920E-02 0. -1.
    10030    2    1    2    0    0  0.00000000000E+00  0.00000000000E+00  0.11155140952E+04  0.22039647219E+04  0.19008126679E+04 0.  0.
        2    1    3    3  502    0  0.50715192562E+02  0.17343859218E+03  0.16396379314E+04  0.16495652524E+04  0.25500000920E-02 0.  1.
       -2    1    3    3    0  502 -0.50715192562E+02 -0.17343859218E+03 -0.52412383619E+03  0.55439946941E+03  0.25500000920E-02 0. -1.
</event>
<event>
 5   0  0.2651828E-04  0.1891742E+04  0.7818609E-02  0.8658978E-01
        2   -1    0    0  501    0  0.00000000000E+00  0.00000000000E+00  0.96088152732E+03  0.96088152732E+03  0.25500000920E-02 0. -1.
       -2   -1    0    0    0  501  0.00000000000E+00  0.00000000000E+00 -0.93109475868E+03  0.93109475868E+03  0.25500000920E-02 0.  1.
    10030    2    1    2    0    0  0.00000000000E+00  0.00000000000E+00  0.29786768636E+02  0.18919762860E+04  0.18917417940E+04 0.  0.
        3    1    3    3  502    0 -0.80468304165E+03 -0.35947535327E+03 -0.32856499095E+03  0.94058082620E+03  0.10100000352E+00 0.  1.
       -3    1    3    3    0  502  0.80468304165E+03  0.35947535327E+03  0.35835175959E+03  0.95139545980E+03  0.10100000352E+00 0. -1.
</event>
<event>
 5   0  0.2608744E-04  0.1907241E+04  0.7818609E-02  0.8651260E-01
       -2   -1    0    0    0  501  0.00000000000E+00  0.00000000000E+00  0.40401916911E+03  0.40401916912E+03  0.25500000920E-02 0.  1.
        2   -1    0    0  501    0  0.00000000000E+00  0.00000000000E+00 -0.22508646246E+04  0.22508646246E+04  0.25500000920E-02 0. -1.
    10030    2    1    2    0    0  0.00000000000E+00  0.00000000000E+00 -0.18468454554E+04  0.26548837937E+04  0.19072414167E+04 0.  0.
        2    1    3    3  502    0  0.56127103995E+03  0.35193036454E+03  0.31405687592E+02  0.66322430519E+03  0.25500000920E-02 0.  1.
       -2    1    3    3    0  502 -0.56127103995E+03 -0.35193036454E+03 -0.18782511430E+04  0.19916594885E+04  0.25500000920E-02 0. -1.
</event>
<event>
 5   0  0.2608744E-04  0.1900286E+04  0.7818609E-02  0.8654714E-01
       -2   -1    0    0    0  501  0.00000000000E+00  0.00000000000E+00  0.75616292872E+03  0.75616292872E+03  0.25500000920E-02 0.  1.
        2   -1    0    0  501    0  0.00000000000E+00  0.00000000000E+00 -0.11938855906E+04  0.11938855906E+04  0.25500000920E-02 0. -1.
    10030    2    1    2    0    0  0.00000000000E+00  0.00000000000E+00 -0.43772266190E+03  0.19500485193E+04  0.19002863203E+04 0.  0.
        2    1    3    3  502    0  0.25814902787E+03  0.87284493490E+03  0.60805745892E+02  0.91224806918E+03  0.25500000920E-02 0.  1.
       -2    1    3    3    0  502 -0.25814902787E+03 -0.87284493490E+03 -0.49852840779E+03  0.10378004502E+04  0.25500000920E-02 0. -1.
</event>
<event>
 5   0  0.1324058E-04  0.1893244E+04  0.7818609E-02  0.8658227E-01
       -1   -1    0    0    0  501  0.00000000000E+00  0.00000000000E+00  0.61261995251E+03  0.61261995253E+03  0.50400001928E-02 0.  1.
        1   -1    0    0  501    0  0.00000000000E+00  0.00000000000E+00 -0.14627230333E+04  0.14627230333E+04  0.50400001928E-02 0. -1.
    10030    2    1    2    0    0  0.00000000000E+00  0.00000000000E+00 -0.85010308079E+03  0.20753429858E+04  0.18932441102E+04 0.  0.
        5    1    3    3  502    0 -0.86051277117E+03  0.35761298442E+02  0.55548584964E+01  0.86128627428E+03  0.46999998093E+01 0.  1.
       -5    1    3    3    0  502  0.86051277117E+03 -0.35761298442E+02 -0.85565793929E+03  0.12140567116E+04  0.46999998093E+01 0. -1.
</event>
<event>
 5   0  0.1317527E-04  0.1902886E+04  0.7818609E-02  0.8653421E-01
        1   -1    0    0  501    0  0.00000000000E+00  0.00000000000E+00  0.91297292413E+03  0.91297292415E+03  0.50400001928E-02 0. -1.
       -1   -1    0    0    0  501  0.00000000000E+00  0.00000000000E+00 -0.99153460659E+03  0.99153460660E+03  0.50400001928E-02 0.  1.
    10030    2    1    2    0    0  0.00000000000E+00  0.00000000000E+00 -0.78561682457E+02  0.19045075308E+04  0.19028864908E+04 0.  0.
        1    1    3    3  502    0 -0.27613119468E+03  0.16106226845E+02 -0.95040595842E+03  0.98983803374E+03  0.50400001928E-02 0.  1.
       -1    1    3    3    0  502  0.27613119468E+03 -0.16106226845E+02  0.87184427596E+03  0.91466949701E+03  0.50400001928E-02 0. -1.
</event>
<event>
 5   0  0.2608744E-04  0.1685521E+04  0.7818609E-02  0.8769665E-01
        2   -1    0    0  501    0  0.00000000000E+00  0.00000000000E+00  0.13991732459E+04  0.13991732459E+04  0.25500000920E-02 0. -1.
       -2   -1    0    0    0  501  0.00000000000E+00  0.00000000000E+00 -0.50761794317E+03  0.50761794318E+03  0.25500000920E-02 0.  1.
    10030    2    1    2    0    0  0.00000000000E+00  0.00000000000E+00  0.89155530272E+03  0.19067911891E+04  0.16855212194E+04 0.  0.
        2    1    3    3  502    0  0.53317387837E+03  0.40398267322E+03  0.10256815470E+04  0.12245403303E+04  0.25500000920E-02 0. -1.
       -2    1    3    3    0  502 -0.53317387837E+03 -0.40398267322E+03 -0.13412624425E+03  0.68225085873E+03  0.25500000920E-02 0.  1.
</event>
<event>
 5   0  0.2608744E-04  0.1823328E+04  0.7818609E-02  0.8693991E-01
       -2   -1    0    0    0  501  0.00000000000E+00  0.00000000000E+00  0.15197792831E+04  0.15197792831E+04  0.25500000920E-02 0.  1.
        2   -1    0    0  501    0  0.00000000000E+00  0.00000000000E+00 -0.54687636157E+03  0.54687636158E+03  0.25500000920E-02 0. -1.
    10030    2    1    2    0    0  0.00000000000E+00  0.00000000000E+00  0.97290292151E+03  0.20666556447E+04  0.18233281271E+04 0.  0.
        2    1    3    3  502    0  0.59629419086E+03 -0.55262101360E+03  0.18877110291E+02  0.81321159118E+03  0.25500000920E-02 0. -1.
       -2    1    3    3    0  502 -0.59629419086E+03  0.55262101360E+03  0.95402581122E+03  0.12534440535E+04  0.25500000920E-02 0.  1.
</event>
<event>
 5   0  0.2651828E-04  0.1908801E+04  0.7818609E-02  0.8650488E-01
        2   -1    0    0  501    0  0.00000000000E+00  0.00000000000E+00  0.68355328560E+03  0.68355328561E+03  0.25500000920E-02 0.  1.
       -2   -1    0    0    0  501  0.00000000000E+00  0.00000000000E+00 -0.13325671067E+04  0.13325671067E+04  0.25500000920E-02 0. -1.
    10030    2    1    2    0    0  0.00000000000E+00  0.00000000000E+00 -0.64901382105E+03  0.20161203923E+04  0.19088013244E+04 0.  0.
        3    1    3    3  502    0  0.38604166430E+03 -0.47356195665E+03  0.44992268157E+03  0.75876183546E+03  0.10100000352E+00 0.  1.
       -3    1    3    3    0  502 -0.38604166430E+03  0.47356195665E+03 -0.10989365026E+04  0.12573585568E+04  0.10100000352E+00 0. -1.
</event>
<event>
 5   0  0.1255141E-04  0.2001035E+04  0.7818609E-02  0.8606137E-01
        1   -1    0    0  501    0  0.00000000000E+00  0.00000000000E+00  0.13007966043E+04  0.13007966043E+04  0.50400001928E-02 0.  1.
       -1   -1    0    0    0  501  0.00000000000E+00  0.00000000000E+00 -0.76955576238E+03  0.76955576240E+03  0.50400001928E-02 0. -1.
    10030    2    1    2    0    0  0.00000000000E+00  0.00000000000E+00  0.53124084195E+03  0.20703523667E+04  0.20010352546E+04 0.  0.
        2    1    3    3  502    0  0.91511343817E+03  0.29512119868E+03  0.55179984078E+03  0.11086082225E+04  0.25500000920E-02 0.  1.
       -2    1    3    3    0  502 -0.91511343817E+03 -0.29512119868E+03 -0.20558998829E+02  0.96174414428E+03  0.25500000920E-02 0. -1.
</event>
<event>
 5   0  0.1317527E-04  0.1742643E+04  0.7818609E-02  0.8737410E-01
        1   -1    0    0  501    0  0.00000000000E+00  0.00000000000E+00  0.14946108096E+04  0.14946108096E+04  0.50400001928E-02 0.  1.
       -1   -1    0    0    0  501  0.00000000000E+00  0.00000000000E+00 -0.50795921520E+03  0.50795921523E+03  0.50400001928E-02 0. -1.
    10030    2    1    2    0    0  0.00000000000E+00  0.00000000000E+00  0.98665159444E+03  0.20025700249E+04  0.17426432038E+04 0.  0.
        1    1    3    3  502    0  0.20295641196E+03  0.73139284272E+03  0.98501787188E+03  0.12435380989E+04  0.50400001928E-02 0.  1.
       -1    1    3    3    0  502 -0.20295641196E+03 -0.73139284272E+03  0.16337225611E+01  0.75903192595E+03  0.50400001928E-02 0. -1.
</event>
<event>
 5   0  0.2608744E-04  0.1904204E+04  0.7818609E-02  0.8652766E-01
       -2   -1    0    0    0  501  0.00000000000E+00  0.00000000000E+00  0.86016896575E+03  0.86016896575E+03  0.25500000920E-02 0. -1.
        2   -1    0    0  501    0  0.00000000000E+00  0.00000000000E+00 -0.10538610237E+04  0.10538610237E+04  0.25500000920E-02 0.  1.
    10030    2    1    2    0    0  0.00000000000E+00  0.00000000000E+00 -0.19369205796E+03  0.19140299895E+04  0.19042043449E+04 0.  0.
        2    1    3    3  502    0  0.33721587676E+03  0.48439310646E+03 -0.84779358348E+03  0.10330078360E+04  0.25500000920E-02 0.  1.
       -2    1    3    3    0  502 -0.33721587676E+03 -0.48439310646E+03  0.65410152552E+03  0.88102215342E+03  0.25500000920E-02 0. -1.
</event>
<event>
 5   0  0.2541124E-04  0.1896638E+04  0.7818609E-02  0.8656532E-01
       -2   -1    0    0    0  501  0.00000000000E+00  0.00000000000E+00  0.38080272068E+03  0.38080272069E+03  0.25500000920E-02 0. -1.
        2   -1    0    0  501    0  0.00000000000E+00  0.00000000000E+00 -0.23616128801E+04  0.23616128801E+04  0.25500000920E-02 0.  1.
    10030    2    1    2    0    0  0.00000000000E+00  0.00000000000E+00 -0.19808101595E+04  0.27424156008E+04  0.18966376670E+04 0.  0.
        5    1    3    3  502    0  0.60201087708E+03  0.62513145787E+02  0.65188720226E+02  0.60876649773E+03  0.46999998093E+01 0. -1.
       -5    1    3    3    0  502 -0.60201087708E+03 -0.62513145787E+02 -0.20459988797E+04  0.21336491031E+04  0.46999998093E+01 0.  1.
</event>
<event>
 5   0  0.1255141E-04  0.1913070E+04  0.7818609E-02  0.8648378E-01
        1   -1    0    0  501    0  0.00000000000E+00  0.00000000000E+00  0.13563554573E+04  0.13563554573E+04  0.50400001928E-02 0. -1.
       -1   -1    0    0    0  501  0.00000000000E+00  0.00000000000E+00 -0.67457183006E+03  0.67457183008E+03  0.50400001928E-02 0.  1.
    10030    2    1    2    0    0  0.00000000000E+00  0.00000000000E+00  0.68178362721E+03  0.20309272874E+04  0.19130699758E+04 0.  0.
        2    1    3    3  502    0  0.93618517505E+03  0.53388490137E+02  0.14040225593E+03  0.94815916720E+03  0.25500000920E-02 0.  1.
       -2    1    3    3    0  502 -0.93618517505E+03 -0.53388490137E+02  0.54138137128E+03  0.10827681202E+04  0.25500000920E-02 0. -1.
</event>
<event>
 5   0  0.1324058E-04  0.1901257E+04  0.7818609E-02  0.8654231E-01
       -1   -1    0    0    0  501  0.00000000000E+00  0.00000000000E+00  0.57802709062E+03  0.57802709064E+03  0.50400001928E-02 0.  1.
        1   -1    0    0  501    0  0.00000000000E+00  0.00000000000E+00 -0.15634116257E+04  0.15634116258E+04  0.50400001928E-02 0. -1.
    10030    2    1    2    0    0  0.00000000000E+00  0.00000000000E+00 -0.98538453513E+03  0.21414387164E+04  0.19012567144E+04 0.  0.
        5    1    3    3  502    0  0.88529234948E+01 -0.87706791953E+03 -0.79857055711E+02  0.88075294440E+03  0.46999998093E+01 0.  1.
       -5    1    3    3    0  502 -0.88529234948E+01  0.87706791953E+03 -0.90552747942E+03  0.12606857720E+04  0.46999998093E+01 0. -1.
</event>
<event>
 5   0  0.2562925E-04  0.1900866E+04  0.7818609E-02  0.8654425E-01
       -2   -1    0    0    0  501  0.00000000000E+00  0.00000000000E+00  0.11922676705E+04  0.11922676705E+04  0.25500000920E-02 0.  1.
        2   -1    0    0  501    0  0.00000000000E+00  0.00000000000E+00 -0.75765119383E+03  0.75765119384E+03  0.25500000920E-02 0. -1.
    10030    2    1    2    0    0  0.00000000000E+00  0.00000000000E+00  0.43461647668E+03  0.19499188644E+04  0.19008661436E+04 0.  0.
        4    1    3    3  502    0 -0.95677192136E+02  0.35249898923E+03 -0.68278081253E+03  0.77433901707E+03  0.12699999809E+01 0. -1.
       -4    1    3    3    0  502  0.95677192136E+02 -0.35249898923E+03  0.11173972892E+04  0.11755798473E+04  0.12699999809E+01 0.  1.
</event>
<event>
 5   0  0.1239615E-04  0.1890638E+04  0.7818609E-02  0.8659531E-01
        1   -1    0    0  501    0  0.00000000000E+00  0.00000000000E+00  0.17765306718E+04  0.17765306719E+04  0.50400001928E-02 0. -1.
       -1   -1    0    0    0  501  0.00000000000E+00  0.00000000000E+00 -0.50301859125E+03  0.50301859127E+03  0.50400001928E-02 0.  1.
    10030    2    1    2    0    0  0.00000000000E+00  0.00000000000E+00  0.12735120806E+04  0.22795492631E+04  0.18906379409E+04 0.  0.
        3    1    3    3  502    0 -0.75494012020E+03  0.55111192007E+03  0.80713615406E+03  0.12349606127E+04  0.10100000352E+00 0. -1.
       -3    1    3    3    0  502  0.75494012020E+03 -0.55111192007E+03  0.46637592654E+03  0.10445886504E+04  0.10100000352E+00 0.  1.
</event>
<event>
 5   0  0.1255141E-04  0.1921436E+04  0.7818609E-02  0.8644259E-01
        1   -1    0    0  501    0  0.00000000000E+00  0.00000000000E+00  0.17540514472E+04  0.17540514473E+04  0.50400001928E-02 0. -1.
       -1   -1    0    0    0  501  0.00000000000E+00  0.00000000000E+00 -0.52619861430E+03  0.52619861433E+03  0.50400001928E-02 0.  1.
    10030    2    1    2    0    0  0.00000000000E+00  0.00000000000E+00  0.12278528329E+04  0.22802500616E+04  0.19214363804E+04 0.  0.
        2    1    3    3  502    0 -0.79323957990E+03 -0.26674838454E+03  0.11738320807E+04  0.14416190501E+04  0.25500000920E-02 0. -1.
       -2    1    3    3    0  502  0.79323957990E+03  0.26674838454E+03  0.54020752213E+02  0.83863101150E+03  0.25500000920E-02 0.  1.
</event>
<event>
 5   0  0.2608744E-04  0.1850200E+04  0.7818609E-02  0.8680050E-01
       -2   -1    0    0    0  501  0.00000000000E+00  0.00000000000E+00  0.36112611792E+03  0.36112611793E+03  0.25500000920E-02 0. -1.
        2   -1    0    0  501    0  0.00000000000E+00  0.00000000000E+00 -0.23698369516E+04  0.23698369516E+04  0.25500000920E-02 0.  1.
    10030    2    1    2    0    0  0.00000000000E+00  0.00000000000E+00 -0.20087108337E+04  0.27309630696E+04  0.18502000092E+04 0.  0.
        2    1    3    3  502    0  0.37948045834E+03 -0.81848096013E+03 -0.13064692179E+04  0.15876959147E+04  0.25500000920E-02 0.  1.
       -2    1    3    3    0  502 -0.37948045834E+03  0.81848096013E+03 -0.70224161585E+03  0.11432671549E+04  0.25500000920E-02 0. -1.
</event>
<event>
 5   0  0.2541124E-04  0.1870229E+04  0.7818609E-02  0.8669819E-01
       -2   -1    0    0    0  501  0.00000000000E+00  0.00000000000E+00  0.10007921686E+04  0.10007921686E+04  0.25500000920E-02 0. -1.
        2   -1    0    0  501    0  0.00000000000E+00  0.00000000000E+00 -0.87374675928E+03  0.87374675928E+03  0.25500000920E-02 0.  1.
    10030    2    1    2    0    0  0.00000000000E+00  0.00000000000E+00  0.12704540930E+03  0.18745389279E+04  0.18702287710E+04 0.  0.
        5    1    3    3  502    0 -0.75401520121E+03  0.48338989840E+02 -0.48869278395E+03  0.89984349121E+03  0.46999998093E+01 0.  1.
       -5    1    3    3    0  502  0.75401520121E+03 -0.48338989840E+02  0.61573819325E+03  0.97469543664E+03  0.46999998093E+01 0. -1.
</event>
<event>
 5   0  0.1277709E-04  0.1864069E+04  0.7818609E-02  0.8672951E-01
        1   -1    0    0  501    0  0.00000000000E+00  0.00000000000E+00  0.89728825626E+03  0.89728825628E+03  0.50400001928E-02 0. -1.
       -1   -1    0    0    0  501  0.00000000000E+00  0.00000000000E+00 -0.96812668409E+03  0.96812668410E+03  0.50400001928E-02 0.  1.
    10030    2    1    2    0    0  0.00000000000E+00  0.00000000000E+00 -0.70838427829E+02  0.18654149404E+04  0.18640694238E+04 0.  0.
        4    1    3    3  502    0 -0.73529607937E+03  0.49121120777E+03  0.25930706570E+03  0.92151535103E+03  0.12699999809E+01 0. -1.
       -4    1    3    3    0  502  0.73529607937E+03 -0.49121120777E+03 -0.33014549353E+03  0.94389958935E+03  0.12699999809E+01 0.  1.
</event>
<event>
 5   0  0.2541124E-04  0.2001974E+04  0.7818609E-02  0.8605698E-01
        2   -1    0    0  501    0  0.00000000000E+00  0.00000000000E+00  0.20296618885E+04  0.20296618885E+04  0.25500000920E-02 0. -1.
       -2   -1    0    0    0  501  0.00000000000E+00  0.00000000000E+00 -0.49366575942E+03  0.49366575942E+03  0.25500000920E-02 0.  1.
    10030    2    1    2    0    0  0.00000000000E+00  0.00000000000E+00  0.15359961291E+04  0.25233276480E+04  0.20019736038E+04 0.  0.
        5    1    3    3  502    0  0.57980317366E+03 -0.79184885553E+03  0.10161317093E+04  0.14127073550E+04  0.46999998093E+01 0. -1.
       -5    1    3    3    0  502 -0.57980317366E+03  0.79184885553E+03  0.51986441984E+03  0.11106202930E+04  0.46999998093E+01 0.  1.
</event>
<event>
 5   0  0.1239615E-04  0.1823968E+04  0.7818609E-02  0.8693657E-01
       -1   -1    0    0    0  501  0.00000000000E+00  0.00000000000E+00  0.89955344026E+03  0.89955344027E+03  0.50400001928E-02 0.  1.
        1   -1    0    0  501    0  0.00000000000E+00  0.00000000000E+00 -0.92458615359E+03  0.92458615360E+03  0.50400001928E-02 0. -1.
    10030    2    1    2    0    0  0.00000000000E+00  0.00000000000E+00 -0.25032713332E+02  0.18241395939E+04  0.18239678235E+04 0.  0.
        3    1    3    3  502    0 -0.64929871434E+03  0.58870232519E+03 -0.26464205561E+03  0.91552972422E+03  0.10100000352E+00 0. -1.
       -3    1    3    3    0  502  0.64929871434E+03 -0.58870232519E+03  0.23960934228E+03  0.90860986965E+03  0.10100000352E+00 0.  1.
</event>
<event>
 5   0  0.2608744E-04  0.1877318E+04  0.7818609E-02  0.8666230E-01
       -2   -1    0    0    0  501  0.00000000000E+00  0.00000000000E+00  0.65960195025E+03  0.65960195025E+03  0.25500000920E-02 0.  1.
        2   -1    0    0  501    0  0.00000000000E+00  0.00000000000E+00 -0.13357768912E+04  0.13357768912E+04  0.25500000920E-02 0. -1.
    10030    2    1    2    0    0  0.00000000000E+00  0.00000000000E+00 -0.67617494093E+03  0.19953788414E+04  0.18773183454E+04 0.  0.
        2    1    3    3  502    0 -0.91129268387E+03 -0.12033722373E+03 -0.13601116433E+03  0.92921173040E+03  0.25500000920E-02 0.  1.
       -2    1    3    3    0  502  0.91129268387E+03  0.12033722373E+03 -0.54016377660E+03  0.10661671110E+04  0.25500000920E-02 0. -1.
</event>
<event>
 5   0  0.2651828E-04  0.1870033E+04  0.7818609E-02  0.8669918E-01
       -2   -1    0    0    0  501  0.00000000000E+00  0.00000000000E+00  0.58765476376E+03  0.58765476377E+03  0.25500000920E-02 0. -1.
        2   -1    0    0  501    0  0.00000000000E+00  0.00000000000E+00 -0.14877035694E+04  0.14877035694E+04  0.25500000920E-02 0.  1.
    10030    2    1    2    0    0  0.00000000000E+00  0.00000000000E+00 -0.90004880567E+03  0.20753583332E+04  0.18700332507E+04 0.  0.
        3    1    3    3  502    0 -0.62191264289E+03  0.46581692413E+03  0.12717205350E+03  0.78735854830E+03  0.10100000352E+00 0. -1.
       -3    1    3    3    0  502  0.62191264289E+03 -0.46581692413E+03 -0.10272208592E+04  0.12879997849E+04  0.10100000352E+00 0.  1.
</event>
<event>
 5   0  0.2595012E-04  0.1942027E+04  0.7818609E-02  0.8634215E-01
       -2   -1    0    0    0  501  0.00000000000E+00  0.00000000000E+00  0.92705292079E+03  0.92705292080E+03  0.25500000920E-02 0.  1.
        2   -1    0    0  501    0  0.00000000000E+00  0.00000000000E+00 -0.10170583286E+04  0.10170583286E+04  0.25500000920E-02 0. -1.
    10030    2    1    2    0    0  0.00000000000E+00  0.00000000000E+00 -0.90005407760E+02  0.19441112494E+04  0.19420266673E+04 0.  0.
        1    1    3    3  502    0 -0.35418724253E+02 -0.27528156205E+03  0.88649729392E+03  0.92893050148E+03  0.50400001928E-02 0.  1.
       -1    1    3    3    0  502  0.35418724253E+02  0.27528156205E+03 -0.97650270168E+03  0.10151807479E+04  0.50400001928E-02 0. -1.
</event>
<event>
 5   0  0.1317527E-04  0.1686795E+04  0.7818609E-02  0.8768932E-01
       -1   -1    0    0    0  501  0.00000000000E+00  0.00000000000E+00  0.62578039227E+03  0.62578039229E+03  0.50400001928E-02 0. -1.
        1   -1    0    0  501    0  0.00000000000E+00  0.00000000000E+00 -0.11366917866E+04  0.11366917866E+04  0.50400001928E-02 0.  1.
    10030    2    1    2    0    0  0.00000000000E+00  0.00000000000E+00 -0.51091139436E+03  0.17624721789E+04  0.16867951057E+04 0.  0.
        1    1    3    3  502    0 -0.66957049844E+03 -0.12698909698E+03 -0.77460565166E+03  0.10317290336E+04  0.50400001928E-02 0.  1.
       -1    1    3    3    0  502  0.66957049844E+03  0.12698909698E+03  0.26369425729E+03  0.73074314536E+03  0.50400001928E-02 0. -1.
</event>
<event>
 5   0  0.2651828E-04  0.1897976E+04  0.7818609E-02  0.8655865E-01
       -2   -1    0    0    0  501  0.00000000000E+00  0.00000000000E+00  0.51599821944E+03  0.51599821945E+03  0.25500000920E-02 0.  1.
        2   -1    0    0  501    0  0.00000000000E+00  0.00000000000E+00 -0.17453124976E+04  0.17453124976E+04  0.25500000920E-02 0. -1.
    10030    2    1    2    0    0  0.00000000000E+00  0.00000000000E+00 -0.12293142782E+04  0.22613107171E+04  0.18979759126E+04 0.  0.
        3    1    3    3  502    0 -0.61675056928E+03 -0.21166378229E+03 -0.14361371322E+04  0.15772357763E+04  0.10100000352E+00 0. -1.
       -3    1    3    3    0  502  0.61675056928E+03  0.21166378229E+03  0.20682285400E+03  0.68407494076E+03  0.10100000352E+00 0.  1.
</event>
<event>
 5   0  0.1277709E-04  0.1936677E+04  0.7818609E-02  0.8636812E-01
       -1   -1    0    0    0  501  0.00000000000E+00  0.00000000000E+00  0.55513464148E+03  0.55513464151E+03  0.50400001928E-02 0. -1.
        1   -1    0    0  501    0  0.00000000000E+00  0.00000000000E+00 -0.16891029472E+04  0.16891029472E+04  0.50400001928E-02 0.  1.
    10030    2    1    2    0    0  0.00000000000E+00  0.00000000000E+00 -0.11339683057E+04  0.22442375887E+04  0.19366771120E+04 0.  0.
        4    1    3    3  502    0  0.59180723826E+03  0.34599459781E+03 -0.13595022136E+04  0.15225622978E+04  0.12699999809E+01 0.  1.
       -4    1    3    3    0  502 -0.59180723826E+03 -0.34599459781E+03  0.22553390792E+03  0.72167529089E+03  0.12699999809E+01 0. -1.
</event>
<event>
 5   0  0.2541124E-04  0.1488032E+04  0.7818609E-02  0.8892451E-01
       -2   -1    0    0    0  501  0.00000000000E+00  0.00000000000E+00  0.60889398632E+03  0.60889398632E+03  0.25500000920E-02 0. -1.
        2   -1    0    0  501    0  0.00000000000E+00  0.00000000000E+00 -0.90912359968E+03  0.90912359968E+03  0.25500000920E-02 0.  1.
    10030    2    1    2    0    0  0.00000000000E+00  0.00000000000E+00 -0.30022961336E+03  0.15180175860E+04  0.14880321135E+04 0.  0.
        5    1    3    3  502    0  0.32731050008E+03  0.66394508839E+03 -0.22633694923E+03  0.77408381229E+03  0.46999998093E+01 0. -1.
       -5    1    3    3    0  502 -0.32731050008E+03 -0.66394508839E+03 -0.73892664130E+02  0.74393377372E+03  0.46999998093E+01 0.  1.
</event>
<event>
 5   0  0.1277709E-04  0.1805537E+04  0.7818609E-02  0.8703360E-01
       -1   -1    0    0    0  501  0.00000000000E+00  0.00000000000E+00  0.52067620318E+03  0.52067620320E+03  0.50400001928E-02 0.  1.
        1   -1    0    0  501    0  0.00000000000E+00  0.00000000000E+00 -0.15652552187E+04  0.15652552187E+04  0.50400001928E-02 0. -1.
    10030    2    1    2    0    0  0.00000000000E+00  0.00000000000E+00 -0.10445790155E+04  0.20859314219E+04  0.18055371991E+04 0.  0.
        4    1    3    3  502    0  0.18386176284E+03  0.85386714013E+03 -0.78597899643E+03  0.11750143984E+04  0.12699999809E+01 0. -1.
       -4    1    3    3    0  502 -0.18386176284E+03 -0.85386714013E+03 -0.25860001906E+03  0.91091702343E+03  0.12699999809E+01 0.  1.
</event>
<event>
 5   0  0.1324058E-04  0.1895587E+04  0.7818609E-02  0.8657056E-01
        1   -1    0    0  501    0  0.00000000000E+00  0.00000000000E+00  0.99167669603E+03  0.99167669604E+03  0.50400001928E-02 0.  1.
       -1   -1    0    0    0  501  0.00000000000E+00  0.00000000000E+00 -0.90585198310E+03  0.90585198311E+03  0.50400001928E-02 0. -1.
    10030    2    1    2    0    0  0.00000000000E+00  0.00000000000E+00  0.85824712926E+02  0.18975286792E+04  0.18955867711E+04 0.  0.
        5    1    3    3  502    0 -0.10283592624E+03  0.93530185725E+03  0.15671884100E+03  0.95391177633E+03  0.46999998093E+01 0.  1.
       -5    1    3    3    0  502  0.10283592624E+03 -0.93530185725E+03 -0.70894128075E+02  0.94361690282E+03  0.46999998093E+01 0. -1.
</event>
<event>
 5   0  0.2595012E-04  0.1904309E+04  0.7818609E-02  0.8652715E-01
       -2   -1    0    0    0  501  0.00000000000E+00  0.00000000000E+00  0.89635362428E+03  0.89635362428E+03  0.25500000920E-02 0.  1.
        2   -1    0    0  501    0  0.00000000000E+00  0.00000000000E+00 -0.10114287511E+04  0.10114287511E+04  0.25500000920E-02 0. -1.
    10030    2    1    2    0    0  0.00000000000E+00  0.00000000000E+00 -0.11507512684E+03  0.19077823754E+04  0.19043086165E+04 0.  0.
        1    1    3    3  502    0 -0.20734864923E+03  0.28536432636E+03  0.82848036903E+03  0.90044765699E+03  0.50400001928E-02 0.  1.
       -1    1    3    3    0  502  0.20734864923E+03 -0.28536432636E+03 -0.94355549586E+03  0.10073347184E+04  0.50400001928E-02 0. -1.
</event>
<event>
 5   0  0.2562925E-04  0.1864676E+04  0.7818609E-02  0.8672642E-01
       -2   -1    0    0    0  501  0.00000000000E+00  0.00000000000E+00  0.36084535456E+03  0.36084535457E+03  0.25500000920E-02 0. -1.
        2   -1    0    0  501    0  0.00000000000E+00  0.00000000000E+00 -0.24089388765E+04  0.24089388765E+04  0.25500000920E-02 0.  1.
    10030    2    1    2    0    0  0.00000000000E+00  0.00000000000E+00 -0.20480935219E+04  0.27697842311E+04  0.18646762754E+04 0.  0.
        4    1    3    3  502    0 -0.39313456966E+02 -0.79063898958E+03 -0.29242702501E+03  0.84390209006E+03  0.12699999809E+01 0. -1.
       -4    1    3    3    0  502  0.39313456966E+02  0.79063898958E+03 -0.17556664969E+04  0.19258821410E+04  0.12699999809E+01 0.  1.
</event>
<event>
 5   0  0.2651828E-04  0.1901317E+04  0.7818609E-02  0.8654201E-01
       -2   -1    0    0    0  501  0.00000000000E+00  0.00000000000E+00  0.41582066636E+03  0.41582066636E+03  0.25500000920E-02 0. -1.
        2   -1    0    0  501    0  0.00000000000E+00  0.00000000000E+00 -0.21734157624E+04  0.21734157624E+04  0.25500000920E-02 0.  1.
    10030    2    1    2    0    0  0.00000000000E+00  0.00000000000E+00 -0.17575950961E+04  0.25892364288E+04  0.19013165866E+04 0.  0.
        3    1    3    3  502    0  0.44184454981E+03  0.42583325922E+03 -0.18675808067E+04  0.19658124658E+04  0.10100000352E+00 0.  1.
       -3    1    3    3    0  502 -0.44184454981E+03 -0.42583325922E+03  0.10998571067E+03  0.62342396298E+03  0.10100000352E+00 0. -1.
</event>
<event>
 5   0  0.1277709E-04  0.1873790E+04  0.7818609E-02  0.8668014E-01
        1   -1    0    0  501    0  0.00000000000E+00  0.00000000000E+00  0.14270702430E+04  0.14270702430E+04  0.50400001928E-02 0. -1.
       -1   -1    0    0    0  501  0.00000000000E+00  0.00000000000E+00 -0.61508694512E+03  0.61508694514E+03  0.50400001928E-02 0.  1.
    10030    2    1    2    0    0  0.00000000000E+00  0.00000000000E+00  0.81198329791E+03  0.20421571882E+04  0.18737900376E+04 0.  0.
        4    1    3    3  502    0  0.33116043481E+03  0.10056957518E+03 -0.54286312697E+03  0.64380389915E+03  0.12699999809E+01 0.  1.
       -4    1    3    3    0  502 -0.33116043481E+03 -0.10056957518E+03  0.13548464249E+04  0.13983532890E+04  0.12699999809E+01 0. -1.
</event>
<event>
 5   0  0.1255141E-04  0.1902097E+04  0.7818609E-02  0.8653813E-01
       -1   -1    0    0    0  501  0.00000000000E+00  0.00000000000E+00  0.18139044352E+04  0.18139044352E+04  0.50400001928E-02 0. -1.
        1   -1    0    0  501    0  0.00000000000E+00  0.00000000000E+00 -0.49864433037E+03  0.49864433039E+03  0.50400001928E-02 0.  1.
    10030    2    1    2    0    0  0.00000000000E+00  0.00000000000E+00  0.13152601048E+04  0.23125487656E+04  0.19020969087E+04 0.  0.
        2    1    3    3  502    0  0.75700282661E+03 -0.56973846415E+03  0.55709402726E+03  0.10990946057E+04  0.25500000920E-02 0.  1.
       -2    1    3    3    0  502 -0.75700282661E+03  0.56973846415E+03  0.75816607759E+03  0.12134541599E+04  0.25500000920E-02 0. -1.
</event>
<event>
 5   0  0.2541124E-04  0.1901971E+04  0.7818609E-02  0.8653876E-01
       -2   -1    0    0    0  501  0.00000000000E+00  0.00000000000E+00  0.48252247973E+03  0.48252247974E+03  0.25500000920E-02 0.  1.
        2   -1    0    0  501    0  0.00000000000E+00  0.00000000000E+00 -0.18742610499E+04  0.18742610499E+04  0.25500000920E-02 0. -1.
    10030    2    1    2    0    0  0.00000000000E+00  0.00000000000E+00 -0.13917385702E+04  0.23567835297E+04  0.19019706512E+04 0.  0.
        5    1    3    3  502    0  0.79000255383E+03  0.35375458157E+03 -0.11838788194E+04  0.14665733831E+04  0.46999998093E+01 0. -1.
       -5    1    3    3    0  502 -0.79000255383E+03 -0.35375458157E+03 -0.20785975082E+03  0.89021014657E+03  0.46999998093E+01 0.  1.
</event>
<event>
 5   0  0.1317527E-04  0.1904181E+04  0.7818609E-02  0.8652778E-01
        1   -1    0    0  501    0  0.00000000000E+00  0.00000000000E+00  0.10233515436E+04  0.10233515436E+04  0.50400001928E-02 0. -1.
       -1   -1    0    0    0  501  0.00000000000E+00  0.00000000000E+00 -0.88579133536E+03  0.88579133537E+03  0.50400001928E-02 0.  1.
    10030    2    1    2    0    0  0.00000000000E+00  0.00000000000E+00  0.13756020823E+03  0.19091428790E+04  0.19041805905E+04 0.  0.
        1    1    3    3  502    0 -0.26215706884E+03  0.81667195225E+03  0.48313245934E+03  0.98442692955E+03  0.50400001928E-02 0. -1.
       -1    1    3    3    0  502  0.26215706884E+03 -0.81667195225E+03 -0.34557225111E+03  0.92471594941E+03  0.50400001928E-02 0.  1.
</event>
<event>
 5   0  0.2651828E-04  0.1878133E+04  0.7818609E-02  0.8665818E-01
        2   -1    0    0  501    0  0.00000000000E+00  0.00000000000E+00  0.77667515079E+03  0.77667515079E+03  0.25500000920E-02 0.  1.
       -2   -1    0    0    0  501  0.00000000000E+00  0.00000000000E+00 -0.11354113389E+04  0.11354113389E+04  0.25500000920E-02 0. -1.
    10030    2    1    2    0    0  0.00000000000E+00  0.00000000000E+00 -0.35873618811E+03  0.19120864897E+04  0.18781328737E+04 0.  0.
        3    1    3    3  502    0  0.90233178160E+03 -0.31004875153E+02  0.83528481333E+02  0.90671989267E+03  0.10100000352E+00 0.  1.
       -3    1    3    3    0  502 -0.90233178160E+03  0.31004875153E+02 -0.44226466945E+03  0.10053665970E+04  0.10100000352E+00 0. -1.
</event>
<event>
 5   0  0.1255141E-04  0.1934995E+04  0.7818609E-02  0.8637631E-01
        1   -1    0    0  501    0  0.00000000000E+00  0.00000000000E+00  0.12526505298E+04  0.12526505298E+04  0.50400001928E-02 0.  1.
       -1   -1    0    0    0  501  0.00000000000E+00  0.00000000000E+00 -0.74725654110E+03  0.74725654112E+03  0.50400001928E-02 0. -1.
    10030    2    1    2    0    0  0.00000000000E+00  0.00000000000E+00  0.50539398867E+03  0.19999070709E+04  0.19349948859E+04 0.  0.
        2    1    3    3  502    0 -0.34514545343E+03 -0.81769246788E+03 -0.14532567867E+03  0.89936972873E+03  0.25500000920E-02 0. -1.
       -2    1    3    3    0  502  0.34514545343E+03  0.81769246788E+03  0.65071966734E+03  0.11005373422E+04  0.25500000920E-02 0.  1.
</event>
<event>
 5   0  0.1277709E-04  0.1919731E+04  0.7818609E-02  0.8645097E-01
       -1   -1    0    0    0  501  0.00000000000E+00  0.00000000000E+00  0.13330358321E+04  0.13330358321E+04  0.50400001928E-02 0. -1.
        1   -1    0    0  501    0  0.00000000000E+00  0.00000000000E+00 -0.69116068369E+03  0.69116068371E+03  0.50400001928E-02 0.  1.
    10030    2    1    2    0    0  0.00000000000E+00  0.00000000000E+00  0.64187514845E+03  0.20241965159E+04  0.19197311865E+04 0.  0.
        4    1    3    3  502    0 -0.26674607548E+03 -0.57637682794E+03  0.10798074874E+04  0.12527368196E+04  0.12699999809E+01 0. -1.
       -4    1    3    3    0  502  0.26674607548E+03  0.57637682794E+03 -0.43793233891E+03  0.77145969624E+03  0.12699999809E+01 0.  1.
</event>
<event>
 5   0  0.9266125E-05  0.1899379E+04  0.7818609E-02  0.8655165E-01
        3   -1    0    0  501    0  0.00000000000E+00  0.00000000000E+00  0.16135760200E+04  0.16135760232E+04  0.10100000352E+00 0. -1.
       -3   -1    0    0    0  501  0.00000000000E+00  0.00000000000E+00 -0.55895127258E+03  0.55895128171E+03  0.10100000352E+00 0.  1.
    10030    2    1    2    0    0  0.00000000000E+00  0.00000000000E+00  0.10546247474E+04  0.21725273049E+04  0.18993792493E+04 0.  0.
        3    1    3    3  502    0  0.42337981300E+03 -0.77676003735E+03  0.13223641366E+03  0.89447923452E+03  0.10100000352E+00 0.  1.
       -3    1    3    3    0  502 -0.42337981300E+03  0.77676003735E+03  0.92238833377E+03  0.12780480704E+04  0.10100000352E+00 0. -1.
</event>
<event>
 5   0  0.2562925E-04  0.1906909E+04  0.7818609E-02  0.8651425E-01
       -2   -1    0    0    0  501  0.00000000000E+00  0.00000000000E+00  0.68706664480E+03  0.68706664480E+03  0.25500000920E-02 0.  1.
        2   -1    0    0  501    0  0.00000000000E+00  0.00000000000E+00 -0.13231256209E+04  0.13231256209E+04  0.25500000920E-02 0. -1.
    10030    2    1    2    0    0  0.00000000000E+00  0.00000000000E+00 -0.63605897609E+03  0.20101922657E+04  0.19069089973E+04 0.  0.
        4    1    3    3  502    0 -0.65332494741E+03  0.14274267307E+03 -0.10344452201E+04  0.12317822388E+04  0.12699999809E+01 0. -1.
       -4    1    3    3    0  502  0.65332494741E+03 -0.14274267307E+03  0.39838624399E+03  0.77841002687E+03  0.12699999809E+01 0.  1.
</event>
<event>
 5   0  0.1324058E-04  0.1859528E+04  0.7818609E-02  0.8675268E-01
       -1   -1    0    0    0  501  0.00000000000E+00  0.00000000000E+00  0.11703281956E+04  0.11703281956E+04  0.50400001928E-02 0. -1.
        1   -1    0    0  501    0  0.00000000000E+00  0.00000000000E+00 -0.73864837351E+03  0.73864837353E+03  0.50400001928E-02 0.  1.
    10030    2    1    2    0    0  0.00000000000E+00  0.00000000000E+00  0.43167982206E+03  0.19089765691E+04  0.18595279166E+04 0.  0.
        5    1    3    3  502    0 -0.29121402760E+03 -0.86037196674E+03  0.12084283502E+02  0.90841270958E+03  0.46999998093E+01 0.  1.
       -5    1    3    3    0  502  0.29121402760E+03  0.86037196674E+03  0.41959553856E+03  0.10005638595E+04  0.46999998093E+01 0. -1.
</event>
<event>
 5   0  0.2608744E-04  0.1883011E+04  0.7818609E-02  0.8663359E-01
       -2   -1    0    0    0  501  0.00000000000E+00  0.00000000000E+00  0.57619637822E+03  0.57619637822E+03  0.25500000920E-02 0. -1.
        2   -1    0    0  501    0  0.00000000000E+00  0.00000000000E+00 -0.15384213845E+04  0.15384213845E+04  0.25500000920E-02 0.  1.
    10030    2    1    2    0    0  0.00000000000E+00  0.00000000000E+00 -0.96222500627E+03  0.21146177627E+04  0.18830112373E+04 0.  0.
        2    1    3    3  502    0 -0.28091933933E+03 -0.39943901181E+03  0.42285943610E+03  0.64597004734E+03  0.25500000920E-02 0. -1.
       -2    1    3    3    0  502  0.28091933933E+03  0.39943901181E+03 -0.13850844424E+04  0.14686477154E+04  0.25500000920E-02 0.  1.
</event>
<event>
 5   0  0.1277709E-04  0.1891398E+04  0.7818609E-02  0.8659150E-01
        1   -1    0    0  501    0  0.00000000000E+00  0.00000000000E+00  0.10464039216E+04  0.10464039216E+04  0.50400001928E-02 0. -1.
       -1   -1    0    0    0  501  0.00000000000E+00  0.00000000000E+00 -0.85468585935E+03  0.85468585937E+03  0.50400001928E-02 0.  1.
    10030    2    1    2    0    0  0.00000000000E+00  0.00000000000E+00  0.19171806224E+03  0.19010897810E+04  0.18913980385E+04 0.  0.
        4    1    3    3  502    0 -0.47040236997E+03 -0.36025674507E+03 -0.64499429546E+03  0.87583249889E+03  0.12699999809E+01 0.  1.
       -4    1    3    3    0  502  0.47040236997E+03  0.36025674507E+03  0.83671235769E+03  0.10252572821E+04  0.12699999809E+01 0. -1.
</event>
<event>
 5   0  0.1317527E-04  0.1897813E+04  0.7818609E-02  0.8655946E-01
       -1   -1    0    0    0  501  0.00000000000E+00  0.00000000000E+00  0.56030055256E+03  0.56030055259E+03  0.50400001928E-02 0.  1.
        1   -1    0    0  501    0  0.00000000000E+00  0.00000000000E+00 -0.16070363317E+04  0.16070363317E+04  0.50400001928E-02 0. -1.
    10030    2    1    2    0    0  0.00000000000E+00  0.00000000000E+00 -0.10467357791E+04  0.21673368843E+04  0.18978127881E+04 0.  0.
        1    1    3    3  502    0  0.58102714694E+03  0.49840630277E+03  0.11699991081E+03  0.77439677639E+03  0.50400001928E-02 0.  1.
       -1    1    3    3    0  502 -0.58102714694E+03 -0.49840630277E+03 -0.11637356899E+04  0.13929401079E+04  0.50400001928E-02 0. -1.
</event>
<event>
 5   0  0.2608744E-04  0.1859235E+04  0.7818609E-02  0.8675418E-01
       -2   -1    0    0    0  501  0.00000000000E+00  0.00000000000E+00  0.72020290848E+03  0.72020290849E+03  0.25500000920E-02 0. -1.
        2   -1    0    0  501    0  0.00000000000E+00  0.00000000000E+00 -0.11999244606E+04  0.11999244606E+04  0.25500000920E-02 0.  1.
    10030    2    1    2    0    0  0.00000000000E+00  0.00000000000E+00 -0.47972155216E+03  0.19201273691E+04  0.18592354198E+04 0.  0.
        2    1    3    3  502    0 -0.11835049354E+03 -0.91140994822E+03 -0.38412894240E+03  0.99610741260E+03  0.25500000920E-02 0. -1.
       -2    1    3    3    0  502  0.11835049354E+03  0.91140994822E+03 -0.95592609762E+02  0.92401995654E+03  0.25500000920E-02 0.  1.
</event>
<event>
 5   0  0.2595012E-04  0.1922522E+04  0.7818609E-02  0.8643726E-01
        2   -1    0    0  501    0  0.00000000000E+00  0.00000000000E+00  0.11956335377E+04  0.11956335377E+04  0.25500000920E-02 0.  1.
       -2   -1    0    0    0  501  0.00000000000E+00  0.00000000000E+00 -0.77283076741E+03  0.77283076741E+03  0.25500000920E-02 0. -1.
    10030    2    1    2    0    0  0.00000000000E+00  0.00000000000E+00  0.42280277030E+03  0.19684643051E+04  0.19225216612E+04 0.  0.
        1    1    3    3  502    0  0.92738184169E+03  0.16581399290E+02  0.46984233972E+03  0.10397422023E+04  0.50400001928E-02 0. -1.
       -1    1    3    3    0  502 -0.92738184169E+03 -0.16581399290E+02 -0.47039569426E+02  0.92872210279E+03  0.50400001928E-02 0.  1.
</event>
<event>
 5   0  0.1255141E-04  0.1686817E+04  0.7818609E-02  0.8768919E-01
        1   -1    0    0  501    0  0.00000000000E+00  0.00000000000E+00  0.17761589635E+04  0.17761589635E+04  0.50400001928E-02 0. -1.
       -1   -1    0    0    0  501  0.00000000000E+00  0.00000000000E+00 -0.40049207021E+03  0.40049207024E+03  0.50400001928E-02 0.  1.
    10030    2    1    2    0    0  0.00000000000E+00  0.00000000000E+00  0.13756668933E+04  0.21766510337E+04  0.16868166235E+04 0.  0.
        2    1    3    3  502    0 -0.16319393556E+03 -0.58381676857E+02 -0.37726350416E+03  0.41517277412E+03  0.25500000920E-02 0.  1.
       -2    1    3    3    0  502  0.16319393556E+03  0.58381676857E+02  0.17529303974E+04  0.17614782596E+04  0.25500000920E-02 0. -1.
</event>
<event>
 5   0  0.1317527E-04  0.1901636E+04  0.7818609E-02  0.8654043E-01
        1   -1    0    0  501    0  0.00000000000E+00  0.00000000000E+00  0.48574060230E+03  0.48574060233E+03  0.50400001928E-02 0. -1.
       -1   -1    0    0    0  501  0.00000000000E+00  0.00000000000E+00 -0.18611878411E+04  0.18611878411E+04  0.50400001928E-02 0.  1.
    10030    2    1    2    0    0  0.00000000000E+00  0.00000000000E+00 -0.13754472388E+04  0.23469284434E+04  0.19016356149E+04 0.  0.
        1    1    3    3  502    0  0.71490168656E+01 -0.83357633666E+03 -0.12329956465E+03  0.84267633179E+03  0.50400001928E-02 0. -1.
       -1    1    3    3    0  502 -0.71490168656E+01  0.83357633666E+03 -0.12521476741E+04  0.15042521116E+04  0.50400001928E-02 0.  1.
</event>
<event>
 5   0  0.1317527E-04  0.1924108E+04  0.7818609E-02  0.8642949E-01
        1   -1    0    0  501    0  0.00000000000E+00  0.00000000000E+00  0.10248832628E+04  0.10248832628E+04  0.50400001928E-02 0. -1.
       -1   -1    0    0    0  501  0.00000000000E+00  0.00000000000E+00 -0.90307609238E+03  0.90307609239E+03  0.50400001928E-02 0.  1.
    10030    2    1    2    0    0  0.00000000000E+00  0.00000000000E+00  0.12180717038E+03  0.19279593552E+04  0.19241076603E+04 0.  0.
        1    1    3    3  502    0  0.85986024411E+03 -0.30690632544E+03  0.36481990134E+03  0.98318090524E+03  0.50400001928E-02 0. -1.
       -1    1    3    3    0  502 -0.85986024411E+03  0.30690632544E+03 -0.24301273096E+03  0.94477844992E+03  0.50400001928E-02 0.  1.
</event>
<event>
 5   0  0.2562925E-04  0.1921260E+04  0.7818609E-02  0.8644346E-01
       -2   -1    0    0    0  501  0.00000000000E+00  0.00000000000E+00  0.10211884295E+04  0.10211884295E+04  0.25500000920E-02 0.  1.
        2   -1    0    0  501    0  0.00000000000E+00  0.00000000000E+00 -0.90366273692E+03  0.90366273692E+03  0.25500000920E-02 0. -1.
    10030    2    1    2    0    0  0.00000000000E+00  0.00000000000E+00  0.11752569258E+03  0.19248511664E+04  0.19212599315E+04 0.  0.
        4    1    3    3  502    0 -0.18976904796E+03  0.81592295103E+03  0.52981801601E+03  0.99118681215E+03  0.12699999809E+01 0.  1.
       -4    1    3    3    0  502  0.18976904796E+03 -0.81592295103E+03 -0.41229232343E+03  0.93366435428E+03  0.12699999809E+01 0. -1.
</event>
<event>
 5   0  0.1239615E-04  0.1922826E+04  0.7818609E-02  0.8643577E-01
       -1   -1    0    0    0  501  0.00000000000E+00  0.00000000000E+00  0.51209108495E+03  0.51209108497E+03  0.50400001928E-02 0.  1.
        1   -1    0    0  501    0  0.00000000000E+00  0.00000000000E+00 -0.18049812123E+04  0.18049812123E+04  0.50400001928E-02 0. -1.
    10030    2    1    2    0    0  0.00000000000E+00  0.00000000000E+00 -0.12928901274E+04  0.23170722973E+04  0.19228258240E+04 0.  0.
        3    1    3    3  502    0 -0.20234889774E+03  0.13543771331E+03  0.47431926848E+03  0.53316716821E+03  0.10100000352E+00 0.  1.
       -3    1    3    3    0  502  0.20234889774E+03 -0.13543771331E+03 -0.17672093958E+04  0.17839051291E+04  0.10100000352E+00 0. -1.
</event>
<event>
 5   0  0.1317527E-04  0.1924220E+04  0.7818609E-02  0.8642894E-01
        1   -1    0    0  501    0  0.00000000000E+00  0.00000000000E+00  0.10285745977E+04  0.10285745977E+04  0.50400001928E-02 0.  1.
       -1   -1    0    0    0  501  0.00000000000E+00  0.00000000000E+00 -0.89994024907E+03  0.89994024908E+03  0.50400001928E-02 0. -1.
    10030    2    1    2    0    0  0.00000000000E+00  0.00000000000E+00  0.12863434866E+03  0.19285148468E+04  0.19242200287E+04 0.  0.
        1    1    3    3  502    0 -0.48698322922E+03 -0.82520318848E+03  0.15135980623E+03  0.97006327566E+03  0.50400001928E-02 0.  1.
       -1    1    3    3    0  502  0.48698322922E+03  0.82520318848E+03 -0.22725457567E+02  0.95845157116E+03  0.50400001928E-02 0. -1.
</event>
<event>
 5   0  0.1317527E-04  0.2008342E+04  0.7818609E-02  0.8602730E-01
       -1   -1    0    0    0  501  0.00000000000E+00  0.00000000000E+00  0.67819032985E+03  0.67819032987E+03  0.50400001928E-02 0.  1.
        1   -1    0    0  501    0  0.00000000000E+00  0.00000000000E+00 -0.14868385175E+04  0.14868385175E+04  0.50400001928E-02 0. -1.
    10030    2    1    2    0    0  0.00000000000E+00  0.00000000000E+00 -0.80864818764E+03  0.21650288474E+04  0.20083421069E+04 0.  0.
        1    1    3    3  502    0  0.19142356055E+03 -0.21565060502E+03  0.63259881034E+03  0.69521897115E+03  0.50400001928E-02 0.  1.
       -1    1    3    3    0  502 -0.19142356055E+03  0.21565060502E+03 -0.14412469980E+04  0.14698098762E+04  0.50400001928E-02 0. -1.
</event>
<event>
 5   0  0.2562925E-04  0.1887187E+04  0.7818609E-02  0.8661261E-01
       -2   -1    0    0    0  501  0.00000000000E+00  0.00000000000E+00  0.39831947553E+03  0.39831947554E+03  0.25500000920E-02 0.  1.
        2   -1    0    0  501    0  0.00000000000E+00  0.00000000000E+00 -0.22353135189E+04  0.22353135189E+04  0.25500000920E-02 0. -1.
    10030    2    1    2    0    0  0.00000000000E+00  0.00000000000E+00 -0.18369940434E+04  0.26336329945E+04  0.18871872282E+04 0.  0.
        4    1    3    3  502    0  0.36771247964E+03 -0.64187293809E+03 -0.10100264720E+03  0.74660329760E+03  0.12699999809E+01 0. -1.
       -4    1    3    3    0  502 -0.36771247964E+03  0.64187293809E+03 -0.17359913962E+04  0.18870296969E+04  0.12699999809E+01 0.  1.
</event>
<event>
 5   0  0.2651828E-04  0.1898590E+04  0.7818609E-02  0.8655559E-01
        2   -1    0    0  501    0  0.00000000000E+00  0.00000000000E+00  0.99606373320E+03  0.99606373321E+03  0.25500000920E-02 0.  1.
       -2   -1    0    0    0  501  0.00000000000E+00  0.00000000000E+00 -0.90472226823E+03  0.90472226823E+03  0.25500000920E-02 0. -1.
    10030    2    1    2    0    0  0.00000000000E+00  0.00000000000E+00  0.91341464975E+02  0.19007860014E+04  0.18985900453E+04 0.  0.
        3    1    3    3  502    0  0.48971218042E+03 -0.72642522423E+03 -0.32033302017E+03  0.93280484565E+03  0.10100000352E+00 0. -1.
       -3    1    3    3    0  502 -0.48971218042E+03  0.72642522423E+03  0.41167448514E+03  0.96798115579E+03  0.10100000352E+00 0.  1.
</event>
<event>
 5   0  0.2541124E-04  0.1894302E+04  0.7818609E-02  0.8657698E-01
       -2   -1    0    0    0  501  0.00000000000E+00  0.00000000000E+00  0.10593082102E+04  0.10593082102E+04  0.25500000920E-02 0.  1.
        2   -1    0    0  501    0  0.00000000000E+00  0.00000000000E+00 -0.84686873214E+03  0.84686873214E+03  0.25500000920E-02 0. -1.
    10030    2    1    2    0    0  0.00000000000E+00  0.00000000000E+00  0.21243947804E+03  0.19061769423E+04  0.18943019832E+04 0.  0.
        5    1    3    3  502    0 -0.55582556016E+03  0.53290172224E+03  0.66117182668E+03  0.10149367336E+04  0.46999998093E+01 0.  1.
       -5    1    3    3    0  502  0.55582556016E+03 -0.53290172224E+03 -0.44873234863E+03  0.89124020870E+03  0.46999998093E+01 0. -1.
</event>
<event>
 5   0  0.2651828E-04  0.1931065E+04  0.7818609E-02  0.8639546E-01
        2   -1    0    0  501    0  0.00000000000E+00  0.00000000000E+00  0.11944796580E+04  0.11944796580E+04  0.25500000920E-02 0.  1.
       -2   -1    0    0    0  501  0.00000000000E+00  0.00000000000E+00 -0.78046764577E+03  0.78046764577E+03  0.25500000920E-02 0. -1.
    10030    2    1    2    0    0  0.00000000000E+00  0.00000000000E+00  0.41401201226E+03  0.19749473038E+04  0.19310647080E+04 0.  0.
        3    1    3    3  502    0 -0.82425115731E+02  0.32119718414E+03 -0.72040341380E+03  0.79305902656E+03  0.10100000352E+00 0. -1.
       -3    1    3    3    0  502  0.82425115731E+02 -0.32119718414E+03  0.11344154261E+04  0.11818882772E+04  0.10100000352E+00 0.  1.
</event>
<event>
 5   0  0.1324058E-04  0.1844331E+04  0.7818609E-02  0.8683074E-01
       -1   -1    0    0    0  501  0.00000000000E+00  0.00000000000E+00  0.76677215653E+03  0.76677215654E+03  0.50400001928E-02 0. -1.
        1   -1    0    0  501    0  0.00000000000E+00  0.00000000000E+00 -0.11090502378E+04  0.11090502379E+04  0.50400001928E-02 0.  1.
    10030    2    1    2    0    0  0.00000000000E+00  0.00000000000E+00 -0.34227808132E+03  0.18758223944E+04  0.18443306022E+04 0.  0.
        5    1    3    3  502    0 -0.58091109463E+02  0.68988000014E+03 -0.79068524956E+03  0.10509587268E+04  0.46999998093E+01 0.  1.
       -5    1    3    3    0  502  0.58091109463E+02 -0.68988000014E+03  0.44840716823E+03  0.82486366759E+03  0.46999998093E+01 0. -1.
</event>
<event>
 5   0  0.2541124E-04  0.1901502E+04  0.7818609E-02  0.8654109E-01
        2   -1    0    0  501    0  0.00000000000E+00  0.00000000000E+00  0.13052235691E+04  0.13052235691E+04  0.25500000920E-02 0. -1.
       -2   -1    0    0    0  501  0.00000000000E+00  0.00000000000E+00 -0.69254603796E+03  0.69254603796E+03  0.25500000920E-02 0.  1.
    10030    2    1    2    0    0  0.00000000000E+00  0.00000000000E+00  0.61267753113E+03  0.19977696071E+04  0.19015019447E+04 0.  0.
        5    1    3    3  502    0 -0.41047617729E+03  0.34896510385E+00 -0.59464035005E+03  0.72257183020E+03  0.46999998093E+01 0.  1.
       -5    1    3    3    0  502  0.41047617729E+03 -0.34896510385E+00  0.12073178812E+04  0.12751977769E+04  0.46999998093E+01 0. -1.
</event>
<event>
 5   0  0.2608744E-04  0.1874261E+04  0.7818609E-02  0.8667775E-01
        2   -1    0    0  501    0  0.00000000000E+00  0.00000000000E+00  0.67283725469E+03  0.67283725469E+03  0.25500000920E-02 0. -1.
       -2   -1    0    0    0  501  0.00000000000E+00  0.00000000000E+00 -0.13052395879E+04  0.13052395879E+04  0.25500000920E-02 0.  1.
    10030    2    1    2    0    0  0.00000000000E+00  0.00000000000E+00 -0.63240233320E+03  0.19780768426E+04  0.18742612636E+04 0.  0.
        2    1    3    3  502    0  0.86150250992E+03 -0.34086134225E+03 -0.16754171412E+03  0.94151115512E+03  0.25500000920E-02 0. -1.
       -2    1    3    3    0  502 -0.86150250992E+03  0.34086134225E+03 -0.46486061908E+03  0.10365656875E+04  0.25500000920E-02 0.  1.
</event>
<event>
 5   0  0.2541124E-04  0.1884503E+04  0.7818609E-02  0.8662609E-01
        2   -1    0    0  501    0  0.00000000000E+00  0.00000000000E+00  0.12636804046E+04  0.12636804046E+04  0.25500000920E-02 0. -1.
       -2   -1    0    0    0  501  0.00000000000E+00  0.00000000000E+00 -0.70258116445E+03  0.70258116445E+03  0.25500000920E-02 0.  1.
    10030    2    1    2    0    0  0.00000000000E+00  0.00000000000E+00  0.56109924011E+03  0.19662615690E+04  0.18845031707E+04 0.  0.
        5    1    3    3  502    0  0.45228480039E+03  0.37434902141E+03 -0.48838817611E+03  0.76370402058E+03  0.46999998093E+01 0.  1.
       -5    1    3    3    0  502 -0.45228480039E+03 -0.37434902141E+03  0.10494874162E+04  0.12025575484E+04  0.46999998093E+01 0. -1.
</event>
<event>
 5   0  0.1317527E-04  0.1885790E+04  0.7818609E-02  0.8661962E-01
        1   -1    0    0  501    0  0.00000000000E+00  0.00000000000E+00  0.95812767104E+03  0.95812767105E+03  0.50400001928E-02 0. -1.
       -1   -1    0    0    0  501  0.00000000000E+00  0.00000000000E+00 -0.92790461323E+03  0.92790461324E+03  0.50400001928E-02 0.  1.
    10030    2    1    2    0    0  0.00000000000E+00  0.00000000000E+00  0.30223057813E+02  0.18860322843E+04  0.18857901114E+04 0.  0.
        1    1    3    3  502    0 -0.48203539285E+03 -0.61393838322E+02 -0.79302922010E+03  0.93006594782E+03  0.50400001928E-02 0.  1.
       -1    1    3    3    0  502  0.48203539285E+03  0.61393838322E+02  0.82325227791E+03  0.95596633647E+03  0.50400001928E-02 0. -1.
</event>
<event>
 5   0  0.2608744E-04  0.1906335E+04  0.7818609E-02  0.8651709E-01
       -2   -1    0    0    0  501  0.00000000000E+00  0.00000000000E+00  0.10125963795E+04  0.10125963795E+04  0.25500000920E-02 0. -1.
        2   -1    0    0  501    0  0.00000000000E+00  0.00000000000E+00 -0.89722649522E+03  0.89722649523E+03  0.25500000920E-02 0.  1.
    10030    2    1    2    0    0  0.00000000000E+00  0.00000000000E+00  0.11536988429E+03  0.19098228747E+04  0.19063350185E+04 0.  0.
        2    1    3    3  502    0  0.51565789459E+03 -0.16943456388E+03  0.84264715926E+03  0.10023299710E+04  0.25500000920E-02 0. -1.
       -2    1    3    3    0  502 -0.51565789459E+03  0.16943456388E+03 -0.72727727498E+03  0.90749290377E+03  0.25500000920E-02 0.  1.
</event>
<event>
 5   0  0.1324058E-04  0.1924515E+04  0.7818609E-02  0.8642749E-01
        1   -1    0    0  501    0  0.00000000000E+00  0.00000000000E+00  0.10998496282E+04  0.10998496282E+04  0.50400001928E-02 0.  1.
       -1   -1    0    0    0  501  0.00000000000E+00  0.00000000000E+00 -0.84187850492E+03  0.84187850494E+03  0.50400001928E-02 0. -1.
    10030    2    1    2    0    0  0.00000000000E+00  0.00000000000E+00  0.25797112325E+03  0.19417281331E+04  0.19245152747E+04 0.  0.
        5    1    3    3  502    0  0.30616643617E+03 -0.33082359737E+03  0.98672773456E+03  0.10848206540E+04  0.46999998093E+01 0.  1.
       -5    1    3    3    0  502 -0.30616643617E+03  0.33082359737E+03 -0.72875661131E+03  0.85690747911E+03  0.46999998093E+01 0. -1.
</event>
<event>
 5   0  0.1239615E-04  0.1969806E+04  0.7818609E-02  0.8620869E-01
        1   -1    0    0  501    0  0.00000000000E+00  0.00000000000E+00  0.59102402351E+03  0.59102402353E+03  0.50400001928E-02 0. -1.
       -1   -1    0    0    0  501  0.00000000000E+00  0.00000000000E+00 -0.16412770593E+04  0.16412770593E+04  0.50400001928E-02 0.  1.
    10030    2    1    2    0    0  0.00000000000E+00  0.00000000000E+00 -0.10502530358E+04  0.22323010828E+04  0.19698062558E+04 0.  0.
        3    1    3    3  502    0  0.62720673451E+03  0.57600371606E+03 -0.10859073227E+04  0.13799867001E+04  0.10100000352E+00 0.  1.
       -3    1    3    3    0  502 -0.62720673451E+03 -0.57600371606E+03  0.35654286875E+02  0.85231438278E+03  0.10100000352E+00 0. -1.
</event>
<event>
 5   0  0.2562925E-04  0.1886419E+04  0.7818609E-02  0.8661646E-01
        2   -1    0    0  501    0  0.00000000000E+00  0.00000000000E+00  0.82245123239E+03  0.82245123239E+03  0.25500000920E-02 0.  1.
       -2   -1    0    0    0  501  0.00000000000E+00  0.00000000000E+00 -0.10816985696E+04  0.10816985696E+04  0.25500000920E-02 0. -1.
    10030    2    1    2    0    0  0.00000000000E+00  0.00000000000E+00 -0.25924733718E+03  0.19041498020E+04  0.18864191704E+04 0.  0.
        4    1    3    3  502    0  0.23314061483E+02 -0.93710301534E+03 -0.24060105715E+02  0.93770256927E+03  0.12699999809E+01 0.  1.
       -4    1    3    3    0  502 -0.23314061483E+02  0.93710301534E+03 -0.23518723146E+03  0.96644723269E+03  0.12699999809E+01 0. -1.
</event>
<event>
 5   0  0.1324058E-04  0.1906452E+04  0.7818609E-02  0.8651652E-01
        1   -1    0    0  501    0  0.00000000000E+00  0.00000000000E+00  0.55161448438E+03  0.55161448440E+03  0.50400001928E-02 0. -1.
       -1   -1    0    0    0  501  0.00000000000E+00  0.00000000000E+00 -0.16472367193E+04  0.16472367193E+04  0.50400001928E-02 0.  1.
    10030    2    1    2    0    0  0.00000000000E+00  0.00000000000E+00 -0.10956222349E+04  0.21988512037E+04  0.19064518180E+04 0.  0.
        5    1    3    3  502    0 -0.58001103009E+02 -0.94793455837E+03 -0.64203184924E+03  0.11463729935E+04  0.46999998093E+01 0.  1.
       -5    1    3    3    0  502  0.58001103009E+02  0.94793455837E+03 -0.45359038567E+03  0.10524782102E+04  0.46999998093E+01 0. -1.
</event>
<event>
 5   0  0.1317527E-04  0.1422264E+04  0.7818609E-02  0.8937859E-01
        1   -1    0    0  501    0  0.00000000000E+00  0.00000000000E+00  0.91216511605E+03  0.91216511607E+03  0.50400001928E-02 0.  1.
       -1   -1    0    0    0  501  0.00000000000E+00  0.00000000000E+00 -0.55440476953E+03  0.55440476955E+03  0.50400001928E-02 0. -1.
    10030    2    1    2    0    0  0.00000000000E+00  0.00000000000E+00  0.35776034652E+03  0.14665698856E+04  0.14222639572E+04 0.  0.
        1    1    3    3  502    0 -0.24214605044E+03 -0.44563309061E+03 -0.33513123810E+03  0.60789514553E+03  0.50400001928E-02 0. -1.
       -1    1    3    3    0  502  0.24214605044E+03  0.44563309061E+03  0.69289158462E+03  0.85867474008E+03  0.50400001928E-02 0.  1.
</event>
<event>
 5   0  0.1324058E-04  0.1905173E+04  0.7818609E-02  0.8652286E-01
        1   -1    0    0  501    0  0.00000000000E+00  0.00000000000E+00  0.21630804194E+04  0.21630804194E+04  0.50400001928E-02 0. -1.
       -1   -1    0    0    0  501  0.00000000000E+00  0.00000000000E+00 -0.41950418948E+03  0.41950418951E+03  0.50400001928E-02 0.  1.
    10030    2    1    2    0    0  0.00000000000E+00  0.00000000000E+00  0.17435762300E+04  0.25825846090E+04  0.19051732711E+04 0.  0.
        5    1    3    3  502    0  0.34676792288E+03 -0.68332370751E+03  0.10470176369E+03  0.77341051900E+03  0.46999998093E+01 0.  1.
       -5    1    3    3    0  502 -0.34676792288E+03  0.68332370751E+03  0.16388744663E+04  0.18091740900E+04  0.46999998093E+01 0. -1.
</event>
<event>
 5   0  0.2541124E-04  0.1901817E+04  0.7818609E-02  0.8653953E-01
        2   -1    0    0  501    0  0.00000000000E+00  0.00000000000E+00  0.94093505722E+03  0.94093505722E+03  0.25500000920E-02 0.  1.
       -2   -1    0    0    0  501  0.00000000000E+00  0.00000000000E+00 -0.96098727508E+03  0.96098727509E+03  0.25500000920E-02 0. -1.
    10030    2    1    2    0    0  0.00000000000E+00  0.00000000000E+00 -0.20052217867E+02  0.19019223323E+04  0.19018166228E+04 0.  0.
        5    1    3    3  502    0  0.18569542248E+03 -0.19851705364E+03  0.90123950657E+03  0.94135357264E+03  0.46999998093E+01 0.  1.
       -5    1    3    3    0  502 -0.18569542248E+03  0.19851705364E+03 -0.92129172444E+03  0.96056875966E+03  0.46999998093E+01 0. -1.
</event>
<event>
 5   0  0.1277709E-04  0.2227176E+04  0.7818609E-02  0.8507201E-01
        1   -1    0    0  501    0  0.00000000000E+00  0.00000000000E+00  0.18027768850E+04  0.18027768850E+04  0.50400001928E-02 0. -1.
       -1   -1    0    0    0  501  0.00000000000E+00  0.00000000000E+00 -0.68787102800E+03  0.68787102802E+03  0.50400001928E-02 0.  1.
    10030    2    1    2    0    0  0.00000000000E+00  0.00000000000E+00  0.11149058570E+04  0.24906479130E+04  0.22271757804E+04 0.  0.
        4    1    3    3  502    0  0.67344933363E+03  0.87884525288E+03  0.69058869868E+03  0.13049204371E+04  0.12699999809E+01 0. -1.
       -4    1    3    3    0  502 -0.67344933363E+03 -0.87884525288E+03  0.42431715832E+03  0.11857274760E+04  0.12699999809E+01 0.  1.
</event>
<event>
 5   0  0.9266125E-05  0.1882432E+04  0.7818609E-02  0.8663651E-01
        3   -1    0    0  501    0  0.00000000000E+00  0.00000000000E+00  0.80076135065E+03  0.80076135702E+03  0.10100000352E+00 0.  1.
       -3   -1    0    0    0  501  0.00000000000E+00  0.00000000000E+00 -0.11063063858E+04  0.11063063904E+04  0.10100000352E+00 0. -1.
    10030    2    1    2    0    0  0.00000000000E+00  0.00000000000E+00 -0.30554503518E+03  0.19070677475E+04  0.18824318380E+04 0.  0.
        4    1    3    3  502    0  0.85011270194E+02  0.61641749099E+01  0.79684260427E+03  0.80138920756E+03  0.12699999809E+01 0.  1.
       -4    1    3    3    0  502 -0.85011270194E+02 -0.61641749099E+01 -0.11023876394E+04  0.11056785399E+04  0.12699999809E+01 0. -1.
</event>
<event>
 5   0  0.2541124E-04  0.1887439E+04  0.7818609E-02  0.8661134E-01
        2   -1    0    0  501    0  0.00000000000E+00  0.00000000000E+00  0.94133502996E+03  0.94133502997E+03  0.25500000920E-02 0.  1.
       -2   -1    0    0    0  501  0.00000000000E+00  0.00000000000E+00 -0.94611011578E+03  0.94611011579E+03  0.25500000920E-02 0. -1.
    10030    2    1    2    0    0  0.00000000000E+00  0.00000000000E+00 -0.47750858170E+01  0.18874451458E+04  0.18874391055E+04 0.  0.
        5    1    3    3  502    0 -0.85821619414E+03 -0.14866957826E+03  0.36085847475E+03  0.94280358940E+03  0.46999998093E+01 0.  1.
       -5    1    3    3    0  502  0.85821619414E+03  0.14866957826E+03 -0.36563356057E+03  0.94464155636E+03  0.46999998093E+01 0. -1.
</event>
<event>
 5   0  0.1324058E-04  0.1860853E+04  0.7818609E-02  0.8674592E-01
       -1   -1    0    0    0  501  0.00000000000E+00  0.00000000000E+00  0.44780105065E+03  0.44780105068E+03  0.50400001928E-02 0. -1.
        1   -1    0    0  501    0  0.00000000000E+00  0.00000000000E+00 -0.19332094405E+04  0.19332094405E+04  0.50400001928E-02 0.  1.
    10030    2    1    2    0    0  0.00000000000E+00  0.00000000000E+00 -0.14854083898E+04  0.23810104912E+04  0.18608527278E+04 0.  0.
        5    1    3    3  502    0 -0.48111146754E+03 -0.13417043933E+03 -0.17471131302E+04  0.18171120853E+04  0.46999998093E+01 0.  1.
       -5    1    3    3    0  502  0.48111146754E+03  0.13417043933E+03  0.26170474035E+03  0.56389840584E+03  0.46999998093E+01 0. -1.
</event>
<event>
 5   0  0.2562925E-04  0.1845779E+04  0.7818609E-02  0.8682327E-01
       -2   -1    0    0    0  501  0.00000000000E+00  0.00000000000E+00  0.76072864188E+03  0.76072864188E+03  0.25500000920E-02 0. -1.
        2   -1    0    0  501    0  0.00000000000E+00  0.00000000000E+00 -0.11196170364E+04  0.11196170364E+04  0.25500000920E-02 0.  1.
    10030    2    1    2    0    0  0.00000000000E+00  0.00000000000E+00 -0.35888839448E+03  0.18803456782E+04  0.18457786947E+04 0.  0.
        4    1    3    3  502    0  0.64701388930E+03  0.63005605285E+03  0.14182479976E+02  0.90321667297E+03  0.12699999809E+01 0.  1.
       -4    1    3    3    0  502 -0.64701388930E+03 -0.63005605285E+03 -0.37307087446E+03  0.97712900528E+03  0.12699999809E+01 0. -1.
</event>
<event>
 5   0  0.1277709E-04  0.2057984E+04  0.7818609E-02  0.8579981E-01
       -1   -1    0    0    0  501  0.00000000000E+00  0.00000000000E+00  0.92344428425E+03  0.92344428427E+03  0.50400001928E-02 0. -1.
        1   -1    0    0  501    0  0.00000000000E+00  0.00000000000E+00 -0.11466032000E+04  0.11466032000E+04  0.50400001928E-02 0.  1.
    10030    2    1    2    0    0  0.00000000000E+00  0.00000000000E+00 -0.22315891571E+03  0.20700474842E+04  0.20579836456E+04 0.  0.
        4    1    3    3  502    0 -0.48630145484E+03  0.90258981985E+03 -0.23515851421E+02  0.10255301537E+04  0.12699999809E+01 0. -1.
       -4    1    3    3    0  502  0.48630145484E+03 -0.90258981985E+03 -0.19964306429E+03  0.10445173306E+04  0.12699999809E+01 0.  1.
</event>
<event>
 5   0  0.1255141E-04  0.1819399E+04  0.7818609E-02  0.8696051E-01
       -1   -1    0    0    0  501  0.00000000000E+00  0.00000000000E+00  0.16510409384E+04  0.16510409384E+04  0.50400001928E-02 0.  1.
        1   -1    0    0  501    0  0.00000000000E+00  0.00000000000E+00 -0.50123125067E+03  0.50123125070E+03  0.50400001928E-02 0. -1.
    10030    2    1    2    0    0  0.00000000000E+00  0.00000000000E+00  0.11498096877E+04  0.21522721891E+04  0.18193991475E+04 0.  0.
        2    1    3    3  502    0  0.85483346598E+03 -0.82667073207E+02  0.92975116485E+03  0.12657058616E+04  0.25500000920E-02 0.  1.
       -2    1    3    3    0  502 -0.85483346598E+03  0.82667073207E+02  0.22005852288E+03  0.88656632750E+03  0.25500000920E-02 0. -1.
</event>
<event>
 5   0  0.1239615E-04  0.1896366E+04  0.7818609E-02  0.8656667E-01
        1   -1    0    0  501    0  0.00000000000E+00  0.00000000000E+00  0.18579796802E+04  0.18579796802E+04  0.50400001928E-02 0.  1.
       -1   -1    0    0    0  501  0.00000000000E+00  0.00000000000E+00 -0.48388631962E+03  0.48388631964E+03  0.50400001928E-02 0. -1.
    10030    2    1    2    0    0  0.00000000000E+00  0.00000000000E+00  0.13740933605E+04  0.23418659998E+04  0.18963659451E+04 0.  0.
        3    1    3    3  502    0 -0.51677877689E+03  0.77508861414E+03  0.46881696174E+03  0.10428863878E+04  0.10100000352E+00 0. -1.
       -3    1    3    3    0  502  0.51677877689E+03 -0.77508861414E+03  0.90527639881E+03  0.12989796120E+04  0.10100000352E+00 0.  1.
</event>
<event>
 5   0  0.2651828E-04  0.1924123E+04  0.7818609E-02  0.8642941E-01
       -2   -1    0    0    0  501  0.00000000000E+00  0.00000000000E+00  0.58748740745E+03  0.58748740746E+03  0.25500000920E-02 0. -1.
        2   -1    0    0  501    0  0.00000000000E+00  0.00000000000E+00 -0.15754589928E+04  0.15754589928E+04  0.25500000920E-02 0.  1.
    10030    2    1    2    0    0  0.00000000000E+00  0.00000000000E+00 -0.98797158538E+03  0.21629464003E+04  0.19241229891E+04 0.  0.
        3    1    3    3  502    0 -0.10236759064E+03  0.17506278998E+03 -0.15511590904E+04  0.15643594976E+04  0.10100000352E+00 0.  1.
       -3    1    3    3    0  502  0.10236759064E+03 -0.17506278998E+03  0.56318750498E+03  0.59858690265E+03  0.10100000352E+00 0. -1.
</event>
<event>
 5   0  0.1255141E-04  0.2173696E+04  0.7818609E-02  0.8529457E-01
        1   -1    0    0  501    0  0.00000000000E+00  0.00000000000E+00  0.13755822556E+04  0.13755822557E+04  0.50400001928E-02 0.  1.
       -1   -1    0    0    0  501  0.00000000000E+00  0.00000000000E+00 -0.85871889510E+03  0.85871889511E+03  0.50400001928E-02 0. -1.
    10030    2    1    2    0    0  0.00000000000E+00  0.00000000000E+00  0.51686336055E+03  0.22343011508E+04  0.21736959076E+04 0.  0.
        2    1    3    3  502    0  0.73217469291E+03  0.79812553164E+03  0.35125071551E+03  0.11386225056E+04  0.25500000920E-02 0.  1.
       -2    1    3    3    0  502 -0.73217469291E+03 -0.79812553164E+03  0.16561264504E+03  0.10956786451E+04  0.25500000920E-02 0. -1.
</event>
<event>
 5   0  0.1255141E-04  0.1899356E+04  0.7818609E-02  0.8655177E-01
       -1   -1    0    0    0  501  0.00000000000E+00  0.00000000000E+00  0.93844733409E+03  0.93844733410E+03  0.50400001928E-02 0. -1.
        1   -1    0    0  501    0  0.00000000000E+00  0.00000000000E+00 -0.96104270870E+03  0.96104270871E+03  0.50400001928E-02 0.  1.
    10030    2    1    2    0    0  0.00000000000E+00  0.00000000000E+00 -0.22595374613E+02  0.18994900428E+04  0.18993556465E+04 0.  0.
        2    1    3    3  502    0 -0.89635203173E+03  0.29726833315E+03 -0.11166683971E+03  0.95093896217E+03  0.25500000920E-02 0.  1.
       -2    1    3    3    0  502  0.89635203173E+03 -0.29726833315E+03  0.89071465096E+02  0.94855108064E+03  0.25500000920E-02 0. -1.
</event>
<event>
 5   0  0.2541124E-04  0.1906903E+04  0.7818609E-02  0.8651428E-01
        2   -1    0    0  501    0  0.00000000000E+00  0.00000000000E+00  0.11306313311E+04  0.11306313311E+04  0.25500000920E-02 0. -1.
       -2   -1    0    0    0  501  0.00000000000E+00  0.00000000000E+00 -0.80403689972E+03  0.80403689972E+03  0.25500000920E-02 0.  1.
    10030    2    1    2    0    0  0.00000000000E+00  0.00000000000E+00  0.32659443138E+03  0.19346682308E+04  0.19069025252E+04 0.  0.
        5    1    3    3  502    0  0.38348087448E+03  0.54990350203E+03  0.85110331276E+03  0.10834437603E+04  0.46999998093E+01 0. -1.
       -5    1    3    3    0  502 -0.38348087448E+03 -0.54990350203E+03 -0.52450888138E+03  0.85122447056E+03  0.46999998093E+01 0.  1.
</event>
<event>
 5   0  0.2562925E-04  0.2054796E+04  0.7818609E-02  0.8581422E-01
        2   -1    0    0  501    0  0.00000000000E+00  0.00000000000E+00  0.14318891517E+04  0.14318891517E+04  0.25500000920E-02 0. -1.
       -2   -1    0    0    0  501  0.00000000000E+00  0.00000000000E+00 -0.73717039202E+03  0.73717039202E+03  0.25500000920E-02 0.  1.
    10030    2    1    2    0    0  0.00000000000E+00  0.00000000000E+00  0.69471875971E+03  0.21690595438E+04  0.20547956466E+04 0.  0.
        4    1    3    3  502    0 -0.96345343953E+03  0.31105336169E+03  0.16286043961E+03  0.10254373992E+04  0.12699999809E+01 0. -1.
       -4    1    3    3    0  502  0.96345343953E+03 -0.31105336169E+03  0.53185832010E+03  0.11436221446E+04  0.12699999809E+01 0.  1.
</event>
<event>
 5   0  0.1255141E-04  0.1916814E+04  0.7818609E-02  0.8646532E-01
        1   -1    0    0  501    0  0.00000000000E+00  0.00000000000E+00  0.16609659233E+04  0.16609659233E+04  0.50400001928E-02 0. -1.
       -1   -1    0    0    0  501  0.00000000000E+00  0.00000000000E+00 -0.55301816448E+03  0.55301816450E+03  0.50400001928E-02 0.  1.
    10030    2    1    2    0    0  0.00000000000E+00  0.00000000000E+00  0.11079477588E+04  0.22139840878E+04  0.19168143637E+04 0.  0.
        2    1    3    3  502    0 -0.49940955906E+03  0.32547390925E+02  0.14980501423E+04  0.15794377066E+04  0.25500000920E-02 0. -1.
       -2    1    3    3    0  502  0.49940955906E+03 -0.32547390925E+02 -0.39010238343E+03  0.63454638121E+03  0.25500000920E-02 0.  1.
</event>
<event>
 5   0  0.1239615E-04  0.1909556E+04  0.7818609E-02  0.8650114E-01
        1   -1    0    0  501    0  0.00000000000E+00  0.00000000000E+00  0.20968052662E+04  0.20968052662E+04  0.50400001928E-02 0. -1.
       -1   -1    0    0    0  501  0.00000000000E+00  0.00000000000E+00 -0.43475712952E+03  0.43475712955E+03  0.50400001928E-02 0.  1.
    10030    2    1    2    0    0  0.00000000000E+00  0.00000000000E+00  0.16620481366E+04  0.25315623957E+04  0.19095560099E+04 0.  0.
        3    1    3    3  502    0 -0.61252881239E+02  0.80197987874E+03  0.14897651714E+03  0.81799612116E+03  0.10100000352E+00 0.  1.
       -3    1    3    3    0  502  0.61252881239E+02 -0.80197987874E+03  0.15130716195E+04  0.17135662746E+04  0.10100000352E+00 0. -1.
</event>
<event>
 5   0  0.1239615E-04  0.1923902E+04  0.7818609E-02  0.8643049E-01
       -1   -1    0    0    0  501  0.00000000000E+00  0.00000000000E+00  0.79272559271E+03  0.79272559273E+03  0.50400001928E-02 0. -1.
        1   -1    0    0  501    0  0.00000000000E+00  0.00000000000E+00 -0.11673013767E+04  0.11673013767E+04  0.50400001928E-02 0.  1.
    10030    2    1    2    0    0  0.00000000000E+00  0.00000000000E+00 -0.37457578396E+03  0.19600269694E+04  0.19239019473E+04 0.  0.
        3    1    3    3  502    0 -0.50951441021E+03 -0.40537357504E+03  0.53411626124E+03  0.84214776629E+03  0.10100000352E+00 0. -1.
       -3    1    3    3    0  502  0.50951441021E+03  0.40537357504E+03 -0.90869204520E+03  0.11178792031E+04  0.10100000352E+00 0.  1.
</event>
<event>
 5   0  0.2608744E-04  0.1837390E+04  0.7818609E-02  0.8686665E-01
       -2   -1    0    0    0  501  0.00000000000E+00  0.00000000000E+00  0.34136649724E+03  0.34136649725E+03  0.25500000920E-02 0.  1.
        2   -1    0    0  501    0  0.00000000000E+00  0.00000000000E+00 -0.24724175288E+04  0.24724175288E+04  0.25500000920E-02 0. -1.
    10030    2    1    2    0    0  0.00000000000E+00  0.00000000000E+00 -0.21310510315E+04  0.28137840260E+04  0.18373900093E+04 0.  0.
        2    1    3    3  502    0 -0.91541265889E+03  0.66335186140E+02 -0.11271598336E+04  0.14535714580E+04  0.25500000920E-02 0. -1.
       -2    1    3    3    0  502  0.91541265889E+03 -0.66335186140E+02 -0.10038911979E+04  0.13602125680E+04  0.25500000920E-02 0.  1.
</event>
<event>
 5   0  0.1317527E-04  0.1835744E+04  0.7818609E-02  0.8687519E-01
        1   -1    0    0  501    0  0.00000000000E+00  0.00000000000E+00  0.14599929806E+04  0.14599929807E+04  0.50400001928E-02 0.  1.
       -1   -1    0    0    0  501  0.00000000000E+00  0.00000000000E+00 -0.57704989683E+03  0.57704989685E+03  0.50400001928E-02 0. -1.
    10030    2    1    2    0    0  0.00000000000E+00  0.00000000000E+00  0.88294308382E+03  0.20370428775E+04  0.18357437718E+04 0.  0.
        1    1    3    3  502    0 -0.36082575494E+03 -0.83623417457E+03  0.31492227709E+03  0.96366947694E+03  0.50400001928E-02 0. -1.
       -1    1    3    3    0  502  0.36082575494E+03  0.83623417457E+03  0.56802080673E+03  0.10733734006E+04  0.50400001928E-02 0.  1.
</event>
<event>
 5   0  0.2541124E-04  0.1975736E+04  0.7818609E-02  0.8618049E-01
       -2   -1    0    0    0  501  0.00000000000E+00  0.00000000000E+00  0.99989337296E+03  0.99989337297E+03  0.25500000920E-02 0. -1.
        2   -1    0    0  501    0  0.00000000000E+00  0.00000000000E+00 -0.97598751371E+03  0.97598751372E+03  0.25500000920E-02 0.  1.
    10030    2    1    2    0    0  0.00000000000E+00  0.00000000000E+00  0.23905859250E+02  0.19758808867E+04  0.19757362649E+04 0.  0.
        5    1    3    3  502    0 -0.69755280723E+02  0.64916626947E+03  0.75334295693E+03  0.99691039986E+03  0.46999998093E+01 0. -1.
       -5    1    3    3    0  502  0.69755280723E+02 -0.64916626947E+03 -0.72943709768E+03  0.97897048682E+03  0.46999998093E+01 0.  1.
</event>
<event>
 5   0  0.1239615E-04  0.1900981E+04  0.7818609E-02  0.8654368E-01
       -1   -1    0    0    0  501  0.00000000000E+00  0.00000000000E+00  0.70530159267E+03  0.70530159269E+03  0.50400001928E-02 0. -1.
        1   -1    0    0  501    0  0.00000000000E+00  0.00000000000E+00 -0.12809156821E+04  0.12809156822E+04  0.50400001928E-02 0.  1.
    10030    2    1    2    0    0  0.00000000000E+00  0.00000000000E+00 -0.57561408948E+03  0.19862172748E+04  0.19009806635E+04 0.  0.
        3    1    3    3  502    0 -0.46982815108E+03  0.41324062758E+02 -0.11500269578E+04  0.12429835813E+04  0.10100000352E+00 0.  1.
       -3    1    3    3    0  502  0.46982815108E+03 -0.41324062758E+02  0.57441286828E+03  0.74323369350E+03  0.10100000352E+00 0. -1.
</event>
<event>
 5   0  0.2608744E-04  0.1901793E+04  0.7818609E-02  0.8653964E-01
        2   -1    0    0  501    0  0.00000000000E+00  0.00000000000E+00  0.16256281814E+04  0.16256281814E+04  0.25500000920E-02 0. -1.
       -2   -1    0    0    0  501  0.00000000000E+00  0.00000000000E+00 -0.55621847346E+03  0.55621847346E+03  0.25500000920E-02 0.  1.
    10030    2    1    2    0    0  0.00000000000E+00  0.00000000000E+00  0.10694097079E+04  0.21818466548E+04  0.19017932858E+04 0.  0.
        2    1    3    3  502    0 -0.44851149004E+03  0.58121023614E+03  0.12280476674E+04  0.14307581797E+04  0.25500000920E-02 0. -1.
       -2    1    3    3    0  502  0.44851149004E+03 -0.58121023614E+03 -0.15863795950E+03  0.75108847515E+03  0.25500000920E-02 0.  1.
</event>
<event>
 5   0  0.2541124E-04  0.1872093E+04  0.7818609E-02  0.8668874E-01
        2   -1    0    0  501    0  0.00000000000E+00  0.00000000000E+00  0.20362778617E+04  0.20362778617E+04  0.25500000920E-02 0.  1.
       -2   -1    0    0    0  501  0.00000000000E+00  0.00000000000E+00 -0.43028645175E+03  0.43028645176E+03  0.25500000920E-02 0. -1.
    10030    2    1    2    0    0  0.00000000000E+00  0.00000000000E+00  0.16059914099E+04  0.24665643135E+04  0.18720927070E+04 0.  0.
        5    1    3    3  502    0 -0.23397181146E+03 -0.84892351129E+03  0.38479899341E+03  0.96099234747E+03  0.46999998093E+01 0.  1.
       -5    1    3    3    0  502  0.23397181146E+03  0.84892351129E+03  0.12211924165E+04  0.15055719660E+04  0.46999998093E+01 0. -1.
</event>
<event>
 5   0  0.1317527E-04  0.1835959E+04  0.7818609E-02  0.8687407E-01
       -1   -1    0    0    0  501  0.00000000000E+00  0.00000000000E+00  0.11206737864E+04  0.11206737864E+04  0.50400001928E-02 0.  1.
        1   -1    0    0  501    0  0.00000000000E+00  0.00000000000E+00 -0.75194642562E+03  0.75194642563E+03  0.50400001928E-02 0. -1.
    10030    2    1    2    0    0  0.00000000000E+00  0.00000000000E+00  0.36872736081E+03  0.18726202121E+04  0.18359593111E+04 0.  0.
        1    1    3    3  502    0  0.34994098220E+03 -0.17453203659E+03  0.10314695901E+04  0.11031090781E+04  0.50400001928E-02 0.  1.
       -1    1    3    3    0  502 -0.34994098220E+03  0.17453203659E+03 -0.66274222929E+03  0.76951113399E+03  0.50400001928E-02 0. -1.
</event>
<event>
 5   0  0.1277709E-04  0.1896092E+04  0.7818609E-02  0.8656804E-01
       -1   -1    0    0    0  501  0.00000000000E+00  0.00000000000E+00  0.83850110267E+03  0.83850110268E+03  0.50400001928E-02 0.  1.
        1   -1    0    0  501    0  0.00000000000E+00  0.00000000000E+00 -0.10719021257E+04  0.10719021257E+04  0.50400001928E-02 0. -1.
    10030    2    1    2    0    0  0.00000000000E+00  0.00000000000E+00 -0.23340102304E+03  0.19104032284E+04  0.18960918906E+04 0.  0.
        4    1    3    3  502    0 -0.52097412074E+03 -0.74662342929E+03  0.14973620858E+03  0.92265005539E+03  0.12699999809E+01 0.  1.
       -4    1    3    3    0  502  0.52097412074E+03  0.74662342929E+03 -0.38313723161E+03  0.98775317301E+03  0.12699999809E+01 0. -1.
</event>
<event>
 5   0  0.2651828E-04  0.1921393E+04  0.7818609E-02  0.8644281E-01
        2   -1    0    0  501    0  0.00000000000E+00  0.00000000000E+00  0.16081471148E+04  0.16081471148E+04  0.25500000920E-02 0. -1.
       -2   -1    0    0    0  501  0.00000000000E+00  0.00000000000E+00 -0.57391356170E+03  0.57391356170E+03  0.25500000920E-02 0.  1.
    10030    2    1    2    0    0  0.00000000000E+00  0.00000000000E+00  0.10342335531E+04  0.21820606765E+04  0.19213926599E+04 0.  0.
        3    1    3    3  502    0  0.27019368893E+03  0.82432393426E+03  0.98594592751E+03  0.13132417753E+04  0.10100000352E+00 0. -1.
       -3    1    3    3    0  502 -0.27019368893E+03 -0.82432393426E+03  0.48287625575E+02  0.86881890122E+03  0.10100000352E+00 0.  1.
</event>
<event>
 5   0  0.1324058E-04  0.1929533E+04  0.7818609E-02  0.8640294E-01
       -1   -1    0    0    0  501  0.00000000000E+00  0.00000000000E+00  0.61616860543E+03  0.61616860545E+03  0.50400001928E-02 0.  1.
        1   -1    0    0  501    0  0.00000000000E+00  0.00000000000E+00 -0.15105845054E+04  0.15105845054E+04  0.50400001928E-02 0. -1.
    10030    2    1    2    0    0  0.00000000000E+00  0.00000000000E+00 -0.89441589998E+03  0.21267531109E+04  0.19295333613E+04 0.  0.
        5    1    3    3  502    0  0.63777261479E+02 -0.51209656901E+03  0.45124098077E+03  0.68552968412E+03  0.46999998093E+01 0.  1.
       -5    1    3    3    0  502 -0.63777261479E+02  0.51209656901E+03 -0.13456568808E+04  0.14412234267E+04  0.46999998093E+01 0. -1.
</event>
<event>
 5   0  0.2595012E-04  0.1910347E+04  0.7818609E-02  0.8649723E-01
       -2   -1    0    0    0  501  0.00000000000E+00  0.00000000000E+00  0.47639269115E+03  0.47639269115E+03  0.25500000920E-02 0.  1.
        2   -1    0    0  501    0  0.00000000000E+00  0.00000000000E+00 -0.19151355427E+04  0.19151355427E+04  0.25500000920E-02 0. -1.
    10030    2    1    2    0    0  0.00000000000E+00  0.00000000000E+00 -0.14387428515E+04  0.23915282338E+04  0.19103471675E+04 0.  0.
        1    1    3    3  502    0  0.47076110858E+03 -0.25971316456E+03  0.26897264881E+03  0.60117654232E+03  0.50400001928E-02 0.  1.
       -1    1    3    3    0  502 -0.47076110858E+03  0.25971316456E+03 -0.17077155003E+04  0.17903516915E+04  0.50400001928E-02 0. -1.
</event>
<event>
 5   0  0.1317527E-04  0.1888901E+04  0.7818609E-02  0.8660401E-01
       -1   -1    0    0    0  501  0.00000000000E+00  0.00000000000E+00  0.14418048213E+04  0.14418048213E+04  0.50400001928E-02 0.  1.
        1   -1    0    0  501    0  0.00000000000E+00  0.00000000000E+00 -0.61866000456E+03  0.61866000458E+03  0.50400001928E-02 0. -1.
    10030    2    1    2    0    0  0.00000000000E+00  0.00000000000E+00  0.82314481671E+03  0.20604648259E+04  0.18889012439E+04 0.  0.
        1    1    3    3  502    0 -0.11048329015E+03 -0.75448573936E+03 -0.19629507910E+03  0.78739256182E+03  0.50400001928E-02 0. -1.
       -1    1    3    3    0  502  0.11048329015E+03  0.75448573936E+03  0.10194398958E+04  0.12730722640E+04  0.50400001928E-02 0.  1.
</event>
<event>
 5   0  0.2608744E-04  0.1882751E+04  0.7818609E-02  0.8663490E-01
       -2   -1    0    0    0  501  0.00000000000E+00  0.00000000000E+00  0.16035380789E+04  0.16035380789E+04  0.25500000920E-02 0. -1.
        2   -1    0    0  501    0  0.00000000000E+00  0.00000000000E+00 -0.55264518271E+03  0.55264518272E+03  0.25500000920E-02 0.  1.
    10030    2    1    2    0    0  0.00000000000E+00  0.00000000000E+00  0.10508928962E+04  0.21561832616E+04  0.18827507478E+04 0.  0.
        2    1    3    3  502    0 -0.46303351498E+03 -0.55808083599E+03 -0.16200980178E+03  0.74303528272E+03  0.25500000920E-02 0.  1.
       -2    1    3    3    0  502  0.46303351498E+03  0.55808083599E+03  0.12129026980E+04  0.14131479789E+04  0.25500000920E-02 0. -1.
</event>
<event>
 5   0  0.1239615E-04  0.1906655E+04  0.7818609E-02  0.8651551E-01
        1   -1    0    0  501    0  0.00000000000E+00  0.00000000000E+00  0.10434817081E+04  0.10434817081E+04  0.50400001928E-02 0.  1.
       -1   -1    0    0    0  501  0.00000000000E+00  0.00000000000E+00 -0.87096262486E+03  0.87096262488E+03  0.50400001928E-02 0. -1.
    10030    2    1    2    0    0  0.00000000000E+00  0.00000000000E+00  0.17251908327E+03  0.19144443330E+04  0.19066552573E+04 0.  0.
        3    1    3    3  502    0  0.22770663425E+03 -0.83601661306E+02 -0.83945801336E+03  0.87380164537E+03  0.10100000352E+00 0. -1.
       -3    1    3    3    0  502 -0.22770663425E+03  0.83601661306E+02  0.10119770966E+04  0.10406426876E+04  0.10100000352E+00 0.  1.
</event>
<event>
 5   0  0.2562925E-04  0.1832415E+04  0.7818609E-02  0.8689249E-01
        2   -1    0    0  501    0  0.00000000000E+00  0.00000000000E+00  0.11244719156E+04  0.11244719156E+04  0.25500000920E-02 0. -1.
       -2   -1    0    0    0  501  0.00000000000E+00  0.00000000000E+00 -0.74651572488E+03  0.74651572489E+03  0.25500000920E-02 0.  1.
    10030    2    1    2    0    0  0.00000000000E+00  0.00000000000E+00  0.37795619075E+03  0.18709876405E+04  0.18324147644E+04 0.  0.
        4    1    3    3  502    0  0.71727486167E+03  0.27626065034E+03  0.69810369195E+03  0.10383417317E+04  0.12699999809E+01 0.  1.
       -4    1    3    3    0  502 -0.71727486167E+03 -0.27626065034E+03 -0.32014750120E+03  0.83264590885E+03  0.12699999809E+01 0. -1.
</event>
<event>
 5   0  0.2595012E-04  0.1900246E+04  0.7818609E-02  0.8654734E-01
        2   -1    0    0  501    0  0.00000000000E+00  0.00000000000E+00  0.28323918430E+04  0.28323918430E+04  0.25500000920E-02 0.  1.
       -2   -1    0    0    0  501  0.00000000000E+00  0.00000000000E+00 -0.31871765136E+03  0.31871765137E+03  0.25500000920E-02 0. -1.
    10030    2    1    2    0    0  0.00000000000E+00  0.00000000000E+00  0.25136741917E+04  0.31511094944E+04  0.19002455378E+04 0.  0.
        1    1    3    3  502    0 -0.32254536728E+03  0.17934502617E+03  0.27086786954E+04  0.27337045245E+04  0.50400001928E-02 0.  1.
       -1    1    3    3    0  502  0.32254536728E+03 -0.17934502617E+03 -0.19500450375E+03  0.41740496988E+03  0.50400001928E-02 0. -1.
</event>
<event>
 5   0  0.1239615E-04  0.1849881E+04  0.7818609E-02  0.8680214E-01
       -1   -1    0    0    0  501  0.00000000000E+00  0.00000000000E+00  0.75787820969E+03  0.75787820971E+03  0.50400001928E-02 0. -1.
        1   -1    0    0  501    0  0.00000000000E+00  0.00000000000E+00 -0.11288291362E+04  0.11288291362E+04  0.50400001928E-02 0.  1.
    10030    2    1    2    0    0  0.00000000000E+00  0.00000000000E+00 -0.37095092654E+03  0.18867073459E+04  0.18498810825E+04 0.  0.
        3    1    3    3  502    0  0.31167755747E+03 -0.26799164883E+03  0.65960415628E+03  0.77720015237E+03  0.10100000352E+00 0. -1.
       -3    1    3    3    0  502 -0.31167755747E+03  0.26799164883E+03 -0.10305550828E+04  0.11095071936E+04  0.10100000352E+00 0.  1.
</event>
<event>
 5   0  0.1324058E-04  0.1862454E+04  0.7818609E-02  0.8673774E-01
       -1   -1    0    0    0  501  0.00000000000E+00  0.00000000000E+00  0.70162655408E+03  0.70162655410E+03  0.50400001928E-02 0.  1.
        1   -1    0    0  501    0  0.00000000000E+00  0.00000000000E+00 -0.12359621104E+04  0.12359621104E+04  0.50400001928E-02 0. -1.
    10030    2    1    2    0    0  0.00000000000E+00  0.00000000000E+00 -0.53433555627E+03  0.19375886645E+04  0.18624541192E+04 0.  0.
        5    1    3    3  502    0  0.61155551552E+03 -0.63551327995E+03  0.43691591526E+02  0.88306756408E+03  0.46999998093E+01 0.  1.
       -5    1    3    3    0  502 -0.61155551552E+03  0.63551327995E+03 -0.57802714780E+03  0.10545211004E+04  0.46999998093E+01 0. -1.
</event>
<event>
 5   0  0.1239615E-04  0.1905264E+04  0.7818609E-02  0.8652240E-01
        1   -1    0    0  501    0  0.00000000000E+00  0.00000000000E+00  0.21795363921E+04  0.21795363921E+04  0.50400001928E-02 0. -1.
       -1   -1    0    0    0  501  0.00000000000E+00  0.00000000000E+00 -0.41637665072E+03  0.41637665075E+03  0.50400001928E-02 0.  1.
    10030    2    1    2    0    0  0.00000000000E+00  0.00000000000E+00  0.17631597414E+04  0.25959130429E+04  0.19052643524E+04 0.  0.
        3    1    3    3  502    0  0.56057991876E+03  0.42215386437E+03  0.17593527077E+04  0.18941451081E+04  0.10100000352E+00 0. -1.
       -3    1    3    3    0  502 -0.56057991876E+03 -0.42215386437E+03  0.38070337363E+01  0.70176793473E+03  0.10100000352E+00 0.  1.
</event>
<event>
 5   0  0.9266125E-05  0.1948583E+04  0.7818609E-02  0.8631044E-01
       -3   -1    0    0    0  501  0.00000000000E+00  0.00000000000E+00  0.70089542663E+03  0.70089543390E+03  0.10100000352E+00 0.  1.
        3   -1    0    0  501    0  0.00000000000E+00  0.00000000000E+00 -0.13543305129E+04  0.13543305167E+04  0.10100000352E+00 0. -1.
    10030    2    1    2    0    0  0.00000000000E+00  0.00000000000E+00 -0.65343508631E+03  0.20552259506E+04  0.19485831509E+04 0.  0.
        4    1    3    3  502    0 -0.13008992063E+03 -0.52119330298E+03  0.53058694902E+03  0.75504302519E+03  0.12699999809E+01 0.  1.
       -4    1    3    3    0  502  0.13008992063E+03  0.52119330298E+03 -0.11840220353E+04  0.13001829254E+04  0.12699999809E+01 0. -1.
</event>
<event>
 5   0  0.2608744E-04  0.1897369E+04  0.7818609E-02  0.8656167E-01
       -2   -1    0    0    0  501  0.00000000000E+00  0.00000000000E+00  0.64785234522E+03  0.64785234523E+03  0.25500000920E-02 0.  1.
        2   -1    0    0  501    0  0.00000000000E+00  0.00000000000E+00 -0.13892094951E+04  0.13892094951E+04  0.25500000920E-02 0. -1.
    10030    2    1    2    0    0  0.00000000000E+00  0.00000000000E+00 -0.74135714988E+03  0.20370618403E+04  0.18973693677E+04 0.  0.
        2    1    3    3  502    0  0.84650457404E+03  0.18111248969E+03  0.46007863781E+02  0.86688433562E+03  0.25500000920E-02 0. -1.
       -2    1    3    3    0  502 -0.84650457404E+03 -0.18111248969E+03 -0.78736501367E+03  0.11701775047E+04  0.25500000920E-02 0.  1.
</event>
<event>
 5   0  0.1239615E-04  0.1797360E+04  0.7818609E-02  0.8707705E-01
        1   -1    0    0  501    0  0.00000000000E+00  0.00000000000E+00  0.21221620591E+04  0.21221620591E+04  0.50400001928E-02 0.  1.
       -1   -1    0    0    0  501  0.00000000000E+00  0.00000000000E+00 -0.38056733414E+03  0.38056733417E+03  0.50400001928E-02 0. -1.
    10030    2    1    2    0    0  0.00000000000E+00  0.00000000000E+00  0.17415947250E+04  0.25027293933E+04  0.17973597943E+04 0.  0.
        3    1    3    3  502    0 -0.57792207223E+03 -0.31631542103E+03  0.19721134352E+02  0.65911933706E+03  0.10100000352E+00 0. -1.
       -3    1    3    3    0  502  0.57792207223E+03  0.31631542103E+03  0.17218735906E+04  0.18436100562E+04  0.10100000352E+00 0.  1.
</event>
<event>
 5   0  0.2595012E-04  0.1910207E+04  0.7818609E-02  0.8649792E-01
        2   -1    0    0  501    0  0.00000000000E+00  0.00000000000E+00  0.13688914431E+04  0.13688914431E+04  0.25500000920E-02 0. -1.
       -2   -1    0    0    0  501  0.00000000000E+00  0.00000000000E+00 -0.66639547632E+03  0.66639547632E+03  0.25500000920E-02 0.  1.
    10030    2    1    2    0    0  0.00000000000E+00  0.00000000000E+00  0.70249596681E+03  0.20352869195E+04  0.19102073869E+04 0.  0.
        1    1    3    3  502    0  0.38108486960E+03 -0.76799805134E+03  0.79973309881E+03  0.11724417743E+04  0.50400001928E-02 0. -1.
       -1    1    3    3    0  502 -0.38108486960E+03  0.76799805134E+03 -0.97237131995E+02  0.86284514519E+03  0.50400001928E-02 0.  1.
</event>
<event>
 5   0  0.2562925E-04  0.1920236E+04  0.7818609E-02  0.8644849E-01
       -2   -1    0    0    0  501  0.00000000000E+00  0.00000000000E+00  0.60515431727E+03  0.60515431727E+03  0.25500000920E-02 0.  1.
        2   -1    0    0  501    0  0.00000000000E+00  0.00000000000E+00 -0.15232915036E+04  0.15232915036E+04  0.25500000920E-02 0. -1.
    10030    2    1    2    0    0  0.00000000000E+00  0.00000000000E+00 -0.91813718638E+03  0.21284458209E+04  0.19202358500E+04 0.  0.
        4    1    3    3  502    0 -0.84745304638E+03  0.44579862566E+03 -0.38138567034E+03  0.10307132108E+04  0.12699999809E+01 0. -1.
       -4    1    3    3    0  502  0.84745304638E+03 -0.44579862566E+03 -0.53675151603E+03  0.10977326101E+04  0.12699999809E+01 0.  1.
</event>
<event>
 5   0  0.1324058E-04  0.1916848E+04  0.7818609E-02  0.8646515E-01
       -1   -1    0    0    0  501  0.00000000000E+00  0.00000000000E+00  0.13528381394E+04  0.13528381395E+04  0.50400001928E-02 0.  1.
        1   -1    0    0  501    0  0.00000000000E+00  0.00000000000E+00 -0.67899965859E+03  0.67899965861E+03  0.50400001928E-02 0. -1.
    10030    2    1    2    0    0  0.00000000000E+00  0.00000000000E+00  0.67383848085E+03  0.20318377981E+04  0.19168480741E+04 0.  0.
        5    1    3    3  502    0 -0.17808485320E+03 -0.87171887779E+03  0.71458860368E+03  0.11411691283E+04  0.46999998093E+01 0.  1.
       -5    1    3    3    0  502  0.17808485320E+03  0.87171887779E+03 -0.40750122826E+02  0.89066866979E+03  0.46999998093E+01 0. -1.
</event>
<event>
 5   0  0.2651828E-04  0.1911208E+04  0.7818609E-02  0.8649297E-01
        2   -1    0    0  501    0  0.00000000000E+00  0.00000000000E+00  0.12084693213E+04  0.12084693213E+04  0.25500000920E-02 0. -1.
       -2   -1    0    0    0  501  0.00000000000E+00  0.00000000000E+00 -0.75564943667E+03  0.75564943667E+03  0.25500000920E-02 0.  1.
    10030    2    1    2    0    0  0.00000000000E+00  0.00000000000E+00  0.45281988465E+03  0.19641187580E+04  0.19112081644E+04 0.  0.
        3    1    3    3  502    0 -0.78165064444E+03 -0.51880698354E+03  0.39606616135E+02  0.93899260400E+03  0.10100000352E+00 0.  1.
       -3    1    3    3    0  502  0.78165064444E+03  0.51880698354E+03  0.41321326851E+03  0.10251261540E+04  0.10100000352E+00 0. -1.
</event>
<event>
 5   0  0.2651828E-04  0.1883262E+04  0.7818609E-02  0.8663233E-01
        2   -1    0    0  501    0  0.00000000000E+00  0.00000000000E+00  0.13046938648E+04  0.13046938648E+04  0.25500000920E-02 0. -1.
       -2   -1    0    0    0  501  0.00000000000E+00  0.00000000000E+00 -0.67959902043E+03  0.67959902043E+03  0.25500000920E-02 0.  1.
    10030    2    1    2    0    0  0.00000000000E+00  0.00000000000E+00  0.62509484436E+03  0.19842928852E+04  0.18832617157E+04 0.  0.
        3    1    3    3  502    0  0.22051411159E+03 -0.87305720418E+03  0.22434002576E+02  0.90075448922E+03  0.10100000352E+00 0.  1.
       -3    1    3    3    0  502 -0.22051411159E+03  0.87305720418E+03  0.60266084179E+03  0.10835383960E+04  0.10100000352E+00 0. -1.
</event>
<event>
 5   0  0.1255141E-04  0.1836497E+04  0.7818609E-02  0.8687128E-01
       -1   -1    0    0    0  501  0.00000000000E+00  0.00000000000E+00  0.91364377210E+03  0.91364377212E+03  0.50400001928E-02 0. -1.
        1   -1    0    0  501    0  0.00000000000E+00  0.00000000000E+00 -0.92287624763E+03  0.92287624764E+03  0.50400001928E-02 0.  1.
    10030    2    1    2    0    0  0.00000000000E+00  0.00000000000E+00 -0.92324755225E+01  0.18365200198E+04  0.18364968131E+04 0.  0.
        2    1    3    3  502    0 -0.53709777062E+03 -0.37466076074E+03  0.63908082353E+03  0.91502404332E+03  0.25500000920E-02 0. -1.
       -2    1    3    3    0  502  0.53709777062E+03  0.37466076074E+03 -0.64831329905E+03  0.92149597643E+03  0.25500000920E-02 0.  1.
</event>
<event>
 5   0  0.1324058E-04  0.1858857E+04  0.7818609E-02  0.8675612E-01
        1   -1    0    0  501    0  0.00000000000E+00  0.00000000000E+00  0.77958418419E+03  0.77958418421E+03  0.50400001928E-02 0.  1.
       -1   -1    0    0    0  501  0.00000000000E+00  0.00000000000E+00 -0.11080739553E+04  0.11080739553E+04  0.50400001928E-02 0. -1.
    10030    2    1    2    0    0  0.00000000000E+00  0.00000000000E+00 -0.32848977107E+03  0.18876581395E+04  0.18588565630E+04 0.  0.
        5    1    3    3  502    0  0.73684357877E+02 -0.76316304770E+03 -0.69771061969E+03  0.10366626360E+04  0.46999998093E+01 0.  1.
       -5    1    3    3    0  502 -0.73684357877E+02  0.76316304770E+03  0.36922084862E+03  0.85099550353E+03  0.46999998093E+01 0. -1.
</event>
<event>
 5   0  0.1317527E-04  0.1844987E+04  0.7818609E-02  0.8682735E-01
        1   -1    0    0  501    0  0.00000000000E+00  0.00000000000E+00  0.17918592106E+04  0.17918592106E+04  0.50400001928E-02 0.  1.
       -1   -1    0    0    0  501  0.00000000000E+00  0.00000000000E+00 -0.47492268676E+03  0.47492268679E+03  0.50400001928E-02 0. -1.
    10030    2    1    2    0    0  0.00000000000E+00  0.00000000000E+00  0.13169365238E+04  0.22667818974E+04  0.18449873611E+04 0.  0.
        1    1    3    3  502    0  0.48875678654E+03  0.20130228783E+03 -0.27040869460E+03  0.59373956380E+03  0.50400001928E-02 0. -1.
       -1    1    3    3    0  502 -0.48875678654E+03 -0.20130228783E+03  0.15873452184E+04  0.16730423336E+04  0.50400001928E-02 0.  1.
</event>
<event>
 5   0  0.2541124E-04  0.1872734E+04  0.7818609E-02  0.8668549E-01
       -2   -1    0    0    0  501  0.00000000000E+00  0.00000000000E+00  0.13384787502E+04  0.13384787502E+04  0.25500000920E-02 0. -1.
        2   -1    0    0  501    0  0.00000000000E+00  0.00000000000E+00 -0.65505937164E+03  0.65505937165E+03  0.25500000920E-02 0.  1.
    10030    2    1    2    0    0  0.00000000000E+00  0.00000000000E+00  0.68341937852E+03  0.19935381218E+04  0.18727338829E+04 0.  0.
        5    1    3    3  502    0  0.70225131077E+03  0.61774258615E+03  0.38929389538E+03  0.10130817505E+04  0.46999998093E+01 0.  1.
       -5    1    3    3    0  502 -0.70225131077E+03 -0.61774258615E+03  0.29412548314E+03  0.98045637132E+03  0.46999998093E+01 0. -1.
</event>
<event>
 5   0  0.2651828E-04  0.1944516E+04  0.7818609E-02  0.8633010E-01
       -2   -1    0    0    0  501  0.00000000000E+00  0.00000000000E+00  0.95683952162E+03  0.95683952162E+03  0.25500000920E-02 0. -1.
        2   -1    0    0  501    0  0.00000000000E+00  0.00000000000E+00 -0.98792504680E+03  0.98792504681E+03  0.25500000920E-02 0.  1.
    10030    2    1    2    0    0  0.00000000000E+00  0.00000000000E+00 -0.31085525186E+02  0.19447645684E+04  0.19445161138E+04 0.  0.
        3    1    3    3  502    0 -0.67201078974E+03  0.60429287339E+03  0.34299619560E+03  0.96665132223E+03  0.10100000352E+00 0.  1.
       -3    1    3    3    0  502  0.67201078974E+03 -0.60429287339E+03 -0.37408172079E+03  0.97811324620E+03  0.10100000352E+00 0. -1.
</event>
<event>
 5   0  0.2562925E-04  0.1876406E+04  0.7818609E-02  0.8666691E-01
        2   -1    0    0  501    0  0.00000000000E+00  0.00000000000E+00  0.19498422374E+04  0.19498422374E+04  0.25500000920E-02 0.  1.
       -2   -1    0    0    0  501  0.00000000000E+00  0.00000000000E+00 -0.45143375838E+03  0.45143375839E+03  0.25500000920E-02 0. -1.
    10030    2    1    2    0    0  0.00000000000E+00  0.00000000000E+00  0.14984084790E+04  0.24012759958E+04  0.18764057232E+04 0.  0.
        4    1    3    3  502    0 -0.40230244203E+03  0.14300783808E+03 -0.31989877134E+03  0.53351226174E+03  0.12699999809E+01 0. -1.
       -4    1    3    3    0  502  0.40230244203E+03 -0.14300783808E+03  0.18183072504E+04  0.18677637341E+04  0.12699999809E+01 0.  1.
</event>
<event>
 5   0  0.2651828E-04  0.1898629E+04  0.7818609E-02  0.8655539E-01
       -2   -1    0    0    0  501  0.00000000000E+00  0.00000000000E+00  0.55664478700E+03  0.55664478701E+03  0.25500000920E-02 0. -1.
        2   -1    0    0  501    0  0.00000000000E+00  0.00000000000E+00 -0.16189825732E+04  0.16189825732E+04  0.25500000920E-02 0.  1.
    10030    2    1    2    0    0  0.00000000000E+00  0.00000000000E+00 -0.10623377862E+04  0.21756273602E+04  0.18986291999E+04 0.  0.
        3    1    3    3  502    0  0.42093916981E+03 -0.52394435895E+03 -0.12994227029E+04  0.14629445810E+04  0.10100000352E+00 0.  1.
       -3    1    3    3    0  502 -0.42093916981E+03  0.52394435895E+03  0.23708491668E+03  0.71268277927E+03  0.10100000352E+00 0. -1.
</event>
<event>
 5   0  0.1324058E-04  0.1861263E+04  0.7818609E-02  0.8674382E-01
       -1   -1    0    0    0  501  0.00000000000E+00  0.00000000000E+00  0.91022342986E+03  0.91022342987E+03  0.50400001928E-02 0.  1.
        1   -1    0    0  501    0  0.00000000000E+00  0.00000000000E+00 -0.95149731761E+03  0.95149731762E+03  0.50400001928E-02 0. -1.
    10030    2    1    2    0    0  0.00000000000E+00  0.00000000000E+00 -0.41273887748E+02  0.18617207475E+04  0.18612631753E+04 0.  0.
        5    1    3    3  502    0  0.33389886593E+03 -0.30960719187E+03 -0.83244474677E+03  0.94885795162E+03  0.46999998093E+01 0. -1.
       -5    1    3    3    0  502 -0.33389886593E+03  0.30960719187E+03  0.79117085902E+03  0.91286279587E+03  0.46999998093E+01 0.  1.
</event>
<event>
 5   0  0.1277709E-04  0.1884388E+04  0.7818609E-02  0.8662667E-01
       -1   -1    0    0    0  501  0.00000000000E+00  0.00000000000E+00  0.73835240276E+03  0.73835240278E+03  0.50400001928E-02 0.  1.
        1   -1    0    0  501    0  0.00000000000E+00  0.00000000000E+00 -0.12023109445E+04  0.12023109445E+04  0.50400001928E-02 0. -1.
    10030    2    1    2    0    0  0.00000000000E+00  0.00000000000E+00 -0.46395854169E+03  0.19406633472E+04  0.18843876191E+04 0.  0.
        4    1    3    3  502    0 -0.56524350533E+03 -0.52703004669E+03  0.32306562769E+03  0.83763590129E+03  0.12699999809E+01 0.  1.
       -4    1    3    3    0  502  0.56524350533E+03  0.52703004669E+03 -0.78702416939E+03  0.11030274460E+04  0.12699999809E+01 0. -1.
</event>
<event>
 5   0  0.1324058E-04  0.1866806E+04  0.7818609E-02  0.8671558E-01
        1   -1    0    0  501    0  0.00000000000E+00  0.00000000000E+00  0.82010929984E+03  0.82010929986E+03  0.50400001928E-02 0.  1.
       -1   -1    0    0    0  501  0.00000000000E+00  0.00000000000E+00 -0.10623473791E+04  0.10623473791E+04  0.50400001928E-02 0. -1.
    10030    2    1    2    0    0  0.00000000000E+00  0.00000000000E+00 -0.24223807928E+03  0.18824566790E+04  0.18668057910E+04 0.  0.
        5    1    3    3  502    0 -0.64846472616E+03  0.62410966721E+03  0.12834030633E+03  0.90912743991E+03  0.46999998093E+01 0.  1.
       -5    1    3    3    0  502  0.64846472616E+03 -0.62410966721E+03 -0.37057838560E+03  0.97332923908E+03  0.46999998093E+01 0. -1.
</event>
<event>
 5   0  0.1277709E-04  0.1890392E+04  0.7818609E-02  0.8659654E-01
        1   -1    0    0  501    0  0.00000000000E+00  0.00000000000E+00  0.11528501857E+04  0.11528501857E+04  0.50400001928E-02 0. -1.
       -1   -1    0    0    0  501  0.00000000000E+00  0.00000000000E+00 -0.77494515375E+03  0.77494515377E+03  0.50400001928E-02 0.  1.
    10030    2    1    2    0    0  0.00000000000E+00  0.00000000000E+00  0.37790503197E+03  0.19277953395E+04  0.18903921968E+04 0.  0.
        4    1    3    3  502    0 -0.22432708644E+03 -0.66196498938E+03 -0.45993411573E+03  0.83669665506E+03  0.12699999809E+01 0.  1.
       -4    1    3    3    0  502  0.22432708644E+03  0.66196498938E+03  0.83783914770E+03  0.10910986844E+04  0.12699999809E+01 0. -1.
</event>
<event>
 5   0  0.2651828E-04  0.1912006E+04  0.7818609E-02  0.8648903E-01
        2   -1    0    0  501    0  0.00000000000E+00  0.00000000000E+00  0.88076732350E+03  0.88076732351E+03  0.25500000920E-02 0.  1.
       -2   -1    0    0    0  501  0.00000000000E+00  0.00000000000E+00 -0.10376648398E+04  0.10376648398E+04  0.25500000920E-02 0. -1.
    10030    2    1    2    0    0  0.00000000000E+00  0.00000000000E+00 -0.15689751633E+03  0.19184321633E+04  0.19120055269E+04 0.  0.
        3    1    3    3  502    0 -0.52653342383E+03 -0.38630782679E+03  0.62208858419E+03  0.90192316759E+03  0.10100000352E+00 0.  1.
       -3    1    3    3    0  502  0.52653342383E+03  0.38630782679E+03 -0.77898610052E+03  0.10165089958E+04  0.10100000352E+00 0. -1.
</event>
<event>
 5   0  0.1239615E-04  0.1887685E+04  0.7818609E-02  0.8661011E-01
        1   -1    0    0  501    0  0.00000000000E+00  0.00000000000E+00  0.30081490808E+04  0.30081490809E+04  0.50400001928E-02 0. -1.
       -1   -1    0    0    0  501  0.00000000000E+00  0.00000000000E+00 -0.29614173485E+03  0.29614173489E+03  0.50400001928E-02 0.  1.
    10030    2    1    2    0    0  0.00000000000E+00  0.00000000000E+00  0.27120073460E+04  0.33042908157E+04  0.18876848122E+04 0.  0.
        3    1    3    3  502    0  0.15488417017E+03 -0.38102848776E+03  0.28430246787E+04  0.28726226952E+04  0.10100000352E+00 0. -1.
       -3    1    3    3    0  502 -0.15488417017E+03  0.38102848776E+03 -0.13101733273E+03  0.43166812059E+03  0.10100000352E+00 0.  1.
</event>
<event>
 5   0  0.9266125E-05  0.1921065E+04  0.7818609E-02  0.8644441E-01
        4   -1    0    0  501    0  0.00000000000E+00  0.00000000000E+00  0.14735375496E+04  0.14735380968E+04  0.12699999809E+01 0. -1.
       -4   -1    0    0    0  501  0.00000000000E+00  0.00000000000E+00 -0.62612642223E+03  0.62612771022E+03  0.12699999809E+01 0.  1.
    10030    2    1    2    0    0  0.00000000000E+00  0.00000000000E+00  0.84741112733E+03  0.20996658071E+04  0.19210650386E+04 0.  0.
        4    1    3    3  502    0 -0.89630038550E+03 -0.10139167083E+03  0.62882431340E+02  0.90420709189E+03  0.12699999809E+01 0.  1.
       -4    1    3    3    0  502  0.89630038550E+03  0.10139167083E+03  0.78452869599E+03  0.11954587152E+04  0.12699999809E+01 0. -1.
</event>
<event>
 5   0  0.2651828E-04  0.1797890E+04  0.7818609E-02  0.8707423E-01
       -2   -1    0    0    0  501  0.00000000000E+00  0.00000000000E+00  0.12861529325E+04  0.12861529325E+04  0.25500000920E-02 0.  1.
        2   -1    0    0  501    0  0.00000000000E+00  0.00000000000E+00 -0.62830925214E+03  0.62830925214E+03  0.25500000920E-02 0. -1.
    10030    2    1    2    0    0  0.00000000000E+00  0.00000000000E+00  0.65784368032E+03  0.19144621846E+04  0.17978896375E+04 0.  0.
        3    1    3    3  502    0  0.25852740803E+03  0.69806039800E+03 -0.20771562459E+03  0.77283279619E+03  0.10100000352E+00 0. -1.
       -3    1    3    3    0  502 -0.25852740803E+03 -0.69806039800E+03  0.86555930491E+03  0.11416293884E+04  0.10100000352E+00 0.  1.
</event>
<event>
 5   0  0.1239615E-04  0.1878706E+04  0.7818609E-02  0.8665529E-01
        1   -1    0    0  501    0  0.00000000000E+00  0.00000000000E+00  0.16293348572E+04  0.16293348572E+04  0.50400001928E-02 0. -1.
       -1   -1    0    0    0  501  0.00000000000E+00  0.00000000000E+00 -0.54156101380E+03  0.54156101382E+03  0.50400001928E-02 0.  1.
    10030    2    1    2    0    0  0.00000000000E+00  0.00000000000E+00  0.10877738434E+04  0.21708958710E+04  0.18787061900E+04 0.  0.
        3    1    3    3  502    0 -0.22795616913E+03 -0.14579647695E+03  0.15833242163E+04  0.16062802407E+04  0.10100000352E+00 0. -1.
       -3    1    3    3    0  502  0.22795616913E+03  0.14579647695E+03 -0.49555037286E+03  0.56461563030E+03  0.10100000352E+00 0.  1.
</event>
<event>
 5   0  0.2562925E-04  0.1921875E+04  0.7818609E-02  0.8644044E-01
        2   -1    0    0  501    0  0.00000000000E+00  0.00000000000E+00  0.86026295035E+03  0.86026295035E+03  0.25500000920E-02 0. -1.
       -2   -1    0    0    0  501  0.00000000000E+00  0.00000000000E+00 -0.10733936953E+04  0.10733936953E+04  0.25500000920E-02 0.  1.
    10030    2    1    2    0    0  0.00000000000E+00  0.00000000000E+00 -0.21313074499E+03  0.19336566457E+04  0.19218749462E+04 0.  0.
        4    1    3    3  502    0 -0.76313568562E+03 -0.56835335382E+03 -0.24154293818E+03  0.98170576719E+03  0.12699999809E+01 0.  1.
       -4    1    3    3    0  502  0.76313568562E+03  0.56835335382E+03  0.28412193184E+02  0.95195087850E+03  0.12699999809E+01 0. -1.
</event>
<event>
 5   0  0.9266125E-05  0.1803056E+04  0.7818609E-02  0.8704676E-01
       -4   -1    0    0    0  501  0.00000000000E+00  0.00000000000E+00  0.12793207903E+04  0.12793214207E+04  0.12699999809E+01 0.  1.
        4   -1    0    0  501    0  0.00000000000E+00  0.00000000000E+00 -0.63529879576E+03  0.63530006516E+03  0.12699999809E+01 0. -1.
    10030    2    1    2    0    0  0.00000000000E+00  0.00000000000E+00  0.64402199457E+03  0.19146214859E+04  0.18030560459E+04 0.  0.
        3    1    3    3  502    0 -0.79306687046E+03 -0.28882049734E+03  0.65844371000E+03  0.10704767490E+04  0.10100000352E+00 0.  1.
       -3    1    3    3    0  502  0.79306687046E+03  0.28882049734E+03 -0.14421715438E+02  0.84414473687E+03  0.10100000352E+00 0. -1.
</event>
<event>
 5   0  0.1255141E-04  0.1712311E+04  0.7818609E-02  0.8754374E-01
        1   -1    0    0  501    0  0.00000000000E+00  0.00000000000E+00  0.22823926656E+04  0.22823926656E+04  0.50400001928E-02 0.  1.
       -1   -1    0    0    0  501  0.00000000000E+00  0.00000000000E+00 -0.32115514899E+03  0.32115514903E+03  0.50400001928E-02 0. -1.
    10030    2    1    2    0    0  0.00000000000E+00  0.00000000000E+00  0.19612375166E+04  0.26035478146E+04  0.17123109024E+04 0.  0.
        2    1    3    3  502    0  0.43578566799E+03 -0.39922053148E+03  0.19224820619E+04  0.20112740887E+04  0.25500000920E-02 0.  1.
       -2    1    3    3    0  502 -0.43578566799E+03  0.39922053148E+03  0.38755454631E+02  0.59227372595E+03  0.25500000920E-02 0. -1.
</event>
<event>
 5   0  0.1277709E-04  0.1886374E+04  0.7818609E-02  0.8661669E-01
       -1   -1    0    0    0  501  0.00000000000E+00  0.00000000000E+00  0.10617931907E+04  0.10617931907E+04  0.50400001928E-02 0.  1.
        1   -1    0    0  501    0  0.00000000000E+00  0.00000000000E+00 -0.83782953095E+03  0.83782953096E+03  0.50400001928E-02 0. -1.
    10030    2    1    2    0    0  0.00000000000E+00  0.00000000000E+00  0.22396365972E+03  0.18996227216E+04  0.18863739724E+04 0.  0.
        4    1    3    3  502    0  0.73976051785E+03 -0.23020105258E+03  0.65368360159E+03  0.10136774695E+04  0.12699999809E+01 0.  1.
       -4    1    3    3    0  502 -0.73976051785E+03  0.23020105258E+03 -0.42971994187E+03  0.88594525210E+03  0.12699999809E+01 0. -1.
</event>
<event>
 5   0  0.1239615E-04  0.1904115E+04  0.7818609E-02  0.8652811E-01
       -1   -1    0    0    0  501  0.00000000000E+00  0.00000000000E+00  0.56859006517E+03  0.56859006519E+03  0.50400001928E-02 0. -1.
        1   -1    0    0  501    0  0.00000000000E+00  0.00000000000E+00 -0.15941429921E+04  0.15941429922E+04  0.50400001928E-02 0.  1.
    10030    2    1    2    0    0  0.00000000000E+00  0.00000000000E+00 -0.10255529270E+04  0.21627330573E+04  0.19041154039E+04 0.  0.
        3    1    3    3  502    0  0.62402659354E+03 -0.64237283234E+03 -0.14584879736E+03  0.90737198935E+03  0.10100000352E+00 0. -1.
       -3    1    3    3    0  502 -0.62402659354E+03  0.64237283234E+03 -0.87970412962E+03  0.12553610680E+04  0.10100000352E+00 0.  1.
</event>
<event>
 5   0  0.1324058E-04  0.2039605E+04  0.7818609E-02  0.8588325E-01
       -1   -1    0    0    0  501  0.00000000000E+00  0.00000000000E+00  0.60303104832E+03  0.60303104834E+03  0.50400001928E-02 0. -1.
        1   -1    0    0  501    0  0.00000000000E+00  0.00000000000E+00 -0.17246162669E+04  0.17246162669E+04  0.50400001928E-02 0.  1.
    10030    2    1    2    0    0  0.00000000000E+00  0.00000000000E+00 -0.11215852186E+04  0.23276473152E+04  0.20396050161E+04 0.  0.
        5    1    3    3  502    0  0.24526726381E+03  0.60593357979E+03 -0.14540613169E+04  0.15942483926E+04  0.46999998093E+01 0.  1.
       -5    1    3    3    0  502 -0.24526726381E+03 -0.60593357979E+03  0.33247609835E+03  0.73339892268E+03  0.46999998093E+01 0. -1.
</event>
<event>
 5   0  0.2651828E-04  0.1888283E+04  0.7818609E-02  0.8660711E-01
       -2   -1    0    0    0  501  0.00000000000E+00  0.00000000000E+00  0.92799026675E+03  0.92799026675E+03  0.25500000920E-02 0. -1.
        2   -1    0    0  501    0  0.00000000000E+00  0.00000000000E+00 -0.96057335482E+03  0.96057335482E+03  0.25500000920E-02 0.  1.
    10030    2    1    2    0    0  0.00000000000E+00  0.00000000000E+00 -0.32583088071E+02  0.18885636216E+04  0.18882825252E+04 0.  0.
        3    1    3    3  502    0  0.53745754608E+03 -0.63036139047E+03  0.43675118164E+03  0.93646553663E+03  0.10100000352E+00 0. -1.
       -3    1    3    3    0  502 -0.53745754608E+03  0.63036139047E+03 -0.46933426971E+03  0.95209808495E+03  0.10100000352E+00 0.  1.
</event>
<event>
 5   0  0.1317527E-04  0.1940158E+04  0.7818609E-02  0.8635121E-01
       -1   -1    0    0    0  501  0.00000000000E+00  0.00000000000E+00  0.72974496670E+03  0.72974496671E+03  0.50400001928E-02 0. -1.
        1   -1    0    0  501    0  0.00000000000E+00  0.00000000000E+00 -0.12895651735E+04  0.12895651735E+04  0.50400001928E-02 0.  1.
    10030    2    1    2    0    0  0.00000000000E+00  0.00000000000E+00 -0.55982020679E+03  0.20193101402E+04  0.19401584416E+04 0.  0.
        1    1    3    3  502    0 -0.20200610160E+03  0.91143502286E+03 -0.54604727430E+01  0.93356846710E+03  0.50400001928E-02 0. -1.
       -1    1    3    3    0  502  0.20200610160E+03 -0.91143502286E+03 -0.55435973405E+03  0.10857416731E+04  0.50400001928E-02 0.  1.
</event>
<event>
 5   0  0.2595012E-04  0.1912605E+04  0.7818609E-02  0.8648608E-01
        2   -1    0    0  501    0  0.00000000000E+00  0.00000000000E+00  0.50918546589E+03  0.50918546589E+03  0.25500000920E-02 0.  1.
       -2   -1    0    0    0  501  0.00000000000E+00  0.00000000000E+00 -0.17960336587E+04  0.17960336587E+04  0.25500000920E-02 0. -1.
    10030    2    1    2    0    0  0.00000000000E+00  0.00000000000E+00 -0.12868481929E+04  0.23052191246E+04  0.19126047530E+04 0.  0.
        1    1    3    3  502    0 -0.24142834070E+03 -0.66961927619E+03 -0.14131393459E+04  0.15822896162E+04  0.50400001928E-02 0. -1.
       -1    1    3    3    0  502  0.24142834070E+03  0.66961927619E+03  0.12629115304E+03  0.72292950839E+03  0.50400001928E-02 0.  1.
</event>
<event>
 5   0  0.1239615E-04  0.1899257E+04  0.7818609E-02  0.8655226E-01
        1   -1    0    0  501    0  0.00000000000E+00  0.00000000000E+00  0.18582322717E+04  0.18582322717E+04  0.50400001928E-02 0.  1.
       -1   -1    0    0    0  501  0.00000000000E+00  0.00000000000E+00 -0.48529686686E+03  0.48529686688E+03  0.50400001928E-02 0. -1.
    10030    2    1    2    0    0  0.00000000000E+00  0.00000000000E+00  0.13729354048E+04  0.23435291386E+04  0.18992570120E+04 0.  0.
        3    1    3    3  502    0 -0.16765858901E+03  0.35580461328E+03 -0.38006085618E+03  0.54694843440E+03  0.10100000352E+00 0. -1.
       -3    1    3    3    0  502  0.16765858901E+03 -0.35580461328E+03  0.17529962610E+04  0.17965807042E+04  0.10100000352E+00 0.  1.
</event>
<event>
 5   0  0.1255141E-04  0.1908587E+04  0.7818609E-02  0.8650594E-01
       -1   -1    0    0    0  501  0.00000000000E+00  0.00000000000E+00  0.61769120853E+03  0.61769120855E+03  0.50400001928E-02 0.  1.
        1   -1    0    0  501    0  0.00000000000E+00  0.00000000000E+00 -0.14743222186E+04  0.14743222186E+04  0.50400001928E-02 0. -1.
    10030    2    1    2    0    0  0.00000000000E+00  0.00000000000E+00 -0.85663101005E+03  0.20920134271E+04  0.19085867787E+04 0.  0.
        2    1    3    3  502    0  0.75162983595E+03 -0.40617661383E+03  0.37689448872E+02  0.85518848594E+03  0.25500000920E-02 0.  1.
       -2    1    3    3    0  502 -0.75162983595E+03  0.40617661383E+03 -0.89432045893E+03  0.12368249412E+04  0.25500000920E-02 0. -1.
</event>
<event>
 5   0  0.1324058E-04  0.1898890E+04  0.7818609E-02  0.8655409E-01
        1   -1    0    0  501    0  0.00000000000E+00  0.00000000000E+00  0.15336198917E+04  0.15336198917E+04  0.50400001928E-02 0. -1.
       -1   -1    0    0    0  501  0.00000000000E+00  0.00000000000E+00 -0.58778952361E+03  0.58778952363E+03  0.50400001928E-02 0.  1.
    10030    2    1    2    0    0  0.00000000000E+00  0.00000000000E+00  0.94583036812E+03  0.21214094154E+04  0.18988898921E+04 0.  0.
        5    1    3    3  502    0 -0.33344300009E+03  0.54132607351E+03  0.12606728813E+04  0.14119264697E+04  0.46999998093E+01 0. -1.
       -5    1    3    3    0  502  0.33344300009E+03 -0.54132607351E+03 -0.31484251314E+03  0.70948294571E+03  0.46999998093E+01 0.  1.
</event>
<event>
 5   0  0.2541124E-04  0.1896529E+04  0.7818609E-02  0.8656586E-01
        2   -1    0    0  501    0  0.00000000000E+00  0.00000000000E+00  0.10744497738E+04  0.10744497738E+04  0.25500000920E-02 0. -1.
       -2   -1    0    0    0  501  0.00000000000E+00  0.00000000000E+00 -0.83689846553E+03  0.83689846553E+03  0.25500000920E-02 0.  1.
    10030    2    1    2    0    0  0.00000000000E+00  0.00000000000E+00  0.23755130830E+03  0.19113482394E+04  0.18965287944E+04 0.  0.
        5    1    3    3  502    0  0.18759422339E+02  0.91409930173E+03  0.37224403206E+03  0.98717635645E+03  0.46999998093E+01 0. -1.
       -5    1    3    3    0  502 -0.18759422339E+02 -0.91409930173E+03 -0.13469272375E+03  0.92417188292E+03  0.46999998093E+01 0.  1.
</event>
<event>
 5   0  0.2541124E-04  0.1747773E+04  0.7818609E-02  0.8734577E-01
        2   -1    0    0  501    0  0.00000000000E+00  0.00000000000E+00  0.12914508669E+04  0.12914508669E+04  0.25500000920E-02 0.  1.
       -2   -1    0    0    0  501  0.00000000000E+00  0.00000000000E+00 -0.59133319995E+03  0.59133319995E+03  0.25500000920E-02 0. -1.
    10030    2    1    2    0    0  0.00000000000E+00  0.00000000000E+00  0.70011766699E+03  0.18827840669E+04  0.17477731818E+04 0.  0.
        5    1    3    3  502    0  0.86989387134E+03  0.46941029703E+02  0.27591731875E+03  0.91382233746E+03  0.46999998093E+01 0.  1.
       -5    1    3    3    0  502 -0.86989387134E+03 -0.46941029703E+02  0.42420034824E+03  0.96896172943E+03  0.46999998093E+01 0. -1.
</event>
<event>
 5   0  0.2541124E-04  0.1876862E+04  0.7818609E-02  0.8666460E-01
        2   -1    0    0  501    0  0.00000000000E+00  0.00000000000E+00  0.24901761574E+04  0.24901761574E+04  0.25500000920E-02 0. -1.
       -2   -1    0    0    0  501  0.00000000000E+00  0.00000000000E+00 -0.35365096385E+03  0.35365096386E+03  0.25500000920E-02 0.  1.
    10030    2    1    2    0    0  0.00000000000E+00  0.00000000000E+00  0.21365251936E+04  0.28438271213E+04  0.18768624864E+04 0.  0.
        5    1    3    3  502    0 -0.79073152861E+03 -0.17815594983E+02  0.30303668075E+03  0.84701066442E+03  0.46999998093E+01 0.  1.
       -5    1    3    3    0  502  0.79073152861E+03  0.17815594983E+02  0.18334885128E+04  0.19968164569E+04  0.46999998093E+01 0. -1.
</event>
<event>
 5   0  0.1277709E-04  0.1894052E+04  0.7818609E-02  0.8657823E-01
        1   -1    0    0  501    0  0.00000000000E+00  0.00000000000E+00  0.77598594351E+03  0.77598594353E+03  0.50400001928E-02 0. -1.
       -1   -1    0    0    0  501  0.00000000000E+00  0.00000000000E+00 -0.11557655175E+04  0.11557655175E+04  0.50400001928E-02 0.  1.
    10030    2    1    2    0    0  0.00000000000E+00  0.00000000000E+00 -0.37977957395E+03  0.19317514610E+04  0.18940515258E+04 0.  0.
        4    1    3    3  502    0 -0.60658219558E+03 -0.21426954178E+03 -0.89870703671E+03  0.11052281879E+04  0.12699999809E+01 0.  1.
       -4    1    3    3    0  502  0.60658219558E+03  0.21426954178E+03  0.51892746276E+03  0.82652327313E+03  0.12699999809E+01 0. -1.
</event>
<event>
 5   0  0.2608744E-04  0.1825834E+04  0.7818609E-02  0.8692681E-01
       -2   -1    0    0    0  501  0.00000000000E+00  0.00000000000E+00  0.86374715278E+03  0.86374715278E+03  0.25500000920E-02 0.  1.
        2   -1    0    0  501    0  0.00000000000E+00  0.00000000000E+00 -0.96488581251E+03  0.96488581252E+03  0.25500000920E-02 0. -1.
    10030    2    1    2    0    0  0.00000000000E+00  0.00000000000E+00 -0.10113865973E+03  0.18286329653E+04  0.18258339172E+04 0.  0.
        2    1    3    3  502    0 -0.14587928633E+03 -0.85714313995E+03 -0.32928041414E+03  0.92973153097E+03  0.25500000920E-02 0. -1.
       -2    1    3    3    0  502  0.14587928633E+03  0.85714313995E+03  0.22814175440E+03  0.89890143433E+03  0.25500000920E-02 0.  1.
</event>
<event>
 5   0  0.2651828E-04  0.1908473E+04  0.7818609E-02  0.8650650E-01
       -2   -1    0    0    0  501  0.00000000000E+00  0.00000000000E+00  0.55385284297E+03  0.55385284298E+03  0.25500000920E-02 0. -1.
        2   -1    0    0  501    0  0.00000000000E+00  0.00000000000E+00 -0.16440595205E+04  0.16440595205E+04  0.25500000920E-02 0.  1.
    10030    2    1    2    0    0  0.00000000000E+00  0.00000000000E+00 -0.10902066775E+04  0.21979123635E+04  0.19084727291E+04 0.  0.
        3    1    3    3  502    0  0.22244718413E+03  0.40683479675E+03 -0.15055975454E+04  0.15753797259E+04  0.10100000352E+00 0.  1.
       -3    1    3    3    0  502 -0.22244718413E+03 -0.40683479675E+03  0.41539086792E+03  0.62253263763E+03  0.10100000352E+00 0. -1.
</event>
<event>
 5   0  0.1239615E-04  0.1846511E+04  0.7818609E-02  0.8681949E-01
       -1   -1    0    0    0  501  0.00000000000E+00  0.00000000000E+00  0.61018612801E+03  0.61018612803E+03  0.50400001928E-02 0.  1.
        1   -1    0    0  501    0  0.00000000000E+00  0.00000000000E+00 -0.13969526114E+04  0.13969526114E+04  0.50400001928E-02 0. -1.
    10030    2    1    2    0    0  0.00000000000E+00  0.00000000000E+00 -0.78676648340E+03  0.20071387394E+04  0.18465114189E+04 0.  0.
        3    1    3    3  502    0  0.68438412202E+03 -0.58098077535E+03 -0.62773176725E+03  0.10954302669E+04  0.10100000352E+00 0. -1.
       -3    1    3    3    0  502 -0.68438412202E+03  0.58098077535E+03 -0.15903471616E+03  0.91170847256E+03  0.10100000352E+00 0.  1.
</event>
<event>
 5   0  0.2651828E-04  0.1912634E+04  0.7818609E-02  0.8648593E-01
        2   -1    0    0  501    0  0.00000000000E+00  0.00000000000E+00  0.15248364621E+04  0.15248364621E+04  0.25500000920E-02 0.  1.
       -2   -1    0    0    0  501  0.00000000000E+00  0.00000000000E+00 -0.59976401799E+03  0.59976401800E+03  0.25500000920E-02 0. -1.
    10030    2    1    2    0    0  0.00000000000E+00  0.00000000000E+00  0.92507244410E+03  0.21246004801E+04  0.19126338314E+04 0.  0.
        3    1    3    3  502    0  0.50761498385E+03  0.70326492963E+02  0.13594355018E+04  0.14528192184E+04  0.10100000352E+00 0.  1.
       -3    1    3    3    0  502 -0.50761498385E+03 -0.70326492963E+02 -0.43436305774E+03  0.67178126170E+03  0.10100000352E+00 0. -1.
</event>
<event>
 5   0  0.1277709E-04  0.1911634E+04  0.7818609E-02  0.8649087E-01
        1   -1    0    0  501    0  0.00000000000E+00  0.00000000000E+00  0.14677442724E+04  0.14677442724E+04  0.50400001928E-02 0. -1.
       -1   -1    0    0    0  501  0.00000000000E+00  0.00000000000E+00 -0.62244254492E+03  0.62244254494E+03  0.50400001928E-02 0.  1.
    10030    2    1    2    0    0  0.00000000000E+00  0.00000000000E+00  0.84530172749E+03  0.20901868174E+04  0.19116343586E+04 0.  0.
        4    1    3    3  502    0 -0.31445498992E+03 -0.18197874068E+02  0.14093656365E+04  0.14441351092E+04  0.12699999809E+01 0. -1.
       -4    1    3    3    0  502  0.31445498992E+03  0.18197874068E+02 -0.56406390901E+03  0.64605170818E+03  0.12699999809E+01 0.  1.
</event>
<event>
 5   0  0.2541124E-04  0.1903047E+04  0.7818609E-02  0.8653341E-01
        2   -1    0    0  501    0  0.00000000000E+00  0.00000000000E+00  0.85913747790E+03  0.85913747790E+03  0.25500000920E-02 0. -1.
       -2   -1    0    0    0  501  0.00000000000E+00  0.00000000000E+00 -0.10538441097E+04  0.10538441097E+04  0.25500000920E-02 0.  1.
    10030    2    1    2    0    0  0.00000000000E+00  0.00000000000E+00 -0.19470663184E+03  0.19129815876E+04  0.19030469995E+04 0.  0.
        5    1    3    3  502    0 -0.29645767379E+03  0.87688324525E+03 -0.31887501615E+03  0.97903766223E+03  0.46999998093E+01 0.  1.
       -5    1    3    3    0  502  0.29645767379E+03 -0.87688324525E+03  0.12416838431E+03  0.93394392541E+03  0.46999998093E+01 0. -1.
</event>
<event>
 5   0  0.1239615E-04  0.1865549E+04  0.7818609E-02  0.8672197E-01
       -1   -1    0    0    0  501  0.00000000000E+00  0.00000000000E+00  0.70429984730E+03  0.70429984732E+03  0.50400001928E-02 0. -1.
        1   -1    0    0  501    0  0.00000000000E+00  0.00000000000E+00 -0.12353664076E+04  0.12353664076E+04  0.50400001928E-02 0.  1.
    10030    2    1    2    0    0  0.00000000000E+00  0.00000000000E+00 -0.53106656025E+03  0.19396662549E+04  0.18655491119E+04 0.  0.
        3    1    3    3  502    0 -0.62449611193E+03 -0.29987360510E+03  0.38390136846E+03  0.79202262831E+03  0.10100000352E+00 0. -1.
       -3    1    3    3    0  502  0.62449611193E+03  0.29987360510E+03 -0.91496792871E+03  0.11476436266E+04  0.10100000352E+00 0.  1.
</event>
<event>
 5   0  0.2608744E-04  0.1881626E+04  0.7818609E-02  0.8664057E-01
       -2   -1    0    0    0  501  0.00000000000E+00  0.00000000000E+00  0.67105987256E+03  0.67105987257E+03  0.25500000920E-02 0.  1.
        2   -1    0    0  501    0  0.00000000000E+00  0.00000000000E+00 -0.13190012966E+04  0.13190012966E+04  0.25500000920E-02 0. -1.
    10030    2    1    2    0    0  0.00000000000E+00  0.00000000000E+00 -0.64794142403E+03  0.19900611692E+04  0.18816257247E+04 0.  0.
        2    1    3    3  502    0  0.65674633674E+03  0.93198077078E+02  0.38165639326E+03  0.76528637445E+03  0.25500000920E-02 0.  1.
       -2    1    3    3    0  502 -0.65674633674E+03 -0.93198077078E+02 -0.10295978173E+04  0.12247747947E+04  0.25500000920E-02 0. -1.
</event>
<event>
 5   0  0.1324058E-04  0.1884695E+04  0.7818609E-02  0.8662512E-01
        1   -1    0    0  501    0  0.00000000000E+00  0.00000000000E+00  0.14340014006E+04  0.14340014006E+04  0.50400001928E-02 0. -1.
       -1   -1    0    0    0  501  0.00000000000E+00  0.00000000000E+00 -0.61925929723E+03  0.61925929725E+03  0.50400001928E-02 0.  1.
    10030    2    1    2    0    0  0.00000000000E+00  0.00000000000E+00  0.81474210335E+03  0.20532606978E+04  0.18846948820E+04 0.  0.
        5    1    3    3  502    0  0.35138748262E+03 -0.62256560560E+03  0.10762331262E+04  0.12920375103E+04  0.46999998093E+01 0. -1.
       -5    1    3    3    0  502 -0.35138748262E+03  0.62256560560E+03 -0.26149102281E+03  0.76122318753E+03  0.46999998093E+01 0.  1.
</event>
<event>
 5   0  0.1255141E-04  0.1913611E+04  0.7818609E-02  0.8648111E-01
       -1   -1    0    0    0  501  0.00000000000E+00  0.00000000000E+00  0.14208766558E+04  0.14208766558E+04  0.50400001928E-02 0.  1.
        1   -1    0    0  501    0  0.00000000000E+00  0.00000000000E+00 -0.64430416059E+03  0.64430416061E+03  0.50400001928E-02 0. -1.
    10030    2    1    2    0    0  0.00000000000E+00  0.00000000000E+00  0.77657249524E+03  0.20651808165E+04  0.19136109752E+04 0.  0.
        2    1    3    3  502    0 -0.86700588643E+03 -0.31664077602E+03  0.11630026525E+03  0.93031518307E+03  0.25500000920E-02 0. -1.
       -2    1    3    3    0  502  0.86700588643E+03  0.31664077602E+03  0.66027222999E+03  0.11348656334E+04  0.25500000920E-02 0.  1.
</event>
<event>
 5   0  0.1324058E-04  0.1898862E+04  0.7818609E-02  0.8655423E-01
        1   -1    0    0  501    0  0.00000000000E+00  0.00000000000E+00  0.11462781284E+04  0.11462781284E+04  0.50400001928E-02 0.  1.
       -1   -1    0    0    0  501  0.00000000000E+00  0.00000000000E+00 -0.78638773031E+03  0.78638773033E+03  0.50400001928E-02 0. -1.
    10030    2    1    2    0    0  0.00000000000E+00  0.00000000000E+00  0.35989039806E+03  0.19326658587E+04  0.18988618230E+04 0.  0.
        5    1    3    3  502    0  0.20891835132E+03  0.92518921946E+03  0.13706447136E+03  0.95834791628E+03  0.46999998093E+01 0.  1.
       -5    1    3    3    0  502 -0.20891835132E+03 -0.92518921946E+03  0.22282592670E+03  0.97431794243E+03  0.46999998093E+01 0. -1.
</event>
<event>
 5   0  0.2541124E-04  0.1866161E+04  0.7818609E-02  0.8671886E-01
       -2   -1    0    0    0  501  0.00000000000E+00  0.00000000000E+00  0.49078632253E+03  0.49078632253E+03  0.25500000920E-02 0. -1.
        2   -1    0    0  501    0  0.00000000000E+00  0.00000000000E+00 -0.17739674383E+04  0.17739674383E+04  0.25500000920E-02 0.  1.
    10030    2    1    2    0    0  0.00000000000E+00  0.00000000000E+00 -0.12831811157E+04  0.22647537608E+04  0.18661607169E+04 0.  0.
        5    1    3    3  502    0 -0.53773938873E+03  0.74395198578E+03 -0.43855926325E+03  0.10173418918E+04  0.46999998093E+01 0.  1.
       -5    1    3    3    0  502  0.53773938873E+03 -0.74395198578E+03 -0.84462185248E+03  0.12474118690E+04  0.46999998093E+01 0. -1.
</event>
<event>
 5   0  0.1324058E-04  0.1800370E+04  0.7818609E-02  0.8706103E-01
       -1   -1    0    0    0  501  0.00000000000E+00  0.00000000000E+00  0.94446732360E+03  0.94446732361E+03  0.50400001928E-02 0.  1.
        1   -1    0    0  501    0  0.00000000000E+00  0.00000000000E+00 -0.85797923647E+03  0.85797923648E+03  0.50400001928E-02 0. -1.
    10030    2    1    2    0    0  0.00000000000E+00  0.00000000000E+00  0.86488087133E+02  0.18024465601E+04  0.18003703543E+04 0.  0.
        5    1    3    3  502    0 -0.61058615461E+03 -0.60135737583E+03 -0.23250982369E+03  0.88799158429E+03  0.46999998093E+01 0. -1.
       -5    1    3    3    0  502  0.61058615461E+03  0.60135737583E+03  0.31899791082E+03  0.91445497580E+03  0.46999998093E+01 0.  1.
</event>
<event>
 5   0  0.2595012E-04  0.1892397E+04  0.7818609E-02  0.8658650E-01
       -2   -1    0    0    0  501  0.00000000000E+00  0.00000000000E+00  0.10603581040E+04  0.10603581040E+04  0.25500000920E-02 0. -1.
        2   -1    0    0  501    0  0.00000000000E+00  0.00000000000E+00 -0.84432970089E+03  0.84432970090E+03  0.25500000920E-02 0.  1.
    10030    2    1    2    0    0  0.00000000000E+00  0.00000000000E+00  0.21602840313E+03  0.19046878049E+04  0.18923972530E+04 0.  0.
        1    1    3    3  502    0 -0.31454553661E+03 -0.64720751288E+03  0.72639473352E+03  0.10224802043E+04  0.50400001928E-02 0. -1.
       -1    1    3    3    0  502  0.31454553661E+03  0.64720751288E+03 -0.51036633039E+03  0.88220760060E+03  0.50400001928E-02 0.  1.
</event>
<event>
 5   0  0.2541124E-04  0.1760696E+04  0.7818609E-02  0.8727485E-01
        2   -1    0    0  501    0  0.00000000000E+00  0.00000000000E+00  0.80303899872E+03  0.80303899873E+03  0.25500000920E-02 0. -1.
       -2   -1    0    0    0  501  0.00000000000E+00  0.00000000000E+00 -0.96509909995E+03  0.96509909995E+03  0.25500000920E-02 0.  1.
    10030    2    1    2    0    0  0.00000000000E+00  0.00000000000E+00 -0.16206010122E+03  0.17681380987E+04  0.17606955613E+04 0.  0.
        5    1    3    3  502    0 -0.71147743815E+03 -0.50852174060E+03 -0.18243022851E+03  0.89336296315E+03  0.46999998093E+01 0. -1.
       -5    1    3    3    0  502  0.71147743815E+03  0.50852174060E+03  0.20370127282E+02  0.87477513553E+03  0.46999998093E+01 0.  1.
</event>
<event>
 5   0  0.2541124E-04  0.1930690E+04  0.7818609E-02  0.8639729E-01
        2   -1    0    0  501    0  0.00000000000E+00  0.00000000000E+00  0.86259149887E+03  0.86259149887E+03  0.25500000920E-02 0. -1.
       -2   -1    0    0    0  501  0.00000000000E+00  0.00000000000E+00 -0.10803390049E+04  0.10803390049E+04  0.25500000920E-02 0.  1.
    10030    2    1    2    0    0  0.00000000000E+00  0.00000000000E+00 -0.21774750602E+03  0.19429305038E+04  0.19306902823E+04 0.  0.
        5    1    3    3  502    0  0.33195597586E+03  0.65563523071E+03 -0.73879491281E+03  0.10420615811E+04  0.46999998093E+01 0.  1.
       -5    1    3    3    0  502 -0.33195597586E+03 -0.65563523071E+03  0.52104740678E+03  0.90086892264E+03  0.46999998093E+01 0. -1.
</event>
<event>
 5   0  0.1324058E-04  0.1919769E+04  0.7818609E-02  0.8645078E-01
        1   -1    0    0  501    0  0.00000000000E+00  0.00000000000E+00  0.49581231718E+03  0.49581231720E+03  0.50400001928E-02 0. -1.
       -1   -1    0    0    0  501  0.00000000000E+00  0.00000000000E+00 -0.18583213670E+04  0.18583213670E+04  0.50400001928E-02 0.  1.
    10030    2    1    2    0    0  0.00000000000E+00  0.00000000000E+00 -0.13625090498E+04  0.23541336842E+04  0.19197693852E+04 0.  0.
        5    1    3    3  502    0  0.39296849090E+03 -0.36156914821E+03  0.29683567859E+03  0.61097462620E+03  0.46999998093E+01 0. -1.
       -5    1    3    3    0  502 -0.39296849090E+03  0.36156914821E+03 -0.16593447284E+04  0.17431590580E+04  0.46999998093E+01 0.  1.
</event>
<event>
 5   0  0.1324058E-04  0.1888058E+04  0.7818609E-02  0.8660823E-01
       -1   -1    0    0    0  501  0.00000000000E+00  0.00000000000E+00  0.68581627849E+03  0.68581627851E+03  0.50400001928E-02 0.  1.
        1   -1    0    0  501    0  0.00000000000E+00  0.00000000000E+00 -0.12994604519E+04  0.12994604519E+04  0.50400001928E-02 0. -1.
    10030    2    1    2    0    0  0.00000000000E+00  0.00000000000E+00 -0.61364417343E+03  0.19852767304E+04  0.18880584008E+04 0.  0.
        5    1    3    3  502    0 -0.27046825466E+03 -0.56102191554E+03 -0.10527662355E+04  0.12232078740E+04  0.46999998093E+01 0. -1.
       -5    1    3    3    0  502  0.27046825466E+03  0.56102191554E+03  0.43912206208E+03  0.76206885640E+03  0.46999998093E+01 0.  1.
</event>
<event>
 5   0  0.2541124E-04  0.1888962E+04  0.7818609E-02  0.8660370E-01
        2   -1    0    0  501    0  0.00000000000E+00  0.00000000000E+00  0.14366704343E+04  0.14366704343E+04  0.25500000920E-02 0.  1.
       -2   -1    0    0    0  501  0.00000000000E+00  0.00000000000E+00 -0.62091121485E+03  0.62091121486E+03  0.25500000920E-02 0. -1.
    10030    2    1    2    0    0  0.00000000000E+00  0.00000000000E+00  0.81575921940E+03  0.20575816491E+04  0.18889624503E+04 0.  0.
        5    1    3    3  502    0  0.37071890602E+03  0.63650532050E+03  0.10517923218E+04  0.12840797126E+04  0.46999998093E+01 0.  1.
       -5    1    3    3    0  502 -0.37071890602E+03 -0.63650532050E+03 -0.23603310237E+03  0.77350193647E+03  0.46999998093E+01 0. -1.
</event>
<event>
 5   0  0.1277709E-04  0.1894132E+04  0.7818609E-02  0.8657783E-01
       -1   -1    0    0    0  501  0.00000000000E+00  0.00000000000E+00  0.51540075971E+03  0.51540075974E+03  0.50400001928E-02 0. -1.
        1   -1    0    0  501    0  0.00000000000E+00  0.00000000000E+00 -0.17402655373E+04  0.17402655373E+04  0.50400001928E-02 0.  1.
    10030    2    1    2    0    0  0.00000000000E+00  0.00000000000E+00 -0.12248647776E+04  0.22556662971E+04  0.18941321813E+04 0.  0.
        4    1    3    3  502    0  0.10000952238E+02  0.10509748576E+03 -0.17332352610E+04  0.17364479789E+04  0.12699999809E+01 0.  1.
       -4    1    3    3    0  502 -0.10000952238E+02 -0.10509748576E+03  0.50837048343E+03  0.51921831813E+03  0.12699999809E+01 0. -1.
</event>
<event>
 5   0  0.2595012E-04  0.1879981E+04  0.7818609E-02  0.8664886E-01
       -2   -1    0    0    0  501  0.00000000000E+00  0.00000000000E+00  0.10416336950E+04  0.10416336950E+04  0.25500000920E-02 0.  1.
        2   -1    0    0  501    0  0.00000000000E+00  0.00000000000E+00 -0.84826577255E+03  0.84826577255E+03  0.25500000920E-02 0. -1.
    10030    2    1    2    0    0  0.00000000000E+00  0.00000000000E+00  0.19336792248E+03  0.18898994676E+04  0.18799810755E+04 0.  0.
        1    1    3    3  502    0  0.34571443037E+03 -0.75897438835E+03  0.53258622254E+03  0.98954973296E+03  0.50400001928E-02 0.  1.
       -1    1    3    3    0  502 -0.34571443037E+03  0.75897438835E+03 -0.33921830006E+03  0.90034973463E+03  0.50400001928E-02 0. -1.
</event>
<event>
 5   0  0.1324058E-04  0.1433791E+04  0.7818609E-02  0.8929716E-01
        1   -1    0    0  501    0  0.00000000000E+00  0.00000000000E+00  0.62186431186E+03  0.62186431188E+03  0.50400001928E-02 0. -1.
       -1   -1    0    0    0  501  0.00000000000E+00  0.00000000000E+00 -0.82644860328E+03  0.82644860329E+03  0.50400001928E-02 0.  1.
    10030    2    1    2    0    0  0.00000000000E+00  0.00000000000E+00 -0.20458429141E+03  0.14483129152E+04  0.14337906291E+04 0.  0.
        5    1    3    3  502    0  0.74646394856E+02  0.63372454527E+03  0.22772464031E+03  0.67753928694E+03  0.46999998093E+01 0. -1.
       -5    1    3    3    0  502 -0.74646394856E+02 -0.63372454527E+03 -0.43230893173E+03  0.77077362824E+03  0.46999998093E+01 0.  1.
</event>
<event>
 5   0  0.1317527E-04  0.1868267E+04  0.7818609E-02  0.8670815E-01
       -1   -1    0    0    0  501  0.00000000000E+00  0.00000000000E+00  0.80248729574E+03  0.80248729576E+03  0.50400001928E-02 0.  1.
        1   -1    0    0  501    0  0.00000000000E+00  0.00000000000E+00 -0.10873765302E+04  0.10873765302E+04  0.50400001928E-02 0. -1.
    10030    2    1    2    0    0  0.00000000000E+00  0.00000000000E+00 -0.28488923444E+03  0.18898638260E+04  0.18682674875E+04 0.  0.
        1    1    3    3  502    0 -0.10052450625E+03 -0.55784672893E+03 -0.89352857486E+03  0.10581547446E+04  0.50400001928E-02 0. -1.
       -1    1    3    3    0  502  0.10052450625E+03  0.55784672893E+03  0.60863934041E+03  0.83170908139E+03  0.50400001928E-02 0.  1.
</event>
<event>
 5   0  0.1317527E-04  0.1886458E+04  0.7818609E-02  0.8661627E-01
       -1   -1    0    0    0  501  0.00000000000E+00  0.00000000000E+00  0.73088584849E+03  0.73088584850E+03  0.50400001928E-02 0. -1.
        1   -1    0    0  501    0  0.00000000000E+00  0.00000000000E+00 -0.12172635933E+04  0.12172635933E+04  0.50400001928E-02 0.  1.
    10030    2    1    2    0    0  0.00000000000E+00  0.00000000000E+00 -0.48637774479E+03  0.19481494418E+04  0.18864577750E+04 0.  0.
        1    1    3    3  502    0 -0.45572452339E+03 -0.15039944649E+03  0.59538574816E+03  0.76471499518E+03  0.50400001928E-02 0. -1.
       -1    1    3    3    0  502  0.45572452339E+03  0.15039944649E+03 -0.10817634929E+04  0.11834344466E+04  0.50400001928E-02 0.  1.
</event>
<event>
 5   0  0.1277709E-04  0.1910588E+04  0.7818609E-02  0.8649604E-01
       -1   -1    0    0    0  501  0.00000000000E+00  0.00000000000E+00  0.12002111034E+04  0.12002111034E+04  0.50400001928E-02 0. -1.
        1   -1    0    0  501    0  0.00000000000E+00  0.00000000000E+00 -0.76035544418E+03  0.76035544420E+03  0.50400001928E-02 0.  1.
    10030    2    1    2    0    0  0.00000000000E+00  0.00000000000E+00  0.43985565925E+03  0.19605665476E+04  0.19105884399E+04 0.  0.
        4    1    3    3  502    0 -0.77490258044E+03  0.55864608670E+03  0.21469800074E+03  0.97910995490E+03  0.12699999809E+01 0.  1.
       -4    1    3    3    0  502  0.77490258044E+03 -0.55864608670E+03  0.22515765850E+03  0.98145659274E+03  0.12699999809E+01 0. -1.
</event>
<event>
 5   0  0.2562925E-04  0.1674327E+04  0.7818609E-02  0.8776144E-01
        2   -1    0    0  501    0  0.00000000000E+00  0.00000000000E+00  0.94431661920E+03  0.94431661920E+03  0.25500000920E-02 0. -1.
       -2   -1    0    0    0  501  0.00000000000E+00  0.00000000000E+00 -0.74216932029E+03  0.74216932029E+03  0.25500000920E-02 0.  1.
    10030    2    1    2    0    0  0.00000000000E+00  0.00000000000E+00  0.20214729891E+03  0.16864859395E+04  0.16743271167E+04 0.  0.
        4    1    3    3  502    0 -0.49798363814E+03  0.46933739303E+03 -0.38468974634E+03  0.78501790183E+03  0.12699999809E+01 0.  1.
       -4    1    3    3    0  502  0.49798363814E+03 -0.46933739303E+03  0.58683704525E+03  0.90146803767E+03  0.12699999809E+01 0. -1.
</event>
<event>
 5   0  0.2651828E-04  0.1847110E+04  0.7818609E-02  0.8681641E-01
        2   -1    0    0  501    0  0.00000000000E+00  0.00000000000E+00  0.14901106982E+04  0.14901106982E+04  0.25500000920E-02 0. -1.
       -2   -1    0    0    0  501  0.00000000000E+00  0.00000000000E+00 -0.57240944351E+03  0.57240944351E+03  0.25500000920E-02 0.  1.
    10030    2    1    2    0    0  0.00000000000E+00  0.00000000000E+00  0.91770125471E+03  0.20625201417E+04  0.18471095642E+04 0.  0.
        3    1    3    3  502    0  0.45675294094E+02  0.46721611723E+03 -0.42924963251E+03  0.63610721573E+03  0.10100000352E+00 0.  1.
       -3    1    3    3    0  502 -0.45675294094E+02 -0.46721611723E+03  0.13469508872E+04  0.14264129260E+04  0.10100000352E+00 0. -1.
</event>
<event>
 5   0  0.1277709E-04  0.1897214E+04  0.7818609E-02  0.8656244E-01
       -1   -1    0    0    0  501  0.00000000000E+00  0.00000000000E+00  0.61800597419E+03  0.61800597421E+03  0.50400001928E-02 0.  1.
        1   -1    0    0  501    0  0.00000000000E+00  0.00000000000E+00 -0.14560629098E+04  0.14560629099E+04  0.50400001928E-02 0. -1.
    10030    2    1    2    0    0  0.00000000000E+00  0.00000000000E+00 -0.83805693565E+03  0.20740688841E+04  0.18972143549E+04 0.  0.
        4    1    3    3  502    0  0.36892299787E+03 -0.62841846633E+02  0.53389191246E+03  0.65199345330E+03  0.12699999809E+01 0.  1.
       -4    1    3    3    0  502 -0.36892299787E+03  0.62841846633E+02 -0.13719488481E+04  0.14220754308E+04  0.12699999809E+01 0. -1.
</event>
<event>
 5   0  0.2541124E-04  0.1891140E+04  0.7818609E-02  0.8659279E-01
       -2   -1    0    0    0  501  0.00000000000E+00  0.00000000000E+00  0.59951314510E+03  0.59951314511E+03  0.25500000920E-02 0. -1.
        2   -1    0    0  501    0  0.00000000000E+00  0.00000000000E+00 -0.14913818701E+04  0.14913818701E+04  0.25500000920E-02 0.  1.
    10030    2    1    2    0    0  0.00000000000E+00  0.00000000000E+00 -0.89186872498E+03  0.20908950152E+04  0.18911404342E+04 0.  0.
        5    1    3    3  502    0 -0.74772432990E+03  0.33125677638E+03 -0.97067992053E+03  0.12692770870E+04  0.46999998093E+01 0.  1.
       -5    1    3    3    0  502  0.74772432990E+03 -0.33125677638E+03  0.78811195549E+02  0.82161792822E+03  0.46999998093E+01 0. -1.
</event>
<event>
 5   0  0.2651828E-04  0.1869341E+04  0.7818609E-02  0.8670269E-01
        2   -1    0    0  501    0  0.00000000000E+00  0.00000000000E+00  0.18640239302E+04  0.18640239302E+04  0.25500000920E-02 0.  1.
       -2   -1    0    0    0  501  0.00000000000E+00  0.00000000000E+00 -0.46866846454E+03  0.46866846455E+03  0.25500000920E-02 0. -1.
    10030    2    1    2    0    0  0.00000000000E+00  0.00000000000E+00  0.13953554656E+04  0.23326923947E+04  0.18693413099E+04 0.  0.
        3    1    3    3  502    0  0.52129663375E+03 -0.64205125991E+02 -0.26709239287E+03  0.58924598861E+03  0.10100000352E+00 0. -1.
       -3    1    3    3    0  502 -0.52129663375E+03  0.64205125991E+02  0.16624478585E+04  0.17434464061E+04  0.10100000352E+00 0.  1.
</event>
<event>
 5   0  0.2562925E-04  0.1872292E+04  0.7818609E-02  0.8668773E-01
       -2   -1    0    0    0  501  0.00000000000E+00  0.00000000000E+00  0.44074484172E+03  0.44074484173E+03  0.25500000920E-02 0. -1.
        2   -1    0    0  501    0  0.00000000000E+00  0.00000000000E+00 -0.19883821660E+04  0.19883821660E+04  0.25500000920E-02 0.  1.
    10030    2    1    2    0    0  0.00000000000E+00  0.00000000000E+00 -0.15476373243E+04  0.24291270078E+04  0.18722918395E+04 0.  0.
        4    1    3    3  502    0 -0.53679298647E+03  0.76567602746E+03 -0.83127321156E+03  0.12511687554E+04  0.12699999809E+01 0.  1.
       -4    1    3    3    0  502  0.53679298647E+03 -0.76567602746E+03 -0.71636411274E+03  0.11779582523E+04  0.12699999809E+01 0. -1.
</event>
<event>
 5   0  0.2608744E-04  0.1908899E+04  0.7818609E-02  0.8650440E-01
        2   -1    0    0  501    0  0.00000000000E+00  0.00000000000E+00  0.90754777047E+03  0.90754777047E+03  0.25500000920E-02 0.  1.
       -2   -1    0    0    0  501  0.00000000000E+00  0.00000000000E+00 -0.10037749063E+04  0.10037749063E+04  0.25500000920E-02 0. -1.
    10030    2    1    2    0    0  0.00000000000E+00  0.00000000000E+00 -0.96227135859E+02  0.19113226768E+04  0.19088988221E+04 0.  0.
        2    1    3    3  502    0  0.31185141893E+01 -0.15702329656E+03 -0.99074810631E+03  0.10031190612E+04  0.25500000920E-02 0. -1.
       -2    1    3    3    0  502 -0.31185141893E+01  0.15702329656E+03  0.89452097045E+03  0.90820361560E+03  0.25500000920E-02 0.  1.
</event>
<event>
 5   0  0.2608744E-04  0.1892152E+04  0.7818609E-02  0.8658773E-01
       -2   -1    0    0    0  501  0.00000000000E+00  0.00000000000E+00  0.15874924024E+04  0.15874924024E+04  0.25500000920E-02 0.  1.
        2   -1    0    0  501    0  0.00000000000E+00  0.00000000000E+00 -0.56381971026E+03  0.56381971027E+03  0.25500000920E-02 0. -1.
    10030    2    1    2    0    0  0.00000000000E+00  0.00000000000E+00  0.10236726921E+04  0.21513121127E+04  0.18921516920E+04 0.  0.
        2    1    3    3  502    0 -0.28325096284E+03  0.10897638493E+03 -0.50697180699E+03  0.59087001406E+03  0.25500000920E-02 0. -1.
       -2    1    3    3    0  502  0.28325096284E+03 -0.10897638493E+03  0.15306444991E+04  0.15604420986E+04  0.25500000920E-02 0.  1.
</event>
<event>
 5   0  0.2608744E-04  0.1905263E+04  0.7818609E-02  0.8652241E-01
        2   -1    0    0  501    0  0.00000000000E+00  0.00000000000E+00  0.24463608913E+04  0.24463608913E+04  0.25500000920E-02 0. -1.
       -2   -1    0    0    0  501  0.00000000000E+00  0.00000000000E+00 -0.37096189687E+03  0.37096189688E+03  0.25500000920E-02 0.  1.
    10030    2    1    2    0    0  0.00000000000E+00  0.00000000000E+00  0.20753989944E+04  0.28173227882E+04  0.19052628970E+04 0.  0.
        2    1    3    3  502    0 -0.53114501050E+03 -0.82746020946E+02  0.22006661471E+04  0.22653682740E+04  0.25500000920E-02 0. -1.
       -2    1    3    3    0  502  0.53114501050E+03  0.82746020946E+02 -0.12526715263E+03  0.55195451415E+03  0.25500000920E-02 0.  1.
</event>
<event>
 5   0  0.2651828E-04  0.1971097E+04  0.7818609E-02  0.8620254E-01
        2   -1    0    0  501    0  0.00000000000E+00  0.00000000000E+00  0.14460284557E+04  0.14460284557E+04  0.25500000920E-02 0.  1.
       -2   -1    0    0    0  501  0.00000000000E+00  0.00000000000E+00 -0.67170572100E+03  0.67170572101E+03  0.25500000920E-02 0. -1.
    10030    2    1    2    0    0  0.00000000000E+00  0.00000000000E+00  0.77432273466E+03  0.21177341767E+04  0.19710967368E+04 0.  0.
        3    1    3    3  502    0 -0.23214512893E+03 -0.44019586686E+03 -0.52679472756E+03  0.72469059416E+03  0.10100000352E+00 0. -1.
       -3    1    3    3    0  502  0.23214512893E+03  0.44019586686E+03  0.13011174622E+04  0.13930435825E+04  0.10100000352E+00 0.  1.
</event>
<event>
 5   0  0.2562925E-04  0.1913534E+04  0.7818609E-02  0.8648149E-01
        2   -1    0    0  501    0  0.00000000000E+00  0.00000000000E+00  0.12816370940E+04  0.12816370940E+04  0.25500000920E-02 0. -1.
       -2   -1    0    0    0  501  0.00000000000E+00  0.00000000000E+00 -0.71424479823E+03  0.71424479823E+03  0.25500000920E-02 0.  1.
    10030    2    1    2    0    0  0.00000000000E+00  0.00000000000E+00  0.56739229579E+03  0.19958818923E+04  0.19135335143E+04 0.  0.
        4    1    3    3  502    0  0.18384754159E+03  0.77265750513E+03  0.84013486287E+03  0.11561261780E+04  0.12699999809E+01 0. -1.
       -4    1    3    3    0  502 -0.18384754159E+03 -0.77265750513E+03 -0.27274256708E+03  0.83975571423E+03  0.12699999809E+01 0.  1.
</event>
<event>
 5   0  0.2595012E-04  0.1906893E+04  0.7818609E-02  0.8651433E-01
       -2   -1    0    0    0  501  0.00000000000E+00  0.00000000000E+00  0.61969092592E+03  0.61969092593E+03  0.25500000920E-02 0.  1.
        2   -1    0    0  501    0  0.00000000000E+00  0.00000000000E+00 -0.14669572790E+04  0.14669572790E+04  0.25500000920E-02 0. -1.
    10030    2    1    2    0    0  0.00000000000E+00  0.00000000000E+00 -0.84726635312E+03  0.20866482050E+04  0.19068928806E+04 0.  0.
        1    1    3    3  502    0  0.90072833613E+03  0.63680674215E+02 -0.88685226514E+02  0.90732124036E+03  0.50400001928E-02 0.  1.
       -1    1    3    3    0  502 -0.90072833613E+03 -0.63680674215E+02 -0.75858112660E+03  0.11793269646E+04  0.50400001928E-02 0. -1.
</event>
<event>
 5   0  0.1317527E-04  0.1939598E+04  0.7818609E-02  0.8635393E-01
        1   -1    0    0  501    0  0.00000000000E+00  0.00000000000E+00  0.14221594002E+04  0.14221594002E+04  0.50400001928E-02 0.  1.
       -1   -1    0    0    0  501  0.00000000000E+00  0.00000000000E+00 -0.66132523849E+03  0.66132523851E+03  0.50400001928E-02 0. -1.
    10030    2    1    2    0    0  0.00000000000E+00  0.00000000000E+00  0.76083416175E+03  0.20834846387E+04  0.19395977981E+04 0.  0.
        1    1    3    3  502    0  0.57538148023E+03  0.62201690581E+03  0.88715530258E+03  0.12267898801E+04  0.50400001928E-02 0. -1.
       -1    1    3    3    0  502 -0.57538148023E+03 -0.62201690581E+03 -0.12632114083E+03  0.85669475868E+03  0.50400001928E-02 0.  1.
</event>
<event>
 5   0  0.1239615E-04  0.1968548E+04  0.7818609E-02  0.8621468E-01
       -1   -1    0    0    0  501  0.00000000000E+00  0.00000000000E+00  0.80676145644E+03  0.80676145646E+03  0.50400001928E-02 0. -1.
        1   -1    0    0  501    0  0.00000000000E+00  0.00000000000E+00 -0.12008451511E+04  0.12008451511E+04  0.50400001928E-02 0.  1.
    10030    2    1    2    0    0  0.00000000000E+00  0.00000000000E+00 -0.39408369467E+03  0.20076066076E+04  0.19685482804E+04 0.  0.
        3    1    3    3  502    0  0.57805724306E+03 -0.29766205408E+03  0.55656675578E+03  0.85587349447E+03  0.10100000352E+00 0. -1.
       -3    1    3    3    0  502 -0.57805724306E+03  0.29766205408E+03 -0.95065045045E+03  0.11517331131E+04  0.10100000352E+00 0.  1.
</event>
<event>
 5   0  0.1317527E-04  0.1881075E+04  0.7818609E-02  0.8664334E-01
       -1   -1    0    0    0  501  0.00000000000E+00  0.00000000000E+00  0.80589657646E+03  0.80589657647E+03  0.50400001928E-02 0.  1.
        1   -1    0    0  501    0  0.00000000000E+00  0.00000000000E+00 -0.10976724141E+04  0.10976724141E+04  0.50400001928E-02 0. -1.
    10030    2    1    2    0    0  0.00000000000E+00  0.00000000000E+00 -0.29177583765E+03  0.19035689906E+04  0.18810746297E+04 0.  0.
        1    1    3    3  502    0 -0.15686213814E+03 -0.99513605572E+02 -0.10789231677E+04  0.10947985613E+04  0.50400001928E-02 0. -1.
       -1    1    3    3    0  502  0.15686213814E+03  0.99513605572E+02  0.78714733003E+03  0.80877042928E+03  0.50400001928E-02 0.  1.
</event>
<event>
 5   0  0.2562925E-04  0.1660789E+04  0.7818609E-02  0.8784049E-01
       -2   -1    0    0    0  501  0.00000000000E+00  0.00000000000E+00  0.56719352971E+03  0.56719352972E+03  0.25500000920E-02 0. -1.
        2   -1    0    0  501    0  0.00000000000E+00  0.00000000000E+00 -0.12157319021E+04  0.12157319021E+04  0.25500000920E-02 0.  1.
    10030    2    1    2    0    0  0.00000000000E+00  0.00000000000E+00 -0.64853837243E+03  0.17829254319E+04  0.16607892928E+04 0.  0.
        4    1    3    3  502    0  0.66161041857E+03  0.24989086810E+03 -0.79145058612E+03  0.10613997527E+04  0.12699999809E+01 0. -1.
       -4    1    3    3    0  502 -0.66161041857E+03 -0.24989086810E+03  0.14291221369E+03  0.72152567913E+03  0.12699999809E+01 0.  1.
</event>
<event>
 5   0  0.2608744E-04  0.1876521E+04  0.7818609E-02  0.8666633E-01
       -2   -1    0    0    0  501  0.00000000000E+00  0.00000000000E+00  0.13885675374E+04  0.13885675374E+04  0.25500000920E-02 0. -1.
        2   -1    0    0  501    0  0.00000000000E+00  0.00000000000E+00 -0.63398603683E+03  0.63398603683E+03  0.25500000920E-02 0.  1.
    10030    2    1    2    0    0  0.00000000000E+00  0.00000000000E+00  0.75458150054E+03  0.20225535742E+04  0.18765206419E+04 0.  0.
        2    1    3    3  502    0 -0.70094117316E+03 -0.60925665878E+03  0.23340980432E+03  0.95759717066E+03  0.25500000920E-02 0.  1.
       -2    1    3    3    0  502  0.70094117316E+03  0.60925665878E+03  0.52117169622E+03  0.10649564035E+04  0.25500000920E-02 0. -1.
</event>
<event>
 5   0  0.2608744E-04  0.1822884E+04  0.7818609E-02  0.8694224E-01
       -2   -1    0    0    0  501  0.00000000000E+00  0.00000000000E+00  0.70294207110E+03  0.70294207110E+03  0.25500000920E-02 0. -1.
        2   -1    0    0  501    0  0.00000000000E+00  0.00000000000E+00 -0.11817854260E+04  0.11817854260E+04  0.25500000920E-02 0.  1.
    10030    2    1    2    0    0  0.00000000000E+00  0.00000000000E+00 -0.47884335488E+03  0.18847274971E+04  0.18228841926E+04 0.  0.
        2    1    3    3  502    0 -0.12658061496E+03  0.78632593063E+03 -0.69762194193E+03  0.10587764141E+04  0.25500000920E-02 0.  1.
       -2    1    3    3    0  502  0.12658061496E+03 -0.78632593063E+03  0.21877858705E+03  0.82595108295E+03  0.25500000920E-02 0. -1.
</event>
<event>
 5   0  0.2595012E-04  0.1559453E+04  0.7818609E-02  0.8845852E-01
        2   -1    0    0  501    0  0.00000000000E+00  0.00000000000E+00  0.15332860948E+04  0.15332860948E+04  0.25500000920E-02 0.  1.
       -2   -1    0    0    0  501  0.00000000000E+00  0.00000000000E+00 -0.39651680399E+03  0.39651680399E+03  0.25500000920E-02 0. -1.
    10030    2    1    2    0    0  0.00000000000E+00  0.00000000000E+00  0.11367692909E+04  0.19298028988E+04  0.15594533682E+04 0.  0.
        1    1    3    3  502    0  0.34928935216E+01  0.77232297438E+03  0.43580178501E+03  0.88680221747E+03  0.50400001928E-02 0.  1.
       -1    1    3    3    0  502 -0.34928935216E+01 -0.77232297438E+03  0.70096750584E+03  0.10430006814E+04  0.50400001928E-02 0. -1.
</event>
<event>
 5   0  0.2541124E-04  0.1897553E+04  0.7818609E-02  0.8656075E-01
       -2   -1    0    0    0  501  0.00000000000E+00  0.00000000000E+00  0.11653750187E+04  0.11653750187E+04  0.25500000920E-02 0.  1.
        2   -1    0    0  501    0  0.00000000000E+00  0.00000000000E+00 -0.77243548128E+03  0.77243548128E+03  0.25500000920E-02 0. -1.
    10030    2    1    2    0    0  0.00000000000E+00  0.00000000000E+00  0.39293953740E+03  0.19378105000E+04  0.18975531755E+04 0.  0.
        5    1    3    3  502    0  0.31305031552E+03  0.86154059230E+03 -0.53472006023E+02  0.91822330490E+03  0.46999998093E+01 0.  1.
       -5    1    3    3    0  502 -0.31305031552E+03 -0.86154059230E+03  0.44641154342E+03  0.10195871951E+04  0.46999998093E+01 0. -1.
</event>
<event>
 5   0  0.1255141E-04  0.1915922E+04  0.7818609E-02  0.8646971E-01
       -1   -1    0    0    0  501  0.00000000000E+00  0.00000000000E+00  0.82220459654E+03  0.82220459655E+03  0.50400001928E-02 0.  1.
        1   -1    0    0  501    0  0.00000000000E+00  0.00000000000E+00 -0.11161328537E+04  0.11161328537E+04  0.50400001928E-02 0. -1.
    10030    2    1    2    0    0  0.00000000000E+00  0.00000000000E+00 -0.29392825713E+03  0.19383374502E+04  0.19159222976E+04 0.  0.
        2    1    3    3  502    0 -0.47640606792E+03  0.12029965931E+03 -0.97893223808E+03  0.10953278397E+04  0.25500000920E-02 0. -1.
       -2    1    3    3    0  502  0.47640606792E+03 -0.12029965931E+03  0.68500398095E+03  0.84300961057E+03  0.25500000920E-02 0.  1.
</event>
<event>
 5   0  0.1239615E-04  0.1843770E+04  0.7818609E-02  0.8683363E-01
        1   -1    0    0  501    0  0.00000000000E+00  0.00000000000E+00  0.12627177672E+04  0.12627177672E+04  0.50400001928E-02 0.  1.
       -1   -1    0    0    0  501  0.00000000000E+00  0.00000000000E+00 -0.67304983796E+03  0.67304983798E+03  0.50400001928E-02 0. -1.
    10030    2    1    2    0    0  0.00000000000E+00  0.00000000000E+00  0.58966792920E+03  0.19357676051E+04  0.18437700384E+04 0.  0.
        3    1    3    3  502    0  0.91744067522E+02 -0.89910421468E+03  0.48574952996E+03  0.10260399499E+04  0.10100000352E+00 0. -1.
       -3    1    3    3    0  502 -0.91744067522E+02  0.89910421468E+03  0.10391839925E+03  0.90972765523E+03  0.10100000352E+00 0.  1.
</event>
<event>
 5   0  0.1317527E-04  0.1956571E+04  0.7818609E-02  0.8627198E-01
        1   -1    0    0  501    0  0.00000000000E+00  0.00000000000E+00  0.15966451809E+04  0.15966451809E+04  0.50400001928E-02 0. -1.
       -1   -1    0    0    0  501  0.00000000000E+00  0.00000000000E+00 -0.59940866777E+03  0.59940866779E+03  0.50400001928E-02 0.  1.
    10030    2    1    2    0    0  0.00000000000E+00  0.00000000000E+00  0.99723651310E+03  0.21960538487E+04  0.19565714511E+04 0.  0.
        1    1    3    3  502    0 -0.31733438283E+02  0.62286144205E+03  0.13445822129E+04  0.14821824161E+04  0.50400001928E-02 0.  1.
       -1    1    3    3    0  502  0.31733438283E+02 -0.62286144205E+03 -0.34734569982E+03  0.71387143262E+03  0.50400001928E-02 0. -1.
</event>
<event>
 5   0  0.1255141E-04  0.1902100E+04  0.7818609E-02  0.8653812E-01
        1   -1    0    0  501    0  0.00000000000E+00  0.00000000000E+00  0.11501227877E+04  0.11501227877E+04  0.50400001928E-02 0. -1.
       -1   -1    0    0    0  501  0.00000000000E+00  0.00000000000E+00 -0.78643420014E+03  0.78643420015E+03  0.50400001928E-02 0.  1.
    10030    2    1    2    0    0  0.00000000000E+00  0.00000000000E+00  0.36368858754E+03  0.19365569878E+04  0.19020997814E+04 0.  0.
        2    1    3    3  502    0 -0.30018045539E+03 -0.77643541050E+03  0.65010612867E+03  0.10562188367E+04  0.25500000920E-02 0. -1.
       -2    1    3    3    0  502  0.30018045539E+03  0.77643541050E+03 -0.28641754113E+03  0.88033815114E+03  0.25500000920E-02 0.  1.
</event>
<event>
 5   0  0.2651828E-04  0.1904906E+04  0.7818609E-02  0.8652418E-01
        2   -1    0    0  501    0  0.00000000000E+00  0.00000000000E+00  0.17399190852E+04  0.17399190852E+04  0.25500000920E-02 0. -1.
       -2   -1    0    0    0  501  0.00000000000E+00  0.00000000000E+00 -0.52138438295E+03  0.52138438296E+03  0.25500000920E-02 0.  1.
    10030    2    1    2    0    0  0.00000000000E+00  0.00000000000E+00  0.12185347023E+04  0.22613034682E+04  0.19049059175E+04 0.  0.
        3    1    3    3  502    0 -0.56082259689E+02 -0.93032330004E+03  0.84225251436E+03  0.12561990171E+04  0.10100000352E+00 0. -1.
       -3    1    3    3    0  502  0.56082259689E+02  0.93032330004E+03  0.37628218791E+03  0.10051044511E+04  0.10100000352E+00 0.  1.
</event>
<event>
 5   0  0.1255141E-04  0.1919956E+04  0.7818609E-02  0.8644986E-01
        1   -1    0    0  501    0  0.00000000000E+00  0.00000000000E+00  0.99879889302E+03  0.99879889303E+03  0.50400001928E-02 0.  1.
       -1   -1    0    0    0  501  0.00000000000E+00  0.00000000000E+00 -0.92266589137E+03  0.92266589138E+03  0.50400001928E-02 0. -1.
    10030    2    1    2    0    0  0.00000000000E+00  0.00000000000E+00  0.76133001650E+02  0.19214647844E+04  0.19199559067E+04 0.  0.
        2    1    3    3  502    0  0.18864672792E+03  0.94018766256E+03  0.83015517332E+02  0.96251337908E+03  0.25500000920E-02 0. -1.
       -2    1    3    3    0  502 -0.18864672792E+03 -0.94018766256E+03 -0.68825156815E+01  0.95895140534E+03  0.25500000920E-02 0.  1.
</event>
<event>
 5   0  0.2541124E-04  0.1910155E+04  0.7818609E-02  0.8649818E-01
        2   -1    0    0  501    0  0.00000000000E+00  0.00000000000E+00  0.21050859333E+04  0.21050859333E+04  0.25500000920E-02 0.  1.
       -2   -1    0    0    0  501  0.00000000000E+00  0.00000000000E+00 -0.43331874241E+03  0.43331874242E+03  0.25500000920E-02 0. -1.
    10030    2    1    2    0    0  0.00000000000E+00  0.00000000000E+00  0.16717671909E+04  0.25384046758E+04  0.19101551658E+04 0.  0.
        5    1    3    3  502    0  0.30488484107E+03 -0.62767696918E+03  0.17024423401E+04  0.18399090074E+04  0.46999998093E+01 0.  1.
       -5    1    3    3    0  502 -0.30488484107E+03  0.62767696918E+03 -0.30675149216E+02  0.69849566837E+03  0.46999998093E+01 0. -1.
</event>
<event>
 5   0  0.2595012E-04  0.1898868E+04  0.7818609E-02  0.8655420E-01
       -2   -1    0    0    0  501  0.00000000000E+00  0.00000000000E+00  0.56022422776E+03  0.56022422776E+03  0.25500000920E-02 0. -1.
        2   -1    0    0  501    0  0.00000000000E+00  0.00000000000E+00 -0.16090424446E+04  0.16090424446E+04  0.25500000920E-02 0.  1.
    10030    2    1    2    0    0  0.00000000000E+00  0.00000000000E+00 -0.10488182168E+04  0.21692666724E+04  0.18988676215E+04 0.  0.
        1    1    3    3  502    0 -0.14774017894E+03  0.17026660212E+03 -0.15780258202E+04  0.15940462244E+04  0.50400001928E-02 0.  1.
       -1    1    3    3    0  502  0.14774017894E+03 -0.17026660212E+03  0.52920760336E+03  0.57522044796E+03  0.50400001928E-02 0. -1.
</event>
<event>
 5   0  0.1324058E-04  0.1907057E+04  0.7818609E-02  0.8651352E-01
       -1   -1    0    0    0  501  0.00000000000E+00  0.00000000000E+00  0.10988825631E+04  0.10988825631E+04  0.50400001928E-02 0.  1.
        1   -1    0    0  501    0  0.00000000000E+00  0.00000000000E+00 -0.82740099393E+03  0.82740099395E+03  0.50400001928E-02 0. -1.
    10030    2    1    2    0    0  0.00000000000E+00  0.00000000000E+00  0.27148156913E+03  0.19262835570E+04  0.19070569209E+04 0.  0.
        5    1    3    3  502    0  0.28073887264E+03 -0.39016604497E+03 -0.69606058218E+03  0.84591150915E+03  0.46999998093E+01 0. -1.
       -5    1    3    3    0  502 -0.28073887264E+03  0.39016604497E+03  0.96754215131E+03  0.10803720479E+04  0.46999998093E+01 0.  1.
</event>
<event>
 5   0  0.1239615E-04  0.1932548E+04  0.7818609E-02  0.8638823E-01
        1   -1    0    0  501    0  0.00000000000E+00  0.00000000000E+00  0.98276074129E+03  0.98276074131E+03  0.50400001928E-02 0. -1.
       -1   -1    0    0    0  501  0.00000000000E+00  0.00000000000E+00 -0.95006367109E+03  0.95006367110E+03  0.50400001928E-02 0.  1.
    10030    2    1    2    0    0  0.00000000000E+00  0.00000000000E+00  0.32697070203E+02  0.19328244124E+04  0.19325478289E+04 0.  0.
        3    1    3    3  502    0 -0.44066155328E+03 -0.34909223591E+03 -0.76966296432E+03  0.95311546129E+03  0.10100000352E+00 0.  1.
       -3    1    3    3    0  502  0.44066155328E+03  0.34909223591E+03  0.80236003452E+03  0.97970895112E+03  0.10100000352E+00 0. -1.
</event>
<event>
 5   0  0.1317527E-04  0.1928841E+04  0.7818609E-02  0.8640632E-01
        1   -1    0    0  501    0  0.00000000000E+00  0.00000000000E+00  0.12746669001E+04  0.12746669001E+04  0.50400001928E-02 0.  1.
       -1   -1    0    0    0  501  0.00000000000E+00  0.00000000000E+00 -0.72968630239E+03  0.72968630240E+03  0.50400001928E-02 0. -1.
    10030    2    1    2    0    0  0.00000000000E+00  0.00000000000E+00  0.54498059768E+03  0.20043532025E+04  0.19288410791E+04 0.  0.
        1    1    3    3  502    0  0.58720978751E+03  0.32415207432E+03  0.99259659265E+03  0.11979724110E+04  0.50400001928E-02 0.  1.
       -1    1    3    3    0  502 -0.58720978751E+03 -0.32415207432E+03 -0.44761599497E+03  0.80638079145E+03  0.50400001928E-02 0. -1.
</event>
<event>
 5   0  0.1324058E-04  0.1889621E+04  0.7818609E-02  0.8660040E-01
       -1   -1    0    0    0  501  0.00000000000E+00  0.00000000000E+00  0.96685222656E+03  0.96685222658E+03  0.50400001928E-02 0.  1.
        1   -1    0    0  501    0  0.00000000000E+00  0.00000000000E+00 -0.92327153803E+03  0.92327153805E+03  0.50400001928E-02 0. -1.
    10030    2    1    2    0    0  0.00000000000E+00  0.00000000000E+00  0.43580688530E+02  0.18901237646E+04  0.18896212767E+04 0.  0.
        5    1    3    3  502    0 -0.75230132230E+02  0.55829142270E+03 -0.73689415733E+03  0.92756885166E+03  0.46999998093E+01 0. -1.
       -5    1    3    3    0  502  0.75230132230E+02 -0.55829142270E+03  0.78047484586E+03  0.96255491297E+03  0.46999998093E+01 0.  1.
</event>
<event>
 5   0  0.2608744E-04  0.2062115E+04  0.7818609E-02  0.8578118E-01
       -2   -1    0    0    0  501  0.00000000000E+00  0.00000000000E+00  0.65975554415E+03  0.65975554416E+03  0.25500000920E-02 0.  1.
        2   -1    0    0  501    0  0.00000000000E+00  0.00000000000E+00 -0.16113235781E+04  0.16113235781E+04  0.25500000920E-02 0. -1.
    10030    2    1    2    0    0  0.00000000000E+00  0.00000000000E+00 -0.95156803392E+03  0.22710791222E+04  0.20621150929E+04 0.  0.
        2    1    3    3  502    0  0.36048814210E+03  0.80833085770E+03 -0.10582737250E+04  0.13795991277E+04  0.25500000920E-02 0. -1.
       -2    1    3    3    0  502 -0.36048814210E+03 -0.80833085770E+03  0.10670569110E+03  0.89147999452E+03  0.25500000920E-02 0.  1.
</event>
<event>
 5   0  0.1255141E-04  0.1908392E+04  0.7818609E-02  0.8650690E-01
        1   -1    0    0  501    0  0.00000000000E+00  0.00000000000E+00  0.22091430034E+04  0.22091430034E+04  0.50400001928E-02 0. -1.
       -1   -1    0    0    0  501  0.00000000000E+00  0.00000000000E+00 -0.41214636027E+03  0.41214636030E+03  0.50400001928E-02 0.  1.
    10030    2    1    2    0    0  0.00000000000E+00  0.00000000000E+00  0.17969966431E+04  0.26212893637E+04  0.19083922534E+04 0.  0.
        2    1    3    3  502    0 -0.89976222627E+02  0.58920596837E+03 -0.12499288640E+03  0.60900132632E+03  0.25500000920E-02 0.  1.
       -2    1    3    3    0  502  0.89976222627E+02 -0.58920596837E+03  0.19219895295E+04  0.20122880374E+04  0.25500000920E-02 0. -1.
</event>
<event>
 5   0  0.2541124E-04  0.1897573E+04  0.7818609E-02  0.8656066E-01
       -2   -1    0    0    0  501  0.00000000000E+00  0.00000000000E+00  0.80901261631E+03  0.80901261631E+03  0.25500000920E-02 0.  1.
        2   -1    0    0  501    0  0.00000000000E+00  0.00000000000E+00 -0.11127086913E+04  0.11127086913E+04  0.25500000920E-02 0. -1.
    10030    2    1    2    0    0  0.00000000000E+00  0.00000000000E+00 -0.30369607496E+03  0.19217213076E+04  0.18975725225E+04 0.  0.
        5    1    3    3  502    0 -0.45447851989E+03  0.39085167386E+03  0.59294131642E+03  0.84315908980E+03  0.46999998093E+01 0.  1.
       -5    1    3    3    0  502  0.45447851989E+03 -0.39085167386E+03 -0.89663739138E+03  0.10785622178E+04  0.46999998093E+01 0. -1.
</event>
<event>
 5   0  0.1317527E-04  0.1428600E+04  0.7818609E-02  0.8933372E-01
        1   -1    0    0  501    0  0.00000000000E+00  0.00000000000E+00  0.26551133978E+03  0.26551133982E+03  0.50400001928E-02 0. -1.
       -1   -1    0    0    0  501  0.00000000000E+00  0.00000000000E+00 -0.19216687150E+04  0.19216687150E+04  0.50400001928E-02 0.  1.
    10030    2    1    2    0    0  0.00000000000E+00  0.00000000000E+00 -0.16561573752E+04  0.21871800548E+04  0.14286004832E+04 0.  0.
        1    1    3    3  502    0  0.58883465401E+03 -0.86060339257E+02 -0.14329518974E+04  0.15516068355E+04  0.50400001928E-02 0.  1.
       -1    1    3    3    0  502 -0.58883465401E+03  0.86060339257E+02 -0.22320547783E+03  0.63557321931E+03  0.50400001928E-02 0. -1.
</event>
<event>
 5   0  0.2651828E-04  0.1926160E+04  0.7818609E-02  0.8641943E-01
        2   -1    0    0  501    0  0.00000000000E+00  0.00000000000E+00  0.17950074800E+04  0.17950074800E+04  0.25500000920E-02 0.  1.
       -2   -1    0    0    0  501  0.00000000000E+00  0.00000000000E+00 -0.51672403712E+03  0.51672403713E+03  0.25500000920E-02 0. -1.
    10030    2    1    2    0    0  0.00000000000E+00  0.00000000000E+00  0.12782834429E+04  0.23117315171E+04  0.19261604416E+04 0.  0.
        3    1    3    3  502    0 -0.41024832849E+03 -0.42312225017E+03 -0.27503271068E+03  0.65036845846E+03  0.10100000352E+00 0. -1.
       -3    1    3    3    0  502  0.41024832849E+03  0.42312225017E+03  0.15533161535E+04  0.16613630587E+04  0.10100000352E+00 0.  1.
</event>
<event>
 5   0  0.2541124E-04  0.1914043E+04  0.7818609E-02  0.8647898E-01
       -2   -1    0    0    0  501  0.00000000000E+00  0.00000000000E+00  0.86335356494E+03  0.86335356494E+03  0.25500000920E-02 0.  1.
        2   -1    0    0  501    0  0.00000000000E+00  0.00000000000E+00 -0.10608521310E+04  0.10608521310E+04  0.25500000920E-02 0. -1.
    10030    2    1    2    0    0  0.00000000000E+00  0.00000000000E+00 -0.19749856609E+03  0.19242056960E+04  0.19140433320E+04 0.  0.
        5    1    3    3  502    0  0.55197822835E+03  0.73741206349E+03 -0.35976574341E+03  0.98889331886E+03  0.46999998093E+01 0. -1.
       -5    1    3    3    0  502 -0.55197822835E+03 -0.73741206349E+03  0.16226717732E+03  0.93531237712E+03  0.46999998093E+01 0.  1.
</event>
<event>
 5   0  0.2541124E-04  0.1881973E+04  0.7818609E-02  0.8663882E-01
       -2   -1    0    0    0  501  0.00000000000E+00  0.00000000000E+00  0.14182208627E+04  0.14182208627E+04  0.25500000920E-02 0.  1.
        2   -1    0    0  501    0  0.00000000000E+00  0.00000000000E+00 -0.62434235091E+03  0.62434235091E+03  0.25500000920E-02 0. -1.
    10030    2    1    2    0    0  0.00000000000E+00  0.00000000000E+00  0.79387851174E+03  0.20425632136E+04  0.18819727389E+04 0.  0.
        5    1    3    3  502    0  0.47221767915E+03  0.38440707753E+03  0.11755648595E+04  0.13239082923E+04  0.46999998093E+01 0.  1.
       -5    1    3    3    0  502 -0.47221767915E+03 -0.38440707753E+03 -0.38168634771E+03  0.71865492122E+03  0.46999998093E+01 0. -1.
</event>
<event>
 5   0  0.2651828E-04  0.1902566E+04  0.7818609E-02  0.8653580E-01
       -2   -1    0    0    0  501  0.00000000000E+00  0.00000000000E+00  0.40358485093E+03  0.40358485094E+03  0.25500000920E-02 0. -1.
        2   -1    0    0  501    0  0.00000000000E+00  0.00000000000E+00 -0.22422538581E+04  0.22422538581E+04  0.25500000920E-02 0.  1.
    10030    2    1    2    0    0  0.00000000000E+00  0.00000000000E+00 -0.18386690072E+04  0.26458387091E+04  0.19025663606E+04 0.  0.
        3    1    3    3  502    0 -0.44005673683E+03 -0.83502506779E+03 -0.75465398949E+03  0.12084781543E+04  0.10100000352E+00 0.  1.
       -3    1    3    3    0  502  0.44005673683E+03  0.83502506779E+03 -0.10840150177E+04  0.14373605547E+04  0.10100000352E+00 0. -1.
</event>
<event>
 5   0  0.1317527E-04  0.1816567E+04  0.7818609E-02  0.8697538E-01
       -1   -1    0    0    0  501  0.00000000000E+00  0.00000000000E+00  0.84096238304E+03  0.84096238306E+03  0.50400001928E-02 0. -1.
        1   -1    0    0  501    0  0.00000000000E+00  0.00000000000E+00 -0.98099415638E+03  0.98099415639E+03  0.50400001928E-02 0.  1.
    10030    2    1    2    0    0  0.00000000000E+00  0.00000000000E+00 -0.14003177334E+03  0.18219565394E+04  0.18165672941E+04 0.  0.
        1    1    3    3  502    0 -0.83753061333E+03 -0.31580525994E+02 -0.42108909066E+03  0.93796102275E+03  0.50400001928E-02 0.  1.
       -1    1    3    3    0  502  0.83753061333E+03  0.31580525994E+02  0.28105731733E+03  0.88399551670E+03  0.50400001928E-02 0. -1.
</event>
<event>
 5   0  0.1277709E-04  0.1880874E+04  0.7818609E-02  0.8664436E-01
        1   -1    0    0  501    0  0.00000000000E+00  0.00000000000E+00  0.12121269201E+04  0.12121269201E+04  0.50400001928E-02 0. -1.
       -1   -1    0    0    0  501  0.00000000000E+00  0.00000000000E+00 -0.72964414855E+03  0.72964414857E+03  0.50400001928E-02 0.  1.
    10030    2    1    2    0    0  0.00000000000E+00  0.00000000000E+00  0.48248277157E+03  0.19417710687E+04  0.18808735360E+04 0.  0.
        4    1    3    3  502    0  0.14556281849E+03 -0.65407155320E+03 -0.43998804181E+03  0.80161662948E+03  0.12699999809E+01 0.  1.
       -4    1    3    3    0  502 -0.14556281849E+03  0.65407155320E+03  0.92247081338E+03  0.11401544392E+04  0.12699999809E+01 0. -1.
</event>
<event>
 5   0  0.1324058E-04  0.1917310E+04  0.7818609E-02  0.8646288E-01
        1   -1    0    0  501    0  0.00000000000E+00  0.00000000000E+00  0.10129312965E+04  0.10129312965E+04  0.50400001928E-02 0. -1.
       -1   -1    0    0    0  501  0.00000000000E+00  0.00000000000E+00 -0.90728693467E+03  0.90728693469E+03  0.50400001928E-02 0.  1.
    10030    2    1    2    0    0  0.00000000000E+00  0.00000000000E+00  0.10564436182E+03  0.19202182312E+04  0.19173099187E+04 0.  0.
        5    1    3    3  502    0  0.90227438508E+03 -0.16359957706E+03 -0.22712526013E+03  0.94470728872E+03  0.46999998093E+01 0.  1.
       -5    1    3    3    0  502 -0.90227438508E+03  0.16359957706E+03  0.33276962195E+03  0.97551094247E+03  0.46999998093E+01 0. -1.
</event>
<event>
 5   0  0.2608744E-04  0.1846267E+04  0.7818609E-02  0.8682075E-01
        2   -1    0    0  501    0  0.00000000000E+00  0.00000000000E+00  0.12099967243E+04  0.12099967243E+04  0.25500000920E-02 0.  1.
       -2   -1    0    0    0  501  0.00000000000E+00  0.00000000000E+00 -0.70427938655E+03  0.70427938656E+03  0.25500000920E-02 0. -1.
    10030    2    1    2    0    0  0.00000000000E+00  0.00000000000E+00  0.50571733778E+03  0.19142761109E+04  0.18462673162E+04 0.  0.
        2    1    3    3  502    0 -0.37719019816E+03 -0.46687215539E+03  0.98007443121E+03  0.11492553875E+04  0.25500000920E-02 0.  1.
       -2    1    3    3    0  502  0.37719019816E+03  0.46687215539E+03 -0.47435709343E+03  0.76502072335E+03  0.25500000920E-02 0. -1.
</event>
<event>
 5   0  0.1239615E-04  0.1894633E+04  0.7818609E-02  0.8657532E-01
       -1   -1    0    0    0  501  0.00000000000E+00  0.00000000000E+00  0.15566913941E+04  0.15566913941E+04  0.50400001928E-02 0.  1.
        1   -1    0    0  501    0  0.00000000000E+00  0.00000000000E+00 -0.57648468582E+03  0.57648468584E+03  0.50400001928E-02 0. -1.
    10030    2    1    2    0    0  0.00000000000E+00  0.00000000000E+00  0.98020670829E+03  0.21331760800E+04  0.18946332091E+04 0.  0.
        3    1    3    3  502    0 -0.46184405858E+03  0.31797827865E+03 -0.36957367575E+03  0.67156148799E+03  0.10100000352E+00 0. -1.
       -3    1    3    3    0  502  0.46184405858E+03 -0.31797827865E+03  0.13497803840E+04  0.14616145920E+04  0.10100000352E+00 0.  1.
</event>
<event>
 5   0  0.1277709E-04  0.1904027E+04  0.7818609E-02  0.8652855E-01
        1   -1    0    0  501    0  0.00000000000E+00  0.00000000000E+00  0.11730603761E+04  0.11730603761E+04  0.50400001928E-02 0.  1.
       -1   -1    0    0    0  501  0.00000000000E+00  0.00000000000E+00 -0.77261961418E+03  0.77261961419E+03  0.50400001928E-02 0. -1.
    10030    2    1    2    0    0  0.00000000000E+00  0.00000000000E+00  0.40044076190E+03  0.19456799903E+04  0.19040267385E+04 0.  0.
        4    1    3    3  502    0 -0.40934228898E+02 -0.18892127018E+03 -0.75235314738E+03  0.77679065951E+03  0.12699999809E+01 0. -1.
       -4    1    3    3    0  502  0.40934228898E+02  0.18892127018E+03  0.11527939093E+04  0.11688893308E+04  0.12699999809E+01 0.  1.
</event>
<event>
 5   0  0.2562925E-04  0.1891492E+04  0.7818609E-02  0.8659103E-01
        2   -1    0    0  501    0  0.00000000000E+00  0.00000000000E+00  0.91113685694E+03  0.91113685695E+03  0.25500000920E-02 0. -1.
       -2   -1    0    0    0  501  0.00000000000E+00  0.00000000000E+00 -0.98166954979E+03  0.98166954980E+03  0.25500000920E-02 0.  1.
    10030    2    1    2    0    0  0.00000000000E+00  0.00000000000E+00 -0.70532692849E+02  0.18928064067E+04  0.18914918008E+04 0.  0.
        4    1    3    3  502    0  0.65628036421E+03 -0.61083793610E+03 -0.33648517665E+03  0.95762768737E+03  0.12699999809E+01 0. -1.
       -4    1    3    3    0  502 -0.65628036421E+03  0.61083793610E+03  0.26595248380E+03  0.93517871937E+03  0.12699999809E+01 0.  1.
</event>
<event>
 5   0  0.1277709E-04  0.1923906E+04  0.7818609E-02  0.8643047E-01
       -1   -1    0    0    0  501  0.00000000000E+00  0.00000000000E+00  0.72526036611E+03  0.72526036613E+03  0.50400001928E-02 0. -1.
        1   -1    0    0  501    0  0.00000000000E+00  0.00000000000E+00 -0.12758920953E+04  0.12758920954E+04  0.50400001928E-02 0.  1.
    10030    2    1    2    0    0  0.00000000000E+00  0.00000000000E+00 -0.55063172923E+03  0.20011524615E+04  0.19239064096E+04 0.  0.
        4    1    3    3  502    0 -0.23258339531E+03  0.90373835399E+03 -0.32458384760E+02  0.93375221975E+03  0.12699999809E+01 0.  1.
       -4    1    3    3    0  502  0.23258339531E+03 -0.90373835399E+03 -0.51817334447E+03  0.10674002417E+04  0.12699999809E+01 0. -1.
</event>
<event>
 5   0  0.1277709E-04  0.1814086E+04  0.7818609E-02  0.8698844E-01
       -1   -1    0    0    0  501  0.00000000000E+00  0.00000000000E+00  0.60234542427E+03  0.60234542429E+03  0.50400001928E-02 0.  1.
        1   -1    0    0  501    0  0.00000000000E+00  0.00000000000E+00 -0.13658728614E+04  0.13658728615E+04  0.50400001928E-02 0. -1.
    10030    2    1    2    0    0  0.00000000000E+00  0.00000000000E+00 -0.76352743718E+03  0.19682182857E+04  0.18140862915E+04 0.  0.
        4    1    3    3  502    0  0.53470583509E+03 -0.53429096609E+03 -0.92570680356E+03  0.11951200214E+04  0.12699999809E+01 0. -1.
       -4    1    3    3    0  502 -0.53470583509E+03  0.53429096609E+03  0.16217936638E+03  0.77309826433E+03  0.12699999809E+01 0.  1.
</event>
<event>
 5   0  0.1317527E-04  0.1934801E+04  0.7818609E-02  0.8637725E-01
       -1   -1    0    0    0  501  0.00000000000E+00  0.00000000000E+00  0.59876774460E+03  0.59876774462E+03  0.50400001928E-02 0.  1.
        1   -1    0    0  501    0  0.00000000000E+00  0.00000000000E+00 -0.15629834026E+04  0.15629834026E+04  0.50400001928E-02 0. -1.
    10030    2    1    2    0    0  0.00000000000E+00  0.00000000000E+00 -0.96421565799E+03  0.21617511472E+04  0.19348013302E+04 0.  0.
        1    1    3    3  502    0  0.46068751155E+03 -0.22985822400E+03  0.43298391516E+03  0.67271305714E+03  0.50400001928E-02 0.  1.
       -1    1    3    3    0  502 -0.46068751155E+03  0.22985822400E+03 -0.13971995731E+04  0.14890380901E+04  0.50400001928E-02 0. -1.
</event>
<event>
 5   0  0.2595012E-04  0.1871100E+04  0.7818609E-02  0.8669377E-01
        2   -1    0    0  501    0  0.00000000000E+00  0.00000000000E+00  0.12075597794E+04  0.12075597794E+04  0.25500000920E-02 0.  1.
       -2   -1    0    0    0  501  0.00000000000E+00  0.00000000000E+00 -0.72481236758E+03  0.72481236758E+03  0.25500000920E-02 0. -1.
    10030    2    1    2    0    0  0.00000000000E+00  0.00000000000E+00  0.48274741180E+03  0.19323721470E+04  0.18711004919E+04 0.  0.
        1    1    3    3  502    0  0.41872938419E+03  0.26420980729E+03  0.10611642889E+04  0.11709870911E+04  0.50400001928E-02 0.  1.
       -1    1    3    3    0  502 -0.41872938419E+03 -0.26420980729E+03 -0.57841687714E+03  0.76138505583E+03  0.50400001928E-02 0. -1.
</event>
<event>
 5   0  0.1239615E-04  0.1904854E+04  0.7818609E-02  0.8652444E-01
        1   -1    0    0  501    0  0.00000000000E+00  0.00000000000E+00  0.10608592923E+04  0.10608592923E+04  0.50400001928E-02 0.  1.
       -1   -1    0    0    0  501  0.00000000000E+00  0.00000000000E+00 -0.85507758515E+03  0.85507758517E+03  0.50400001928E-02 0. -1.
    10030    2    1    2    0    0  0.00000000000E+00  0.00000000000E+00  0.20578170712E+03  0.19159368774E+04  0.19048538021E+04 0.  0.
        3    1    3    3  502    0  0.89605603036E+03 -0.29239373167E+03 -0.34676592537E+02  0.94319297079E+03  0.10100000352E+00 0. -1.
       -3    1    3    3    0  502 -0.89605603036E+03  0.29239373167E+03  0.24045829965E+03  0.97274390666E+03  0.10100000352E+00 0.  1.
</event>
<event>
 5   0  0.2608744E-04  0.1897135E+04  0.7818609E-02  0.8656284E-01
       -2   -1    0    0    0  501  0.00000000000E+00  0.00000000000E+00  0.33532771849E+03  0.33532771850E+03  0.25500000920E-02 0.  1.
        2   -1    0    0  501    0  0.00000000000E+00  0.00000000000E+00 -0.26832871516E+04  0.26832871516E+04  0.25500000920E-02 0. -1.
    10030    2    1    2    0    0  0.00000000000E+00  0.00000000000E+00 -0.23479594331E+04  0.30186148701E+04  0.18971352705E+04 0.  0.
        2    1    3    3  502    0 -0.10630538328E+03 -0.45553819523E+02  0.32406715839E+03  0.34408648352E+03  0.25500000920E-02 0.  1.
       -2    1    3    3    0  502  0.10630538328E+03  0.45553819523E+02 -0.26720265915E+04  0.26745283866E+04  0.25500000920E-02 0. -1.
</event>
<event>
 5   0  0.2651828E-04  0.1933111E+04  0.7818609E-02  0.8638548E-01
       -2   -1    0    0    0  501  0.00000000000E+00  0.00000000000E+00  0.60675292408E+03  0.60675292408E+03  0.25500000920E-02 0.  1.
        2   -1    0    0  501    0  0.00000000000E+00  0.00000000000E+00 -0.15397194940E+04  0.15397194940E+04  0.25500000920E-02 0. -1.
    10030    2    1    2    0    0  0.00000000000E+00  0.00000000000E+00 -0.93296656989E+03  0.21464724180E+04  0.19331107627E+04 0.  0.
        3    1    3    3  502    0  0.62786076114E+03  0.71896967073E+03 -0.63525537226E+03  0.11465931802E+04  0.10100000352E+00 0. -1.
       -3    1    3    3    0  502 -0.62786076114E+03 -0.71896967073E+03 -0.29771119763E+03  0.99987923780E+03  0.10100000352E+00 0.  1.
</event>
<event>
 5   0  0.1324058E-04  0.1877418E+04  0.7818609E-02  0.8666179E-01
        1   -1    0    0  501    0  0.00000000000E+00  0.00000000000E+00  0.14888472165E+04  0.14888472165E+04  0.50400001928E-02 0. -1.
       -1   -1    0    0    0  501  0.00000000000E+00  0.00000000000E+00 -0.59185037040E+03  0.59185037042E+03  0.50400001928E-02 0.  1.
    10030    2    1    2    0    0  0.00000000000E+00  0.00000000000E+00  0.89699684610E+03  0.20806975869E+04  0.18774182023E+04 0.  0.
        5    1    3    3  502    0  0.36225461261E+03 -0.85109509279E+03  0.62568893870E+03  0.11167363159E+04  0.46999998093E+01 0.  1.
       -5    1    3    3    0  502 -0.36225461261E+03  0.85109509279E+03  0.27130790741E+03  0.96396127098E+03  0.46999998093E+01 0. -1.
</event>
<event>
 5   0  0.2562925E-04  0.1893150E+04  0.7818609E-02  0.8658274E-01
       -2   -1    0    0    0  501  0.00000000000E+00  0.00000000000E+00  0.80912960173E+03  0.80912960174E+03  0.25500000920E-02 0.  1.
        2   -1    0    0  501    0  0.00000000000E+00  0.00000000000E+00 -0.11073675028E+04  0.11073675028E+04  0.25500000920E-02 0. -1.
    10030    2    1    2    0    0  0.00000000000E+00  0.00000000000E+00 -0.29823790107E+03  0.19164971045E+04  0.18931495731E+04 0.  0.
        4    1    3    3  502    0 -0.64138496962E+03 -0.24246801637E+03 -0.80972847674E+03  0.10610500635E+04  0.12699999809E+01 0. -1.
       -4    1    3    3    0  502  0.64138496962E+03  0.24246801637E+03  0.51149057567E+03  0.85544704109E+03  0.12699999809E+01 0.  1.
</event>
<event>
 5   0  0.2562925E-04  0.1919608E+04  0.7818609E-02  0.8645157E-01
       -2   -1    0    0    0  501  0.00000000000E+00  0.00000000000E+00  0.72044387063E+03  0.72044387064E+03  0.25500000920E-02 0. -1.
        2   -1    0    0  501    0  0.00000000000E+00  0.00000000000E+00 -0.12786889410E+04  0.12786889410E+04  0.25500000920E-02 0.  1.
    10030    2    1    2    0    0  0.00000000000E+00  0.00000000000E+00 -0.55824507038E+03  0.19991328116E+04  0.19196078870E+04 0.  0.
        4    1    3    3  502    0 -0.47492689176E+03 -0.54946932473E+03 -0.93261314741E+03  0.11820494858E+04  0.12699999809E+01 0.  1.
       -4    1    3    3    0  502  0.47492689176E+03  0.54946932473E+03  0.37436807703E+03  0.81708332582E+03  0.12699999809E+01 0. -1.
</event>
<event>
 5   0  0.2608744E-04  0.1778354E+04  0.7818609E-02  0.8717896E-01
       -2   -1    0    0    0  501  0.00000000000E+00  0.00000000000E+00  0.39004437720E+03  0.39004437721E+03  0.25500000920E-02 0. -1.
        2   -1    0    0  501    0  0.00000000000E+00  0.00000000000E+00 -0.20270399623E+04  0.20270399623E+04  0.25500000920E-02 0.  1.
    10030    2    1    2    0    0  0.00000000000E+00  0.00000000000E+00 -0.16369955851E+04  0.24170843395E+04  0.17783537777E+04 0.  0.
        2    1    3    3  502    0  0.61002940055E+03 -0.90251633440E+02 -0.16891669169E+04  0.17982119175E+04  0.25500000920E-02 0.  1.
       -2    1    3    3    0  502 -0.61002940055E+03  0.90251633440E+02  0.52171331842E+02  0.61887242203E+03  0.25500000920E-02 0. -1.
</event>
<event>
 5   0  0.1324058E-04  0.1898784E+04  0.7818609E-02  0.8655462E-01
        1   -1    0    0  501    0  0.00000000000E+00  0.00000000000E+00  0.10857181917E+04  0.10857181918E+04  0.50400001928E-02 0. -1.
       -1   -1    0    0    0  501  0.00000000000E+00  0.00000000000E+00 -0.83018339010E+03  0.83018339012E+03  0.50400001928E-02 0.  1.
    10030    2    1    2    0    0  0.00000000000E+00  0.00000000000E+00  0.25553480164E+03  0.19159015819E+04  0.18987840416E+04 0.  0.
        5    1    3    3  502    0  0.83612220712E+03 -0.16463159100E+03  0.55001240665E+03  0.10142680333E+04  0.46999998093E+01 0. -1.
       -5    1    3    3    0  502 -0.83612220712E+03  0.16463159100E+03 -0.29447760501E+03  0.90163354853E+03  0.46999998093E+01 0.  1.
</event>
<event>
 5   0  0.2651828E-04  0.1875153E+04  0.7818609E-02  0.8667324E-01
        2   -1    0    0  501    0  0.00000000000E+00  0.00000000000E+00  0.64254910933E+03  0.64254910934E+03  0.25500000920E-02 0.  1.
       -2   -1    0    0    0  501  0.00000000000E+00  0.00000000000E+00 -0.13680666388E+04  0.13680666388E+04  0.25500000920E-02 0. -1.
    10030    2    1    2    0    0  0.00000000000E+00  0.00000000000E+00 -0.72551752951E+03  0.20106157482E+04  0.18751533274E+04 0.  0.
        3    1    3    3  502    0  0.33940891636E+03 -0.16252953020E+03 -0.12835355958E+04  0.13375641654E+04  0.10100000352E+00 0. -1.
       -3    1    3    3    0  502 -0.33940891636E+03  0.16252953020E+03  0.55801806624E+03  0.67305158282E+03  0.10100000352E+00 0.  1.
</event>
<event>
 5   0  0.9266125E-05  0.1903045E+04  0.7818609E-02  0.8653342E-01
        3   -1    0    0  501    0  0.00000000000E+00  0.00000000000E+00  0.95591114388E+03  0.95591114922E+03  0.10100000352E+00 0.  1.
       -3   -1    0    0    0  501  0.00000000000E+00  0.00000000000E+00 -0.94715352732E+03  0.94715353271E+03  0.10100000352E+00 0. -1.
    10030    2    1    2    0    0  0.00000000000E+00  0.00000000000E+00  0.87576165629E+01  0.19030646819E+04  0.19030445312E+04 0.  0.
        3    1    3    3  502    0 -0.75166599095E+03  0.83244674132E+02 -0.57309000986E+03  0.94887491658E+03  0.10100000352E+00 0. -1.
       -3    1    3    3    0  502  0.75166599095E+03 -0.83244674132E+02  0.58184762642E+03  0.95418976535E+03  0.10100000352E+00 0.  1.
</event>
<event>
 5   0  0.1239615E-04  0.1855671E+04  0.7818609E-02  0.8677242E-01
       -1   -1    0    0    0  501  0.00000000000E+00  0.00000000000E+00  0.11843277558E+04  0.11843277558E+04  0.50400001928E-02 0. -1.
        1   -1    0    0  501    0  0.00000000000E+00  0.00000000000E+00 -0.72689236798E+03  0.72689236800E+03  0.50400001928E-02 0.  1.
    10030    2    1    2    0    0  0.00000000000E+00  0.00000000000E+00  0.45743538783E+03  0.19112201238E+04  0.18556710990E+04 0.  0.
        3    1    3    3  502    0  0.76831502418E+03 -0.16320013203E+03 -0.27996637084E+03  0.83386056297E+03  0.10100000352E+00 0.  1.
       -3    1    3    3    0  502 -0.76831502418E+03  0.16320013203E+03  0.73740175867E+03  0.10773595609E+04  0.10100000352E+00 0. -1.
</event>
<event>
 5   0  0.9266125E-05  0.1876246E+04  0.7818609E-02  0.8666771E-01
       -3   -1    0    0    0  501  0.00000000000E+00  0.00000000000E+00  0.66557291232E+03  0.66557291999E+03  0.10100000352E+00 0. -1.
        3   -1    0    0  501    0  0.00000000000E+00  0.00000000000E+00 -0.13222816750E+04  0.13222816789E+04  0.10100000352E+00 0.  1.
    10030    2    1    2    0    0  0.00000000000E+00  0.00000000000E+00 -0.65670876272E+03  0.19878545989E+04  0.18762461212E+04 0.  0.
        5    1    3    3  502    0  0.85692464566E+03 -0.21725152780E+03  0.42204913705E+01  0.88405767754E+03  0.46999998093E+01 0. -1.
       -5    1    3    3    0  502 -0.85692464566E+03  0.21725152780E+03 -0.66092925409E+03  0.11037969214E+04  0.46999998093E+01 0.  1.
</event>
<event>
 5   0  0.2562925E-04  0.1882374E+04  0.7818609E-02  0.8663680E-01
        2   -1    0    0  501    0  0.00000000000E+00  0.00000000000E+00  0.11797703225E+04  0.11797703225E+04  0.25500000920E-02 0.  1.
       -2   -1    0    0    0  501  0.00000000000E+00  0.00000000000E+00 -0.75085240407E+03  0.75085240407E+03  0.25500000920E-02 0. -1.
    10030    2    1    2    0    0  0.00000000000E+00  0.00000000000E+00  0.42891791846E+03  0.19306227266E+04  0.18823744398E+04 0.  0.
        4    1    3    3  502    0  0.75483038976E+03 -0.40035565968E+02 -0.36068174717E+03  0.83753489449E+03  0.12699999809E+01 0. -1.
       -4    1    3    3    0  502 -0.75483038976E+03  0.40035565968E+02  0.78959966563E+03  0.10930878321E+04  0.12699999809E+01 0.  1.
</event>
<event>
 5   0  0.1277709E-04  0.1595113E+04  0.7818609E-02  0.8823556E-01
       -1   -1    0    0    0  501  0.00000000000E+00  0.00000000000E+00  0.75202439380E+03  0.75202439382E+03  0.50400001928E-02 0.  1.
        1   -1    0    0  501    0  0.00000000000E+00  0.00000000000E+00 -0.84584556804E+03  0.84584556805E+03  0.50400001928E-02 0. -1.
    10030    2    1    2    0    0  0.00000000000E+00  0.00000000000E+00 -0.93821174239E+02  0.15978699619E+04  0.15951131629E+04 0.  0.
        4    1    3    3  502    0 -0.45632113282E+03 -0.12327092497E+02 -0.70203931417E+03  0.83740178231E+03  0.12699999809E+01 0. -1.
       -4    1    3    3    0  502  0.45632113282E+03  0.12327092497E+02  0.60821813994E+03  0.76046817956E+03  0.12699999809E+01 0.  1.
</event>
<event>
 5   0  0.1239615E-04  0.1899547E+04  0.7818609E-02  0.8655082E-01
       -1   -1    0    0    0  501  0.00000000000E+00  0.00000000000E+00  0.80427068993E+03  0.80427068994E+03  0.50400001928E-02 0. -1.
        1   -1    0    0  501    0  0.00000000000E+00  0.00000000000E+00 -0.11215997700E+04  0.11215997700E+04  0.50400001928E-02 0.  1.
    10030    2    1    2    0    0  0.00000000000E+00  0.00000000000E+00 -0.31732908004E+03  0.19258704599E+04  0.18995471259E+04 0.  0.
        3    1    3    3  502    0  0.40700944012E+03 -0.72423641454E+03  0.30803469558E+03  0.88603637193E+03  0.10100000352E+00 0. -1.
       -3    1    3    3    0  502 -0.40700944012E+03  0.72423641454E+03 -0.62536377562E+03  0.10398340880E+04  0.10100000352E+00 0.  1.
</event>
<event>
 5   0  0.2608744E-04  0.1879919E+04  0.7818609E-02  0.8664917E-01
       -2   -1    0    0    0  501  0.00000000000E+00  0.00000000000E+00  0.52505390732E+03  0.52505390733E+03  0.25500000920E-02 0. -1.
        2   -1    0    0  501    0  0.00000000000E+00  0.00000000000E+00 -0.16827299244E+04  0.16827299244E+04  0.25500000920E-02 0.  1.
    10030    2    1    2    0    0  0.00000000000E+00  0.00000000000E+00 -0.11576760170E+04  0.22077838317E+04  0.18799190640E+04 0.  0.
        2    1    3    3  502    0  0.68027184313E+03  0.18368396809E+03 -0.13094401245E+04  0.14869912644E+04  0.25500000920E-02 0.  1.
       -2    1    3    3    0  502 -0.68027184313E+03 -0.18368396809E+03  0.15176410751E+03  0.72079256727E+03  0.25500000920E-02 0. -1.
</event>
<event>
 5   0  0.1239615E-04  0.1952425E+04  0.7818609E-02  0.8629192E-01
        1   -1    0    0  501    0  0.00000000000E+00  0.00000000000E+00  0.89786757099E+03  0.89786757100E+03  0.50400001928E-02 0. -1.
       -1   -1    0    0    0  501  0.00000000000E+00  0.00000000000E+00 -0.10613933076E+04  0.10613933076E+04  0.50400001928E-02 0.  1.
    10030    2    1    2    0    0  0.00000000000E+00  0.00000000000E+00 -0.16352573664E+03  0.19592608786E+04  0.19524247806E+04 0.  0.
        3    1    3    3  502    0 -0.13727678778E+03  0.96225110356E+03 -0.17273632820E+03  0.98722335469E+03  0.10100000352E+00 0.  1.
       -3    1    3    3    0  502  0.13727678778E+03 -0.96225110356E+03  0.92105915619E+01  0.97203752395E+03  0.10100000352E+00 0. -1.
</event>
<event>
 5   0  0.2562925E-04  0.1869106E+04  0.7818609E-02  0.8670389E-01
       -2   -1    0    0    0  501  0.00000000000E+00  0.00000000000E+00  0.90022401064E+03  0.90022401064E+03  0.25500000920E-02 0. -1.
        2   -1    0    0  501    0  0.00000000000E+00  0.00000000000E+00 -0.97019125910E+03  0.97019125910E+03  0.25500000920E-02 0.  1.
    10030    2    1    2    0    0  0.00000000000E+00  0.00000000000E+00 -0.69967248460E+02  0.18704152697E+04  0.18691061675E+04 0.  0.
        4    1    3    3  502    0 -0.23416583606E+03 -0.45041250674E+03 -0.82018775433E+03  0.96458002792E+03  0.12699999809E+01 0.  1.
       -4    1    3    3    0  502  0.23416583606E+03  0.45041250674E+03  0.75022050587E+03  0.90583524183E+03  0.12699999809E+01 0. -1.
</event>
<event>
 5   0  0.2595012E-04  0.1685687E+04  0.7818609E-02  0.8769570E-01
       -2   -1    0    0    0  501  0.00000000000E+00  0.00000000000E+00  0.57216999093E+03  0.57216999094E+03  0.25500000920E-02 0.  1.
        2   -1    0    0  501    0  0.00000000000E+00  0.00000000000E+00 -0.12415635710E+04  0.12415635710E+04  0.25500000920E-02 0. -1.
    10030    2    1    2    0    0  0.00000000000E+00  0.00000000000E+00 -0.66939358011E+03  0.18137335620E+04  0.16856872986E+04 0.  0.
        1    1    3    3  502    0  0.21722758110E+03 -0.11721105630E+03 -0.12018032053E+04  0.12268892362E+04  0.50400001928E-02 0. -1.
       -1    1    3    3    0  502 -0.21722758110E+03  0.11721105630E+03  0.53240962516E+03  0.58684432578E+03  0.50400001928E-02 0.  1.
</event>
<event>
 5   0  0.2651828E-04  0.1888723E+04  0.7818609E-02  0.8660490E-01
       -2   -1    0    0    0  501  0.00000000000E+00  0.00000000000E+00  0.48120908848E+03  0.48120908848E+03  0.25500000920E-02 0. -1.
        2   -1    0    0  501    0  0.00000000000E+00  0.00000000000E+00 -0.18532881766E+04  0.18532881766E+04  0.25500000920E-02 0.  1.
    10030    2    1    2    0    0  0.00000000000E+00  0.00000000000E+00 -0.13720790882E+04  0.23344972651E+04  0.18887234993E+04 0.  0.
        3    1    3    3  502    0 -0.90546270430E+03 -0.12291290525E+03 -0.39133577823E+03  0.99403923096E+03  0.10100000352E+00 0. -1.
       -3    1    3    3    0  502  0.90546270430E+03  0.12291290525E+03 -0.98074330993E+03  0.13404580342E+04  0.10100000352E+00 0.  1.
</event>
<event>
 5   0  0.2651828E-04  0.1919025E+04  0.7818609E-02  0.8645444E-01
       -2   -1    0    0    0  501  0.00000000000E+00  0.00000000000E+00  0.10934438200E+04  0.10934438200E+04  0.25500000920E-02 0.  1.
        2   -1    0    0  501    0  0.00000000000E+00  0.00000000000E+00 -0.84198630071E+03  0.84198630071E+03  0.25500000920E-02 0. -1.
    10030    2    1    2    0    0  0.00000000000E+00  0.00000000000E+00  0.25145751925E+03  0.19354301207E+04  0.19190254996E+04 0.  0.
        3    1    3    3  502    0  0.22946777573E+03  0.90993467694E+03 -0.76051837534E+02  0.94149905395E+03  0.10100000352E+00 0.  1.
       -3    1    3    3    0  502 -0.22946777573E+03 -0.90993467694E+03  0.32750935678E+03  0.99393106671E+03  0.10100000352E+00 0. -1.
</event>
<event>
 5   0  0.2541124E-04  0.1881596E+04  0.7818609E-02  0.8664072E-01
        2   -1    0    0  501    0  0.00000000000E+00  0.00000000000E+00  0.12094934900E+04  0.12094934900E+04  0.25500000920E-02 0.  1.
       -2   -1    0    0    0  501  0.00000000000E+00  0.00000000000E+00 -0.73179477341E+03  0.73179477341E+03  0.25500000920E-02 0. -1.
    10030    2    1    2    0    0  0.00000000000E+00  0.00000000000E+00  0.47769871657E+03  0.19412882634E+04  0.18815961463E+04 0.  0.
        5    1    3    3  502    0  0.34434991943E+03  0.27875357169E+02 -0.66396827622E+03  0.74848504619E+03  0.46999998093E+01 0. -1.
       -5    1    3    3    0  502 -0.34434991943E+03 -0.27875357169E+02  0.11416669928E+04  0.11928032172E+04  0.46999998093E+01 0.  1.
</event>
<event>
 5   0  0.1239615E-04  0.1909969E+04  0.7818609E-02  0.8649910E-01
       -1   -1    0    0    0  501  0.00000000000E+00  0.00000000000E+00  0.12510146534E+04  0.12510146534E+04  0.50400001928E-02 0. -1.
        1   -1    0    0  501    0  0.00000000000E+00  0.00000000000E+00 -0.72900452808E+03  0.72900452810E+03  0.50400001928E-02 0.  1.
    10030    2    1    2    0    0  0.00000000000E+00  0.00000000000E+00  0.52201012534E+03  0.19800191815E+04  0.19099689496E+04 0.  0.
        3    1    3    3  502    0 -0.76457848000E+03 -0.46209499340E+02  0.85225569149E+03  0.11458862700E+04  0.10100000352E+00 0. -1.
       -3    1    3    3    0  502  0.76457848000E+03  0.46209499340E+02 -0.33024556616E+03  0.83413291152E+03  0.10100000352E+00 0.  1.
</event>
<event>
 5   0  0.1277709E-04  0.1884163E+04  0.7818609E-02  0.8662780E-01
       -1   -1    0    0    0  501  0.00000000000E+00  0.00000000000E+00  0.11388153236E+04  0.11388153236E+04  0.50400001928E-02 0. -1.
        1   -1    0    0  501    0  0.00000000000E+00  0.00000000000E+00 -0.77933372825E+03  0.77933372826E+03  0.50400001928E-02 0.  1.
    10030    2    1    2    0    0  0.00000000000E+00  0.00000000000E+00  0.35948159537E+03  0.19181490519E+04  0.18841626171E+04 0.  0.
        4    1    3    3  502    0  0.41457595784E+03 -0.79099035628E+03 -0.12563089968E+03  0.90184461212E+03  0.12699999809E+01 0.  1.
       -4    1    3    3    0  502 -0.41457595784E+03  0.79099035628E+03  0.48511249505E+03  0.10163044398E+04  0.12699999809E+01 0. -1.
</event>
<event>
 5   0  0.2562925E-04  0.1922864E+04  0.7818609E-02  0.8643559E-01
        2   -1    0    0  501    0  0.00000000000E+00  0.00000000000E+00  0.12929539577E+04  0.12929539577E+04  0.25500000920E-02 0. -1.
       -2   -1    0    0    0  501  0.00000000000E+00  0.00000000000E+00 -0.71491438190E+03  0.71491438191E+03  0.25500000920E-02 0.  1.
    10030    2    1    2    0    0  0.00000000000E+00  0.00000000000E+00  0.57803957582E+03  0.20078683396E+04  0.19228638844E+04 0.  0.
        4    1    3    3  502    0  0.52083396546E+03  0.34452900431E+03 -0.47431033587E+03  0.78418120482E+03  0.12699999809E+01 0.  1.
       -4    1    3    3    0  502 -0.52083396546E+03 -0.34452900431E+03  0.10523499117E+04  0.12236871348E+04  0.12699999809E+01 0. -1.
</event>
<event>
 5   0  0.1239615E-04  0.1898162E+04  0.7818609E-02  0.8655772E-01
       -1   -1    0    0    0  501  0.00000000000E+00  0.00000000000E+00  0.45248492060E+03  0.45248492063E+03  0.50400001928E-02 0.  1.
        1   -1    0    0  501    0  0.00000000000E+00  0.00000000000E+00 -0.19906851191E+04  0.19906851191E+04  0.50400001928E-02 0. -1.
    10030    2    1    2    0    0  0.00000000000E+00  0.00000000000E+00 -0.15382001985E+04  0.24431700397E+04  0.18981622671E+04 0.  0.
        3    1    3    3  502    0 -0.86950190877E+03 -0.74475328335E+02 -0.28892378948E+03  0.91926987888E+03  0.10100000352E+00 0.  1.
       -3    1    3    3    0  502  0.86950190877E+03  0.74475328335E+02 -0.12492764090E+04  0.15239001608E+04  0.10100000352E+00 0. -1.
</event>
<event>
 5   0  0.1255141E-04  0.1925828E+04  0.7818609E-02  0.8642106E-01
       -1   -1    0    0    0  501  0.00000000000E+00  0.00000000000E+00  0.37779879286E+03  0.37779879289E+03  0.50400001928E-02 0.  1.
        1   -1    0    0  501    0  0.00000000000E+00  0.00000000000E+00 -0.24542259063E+04  0.24542259063E+04  0.50400001928E-02 0. -1.
    10030    2    1    2    0    0  0.00000000000E+00  0.00000000000E+00 -0.20764271135E+04  0.28320246992E+04  0.19258282217E+04 0.  0.
        2    1    3    3  502    0  0.55236832116E+03 -0.63837975286E+03 -0.35703960262E+03  0.91657882853E+03  0.25500000920E-02 0.  1.
       -2    1    3    3    0  502 -0.55236832116E+03  0.63837975286E+03 -0.17193875109E+04  0.19154458707E+04  0.25500000920E-02 0. -1.
</event>
<event>
 5   0  0.1324058E-04  0.1936479E+04  0.7818609E-02  0.8636909E-01
       -1   -1    0    0    0  501  0.00000000000E+00  0.00000000000E+00  0.79353866820E+03  0.79353866822E+03  0.50400001928E-02 0. -1.
        1   -1    0    0  501    0  0.00000000000E+00  0.00000000000E+00 -0.11814009531E+04  0.11814009531E+04  0.50400001928E-02 0.  1.
    10030    2    1    2    0    0  0.00000000000E+00  0.00000000000E+00 -0.38786228490E+03  0.19749396213E+04  0.19364785968E+04 0.  0.
        5    1    3    3  502    0  0.11094875051E+02 -0.51451819655E+03  0.64248769928E+03  0.82320386573E+03  0.46999998093E+01 0. -1.
       -5    1    3    3    0  502 -0.11094875051E+02  0.51451819655E+03 -0.10303499842E+04  0.11517357556E+04  0.46999998093E+01 0.  1.
</event>
<event>
 5   0  0.1239615E-04  0.1909010E+04  0.7818609E-02  0.8650385E-01
       -1   -1    0    0    0  501  0.00000000000E+00  0.00000000000E+00  0.98876625407E+03  0.98876625408E+03  0.50400001928E-02 0. -1.
        1   -1    0    0  501    0  0.00000000000E+00  0.00000000000E+00 -0.92143083037E+03  0.92143083038E+03  0.50400001928E-02 0.  1.
    10030    2    1    2    0    0  0.00000000000E+00  0.00000000000E+00  0.67335423698E+02  0.19101970845E+04  0.19090099115E+04 0.  0.
        3    1    3    3  502    0 -0.77190368780E+03  0.36951457698E+02  0.59426515895E+03  0.97485988881E+03  0.10100000352E+00 0. -1.
       -3    1    3    3    0  502  0.77190368780E+03 -0.36951457698E+02 -0.52692973526E+03  0.93533719565E+03  0.10100000352E+00 0.  1.
</event>
<event>
 5   0  0.1324058E-04  0.2032890E+04  0.7818609E-02  0.8591396E-01
       -1   -1    0    0    0  501  0.00000000000E+00  0.00000000000E+00  0.74161779894E+03  0.74161779895E+03  0.50400001928E-02 0. -1.
        1   -1    0    0  501    0  0.00000000000E+00  0.00000000000E+00 -0.13931169792E+04  0.13931169793E+04  0.50400001928E-02 0.  1.
    10030    2    1    2    0    0  0.00000000000E+00  0.00000000000E+00 -0.65149918031E+03  0.21347347782E+04  0.20328899113E+04 0.  0.
        5    1    3    3  502    0  0.10080986313E+04  0.12989745534E+03 -0.32725620757E+03  0.10678271933E+04  0.46999998093E+01 0.  1.
       -5    1    3    3    0  502 -0.10080986313E+04 -0.12989745534E+03 -0.32424297275E+03  0.10669075849E+04  0.46999998093E+01 0. -1.
</event>
<event>
 5   0  0.1255141E-04  0.1957313E+04  0.7818609E-02  0.8626843E-01
        1   -1    0    0  501    0  0.00000000000E+00  0.00000000000E+00  0.10573771700E+04  0.10573771700E+04  0.50400001928E-02 0. -1.
       -1   -1    0    0    0  501  0.00000000000E+00  0.00000000000E+00 -0.90579617282E+03  0.90579617283E+03  0.50400001928E-02 0.  1.
    10030    2    1    2    0    0  0.00000000000E+00  0.00000000000E+00  0.15158099718E+03  0.19631733428E+04  0.19573126412E+04 0.  0.
        2    1    3    3  502    0  0.59800932416E+03 -0.98232704912E+02  0.84653358967E+03  0.10410974664E+04  0.25500000920E-02 0. -1.
       -2    1    3    3    0  502 -0.59800932416E+03  0.98232704912E+02 -0.69495259249E+03  0.92207587644E+03  0.25500000920E-02 0.  1.
</event>
<event>
 5   0  0.1255141E-04  0.1838360E+04  0.7818609E-02  0.8686162E-01
       -1   -1    0    0    0  501  0.00000000000E+00  0.00000000000E+00  0.49418162336E+03  0.49418162339E+03  0.50400001928E-02 0.  1.
        1   -1    0    0  501    0  0.00000000000E+00  0.00000000000E+00 -0.17096788512E+04  0.17096788512E+04  0.50400001928E-02 0. -1.
    10030    2    1    2    0    0  0.00000000000E+00  0.00000000000E+00 -0.12154972278E+04  0.22038604746E+04  0.18383599975E+04 0.  0.
        2    1    3    3  502    0 -0.15515172581E+02 -0.74499628811E+03 -0.12529221821E+04  0.14577634185E+04  0.25500000920E-02 0. -1.
       -2    1    3    3    0  502  0.15515172581E+02  0.74499628811E+03  0.37424954302E+02  0.74609705607E+03  0.25500000920E-02 0.  1.
</event>
<event>
 5   0  0.2541124E-04  0.1904369E+04  0.7818609E-02  0.8652685E-01
        2   -1    0    0  501    0  0.00000000000E+00  0.00000000000E+00  0.99297559923E+03  0.99297559924E+03  0.25500000920E-02 0. -1.
       -2   -1    0    0    0  501  0.00000000000E+00  0.00000000000E+00 -0.91306878155E+03  0.91306878155E+03  0.25500000920E-02 0.  1.
    10030    2    1    2    0    0  0.00000000000E+00  0.00000000000E+00  0.79906817685E+02  0.19060443808E+04  0.19043686833E+04 0.  0.
        5    1    3    3  502    0 -0.21626992907E+03  0.61915826643E+03 -0.65094617183E+03  0.92405770909E+03  0.46999998093E+01 0.  1.
       -5    1    3    3    0  502  0.21626992907E+03 -0.61915826643E+03  0.73085298951E+03  0.98198667170E+03  0.46999998093E+01 0. -1.
</event>
<event>
 5   0  0.1239615E-04  0.1939085E+04  0.7818609E-02  0.8635642E-01
       -1   -1    0    0    0  501  0.00000000000E+00  0.00000000000E+00  0.80455035908E+03  0.80455035910E+03  0.50400001928E-02 0.  1.
        1   -1    0    0  501    0  0.00000000000E+00  0.00000000000E+00 -0.11683698355E+04  0.11683698355E+04  0.50400001928E-02 0. -1.
    10030    2    1    2    0    0  0.00000000000E+00  0.00000000000E+00 -0.36381947638E+03  0.19729201946E+04  0.19390847023E+04 0.  0.
        3    1    3    3  502    0  0.40896631580E+03 -0.26881652103E+03  0.66965123793E+03  0.82942664540E+03  0.10100000352E+00 0.  1.
       -3    1    3    3    0  502 -0.40896631580E+03  0.26881652103E+03 -0.10334707143E+04  0.11434935492E+04  0.10100000352E+00 0. -1.
</event>
<event>
 5   0  0.2541124E-04  0.1915897E+04  0.7818609E-02  0.8646984E-01
       -2   -1    0    0    0  501  0.00000000000E+00  0.00000000000E+00  0.13166280474E+04  0.13166280474E+04  0.25500000920E-02 0.  1.
        2   -1    0    0  501    0  0.00000000000E+00  0.00000000000E+00 -0.69698137611E+03  0.69698137612E+03  0.25500000920E-02 0. -1.
    10030    2    1    2    0    0  0.00000000000E+00  0.00000000000E+00  0.61964667124E+03  0.20136094235E+04  0.19158968952E+04 0.  0.
        5    1    3    3  502    0  0.20481614879E+03  0.28271776115E+03  0.12473751671E+04  0.12953169052E+04  0.46999998093E+01 0.  1.
       -5    1    3    3    0  502 -0.20481614879E+03 -0.28271776115E+03 -0.62772849589E+03  0.71829251829E+03  0.46999998093E+01 0. -1.
</event>
<event>
 5   0  0.1239615E-04  0.1903318E+04  0.7818609E-02  0.8653206E-01
       -1   -1    0    0    0  501  0.00000000000E+00  0.00000000000E+00  0.93707869665E+03  0.93707869666E+03  0.50400001928E-02 0.  1.
        1   -1    0    0  501    0  0.00000000000E+00  0.00000000000E+00 -0.96646660407E+03  0.96646660408E+03  0.50400001928E-02 0. -1.
    10030    2    1    2    0    0  0.00000000000E+00  0.00000000000E+00 -0.29387907416E+02  0.19035453007E+04  0.19033184344E+04 0.  0.
        3    1    3    3  502    0  0.55136805307E+02 -0.49836327977E+03 -0.82364710782E+03  0.96426168354E+03  0.10100000352E+00 0. -1.
       -3    1    3    3    0  502 -0.55136805307E+02  0.49836327977E+03  0.79425920040E+03  0.93928361720E+03  0.10100000352E+00 0.  1.
</event>
<event>
 5   0  0.2562925E-04  0.1880924E+04  0.7818609E-02  0.8664411E-01
       -2   -1    0    0    0  501  0.00000000000E+00  0.00000000000E+00  0.75930669508E+03  0.75930669508E+03  0.25500000920E-02 0.  1.
        2   -1    0    0  501    0  0.00000000000E+00  0.00000000000E+00 -0.11648370397E+04  0.11648370397E+04  0.25500000920E-02 0. -1.
    10030    2    1    2    0    0  0.00000000000E+00  0.00000000000E+00 -0.40553034466E+03  0.19241437348E+04  0.18809237762E+04 0.  0.
        4    1    3    3  502    0  0.40199708533E+03  0.68365326766E+02 -0.10696999748E+04  0.11447860602E+04  0.12699999809E+01 0. -1.
       -4    1    3    3    0  502 -0.40199708533E+03 -0.68365326766E+02  0.66416963016E+03  0.77935767466E+03  0.12699999809E+01 0.  1.
</event>
<event>
 5   0  0.1277709E-04  0.1560649E+04  0.7818609E-02  0.8845095E-01
        1   -1    0    0  501    0  0.00000000000E+00  0.00000000000E+00  0.23866263858E+04  0.23866263858E+04  0.50400001928E-02 0.  1.
       -1   -1    0    0    0  501  0.00000000000E+00  0.00000000000E+00 -0.25513249713E+03  0.25513249718E+03  0.50400001928E-02 0. -1.
    10030    2    1    2    0    0  0.00000000000E+00  0.00000000000E+00  0.21314938886E+04  0.26417588829E+04  0.15606485185E+04 0.  0.
        4    1    3    3  502    0  0.56696717714E+03  0.40358027989E+03  0.46829302209E+03  0.83882583991E+03  0.12699999809E+01 0. -1.
       -4    1    3    3    0  502 -0.56696717714E+03 -0.40358027989E+03  0.16632008665E+04  0.18029330430E+04  0.12699999809E+01 0.  1.
</event>
<event>
 5   0  0.2562925E-04  0.1900375E+04  0.7818609E-02  0.8654670E-01
        2   -1    0    0  501    0  0.00000000000E+00  0.00000000000E+00  0.12325584665E+04  0.12325584665E+04  0.25500000920E-02 0. -1.
       -2   -1    0    0    0  501  0.00000000000E+00  0.00000000000E+00 -0.73250598055E+03  0.73250598056E+03  0.25500000920E-02 0.  1.
    10030    2    1    2    0    0  0.00000000000E+00  0.00000000000E+00  0.50005248597E+03  0.19650644471E+04  0.19003751715E+04 0.  0.
        4    1    3    3  502    0  0.59400563887E+03 -0.73602447573E+03  0.15593365069E+03  0.95858836014E+03  0.12699999809E+01 0. -1.
       -4    1    3    3    0  502 -0.59400563887E+03  0.73602447573E+03  0.34411883528E+03  0.10064760869E+04  0.12699999809E+01 0.  1.
</event>
<event>
 5   0  0.2608744E-04  0.1897882E+04  0.7818609E-02  0.8655911E-01
       -2   -1    0    0    0  501  0.00000000000E+00  0.00000000000E+00  0.97016590415E+03  0.97016590415E+03  0.25500000920E-02 0. -1.
        2   -1    0    0  501    0  0.00000000000E+00  0.00000000000E+00 -0.92818063228E+03  0.92818063228E+03  0.25500000920E-02 0.  1.
    10030    2    1    2    0    0  0.00000000000E+00  0.00000000000E+00  0.41985271867E+02  0.18983465364E+04  0.18978821906E+04 0.  0.
        2    1    3    3  502    0 -0.15977814050E+03  0.60044001236E+03  0.73840722859E+03  0.96504015350E+03  0.25500000920E-02 0. -1.
       -2    1    3    3    0  502  0.15977814050E+03 -0.60044001236E+03 -0.69642195672E+03  0.93330638294E+03  0.25500000920E-02 0.  1.
</event>
<event>
 5   0  0.1317527E-04  0.1849690E+04  0.7818609E-02  0.8680312E-01
       -1   -1    0    0    0  501  0.00000000000E+00  0.00000000000E+00  0.15606381510E+04  0.15606381510E+04  0.50400001928E-02 0. -1.
        1   -1    0    0  501    0  0.00000000000E+00  0.00000000000E+00 -0.54806954734E+03  0.54806954737E+03  0.50400001928E-02 0.  1.
    10030    2    1    2    0    0  0.00000000000E+00  0.00000000000E+00  0.10125686037E+04  0.21087076984E+04  0.18496899686E+04 0.  0.
        1    1    3    3  502    0  0.12449698540E+03  0.68689705835E+03 -0.18530449059E+03  0.72226367928E+03  0.50400001928E-02 0.  1.
       -1    1    3    3    0  502 -0.12449698540E+03 -0.68689705835E+03  0.11978730943E+04  0.13864440191E+04  0.50400001928E-02 0. -1.
</event>
<event>
 5   0  0.1317527E-04  0.1896616E+04  0.7818609E-02  0.8656543E-01
        1   -1    0    0  501    0  0.00000000000E+00  0.00000000000E+00  0.15276012125E+04  0.15276012126E+04  0.50400001928E-02 0.  1.
       -1   -1    0    0    0  501  0.00000000000E+00  0.00000000000E+00 -0.58869291979E+03  0.58869291981E+03  0.50400001928E-02 0. -1.
    10030    2    1    2    0    0  0.00000000000E+00  0.00000000000E+00  0.93890829276E+03  0.21162941324E+04  0.18966159528E+04 0.  0.
        1    1    3    3  502    0  0.62471969006E+03  0.67763368947E+03  0.71852576758E+03  0.11686493858E+04  0.50400001928E-02 0. -1.
       -1    1    3    3    0  502 -0.62471969006E+03 -0.67763368947E+03  0.22038252517E+03  0.94764474656E+03  0.50400001928E-02 0.  1.
</event>
<event>
 5   0  0.2541124E-04  0.1878663E+04  0.7818609E-02  0.8665551E-01
        2   -1    0    0  501    0  0.00000000000E+00  0.00000000000E+00  0.12751602836E+04  0.12751602836E+04  0.25500000920E-02 0. -1.
       -2   -1    0    0    0  501  0.00000000000E+00  0.00000000000E+00 -0.69194744349E+03  0.69194744349E+03  0.25500000920E-02 0.  1.
    10030    2    1    2    0    0  0.00000000000E+00  0.00000000000E+00  0.58321284007E+03  0.19671077270E+04  0.18786632463E+04 0.  0.
        5    1    3    3  502    0 -0.43570059328E+03 -0.63447269598E+02 -0.57719186376E+03  0.72597045435E+03  0.46999998093E+01 0.  1.
       -5    1    3    3    0  502  0.43570059328E+03  0.63447269598E+02  0.11604047038E+04  0.12411372727E+04  0.46999998093E+01 0. -1.
</event>
<event>
 5   0  0.2651828E-04  0.1794967E+04  0.7818609E-02  0.8708980E-01
        2   -1    0    0  501    0  0.00000000000E+00  0.00000000000E+00  0.63945968926E+03  0.63945968926E+03  0.25500000920E-02 0. -1.
       -2   -1    0    0    0  501  0.00000000000E+00  0.00000000000E+00 -0.12596208134E+04  0.12596208134E+04  0.25500000920E-02 0.  1.
    10030    2    1    2    0    0  0.00000000000E+00  0.00000000000E+00 -0.62016112415E+03  0.18990805027E+04  0.17949671127E+04 0.  0.
        3    1    3    3  502    0  0.67351851004E+03  0.22704081181E+03  0.26970313434E+03  0.76020688267E+03  0.10100000352E+00 0. -1.
       -3    1    3    3    0  502 -0.67351851004E+03 -0.22704081181E+03 -0.88986425849E+03  0.11388736200E+04  0.10100000352E+00 0.  1.
</event>
<event>
 5   0  0.2541124E-04  0.1908465E+04  0.7818609E-02  0.8650654E-01
        2   -1    0    0  501    0  0.00000000000E+00  0.00000000000E+00  0.16212808218E+04  0.16212808218E+04  0.25500000920E-02 0.  1.
       -2   -1    0    0    0  501  0.00000000000E+00  0.00000000000E+00 -0.56162977009E+03  0.56162977009E+03  0.25500000920E-02 0. -1.
    10030    2    1    2    0    0  0.00000000000E+00  0.00000000000E+00  0.10596510517E+04  0.21829105919E+04  0.19084649069E+04 0.  0.
        5    1    3    3  502    0  0.52465084313E+03  0.11112958779E+03  0.14325830393E+04  0.15296811913E+04  0.46999998093E+01 0.  1.
       -5    1    3    3    0  502 -0.52465084313E+03 -0.11112958779E+03 -0.37293198758E+03  0.65322940062E+03  0.46999998093E+01 0. -1.
</event>
<event>
 5   0  0.1255141E-04  0.1914032E+04  0.7818609E-02  0.8647903E-01
        1   -1    0    0  501    0  0.00000000000E+00  0.00000000000E+00  0.99513898936E+03  0.99513898938E+03  0.50400001928E-02 0.  1.
       -1   -1    0    0    0  501  0.00000000000E+00  0.00000000000E+00 -0.92035323966E+03  0.92035323967E+03  0.50400001928E-02 0. -1.
    10030    2    1    2    0    0  0.00000000000E+00  0.00000000000E+00  0.74785749705E+02  0.19154922290E+04  0.19140317581E+04 0.  0.
        2    1    3    3  502    0  0.32102023199E+03 -0.83461263869E+02 -0.86098894058E+03  0.92267097479E+03  0.25500000920E-02 0. -1.
       -2    1    3    3    0  502 -0.32102023199E+03  0.83461263869E+02  0.93577469029E+03  0.99282125426E+03  0.25500000920E-02 0.  1.
</event>
<event>
 5   0  0.2562925E-04  0.1906845E+04  0.7818609E-02  0.8651456E-01
        2   -1    0    0  501    0  0.00000000000E+00  0.00000000000E+00  0.80676847228E+03  0.80676847228E+03  0.25500000920E-02 0.  1.
       -2   -1    0    0    0  501  0.00000000000E+00  0.00000000000E+00 -0.11267356876E+04  0.11267356876E+04  0.25500000920E-02 0. -1.
    10030    2    1    2    0    0  0.00000000000E+00  0.00000000000E+00 -0.31996721528E+03  0.19335041598E+04  0.19068453837E+04 0.  0.
        4    1    3    3  502    0  0.82134825969E+03 -0.27421429081E+03 -0.56456919165E+03  0.10337051930E+04  0.12699999809E+01 0. -1.
       -4    1    3    3    0  502 -0.82134825969E+03  0.27421429081E+03  0.24460197637E+03  0.89979896684E+03  0.12699999809E+01 0.  1.
</event>
<event>
 5   0  0.1239615E-04  0.1903298E+04  0.7818609E-02  0.8653216E-01
        1   -1    0    0  501    0  0.00000000000E+00  0.00000000000E+00  0.12263275250E+04  0.12263275250E+04  0.50400001928E-02 0. -1.
       -1   -1    0    0    0  501  0.00000000000E+00  0.00000000000E+00 -0.73849427938E+03  0.73849427940E+03  0.50400001928E-02 0.  1.
    10030    2    1    2    0    0  0.00000000000E+00  0.00000000000E+00  0.48783324559E+03  0.19648218044E+04  0.19032980448E+04 0.  0.
        3    1    3    3  502    0 -0.25482206743E+03 -0.30769986640E+03  0.11355622605E+04  0.12037919884E+04  0.10100000352E+00 0. -1.
       -3    1    3    3    0  502  0.25482206743E+03  0.30769986640E+03 -0.64772901488E+03  0.76102981594E+03  0.10100000352E+00 0.  1.
</event>
<event>
 5   0  0.2651828E-04  0.1870454E+04  0.7818609E-02  0.8669705E-01
        2   -1    0    0  501    0  0.00000000000E+00  0.00000000000E+00  0.97368728422E+03  0.97368728422E+03  0.25500000920E-02 0.  1.
       -2   -1    0    0    0  501  0.00000000000E+00  0.00000000000E+00 -0.89828575364E+03  0.89828575365E+03  0.25500000920E-02 0. -1.
    10030    2    1    2    0    0  0.00000000000E+00  0.00000000000E+00  0.75401530577E+02  0.18719730379E+04  0.18704538657E+04 0.  0.
        3    1    3    3  502    0  0.46157305608E+03  0.33917121767E+03 -0.70219841397E+03  0.90618399002E+03  0.10100000352E+00 0.  1.
       -3    1    3    3    0  502 -0.46157305608E+03 -0.33917121767E+03  0.77759994455E+03  0.96578904785E+03  0.10100000352E+00 0. -1.
</event>
<event>
 5   0  0.1317527E-04  0.1902802E+04  0.7818609E-02  0.8653463E-01
        1   -1    0    0  501    0  0.00000000000E+00  0.00000000000E+00  0.19750318817E+04  0.19750318817E+04  0.50400001928E-02 0.  1.
       -1   -1    0    0    0  501  0.00000000000E+00  0.00000000000E+00 -0.45830354759E+03  0.45830354762E+03  0.50400001928E-02 0. -1.
    10030    2    1    2    0    0  0.00000000000E+00  0.00000000000E+00  0.15167283341E+04  0.24333354293E+04  0.19028022683E+04 0.  0.
        1    1    3    3  502    0  0.31742260877E+03  0.71801404476E+03  0.14456765289E+04  0.16450780855E+04  0.50400001928E-02 0.  1.
       -1    1    3    3    0  502 -0.31742260877E+03 -0.71801404476E+03  0.71051805162E+02  0.78825734381E+03  0.50400001928E-02 0. -1.
</event>
<event>
 5   0  0.2541124E-04  0.1843684E+04  0.7818609E-02  0.8683408E-01
       -2   -1    0    0    0  501  0.00000000000E+00  0.00000000000E+00  0.79013271535E+03  0.79013271536E+03  0.25500000920E-02 0. -1.
        2   -1    0    0  501    0  0.00000000000E+00  0.00000000000E+00 -0.10755056930E+04  0.10755056930E+04  0.25500000920E-02 0.  1.
    10030    2    1    2    0    0  0.00000000000E+00  0.00000000000E+00 -0.28537297763E+03  0.18656384083E+04  0.18436835234E+04 0.  0.
        5    1    3    3  502    0  0.81236240202E+02  0.29786248916E+03 -0.10216198975E+04  0.10672631794E+04  0.46999998093E+01 0.  1.
       -5    1    3    3    0  502 -0.81236240202E+02 -0.29786248916E+03  0.73624691986E+03  0.79837522893E+03  0.46999998093E+01 0. -1.
</event>
<event>
 5   0  0.1277709E-04  0.1902524E+04  0.7818609E-02  0.8653601E-01
       -1   -1    0    0    0  501  0.00000000000E+00  0.00000000000E+00  0.90600416687E+03  0.90600416688E+03  0.50400001928E-02 0. -1.
        1   -1    0    0  501    0  0.00000000000E+00  0.00000000000E+00 -0.99878021534E+03  0.99878021536E+03  0.50400001928E-02 0.  1.
    10030    2    1    2    0    0  0.00000000000E+00  0.00000000000E+00 -0.92776048478E+02  0.19047843822E+04  0.19025236260E+04 0.  0.
        4    1    3    3  502    0  0.23682991957E+03 -0.42455795093E+03 -0.86501455283E+03  0.99226491121E+03  0.12699999809E+01 0.  1.
       -4    1    3    3    0  502 -0.23682991957E+03  0.42455795093E+03  0.77223850436E+03  0.91251947103E+03  0.12699999809E+01 0. -1.
</event>
<event>
 5   0  0.2608744E-04  0.1895187E+04  0.7818609E-02  0.8657256E-01
        2   -1    0    0  501    0  0.00000000000E+00  0.00000000000E+00  0.11219938372E+04  0.11219938372E+04  0.25500000920E-02 0.  1.
       -2   -1    0    0    0  501  0.00000000000E+00  0.00000000000E+00 -0.80030190100E+03  0.80030190100E+03  0.25500000920E-02 0. -1.
    10030    2    1    2    0    0  0.00000000000E+00  0.00000000000E+00  0.32169193621E+03  0.19222957382E+04  0.18951873795E+04 0.  0.
        2    1    3    3  502    0 -0.68774537536E+03  0.54110959664E+03  0.52955691071E+03  0.10228508291E+04  0.25500000920E-02 0.  1.
       -2    1    3    3    0  502  0.68774537536E+03 -0.54110959664E+03 -0.20786497450E+03  0.89944490911E+03  0.25500000920E-02 0. -1.
</event>
<event>
 5   0  0.2651828E-04  0.1905833E+04  0.7818609E-02  0.8651958E-01
        2   -1    0    0  501    0  0.00000000000E+00  0.00000000000E+00  0.83961529624E+03  0.83961529624E+03  0.25500000920E-02 0.  1.
       -2   -1    0    0    0  501  0.00000000000E+00  0.00000000000E+00 -0.10815075886E+04  0.10815075886E+04  0.25500000920E-02 0. -1.
    10030    2    1    2    0    0  0.00000000000E+00  0.00000000000E+00 -0.24189229233E+03  0.19211228848E+04  0.19058334810E+04 0.  0.
        3    1    3    3  502    0  0.77560449698E+03  0.26462320877E+03  0.36922907714E+03  0.89884253346E+03  0.10100000352E+00 0.  1.
       -3    1    3    3    0  502 -0.77560449698E+03 -0.26462320877E+03 -0.61112136947E+03  0.10222803514E+04  0.10100000352E+00 0. -1.
</event>
<event>
 5   0  0.1324058E-04  0.1903702E+04  0.7818609E-02  0.8653016E-01
       -1   -1    0    0    0  501  0.00000000000E+00  0.00000000000E+00  0.47006678534E+03  0.47006678537E+03  0.50400001928E-02 0.  1.
        1   -1    0    0  501    0  0.00000000000E+00  0.00000000000E+00 -0.19274298382E+04  0.19274298383E+04  0.50400001928E-02 0. -1.
    10030    2    1    2    0    0  0.00000000000E+00  0.00000000000E+00 -0.14573630529E+04  0.23974966236E+04  0.19037024432E+04 0.  0.
        5    1    3    3  502    0 -0.34437711439E+03  0.39396542560E+03 -0.17300276628E+04  0.18074352430E+04  0.46999998093E+01 0. -1.
       -5    1    3    3    0  502  0.34437711439E+03 -0.39396542560E+03  0.27266460988E+03  0.59006138067E+03  0.46999998093E+01 0.  1.
</event>
<event>
 5   0  0.9266125E-05  0.1870658E+04  0.7818609E-02  0.8669601E-01
       -4   -1    0    0    0  501  0.00000000000E+00  0.00000000000E+00  0.10393544054E+04  0.10393551813E+04  0.12699999809E+01 0.  1.
        4   -1    0    0  501    0  0.00000000000E+00  0.00000000000E+00 -0.84171355190E+03  0.84171451000E+03  0.12699999809E+01 0. -1.
    10030    2    1    2    0    0  0.00000000000E+00  0.00000000000E+00  0.19764085348E+03  0.18810696913E+04  0.18706579796E+04 0.  0.
        5    1    3    3  502    0 -0.10835277829E+03 -0.86224003310E+03  0.44660670921E+03  0.97707616999E+03  0.46999998093E+01 0.  1.
       -5    1    3    3    0  502  0.10835277829E+03  0.86224003310E+03 -0.24896585573E+03  0.90399352131E+03  0.46999998093E+01 0. -1.
</event>
<event>
 5   0  0.2562925E-04  0.1996596E+04  0.7818609E-02  0.8608214E-01
        2   -1    0    0  501    0  0.00000000000E+00  0.00000000000E+00  0.16860121622E+04  0.16860121622E+04  0.25500000920E-02 0. -1.
       -2   -1    0    0    0  501  0.00000000000E+00  0.00000000000E+00 -0.59109804643E+03  0.59109804643E+03  0.25500000920E-02 0.  1.
    10030    2    1    2    0    0  0.00000000000E+00  0.00000000000E+00  0.10949141158E+04  0.22771102087E+04  0.19965955979E+04 0.  0.
        4    1    3    3  502    0  0.30891813196E+03  0.18388480050E+03 -0.51470759837E+03  0.62782924177E+03  0.12699999809E+01 0.  1.
       -4    1    3    3    0  502 -0.30891813196E+03 -0.18388480050E+03  0.16096217142E+04  0.16492809669E+04  0.12699999809E+01 0. -1.
</event>
<event>
 5   0  0.2608744E-04  0.1904954E+04  0.7818609E-02  0.8652394E-01
        2   -1    0    0  501    0  0.00000000000E+00  0.00000000000E+00  0.21127468986E+04  0.21127468986E+04  0.25500000920E-02 0.  1.
       -2   -1    0    0    0  501  0.00000000000E+00  0.00000000000E+00 -0.42939951848E+03  0.42939951849E+03  0.25500000920E-02 0. -1.
    10030    2    1    2    0    0  0.00000000000E+00  0.00000000000E+00  0.16833473801E+04  0.25421464171E+04  0.19049540687E+04 0.  0.
        2    1    3    3  502    0  0.60190606187E+03  0.59721162428E+03  0.26265187227E+03  0.88765907729E+03  0.25500000920E-02 0. -1.
       -2    1    3    3    0  502 -0.60190606187E+03 -0.59721162428E+03  0.14206955078E+04  0.16544873398E+04  0.25500000920E-02 0.  1.
</event>
<event>
 5   0  0.1255141E-04  0.1887891E+04  0.7818609E-02  0.8660907E-01
       -1   -1    0    0    0  501  0.00000000000E+00  0.00000000000E+00  0.23809164278E+04  0.23809164278E+04  0.50400001928E-02 0.  1.
        1   -1    0    0  501    0  0.00000000000E+00  0.00000000000E+00 -0.37423957948E+03  0.37423957952E+03  0.50400001928E-02 0. -1.
    10030    2    1    2    0    0  0.00000000000E+00  0.00000000000E+00  0.20066768483E+04  0.27551560073E+04  0.18878910591E+04 0.  0.
        2    1    3    3  502    0  0.19407332802E+03  0.12852623988E+03 -0.33169765015E+03  0.40522436021E+03  0.25500000920E-02 0. -1.
       -2    1    3    3    0  502 -0.19407332802E+03 -0.12852623988E+03  0.23383744985E+04  0.23499316471E+04  0.25500000920E-02 0.  1.
</event>
<event>
 5   0  0.2562925E-04  0.1930933E+04  0.7818609E-02  0.8639611E-01
        2   -1    0    0  501    0  0.00000000000E+00  0.00000000000E+00  0.16088695062E+04  0.16088695062E+04  0.25500000920E-02 0. -1.
       -2   -1    0    0    0  501  0.00000000000E+00  0.00000000000E+00 -0.57936666666E+03  0.57936666667E+03  0.25500000920E-02 0.  1.
    10030    2    1    2    0    0  0.00000000000E+00  0.00000000000E+00  0.10295028395E+04  0.21882361729E+04  0.19309327931E+04 0.  0.
        4    1    3    3  502    0  0.40914193635E+03  0.27455893190E+03  0.14556548255E+04  0.15367863596E+04  0.12699999809E+01 0. -1.
       -4    1    3    3    0  502 -0.40914193635E+03 -0.27455893190E+03 -0.42615198596E+03  0.65144981326E+03  0.12699999809E+01 0.  1.
</event>
<event>
 5   0  0.2541124E-04  0.1893116E+04  0.7818609E-02  0.8658291E-01
        2   -1    0    0  501    0  0.00000000000E+00  0.00000000000E+00  0.20681766229E+04  0.20681766229E+04  0.25500000920E-02 0.  1.
       -2   -1    0    0    0  501  0.00000000000E+00  0.00000000000E+00 -0.43321826345E+03  0.43321826346E+03  0.25500000920E-02 0. -1.
    10030    2    1    2    0    0  0.00000000000E+00  0.00000000000E+00  0.16349583595E+04  0.25013948864E+04  0.18931158286E+04 0.  0.
        5    1    3    3  502    0 -0.11329022901E+03 -0.77508857721E+03  0.11537568755E+03  0.79178950346E+03  0.46999998093E+01 0. -1.
       -5    1    3    3    0  502  0.11329022901E+03  0.77508857721E+03  0.15195826719E+04  0.17096053829E+04  0.46999998093E+01 0.  1.
</event>
<event>
 5   0  0.2562925E-04  0.1899207E+04  0.7818609E-02  0.8655251E-01
       -2   -1    0    0    0  501  0.00000000000E+00  0.00000000000E+00  0.78224982320E+03  0.78224982320E+03  0.25500000920E-02 0. -1.
        2   -1    0    0  501    0  0.00000000000E+00  0.00000000000E+00 -0.11527608769E+04  0.11527608769E+04  0.25500000920E-02 0.  1.
    10030    2    1    2    0    0  0.00000000000E+00  0.00000000000E+00 -0.37051105371E+03  0.19350107001E+04  0.18992071948E+04 0.  0.
        4    1    3    3  502    0 -0.67584829632E+03  0.37186595557E+03  0.37898068186E+03  0.85946679905E+03  0.12699999809E+01 0. -1.
       -4    1    3    3    0  502  0.67584829632E+03 -0.37186595557E+03 -0.74949173557E+03  0.10755439011E+04  0.12699999809E+01 0.  1.
</event>
<event>
 5   0  0.2608744E-04  0.1859579E+04  0.7818609E-02  0.8675242E-01
        2   -1    0    0  501    0  0.00000000000E+00  0.00000000000E+00  0.85258597742E+03  0.85258597742E+03  0.25500000920E-02 0.  1.
       -2   -1    0    0    0  501  0.00000000000E+00  0.00000000000E+00 -0.10139835536E+04  0.10139835536E+04  0.25500000920E-02 0. -1.
    10030    2    1    2    0    0  0.00000000000E+00  0.00000000000E+00 -0.16139757616E+03  0.18665695310E+04  0.18595786180E+04 0.  0.
        2    1    3    3  502    0  0.70598936831E+03  0.12294992035E+03 -0.67535358728E+03  0.98470307146E+03  0.25500000920E-02 0. -1.
       -2    1    3    3    0  502 -0.70598936831E+03 -0.12294992035E+03  0.51395601113E+03  0.88186645954E+03  0.25500000920E-02 0.  1.
</event>
<event>
 5   0  0.9266125E-05  0.1850259E+04  0.7818609E-02  0.8680020E-01
        4   -1    0    0  501    0  0.00000000000E+00  0.00000000000E+00  0.72052388231E+03  0.72052500156E+03  0.12699999809E+01 0. -1.
       -4   -1    0    0    0  501  0.00000000000E+00  0.00000000000E+00 -0.11878343171E+04  0.11878349960E+04  0.12699999809E+01 0.  1.
    10030    2    1    2    0    0  0.00000000000E+00  0.00000000000E+00 -0.46731043478E+03  0.19083599976E+04  0.18502591272E+04 0.  0.
        2    1    3    3  502    0  0.34853868384E+03  0.49174145628E+02  0.64876127884E+03  0.73809789843E+03  0.25500000920E-02 0. -1.
       -2    1    3    3    0  502 -0.34853868384E+03 -0.49174145628E+02 -0.11160717136E+04  0.11702620991E+04  0.25500000920E-02 0.  1.
</event>
<event>
 5   0  0.1317527E-04  0.1925513E+04  0.7818609E-02  0.8642260E-01
       -1   -1    0    0    0  501  0.00000000000E+00  0.00000000000E+00  0.10863962529E+04  0.10863962529E+04  0.50400001928E-02 0. -1.
        1   -1    0    0  501    0  0.00000000000E+00  0.00000000000E+00 -0.85318802996E+03  0.85318802997E+03  0.50400001928E-02 0.  1.
    10030    2    1    2    0    0  0.00000000000E+00  0.00000000000E+00  0.23320822294E+03  0.19395842829E+04  0.19255132083E+04 0.  0.
        1    1    3    3  502    0 -0.39839131389E+03  0.23254944072E+03 -0.73461881453E+03  0.86744434060E+03  0.50400001928E-02 0.  1.
       -1    1    3    3    0  502  0.39839131389E+03 -0.23254944072E+03  0.96782703746E+03  0.10721399423E+04  0.50400001928E-02 0. -1.
</event>
<event>
 5   0  0.2651828E-04  0.1843680E+04  0.7818609E-02  0.8683410E-01
       -2   -1    0    0    0  501  0.00000000000E+00  0.00000000000E+00  0.60796799167E+03  0.60796799167E+03  0.25500000920E-02 0.  1.
        2   -1    0    0  501    0  0.00000000000E+00  0.00000000000E+00 -0.13977526611E+04  0.13977526611E+04  0.25500000920E-02 0. -1.
    10030    2    1    2    0    0  0.00000000000E+00  0.00000000000E+00 -0.78978466944E+03  0.20057206528E+04  0.18436798835E+04 0.  0.
        3    1    3    3  502    0 -0.29460731291E+03 -0.56262656609E+03 -0.11217841193E+04  0.12890856225E+04  0.10100000352E+00 0. -1.
       -3    1    3    3    0  502  0.29460731291E+03  0.56262656609E+03  0.33199944985E+03  0.71663503026E+03  0.10100000352E+00 0.  1.
</event>
<event>
 5   0  0.1317527E-04  0.1892386E+04  0.7818609E-02  0.8658656E-01
       -1   -1    0    0    0  501  0.00000000000E+00  0.00000000000E+00  0.66011307633E+03  0.66011307635E+03  0.50400001928E-02 0. -1.
        1   -1    0    0  501    0  0.00000000000E+00  0.00000000000E+00 -0.13562543346E+04  0.13562543346E+04  0.50400001928E-02 0.  1.
    10030    2    1    2    0    0  0.00000000000E+00  0.00000000000E+00 -0.69614125831E+03  0.20163674110E+04  0.18923860295E+04 0.  0.
        1    1    3    3  502    0 -0.66042189155E+03  0.26573053218E+03  0.31607273374E+03  0.77889136829E+03  0.50400001928E-02 0. -1.
       -1    1    3    3    0  502  0.66042189155E+03 -0.26573053218E+03 -0.10122139920E+04  0.12374760427E+04  0.50400001928E-02 0.  1.
</event>
<event>
 5   0  0.2608744E-04  0.1967473E+04  0.7818609E-02  0.8621981E-01
        2   -1    0    0  501    0  0.00000000000E+00  0.00000000000E+00  0.12404665869E+04  0.12404665869E+04  0.25500000920E-02 0.  1.
       -2   -1    0    0    0  501  0.00000000000E+00  0.00000000000E+00 -0.78013997669E+03  0.78013997669E+03  0.25500000920E-02 0. -1.
    10030    2    1    2    0    0  0.00000000000E+00  0.00000000000E+00  0.46032661020E+03  0.20206065636E+04  0.19674730740E+04 0.  0.
        2    1    3    3  502    0  0.25255962648E+03 -0.23193725649E+03  0.11771030722E+04  0.12260313611E+04  0.25500000920E-02 0.  1.
       -2    1    3    3    0  502 -0.25255962648E+03  0.23193725649E+03 -0.71677646200E+03  0.79457520246E+03  0.25500000920E-02 0. -1.
</event>
<event>
 5   0  0.2541124E-04  0.1894136E+04  0.7818609E-02  0.8657781E-01
        2   -1    0    0  501    0  0.00000000000E+00  0.00000000000E+00  0.91373888320E+03  0.91373888321E+03  0.25500000920E-02 0. -1.
       -2   -1    0    0    0  501  0.00000000000E+00  0.00000000000E+00 -0.98161323910E+03  0.98161323910E+03  0.25500000920E-02 0.  1.
    10030    2    1    2    0    0  0.00000000000E+00  0.00000000000E+00 -0.67874355895E+02  0.18953521223E+04  0.18941364099E+04 0.  0.
        5    1    3    3  502    0  0.39743932100E+03  0.41470931791E+02 -0.89311405660E+03  0.97844399950E+03  0.46999998093E+01 0.  1.
       -5    1    3    3    0  502 -0.39743932100E+03 -0.41470931791E+02  0.82523970070E+03  0.91690812281E+03  0.46999998093E+01 0. -1.
</event>
<event>
 5   0  0.1239615E-04  0.1898093E+04  0.7818609E-02  0.8655806E-01
        1   -1    0    0  501    0  0.00000000000E+00  0.00000000000E+00  0.80058014024E+03  0.80058014026E+03  0.50400001928E-02 0.  1.
       -1   -1    0    0    0  501  0.00000000000E+00  0.00000000000E+00 -0.11250452179E+04  0.11250452180E+04  0.50400001928E-02 0. -1.
    10030    2    1    2    0    0  0.00000000000E+00  0.00000000000E+00 -0.32446507770E+03  0.19256253582E+04  0.18980925777E+04 0.  0.
        3    1    3    3  502    0 -0.63395791299E+03  0.62556551069E+03 -0.49478924361E+03  0.10188480011E+04  0.10100000352E+00 0. -1.
       -3    1    3    3    0  502  0.63395791299E+03 -0.62556551069E+03  0.17032416591E+03  0.90677735708E+03  0.10100000352E+00 0.  1.
</event>
<event>
 5   0  0.1317527E-04  0.1933235E+04  0.7818609E-02  0.8638488E-01
        1   -1    0    0  501    0  0.00000000000E+00  0.00000000000E+00  0.10168057236E+04  0.10168057236E+04  0.50400001928E-02 0. -1.
       -1   -1    0    0    0  501  0.00000000000E+00  0.00000000000E+00 -0.91890690021E+03  0.91890690023E+03  0.50400001928E-02 0.  1.
    10030    2    1    2    0    0  0.00000000000E+00  0.00000000000E+00  0.97898823342E+02  0.19357126238E+04  0.19332354182E+04 0.  0.
        1    1    3    3  502    0  0.73021560643E+03  0.22204334633E+03  0.64286350701E+03  0.99789356556E+03  0.50400001928E-02 0. -1.
       -1    1    3    3    0  502 -0.73021560643E+03 -0.22204334633E+03 -0.54496468367E+03  0.93781905824E+03  0.50400001928E-02 0.  1.
</event>
<event>
 5   0  0.1324058E-04  0.1908289E+04  0.7818609E-02  0.8650742E-01
        1   -1    0    0  501    0  0.00000000000E+00  0.00000000000E+00  0.15206599591E+04  0.15206599591E+04  0.50400001928E-02 0.  1.
       -1   -1    0    0    0  501  0.00000000000E+00  0.00000000000E+00 -0.59868178476E+03  0.59868178479E+03  0.50400001928E-02 0. -1.
    10030    2    1    2    0    0  0.00000000000E+00  0.00000000000E+00  0.92197817433E+03  0.21193417439E+04  0.19082886767E+04 0.  0.
        5    1    3    3  502    0  0.35959602146E+03 -0.38735154904E+02  0.14415658243E+04  0.14862516027E+04  0.46999998093E+01 0.  1.
       -5    1    3    3    0  502 -0.35959602146E+03  0.38735154904E+02 -0.51958764994E+03  0.63309014117E+03  0.46999998093E+01 0. -1.
</event>
<event>
 5   0  0.9266125E-05  0.1956545E+04  0.7818609E-02  0.8627211E-01
        3   -1    0    0  501    0  0.00000000000E+00  0.00000000000E+00  0.38522188642E+03  0.38522189966E+03  0.10100000352E+00 0.  1.
       -3   -1    0    0    0  501  0.00000000000E+00  0.00000000000E+00 -0.24843258013E+04  0.24843258033E+04  0.10100000352E+00 0. -1.
    10030    2    1    2    0    0  0.00000000000E+00  0.00000000000E+00 -0.20991039148E+04  0.28695477030E+04  0.19565446007E+04 0.  0.
        3    1    3    3  502    0  0.36833113835E+03 -0.25897754498E+02 -0.23782005599E+04  0.24066940883E+04  0.10100000352E+00 0.  1.
       -3    1    3    3    0  502 -0.36833113835E+03  0.25897754498E+02  0.27909664506E+03  0.46285361471E+03  0.10100000352E+00 0. -1.
</event>
<event>
 5   0  0.1239615E-04  0.1928142E+04  0.7818609E-02  0.8640974E-01
       -1   -1    0    0    0  501  0.00000000000E+00  0.00000000000E+00  0.70792084266E+03  0.70792084268E+03  0.50400001928E-02 0.  1.
        1   -1    0    0  501    0  0.00000000000E+00  0.00000000000E+00 -0.13129049190E+04  0.13129049190E+04  0.50400001928E-02 0. -1.
    10030    2    1    2    0    0  0.00000000000E+00  0.00000000000E+00 -0.60498407633E+03  0.20208257617E+04  0.19281418585E+04 0.  0.
        3    1    3    3  502    0  0.58405440822E+03 -0.20443604893E+03 -0.10772972932E+04  0.12423699602E+04  0.10100000352E+00 0. -1.
       -3    1    3    3    0  502 -0.58405440822E+03  0.20443604893E+03  0.47231321686E+03  0.77845580150E+03  0.10100000352E+00 0.  1.
</event>
<event>
 5   0  0.2541124E-04  0.1544874E+04  0.7818609E-02  0.8855148E-01
        2   -1    0    0  501    0  0.00000000000E+00  0.00000000000E+00  0.68074298793E+03  0.68074298794E+03  0.25500000920E-02 0. -1.
       -2   -1    0    0    0  501  0.00000000000E+00  0.00000000000E+00 -0.87648213559E+03  0.87648213559E+03  0.25500000920E-02 0.  1.
    10030    2    1    2    0    0  0.00000000000E+00  0.00000000000E+00 -0.19573914766E+03  0.15572251235E+04  0.15448741928E+04 0.  0.
        5    1    3    3  502    0 -0.47820124028E+03  0.34562574400E+03  0.40461698386E+03  0.71545130844E+03  0.46999998093E+01 0. -1.
       -5    1    3    3    0  502  0.47820124028E+03 -0.34562574400E+03 -0.60035613152E+03  0.84177381509E+03  0.46999998093E+01 0.  1.
</event>
<event>
 5   0  0.9266125E-05  0.1915096E+04  0.7818609E-02  0.8647378E-01
       -3   -1    0    0    0  501  0.00000000000E+00  0.00000000000E+00  0.13819865992E+04  0.13819866029E+04  0.10100000352E+00 0. -1.
        3   -1    0    0  501    0  0.00000000000E+00  0.00000000000E+00 -0.66346394928E+03  0.66346395697E+03  0.10100000352E+00 0.  1.
    10030    2    1    2    0    0  0.00000000000E+00  0.00000000000E+00  0.71852264991E+03  0.20454505599E+04  0.19150961319E+04 0.  0.
        3    1    3    3  502    0 -0.72509689431E+03  0.43185327606E+03 -0.12389640060E+03  0.85300239535E+03  0.10100000352E+00 0.  1.
       -3    1    3    3    0  502  0.72509689431E+03 -0.43185327606E+03  0.84241905051E+03  0.11924481645E+04  0.10100000352E+00 0. -1.
</event>
<event>
 5   0  0.2541124E-04  0.1766368E+04  0.7818609E-02  0.8724392E-01
        2   -1    0    0  501    0  0.00000000000E+00  0.00000000000E+00  0.27613911098E+04  0.27613911098E+04  0.25500000920E-02 0. -1.
       -2   -1    0    0    0  501  0.00000000000E+00  0.00000000000E+00 -0.28247133183E+03  0.28247133185E+03  0.25500000920E-02 0.  1.
    10030    2    1    2    0    0  0.00000000000E+00  0.00000000000E+00  0.24789197779E+04  0.30438624416E+04  0.17663678264E+04 0.  0.
        5    1    3    3  502    0  0.19265835056E+03  0.76458625754E+03  0.55387676283E+03  0.96359272707E+03  0.46999998093E+01 0.  1.
       -5    1    3    3    0  502 -0.19265835056E+03 -0.76458625754E+03  0.19250430151E+04  0.20802697145E+04  0.46999998093E+01 0. -1.
</event>
<event>
 5   0  0.1317527E-04  0.1887941E+04  0.7818609E-02  0.8660883E-01
        1   -1    0    0  501    0  0.00000000000E+00  0.00000000000E+00  0.80417333158E+03  0.80417333160E+03  0.50400001928E-02 0.  1.
       -1   -1    0    0    0  501  0.00000000000E+00  0.00000000000E+00 -0.11080694131E+04  0.11080694131E+04  0.50400001928E-02 0. -1.
    10030    2    1    2    0    0  0.00000000000E+00  0.00000000000E+00 -0.30389608155E+03  0.19122427447E+04  0.18879405410E+04 0.  0.
        1    1    3    3  502    0  0.70173016451E+03  0.31059074059E+02 -0.79069233653E+03  0.10576314391E+04  0.50400001928E-02 0. -1.
       -1    1    3    3    0  502 -0.70173016451E+03 -0.31059074059E+02  0.48679625498E+03  0.85461130565E+03  0.50400001928E-02 0.  1.
</event>
<event>
 5   0  0.1324058E-04  0.1925507E+04  0.7818609E-02  0.8642263E-01
       -1   -1    0    0    0  501  0.00000000000E+00  0.00000000000E+00  0.77906584879E+03  0.77906584881E+03  0.50400001928E-02 0.  1.
        1   -1    0    0  501    0  0.00000000000E+00  0.00000000000E+00 -0.11897513039E+04  0.11897513039E+04  0.50400001928E-02 0. -1.
    10030    2    1    2    0    0  0.00000000000E+00  0.00000000000E+00 -0.41068545511E+03  0.19688171527E+04  0.19255073196E+04 0.  0.
        5    1    3    3  502    0  0.79438795846E+03  0.43624397738E+03  0.12678877814E+03  0.91512759799E+03  0.46999998093E+01 0. -1.
       -5    1    3    3    0  502 -0.79438795846E+03 -0.43624397738E+03 -0.53747423324E+03  0.10536895547E+04  0.46999998093E+01 0.  1.
</event>
<event>
 5   0  0.2651828E-04  0.1880912E+04  0.7818609E-02  0.8664416E-01
        2   -1    0    0  501    0  0.00000000000E+00  0.00000000000E+00  0.23877800590E+04  0.23877800590E+04  0.25500000920E-02 0. -1.
       -2   -1    0    0    0  501  0.00000000000E+00  0.00000000000E+00 -0.37041002285E+03  0.37041002286E+03  0.25500000920E-02 0.  1.
    10030    2    1    2    0    0  0.00000000000E+00  0.00000000000E+00  0.20173700361E+04  0.27581900818E+04  0.18809121896E+04 0.  0.
        3    1    3    3  502    0  0.92230688251E+03 -0.16152701311E+03  0.11375014679E+04  0.14733127845E+04  0.10100000352E+00 0.  1.
       -3    1    3    3    0  502 -0.92230688251E+03  0.16152701311E+03  0.87986856825E+03  0.12848772973E+04  0.10100000352E+00 0. -1.
</event>
<event>
 5   0  0.2541124E-04  0.1893225E+04  0.7818609E-02  0.8658236E-01
       -2   -1    0    0    0  501  0.00000000000E+00  0.00000000000E+00  0.89113280017E+03  0.89113280017E+03  0.25500000920E-02 0. -1.
        2   -1    0    0  501    0  0.00000000000E+00  0.00000000000E+00 -0.10055460572E+04  0.10055460572E+04  0.25500000920E-02 0.  1.
    10030    2    1    2    0    0  0.00000000000E+00  0.00000000000E+00 -0.11441325707E+03  0.18966788574E+04  0.18932248400E+04 0.  0.
        5    1    3    3  502    0  0.52330728668E+03 -0.28359158808E+03  0.68019213249E+03  0.90385736276E+03  0.46999998093E+01 0. -1.
       -5    1    3    3    0  502 -0.52330728668E+03  0.28359158808E+03 -0.79460538956E+03  0.99282149465E+03  0.46999998093E+01 0.  1.
</event>
<event>
 5   0  0.2562925E-04  0.1896583E+04  0.7818609E-02  0.8656559E-01
        2   -1    0    0  501    0  0.00000000000E+00  0.00000000000E+00  0.10095630856E+04  0.10095630856E+04  0.25500000920E-02 0. -1.
       -2   -1    0    0    0  501  0.00000000000E+00  0.00000000000E+00 -0.89073896607E+03  0.89073896607E+03  0.25500000920E-02 0.  1.
    10030    2    1    2    0    0  0.00000000000E+00  0.00000000000E+00  0.11882411956E+03  0.19003020517E+04  0.18965834325E+04 0.  0.
        4    1    3    3  502    0 -0.43205691563E+02 -0.90252979080E+02 -0.88543381122E+03  0.89107069247E+03  0.12699999809E+01 0.  1.
       -4    1    3    3    0  502  0.43205691563E+02  0.90252979080E+02  0.10042579308E+04  0.10092313592E+04  0.12699999809E+01 0. -1.
</event>
<event>
 5   0  0.1239615E-04  0.1912667E+04  0.7818609E-02  0.8648577E-01
        1   -1    0    0  501    0  0.00000000000E+00  0.00000000000E+00  0.99537979024E+03  0.99537979025E+03  0.50400001928E-02 0. -1.
       -1   -1    0    0    0  501  0.00000000000E+00  0.00000000000E+00 -0.91881906922E+03  0.91881906923E+03  0.50400001928E-02 0.  1.
    10030    2    1    2    0    0  0.00000000000E+00  0.00000000000E+00  0.76560721017E+02  0.19141988595E+04  0.19126671769E+04 0.  0.
        3    1    3    3  502    0  0.59012721993E+03 -0.39702452500E+03  0.67808513507E+03  0.98268920303E+03  0.10100000352E+00 0.  1.
       -3    1    3    3    0  502 -0.59012721993E+03  0.39702452500E+03 -0.60152441405E+03  0.93150965645E+03  0.10100000352E+00 0. -1.
</event>
<event>
 5   0  0.1277709E-04  0.1890708E+04  0.7818609E-02  0.8659495E-01
       -1   -1    0    0    0  501  0.00000000000E+00  0.00000000000E+00  0.59823061597E+03  0.59823061599E+03  0.50400001928E-02 0. -1.
        1   -1    0    0  501    0  0.00000000000E+00  0.00000000000E+00 -0.14938964372E+04  0.14938964372E+04  0.50400001928E-02 0.  1.
    10030    2    1    2    0    0  0.00000000000E+00  0.00000000000E+00 -0.89566582122E+03  0.20921270532E+04  0.18907084237E+04 0.  0.
        4    1    3    3  502    0  0.72798661220E+03  0.53779816086E+03 -0.74986028452E+03  0.11753652320E+04  0.12699999809E+01 0.  1.
       -4    1    3    3    0  502 -0.72798661220E+03 -0.53779816086E+03 -0.14580553669E+03  0.91676182119E+03  0.12699999809E+01 0. -1.
</event>
<event>
 5   0  0.1277709E-04  0.1864885E+04  0.7818609E-02  0.8672535E-01
        1   -1    0    0  501    0  0.00000000000E+00  0.00000000000E+00  0.11942463934E+04  0.11942463934E+04  0.50400001928E-02 0.  1.
       -1   -1    0    0    0  501  0.00000000000E+00  0.00000000000E+00 -0.72803158298E+03  0.72803158300E+03  0.50400001928E-02 0. -1.
    10030    2    1    2    0    0  0.00000000000E+00  0.00000000000E+00  0.46621481045E+03  0.19222779764E+04  0.18648850820E+04 0.  0.
        4    1    3    3  502    0  0.78734769078E+03 -0.33771633239E+03 -0.14629470423E+03  0.86912166049E+03  0.12699999809E+01 0.  1.
       -4    1    3    3    0  502 -0.78734769078E+03  0.33771633239E+03  0.61250951468E+03  0.10531563159E+04  0.12699999809E+01 0. -1.
</event>
<event>
 5   0  0.1277709E-04  0.1888761E+04  0.7818609E-02  0.8660471E-01
        1   -1    0    0  501    0  0.00000000000E+00  0.00000000000E+00  0.18885849921E+04  0.18885849921E+04  0.50400001928E-02 0. -1.
       -1   -1    0    0    0  501  0.00000000000E+00  0.00000000000E+00 -0.47223422345E+03  0.47223422348E+03  0.50400001928E-02 0.  1.
    10030    2    1    2    0    0  0.00000000000E+00  0.00000000000E+00  0.14163507686E+04  0.23608192155E+04  0.18887609348E+04 0.  0.
        4    1    3    3  502    0 -0.54074690592E+03 -0.76272235237E+02  0.16712124346E+04  0.17581744181E+04  0.12699999809E+01 0. -1.
       -4    1    3    3    0  502  0.54074690592E+03  0.76272235237E+02 -0.25486166601E+03  0.60264479740E+03  0.12699999809E+01 0.  1.
</event>
<event>
 5   0  0.1317527E-04  0.1890884E+04  0.7818609E-02  0.8659407E-01
        1   -1    0    0  501    0  0.00000000000E+00  0.00000000000E+00  0.85304283968E+03  0.85304283970E+03  0.50400001928E-02 0.  1.
       -1   -1    0    0    0  501  0.00000000000E+00  0.00000000000E+00 -0.10478498306E+04  0.10478498306E+04  0.50400001928E-02 0. -1.
    10030    2    1    2    0    0  0.00000000000E+00  0.00000000000E+00 -0.19480699089E+03  0.19008926703E+04  0.18908842324E+04 0.  0.
        1    1    3    3  502    0 -0.36161281972E+03 -0.74455778253E+03 -0.55669222821E+03  0.99751509256E+03  0.50400001928E-02 0. -1.
       -1    1    3    3    0  502  0.36161281972E+03  0.74455778253E+03  0.36188523732E+03  0.90337757772E+03  0.50400001928E-02 0.  1.
</event>
<event>
 5   0  0.1324058E-04  0.1901679E+04  0.7818609E-02  0.8654021E-01
        1   -1    0    0  501    0  0.00000000000E+00  0.00000000000E+00  0.13795661527E+04  0.13795661527E+04  0.50400001928E-02 0. -1.
       -1   -1    0    0    0  501  0.00000000000E+00  0.00000000000E+00 -0.65534821502E+03  0.65534821504E+03  0.50400001928E-02 0.  1.
    10030    2    1    2    0    0  0.00000000000E+00  0.00000000000E+00  0.72421793771E+03  0.20349143678E+04  0.19016794848E+04 0.  0.
        5    1    3    3  502    0  0.32030210807E+03  0.69407551294E+03 -0.24296324851E+03  0.80211438600E+03  0.46999998093E+01 0. -1.
       -5    1    3    3    0  502 -0.32030210807E+03 -0.69407551294E+03  0.96718118623E+03  0.12327999818E+04  0.46999998093E+01 0.  1.
</event>
<event>
 5   0  0.2562925E-04  0.1757225E+04  0.7818609E-02  0.8729384E-01
       -2   -1    0    0    0  501  0.00000000000E+00  0.00000000000E+00  0.14649388468E+04  0.14649388468E+04  0.25500000920E-02 0. -1.
        2   -1    0    0  501    0  0.00000000000E+00  0.00000000000E+00 -0.52695693378E+03  0.52695693379E+03  0.25500000920E-02 0.  1.
    10030    2    1    2    0    0  0.00000000000E+00  0.00000000000E+00  0.93798191300E+03  0.19918957806E+04  0.17572247243E+04 0.  0.
        4    1    3    3  502    0 -0.70192712304E+03 -0.16801726689E+03  0.10369266484E+04  0.12633882915E+04  0.12699999809E+01 0.  1.
       -4    1    3    3    0  502  0.70192712304E+03  0.16801726689E+03 -0.98944735435E+02  0.72850748905E+03  0.12699999809E+01 0. -1.
</event>
<event>
 5   0  0.1324058E-04  0.1621480E+04  0.7818609E-02  0.8807460E-01
       -1   -1    0    0    0  501  0.00000000000E+00  0.00000000000E+00  0.66262654809E+03  0.66262654811E+03  0.50400001928E-02 0.  1.
        1   -1    0    0  501    0  0.00000000000E+00  0.00000000000E+00 -0.99196069818E+03  0.99196069819E+03  0.50400001928E-02 0. -1.
    10030    2    1    2    0    0  0.00000000000E+00  0.00000000000E+00 -0.32933415008E+03  0.16545872463E+04  0.16214801797E+04 0.  0.
        5    1    3    3  502    0 -0.65123946172E+03  0.49955789652E+02 -0.65475345275E+03  0.92484192774E+03  0.46999998093E+01 0. -1.
       -5    1    3    3    0  502  0.65123946172E+03 -0.49955789652E+02  0.32541930267E+03  0.72974531856E+03  0.46999998093E+01 0.  1.
</event>
<event>
 5   0  0.2562925E-04  0.1896945E+04  0.7818609E-02  0.8656378E-01
        2   -1    0    0  501    0  0.00000000000E+00  0.00000000000E+00  0.19800672698E+04  0.19800672698E+04  0.25500000920E-02 0.  1.
       -2   -1    0    0    0  501  0.00000000000E+00  0.00000000000E+00 -0.45432826207E+03  0.45432826208E+03  0.25500000920E-02 0. -1.
    10030    2    1    2    0    0  0.00000000000E+00  0.00000000000E+00  0.15257390077E+04  0.24343955318E+04  0.18969454620E+04 0.  0.
        4    1    3    3  502    0 -0.50476572993E+03 -0.68215813778E+03  0.13065366958E+04  0.15579370710E+04  0.12699999809E+01 0.  1.
       -4    1    3    3    0  502  0.50476572993E+03  0.68215813778E+03  0.21920231192E+03  0.87645846080E+03  0.12699999809E+01 0. -1.
</event>
<event>
 5   0  0.1317527E-04  0.1924413E+04  0.7818609E-02  0.8642799E-01
       -1   -1    0    0    0  501  0.00000000000E+00  0.00000000000E+00  0.65655438303E+03  0.65655438305E+03  0.50400001928E-02 0. -1.
        1   -1    0    0  501    0  0.00000000000E+00  0.00000000000E+00 -0.14101516199E+04  0.14101516199E+04  0.50400001928E-02 0.  1.
    10030    2    1    2    0    0  0.00000000000E+00  0.00000000000E+00 -0.75359723690E+03  0.20667060030E+04  0.19244128734E+04 0.  0.
        1    1    3    3  502    0 -0.32053277256E+02  0.68637300540E+03 -0.11001805661E+04  0.12971247408E+04  0.50400001928E-02 0.  1.
       -1    1    3    3    0  502  0.32053277256E+02 -0.68637300540E+03  0.34658332916E+03  0.76958126224E+03  0.50400001928E-02 0. -1.
</event>
<event>
 5   0  0.2595012E-04  0.2005511E+04  0.7818609E-02  0.8604048E-01
        2   -1    0    0  501    0  0.00000000000E+00  0.00000000000E+00  0.77317550950E+03  0.77317550950E+03  0.25500000920E-02 0.  1.
       -2   -1    0    0    0  501  0.00000000000E+00  0.00000000000E+00 -0.13005055278E+04  0.13005055278E+04  0.25500000920E-02 0. -1.
    10030    2    1    2    0    0  0.00000000000E+00  0.00000000000E+00 -0.52733001831E+03  0.20736810373E+04  0.20055114301E+04 0.  0.
        1    1    3    3  502    0 -0.93810928440E+03  0.35411479189E+03 -0.25484822638E+03  0.10345984409E+04  0.50400001928E-02 0. -1.
       -1    1    3    3    0  502  0.93810928440E+03 -0.35411479189E+03 -0.27248179193E+03  0.10390825965E+04  0.50400001928E-02 0.  1.
</event>
<event>
 5   0  0.1239615E-04  0.1841489E+04  0.7818609E-02  0.8684542E-01
        1   -1    0    0  501    0  0.00000000000E+00  0.00000000000E+00  0.13023779797E+04  0.13023779797E+04  0.50400001928E-02 0.  1.
       -1   -1    0    0    0  501  0.00000000000E+00  0.00000000000E+00 -0.65094031659E+03  0.65094031661E+03  0.50400001928E-02 0. -1.
    10030    2    1    2    0    0  0.00000000000E+00  0.00000000000E+00  0.65143766309E+03  0.19533182963E+04  0.18414888916E+04 0.  0.
        3    1    3    3  502    0 -0.51599006008E+03  0.64163004407E+03  0.76285637933E+03  0.11224458656E+04  0.10100000352E+00 0.  1.
       -3    1    3    3    0  502  0.51599006008E+03 -0.64163004407E+03 -0.11141871623E+03  0.83087243069E+03  0.10100000352E+00 0. -1.
</event>
<event>
 5   0  0.2608744E-04  0.1925720E+04  0.7818609E-02  0.8642159E-01
        2   -1    0    0  501    0  0.00000000000E+00  0.00000000000E+00  0.95696899606E+03  0.95696899607E+03  0.25500000920E-02 0. -1.
       -2   -1    0    0    0  501  0.00000000000E+00  0.00000000000E+00 -0.96878768002E+03  0.96878768002E+03  0.25500000920E-02 0.  1.
    10030    2    1    2    0    0  0.00000000000E+00  0.00000000000E+00 -0.11818683954E+02  0.19257566761E+04  0.19257204091E+04 0.  0.
        2    1    3    3  502    0  0.51356510607E+03 -0.65944236829E+03  0.47210218976E+03  0.95994470303E+03  0.25500000920E-02 0. -1.
       -2    1    3    3    0  502 -0.51356510607E+03  0.65944236829E+03 -0.48392087372E+03  0.96581197306E+03  0.25500000920E-02 0.  1.
</event>
<event>
 5   0  0.1317527E-04  0.1914796E+04  0.7818609E-02  0.8647526E-01
       -1   -1    0    0    0  501  0.00000000000E+00  0.00000000000E+00  0.12250112823E+04  0.12250112824E+04  0.50400001928E-02 0. -1.
        1   -1    0    0  501    0  0.00000000000E+00  0.00000000000E+00 -0.74824716376E+03  0.74824716377E+03  0.50400001928E-02 0.  1.
    10030    2    1    2    0    0  0.00000000000E+00  0.00000000000E+00  0.47676411859E+03  0.19732584461E+04  0.19147963000E+04 0.  0.
        1    1    3    3  502    0  0.53058646988E+03 -0.48426647678E+03  0.89061603375E+03  0.11442171744E+04  0.50400001928E-02 0. -1.
       -1    1    3    3    0  502 -0.53058646988E+03  0.48426647678E+03 -0.41385191516E+03  0.82904127175E+03  0.50400001928E-02 0.  1.
</event>
<event>
 5   0  0.1239615E-04  0.1886681E+04  0.7818609E-02  0.8661514E-01
        1   -1    0    0  501    0  0.00000000000E+00  0.00000000000E+00  0.15981217541E+04  0.15981217541E+04  0.50400001928E-02 0.  1.
       -1   -1    0    0    0  501  0.00000000000E+00  0.00000000000E+00 -0.55683594424E+03  0.55683594426E+03  0.50400001928E-02 0. -1.
    10030    2    1    2    0    0  0.00000000000E+00  0.00000000000E+00  0.10412858098E+04  0.21549576983E+04  0.18866813573E+04 0.  0.
        3    1    3    3  502    0  0.19273666339E+03 -0.78127102792E+03 -0.41660186067E+02  0.80577132103E+03  0.10100000352E+00 0. -1.
       -3    1    3    3    0  502 -0.19273666339E+03  0.78127102792E+03  0.10829459959E+04  0.13491863773E+04  0.10100000352E+00 0.  1.
</event>
<event>
 5   0  0.1317527E-04  0.1944950E+04  0.7818609E-02  0.8632800E-01
        1   -1    0    0  501    0  0.00000000000E+00  0.00000000000E+00  0.14801159344E+04  0.14801159345E+04  0.50400001928E-02 0. -1.
       -1   -1    0    0    0  501  0.00000000000E+00  0.00000000000E+00 -0.63894147970E+03  0.63894147972E+03  0.50400001928E-02 0.  1.
    10030    2    1    2    0    0  0.00000000000E+00  0.00000000000E+00  0.84117445474E+03  0.21190574142E+04  0.19449498352E+04 0.  0.
        1    1    3    3  502    0 -0.33215878668E+03  0.42598066830E+03 -0.46045378146E+03  0.70979340249E+03  0.50400001928E-02 0.  1.
       -1    1    3    3    0  502  0.33215878668E+03 -0.42598066830E+03  0.13016282362E+04  0.14092640117E+04  0.50400001928E-02 0. -1.
</event>
<event>
 5   0  0.2541124E-04  0.1900471E+04  0.7818609E-02  0.8654622E-01
        2   -1    0    0  501    0  0.00000000000E+00  0.00000000000E+00  0.55246581472E+03  0.55246581472E+03  0.25500000920E-02 0.  1.
       -2   -1    0    0    0  501  0.00000000000E+00  0.00000000000E+00 -0.16343958533E+04  0.16343958533E+04  0.25500000920E-02 0. -1.
    10030    2    1    2    0    0  0.00000000000E+00  0.00000000000E+00 -0.10819300386E+04  0.21868616680E+04  0.19004713486E+04 0.  0.
        5    1    3    3  502    0 -0.19079959995E+03  0.19100657987E+02  0.52995774676E+03  0.56360147784E+03  0.46999998093E+01 0.  1.
       -5    1    3    3    0  502  0.19079959995E+03 -0.19100657987E+02 -0.16118877854E+04  0.16232601902E+04  0.46999998093E+01 0. -1.
</event>
<event>
 5   0  0.2651828E-04  0.1920039E+04  0.7818609E-02  0.8644945E-01
       -2   -1    0    0    0  501  0.00000000000E+00  0.00000000000E+00  0.71281006867E+03  0.71281006867E+03  0.25500000920E-02 0. -1.
        2   -1    0    0  501    0  0.00000000000E+00  0.00000000000E+00 -0.12929635800E+04  0.12929635800E+04  0.25500000920E-02 0.  1.
    10030    2    1    2    0    0  0.00000000000E+00  0.00000000000E+00 -0.58015351135E+03  0.20057736487E+04  0.19200390186E+04 0.  0.
        3    1    3    3  502    0  0.36109415736E+03 -0.87192632165E+03 -0.10616761920E+03  0.94969262102E+03  0.10100000352E+00 0. -1.
       -3    1    3    3    0  502 -0.36109415736E+03  0.87192632165E+03 -0.47398589215E+03  0.10560810277E+04  0.10100000352E+00 0.  1.
</event>
<event>
 5   0  0.2595012E-04  0.1974205E+04  0.7818609E-02  0.8618776E-01
        2   -1    0    0  501    0  0.00000000000E+00  0.00000000000E+00  0.28508192932E+04  0.28508192932E+04  0.25500000920E-02 0.  1.
       -2   -1    0    0    0  501  0.00000000000E+00  0.00000000000E+00 -0.34178651116E+03  0.34178651117E+03  0.25500000920E-02 0. -1.
    10030    2    1    2    0    0  0.00000000000E+00  0.00000000000E+00  0.25090327821E+04  0.31926058044E+04  0.19742052378E+04 0.  0.
        1    1    3    3  502    0 -0.22346522725E+03 -0.92594558312E+03  0.16732941791E+04  0.19254156280E+04  0.50400001928E-02 0. -1.
       -1    1    3    3    0  502  0.22346522725E+03  0.92594558312E+03  0.83573860300E+03  0.12671901764E+04  0.50400001928E-02 0.  1.
</event>
<event>
 5   0  0.1255141E-04  0.1898501E+04  0.7818609E-02  0.8655603E-01
       -1   -1    0    0    0  501  0.00000000000E+00  0.00000000000E+00  0.10361369448E+04  0.10361369448E+04  0.50400001928E-02 0.  1.
        1   -1    0    0  501    0  0.00000000000E+00  0.00000000000E+00 -0.86965026563E+03  0.86965026565E+03  0.50400001928E-02 0. -1.
    10030    2    1    2    0    0  0.00000000000E+00  0.00000000000E+00  0.16648667913E+03  0.19057872104E+04  0.18985012713E+04 0.  0.
        2    1    3    3  502    0 -0.51250804746E+02  0.88895816353E+03 -0.24696207159E+03  0.92404736150E+03  0.25500000920E-02 0. -1.
       -2    1    3    3    0  502  0.51250804746E+02 -0.88895816353E+03  0.41344875072E+03  0.98173984892E+03  0.25500000920E-02 0.  1.
</event>
<event>
 5   0  0.1317527E-04  0.1489713E+04  0.7818609E-02  0.8891322E-01
        1   -1    0    0  501    0  0.00000000000E+00  0.00000000000E+00  0.89478671326E+03  0.89478671328E+03  0.50400001928E-02 0. -1.
       -1   -1    0    0    0  501  0.00000000000E+00  0.00000000000E+00 -0.62004885924E+03  0.62004885927E+03  0.50400001928E-02 0.  1.
    10030    2    1    2    0    0  0.00000000000E+00  0.00000000000E+00  0.27473785402E+03  0.15148355725E+04  0.14897133695E+04 0.  0.
        1    1    3    3  502    0  0.11264509095E+03 -0.37879389389E+03  0.77939400343E+03  0.87385853728E+03  0.50400001928E-02 0. -1.
       -1    1    3    3    0  502 -0.11264509095E+03  0.37879389389E+03 -0.50465614942E+03  0.64097703526E+03  0.50400001928E-02 0.  1.
</event>
<event>
 5   0  0.2541124E-04  0.1841877E+04  0.7818609E-02  0.8684341E-01
       -2   -1    0    0    0  501  0.00000000000E+00  0.00000000000E+00  0.94652837064E+03  0.94652837064E+03  0.25500000920E-02 0.  1.
        2   -1    0    0  501    0  0.00000000000E+00  0.00000000000E+00 -0.89604041530E+03  0.89604041530E+03  0.25500000920E-02 0. -1.
    10030    2    1    2    0    0  0.00000000000E+00  0.00000000000E+00  0.50487955342E+02  0.18425687859E+04  0.18418769496E+04 0.  0.
        5    1    3    3  502    0  0.31100453880E+03  0.13857432222E+03 -0.83075196641E+03  0.89782937445E+03  0.46999998093E+01 0. -1.
       -5    1    3    3    0  502 -0.31100453880E+03 -0.13857432222E+03  0.88123992175E+03  0.94473941149E+03  0.46999998093E+01 0.  1.
</event>
<event>
 5   0  0.1324058E-04  0.1919204E+04  0.7818609E-02  0.8645356E-01
       -1   -1    0    0    0  501  0.00000000000E+00  0.00000000000E+00  0.10160574879E+04  0.10160574879E+04  0.50400001928E-02 0. -1.
        1   -1    0    0  501    0  0.00000000000E+00  0.00000000000E+00 -0.90628351402E+03  0.90628351404E+03  0.50400001928E-02 0.  1.
    10030    2    1    2    0    0  0.00000000000E+00  0.00000000000E+00  0.10977397386E+03  0.19223410019E+04  0.19192041586E+04 0.  0.
        5    1    3    3  502    0  0.76413755949E+03  0.33139824624E+03  0.53219817642E+03  0.98842703141E+03  0.46999998093E+01 0. -1.
       -5    1    3    3    0  502 -0.76413755949E+03 -0.33139824624E+03 -0.42242420256E+03  0.93391397053E+03  0.46999998093E+01 0.  1.
</event>
<event>
 5   0  0.1277709E-04  0.1892355E+04  0.7818609E-02  0.8658671E-01
       -1   -1    0    0    0  501  0.00000000000E+00  0.00000000000E+00  0.12968114866E+04  0.12968114866E+04  0.50400001928E-02 0.  1.
        1   -1    0    0  501    0  0.00000000000E+00  0.00000000000E+00 -0.69034872832E+03  0.69034872834E+03  0.50400001928E-02 0. -1.
    10030    2    1    2    0    0  0.00000000000E+00  0.00000000000E+00  0.60646275830E+03  0.19871602150E+04  0.18923553162E+04 0.  0.
        4    1    3    3  502    0  0.30872947958E+03  0.64473723326E+03 -0.34770336266E+03  0.79492089721E+03  0.12699999809E+01 0. -1.
       -4    1    3    3    0  502 -0.30872947958E+03 -0.64473723326E+03  0.95416612097E+03  0.11922393178E+04  0.12699999809E+01 0.  1.
</event>
<event>
 5   0  0.2541124E-04  0.1902376E+04  0.7818609E-02  0.8653674E-01
        2   -1    0    0  501    0  0.00000000000E+00  0.00000000000E+00  0.21903486776E+04  0.21903486776E+04  0.25500000920E-02 0.  1.
       -2   -1    0    0    0  501  0.00000000000E+00  0.00000000000E+00 -0.41306617921E+03  0.41306617922E+03  0.25500000920E-02 0. -1.
    10030    2    1    2    0    0  0.00000000000E+00  0.00000000000E+00  0.17772824984E+04  0.26034148568E+04  0.19023763659E+04 0.  0.
        5    1    3    3  502    0  0.77947654411E+03 -0.54511726799E+03  0.88783077115E+03  0.13011541365E+04  0.46999998093E+01 0. -1.
       -5    1    3    3    0  502 -0.77947654411E+03  0.54511726799E+03  0.88945172722E+03  0.13022607203E+04  0.46999998093E+01 0.  1.
</event>
<event>
 5   0  0.9266125E-05  0.1900333E+04  0.7818609E-02  0.8654691E-01
       -3   -1    0    0    0  501  0.00000000000E+00  0.00000000000E+00  0.60090328804E+03  0.60090329653E+03  0.10100000352E+00 0.  1.
        3   -1    0    0  501    0  0.00000000000E+00  0.00000000000E+00 -0.15024324425E+04  0.15024324459E+04  0.10100000352E+00 0. -1.
    10030    2    1    2    0    0  0.00000000000E+00  0.00000000000E+00 -0.90152915444E+03  0.21033357424E+04  0.19003332416E+04 0.  0.
        1    1    3    3  502    0  0.35814813239E+03 -0.38428076407E+03  0.42556858861E+03  0.67605503770E+03  0.50400001928E-02 0.  1.
       -1    1    3    3    0  502 -0.35814813239E+03  0.38428076407E+03 -0.13270977430E+04  0.14272807047E+04  0.50400001928E-02 0. -1.
</event>
<event>
 5   0  0.2541124E-04  0.1909464E+04  0.7818609E-02  0.8650160E-01
        2   -1    0    0  501    0  0.00000000000E+00  0.00000000000E+00  0.10637561784E+04  0.10637561784E+04  0.25500000920E-02 0.  1.
       -2   -1    0    0    0  501  0.00000000000E+00  0.00000000000E+00 -0.85688196429E+03  0.85688196430E+03  0.25500000920E-02 0. -1.
    10030    2    1    2    0    0  0.00000000000E+00  0.00000000000E+00  0.20687421406E+03  0.19206381427E+04  0.19094643057E+04 0.  0.
        5    1    3    3  502    0  0.60805180829E+01 -0.84218954753E+02  0.10599813431E+04  0.10633495864E+04  0.46999998093E+01 0.  1.
       -5    1    3    3    0  502 -0.60805180829E+01  0.84218954753E+02 -0.85310712908E+03  0.85728855628E+03  0.46999998093E+01 0. -1.
</event>
<event>
 5   0  0.2562925E-04  0.1866869E+04  0.7818609E-02  0.8671526E-01
        2   -1    0    0  501    0  0.00000000000E+00  0.00000000000E+00  0.15993783309E+04  0.15993783309E+04  0.25500000920E-02 0.  1.
       -2   -1    0    0    0  501  0.00000000000E+00  0.00000000000E+00 -0.54477424568E+03  0.54477424568E+03  0.25500000920E-02 0. -1.
    10030    2    1    2    0    0  0.00000000000E+00  0.00000000000E+00  0.10546040852E+04  0.21441525766E+04  0.18668691693E+04 0.  0.
        4    1    3    3  502    0 -0.28781008533E+03  0.69949277985E+03  0.11555101271E+04  0.13810612082E+04  0.12699999809E+01 0.  1.
       -4    1    3    3    0  502  0.28781008533E+03 -0.69949277985E+03 -0.10090604182E+03  0.76309136836E+03  0.12699999809E+01 0. -1.
</event>
<event>
 5   0  0.2595012E-04  0.1914748E+04  0.7818609E-02  0.8647550E-01
       -2   -1    0    0    0  501  0.00000000000E+00  0.00000000000E+00  0.14815772441E+04  0.14815772441E+04  0.25500000920E-02 0. -1.
        2   -1    0    0  501    0  0.00000000000E+00  0.00000000000E+00 -0.61864106594E+03  0.61864106594E+03  0.25500000920E-02 0.  1.
    10030    2    1    2    0    0  0.00000000000E+00  0.00000000000E+00  0.86293617816E+03  0.21002183100E+04  0.19147475296E+04 0.  0.
        1    1    3    3  502    0  0.14211663924E+03  0.41372136379E+03  0.13655445438E+04  0.14339018122E+04  0.50400001928E-02 0. -1.
       -1    1    3    3    0  502 -0.14211663924E+03 -0.41372136379E+03 -0.50260836564E+03  0.66631649780E+03  0.50400001928E-02 0.  1.
</event>
<event>
 5   0  0.2595012E-04  0.1883581E+04  0.7818609E-02  0.8663073E-01
        2   -1    0    0  501    0  0.00000000000E+00  0.00000000000E+00  0.17961051865E+04  0.17961051865E+04  0.25500000920E-02 0.  1.
       -2   -1    0    0    0  501  0.00000000000E+00  0.00000000000E+00 -0.49382904030E+03  0.49382904031E+03  0.25500000920E-02 0. -1.
    10030    2    1    2    0    0  0.00000000000E+00  0.00000000000E+00  0.13022761462E+04  0.22899342268E+04  0.18835805271E+04 0.  0.
        1    1    3    3  502    0  0.33418393773E+03  0.80157369119E+02 -0.41487812439E+03  0.53872810042E+03  0.50400001928E-02 0. -1.
       -1    1    3    3    0  502 -0.33418393773E+03 -0.80157369119E+02  0.17171542706E+04  0.17512061264E+04  0.50400001928E-02 0.  1.
</event>
<event>
 5   0  0.1255141E-04  0.1894337E+04  0.7818609E-02  0.8657680E-01
        1   -1    0    0  501    0  0.00000000000E+00  0.00000000000E+00  0.10933951952E+04  0.10933951952E+04  0.50400001928E-02 0. -1.
       -1   -1    0    0    0  501  0.00000000000E+00  0.00000000000E+00 -0.82049742539E+03  0.82049742541E+03  0.50400001928E-02 0.  1.
    10030    2    1    2    0    0  0.00000000000E+00  0.00000000000E+00  0.27289776983E+03  0.19138926206E+04  0.18943367627E+04 0.  0.
        2    1    3    3  502    0  0.32310423410E+03 -0.88773651053E+03  0.20538436723E+03  0.96677567022E+03  0.25500000920E-02 0. -1.
       -2    1    3    3    0  502 -0.32310423410E+03  0.88773651053E+03  0.67513402601E+02  0.94711695042E+03  0.25500000920E-02 0.  1.
</event>
<event>
 5   0  0.2595012E-04  0.1785933E+04  0.7818609E-02  0.8713816E-01
       -2   -1    0    0    0  501  0.00000000000E+00  0.00000000000E+00  0.48554926362E+03  0.48554926362E+03  0.25500000920E-02 0. -1.
        2   -1    0    0  501    0  0.00000000000E+00  0.00000000000E+00 -0.16422413911E+04  0.16422413911E+04  0.25500000920E-02 0.  1.
    10030    2    1    2    0    0  0.00000000000E+00  0.00000000000E+00 -0.11566921275E+04  0.21277906547E+04  0.17859329194E+04 0.  0.
        1    1    3    3  502    0  0.31095105464E+03 -0.49155815364E+03 -0.13855862898E+04  0.15027206471E+04  0.50400001928E-02 0.  1.
       -1    1    3    3    0  502 -0.31095105464E+03  0.49155815364E+03  0.22889416234E+03  0.62507000758E+03  0.50400001928E-02 0. -1.
</event>
<event>
 5   0  0.1324058E-04  0.1929922E+04  0.7818609E-02  0.8640104E-01
        1   -1    0    0  501    0  0.00000000000E+00  0.00000000000E+00  0.14278517463E+04  0.14278517463E+04  0.50400001928E-02 0. -1.
       -1   -1    0    0    0  501  0.00000000000E+00  0.00000000000E+00 -0.65213348892E+03  0.65213348894E+03  0.50400001928E-02 0.  1.
    10030    2    1    2    0    0  0.00000000000E+00  0.00000000000E+00  0.77571825739E+03  0.20799852353E+04  0.19299222171E+04 0.  0.
        5    1    3    3  502    0 -0.17099920986E+03 -0.73460869820E+03  0.10365188925E+04  0.12819064606E+04  0.46999998093E+01 0. -1.
       -5    1    3    3    0  502  0.17099920986E+03  0.73460869820E+03 -0.26080063512E+03  0.79807877463E+03  0.46999998093E+01 0.  1.
</event>
<event>
 5   0  0.1239615E-04  0.1561687E+04  0.7818609E-02  0.8844437E-01
       -1   -1    0    0    0  501  0.00000000000E+00  0.00000000000E+00  0.10982734303E+04  0.10982734303E+04  0.50400001928E-02 0.  1.
        1   -1    0    0  501    0  0.00000000000E+00  0.00000000000E+00 -0.55515901228E+03  0.55515901231E+03  0.50400001928E-02 0. -1.
    10030    2    1    2    0    0  0.00000000000E+00  0.00000000000E+00  0.54311441805E+03  0.16534324427E+04  0.15616867712E+04 0.  0.
        3    1    3    3  502    0  0.51039393093E+03  0.37947746196E+03  0.75117262225E+03  0.98425882139E+03  0.10100000352E+00 0.  1.
       -3    1    3    3    0  502 -0.51039393093E+03 -0.37947746196E+03 -0.20805820419E+03  0.66917362127E+03  0.10100000352E+00 0. -1.
</event>
<event>
 5   0  0.2562925E-04  0.1893794E+04  0.7818609E-02  0.8657952E-01
        2   -1    0    0  501    0  0.00000000000E+00  0.00000000000E+00  0.15165298465E+04  0.15165298465E+04  0.25500000920E-02 0.  1.
       -2   -1    0    0    0  501  0.00000000000E+00  0.00000000000E+00 -0.59122754745E+03  0.59122754746E+03  0.25500000920E-02 0. -1.
    10030    2    1    2    0    0  0.00000000000E+00  0.00000000000E+00  0.92530229905E+03  0.21077573940E+04  0.18937943096E+04 0.  0.
        4    1    3    3  502    0 -0.87858651266E+03 -0.23942636744E+03  0.75154076312E+03  0.11807007992E+04  0.12699999809E+01 0.  1.
       -4    1    3    3    0  502  0.87858651266E+03  0.23942636744E+03  0.17376153594E+03  0.92705659478E+03  0.12699999809E+01 0. -1.
</event>
<event>
 5   0  0.1317527E-04  0.1902044E+04  0.7818609E-02  0.8653839E-01
       -1   -1    0    0    0  501  0.00000000000E+00  0.00000000000E+00  0.88699481785E+03  0.88699481787E+03  0.50400001928E-02 0.  1.
        1   -1    0    0  501    0  0.00000000000E+00  0.00000000000E+00 -0.10196712626E+04  0.10196712626E+04  0.50400001928E-02 0. -1.
    10030    2    1    2    0    0  0.00000000000E+00  0.00000000000E+00 -0.13267644470E+03  0.19066660804E+04  0.19020442958E+04 0.  0.
        1    1    3    3  502    0 -0.49464138585E+03 -0.77441008029E+03 -0.31200933868E+03  0.97042820471E+03  0.50400001928E-02 0. -1.
       -1    1    3    3    0  502  0.49464138585E+03  0.77441008029E+03  0.17933289397E+03  0.93623787572E+03  0.50400001928E-02 0.  1.
</event>
<event>
 5   0  0.2651828E-04  0.2018002E+04  0.7818609E-02  0.8598250E-01
       -2   -1    0    0    0  501  0.00000000000E+00  0.00000000000E+00  0.11035809065E+04  0.11035809065E+04  0.25500000920E-02 0.  1.
        2   -1    0    0  501    0  0.00000000000E+00  0.00000000000E+00 -0.92252690835E+03  0.92252690836E+03  0.25500000920E-02 0. -1.
    10030    2    1    2    0    0  0.00000000000E+00  0.00000000000E+00  0.18105399810E+03  0.20261078148E+04  0.20180020632E+04 0.  0.
        3    1    3    3  502    0 -0.83533041215E+03 -0.49801653536E+03 -0.17941294593E+03  0.98893194019E+03  0.10100000352E+00 0. -1.
       -3    1    3    3    0  502  0.83533041215E+03  0.49801653536E+03  0.36046694403E+03  0.10371758746E+04  0.10100000352E+00 0.  1.
</event>
<event>
 5   0  0.2651828E-04  0.1907966E+04  0.7818609E-02  0.8650902E-01
        2   -1    0    0  501    0  0.00000000000E+00  0.00000000000E+00  0.13624335982E+04  0.13624335982E+04  0.25500000920E-02 0.  1.
       -2   -1    0    0    0  501  0.00000000000E+00  0.00000000000E+00 -0.66798354806E+03  0.66798354807E+03  0.25500000920E-02 0. -1.
    10030    2    1    2    0    0  0.00000000000E+00  0.00000000000E+00  0.69445005009E+03  0.20304171462E+04  0.19079656484E+04 0.  0.
        3    1    3    3  502    0  0.55667605666E+03 -0.64241742354E+03  0.80802174783E+03  0.11728118064E+04  0.10100000352E+00 0.  1.
       -3    1    3    3    0  502 -0.55667605666E+03  0.64241742354E+03 -0.11357169773E+03  0.85760533980E+03  0.10100000352E+00 0. -1.
</event>
<event>
 5   0  0.2651828E-04  0.1873359E+04  0.7818609E-02  0.8668232E-01
       -2   -1    0    0    0  501  0.00000000000E+00  0.00000000000E+00  0.73975906299E+03  0.73975906300E+03  0.25500000920E-02 0.  1.
        2   -1    0    0  501    0  0.00000000000E+00  0.00000000000E+00 -0.11860195016E+04  0.11860195016E+04  0.25500000920E-02 0. -1.
    10030    2    1    2    0    0  0.00000000000E+00  0.00000000000E+00 -0.44626043862E+03  0.19257785646E+04  0.18733592023E+04 0.  0.
        3    1    3    3  502    0  0.43755175934E+03  0.46068034244E+03  0.48438003734E+03  0.79893801436E+03  0.10100000352E+00 0.  1.
       -3    1    3    3    0  502 -0.43755175934E+03 -0.46068034244E+03 -0.93064047595E+03  0.11268405503E+04  0.10100000352E+00 0. -1.
</event>
<event>
 5   0  0.1255141E-04  0.1884797E+04  0.7818609E-02  0.8662461E-01
       -1   -1    0    0    0  501  0.00000000000E+00  0.00000000000E+00  0.41435691950E+03  0.41435691953E+03  0.50400001928E-02 0.  1.
        1   -1    0    0  501    0  0.00000000000E+00  0.00000000000E+00 -0.21433581642E+04  0.21433581642E+04  0.50400001928E-02 0. -1.
    10030    2    1    2    0    0  0.00000000000E+00  0.00000000000E+00 -0.17290012447E+04  0.25577150838E+04  0.18847973752E+04 0.  0.
        2    1    3    3  502    0  0.71737448799E+03  0.32523291224E+03 -0.15666378009E+04  0.17534983896E+04  0.25500000920E-02 0. -1.
       -2    1    3    3    0  502 -0.71737448799E+03 -0.32523291224E+03 -0.16236344383E+03  0.80421669413E+03  0.25500000920E-02 0.  1.
</event>
<event>
 5   0  0.2541124E-04  0.1712036E+04  0.7818609E-02  0.8754530E-01
       -2   -1    0    0    0  501  0.00000000000E+00  0.00000000000E+00  0.51107281931E+03  0.51107281932E+03  0.25500000920E-02 0.  1.
        2   -1    0    0  501    0  0.00000000000E+00  0.00000000000E+00 -0.14337813370E+04  0.14337813370E+04  0.25500000920E-02 0. -1.
    10030    2    1    2    0    0  0.00000000000E+00  0.00000000000E+00 -0.92270851772E+03  0.19448541563E+04  0.17120358293E+04 0.  0.
        5    1    3    3  502    0 -0.19193926407E+03  0.49450363749E+03 -0.12245581224E+04  0.13345183452E+04  0.46999998093E+01 0.  1.
       -5    1    3    3    0  502  0.19193926407E+03 -0.49450363749E+03  0.30184960463E+03  0.61033581117E+03  0.46999998093E+01 0. -1.
</event>
<event>
 5   0  0.2541124E-04  0.1896727E+04  0.7818609E-02  0.8656487E-01
        2   -1    0    0  501    0  0.00000000000E+00  0.00000000000E+00  0.12649713516E+04  0.12649713516E+04  0.25500000920E-02 0. -1.
       -2   -1    0    0    0  501  0.00000000000E+00  0.00000000000E+00 -0.71099930539E+03  0.71099930540E+03  0.25500000920E-02 0.  1.
    10030    2    1    2    0    0  0.00000000000E+00  0.00000000000E+00  0.55397204618E+03  0.19759706570E+04  0.18967274473E+04 0.  0.
        5    1    3    3  502    0  0.37701266687E+03 -0.19352159013E+03 -0.60685917264E+03  0.74019544868E+03  0.46999998093E+01 0.  1.
       -5    1    3    3    0  502 -0.37701266687E+03  0.19352159013E+03  0.11608312188E+04  0.12357752083E+04  0.46999998093E+01 0. -1.
</event>
<event>
 5   0  0.2562925E-04  0.1880294E+04  0.7818609E-02  0.8664728E-01
       -2   -1    0    0    0  501  0.00000000000E+00  0.00000000000E+00  0.38878154807E+03  0.38878154808E+03  0.25500000920E-02 0.  1.
        2   -1    0    0  501    0  0.00000000000E+00  0.00000000000E+00 -0.22734519106E+04  0.22734519106E+04  0.25500000920E-02 0. -1.
    10030    2    1    2    0    0  0.00000000000E+00  0.00000000000E+00 -0.18846703625E+04  0.26622334587E+04  0.18802937571E+04 0.  0.
        4    1    3    3  502    0 -0.71133540941E+03 -0.46346569851E+03 -0.37057291873E+03  0.92635005228E+03  0.12699999809E+01 0. -1.
       -4    1    3    3    0  502  0.71133540941E+03  0.46346569851E+03 -0.15140974438E+04  0.17358834064E+04  0.12699999809E+01 0.  1.
</event>
<event>
 5   0  0.2562925E-04  0.1928918E+04  0.7818609E-02  0.8640594E-01
       -2   -1    0    0    0  501  0.00000000000E+00  0.00000000000E+00  0.11030223199E+04  0.11030223199E+04  0.25500000920E-02 0.  1.
        2   -1    0    0  501    0  0.00000000000E+00  0.00000000000E+00 -0.84330223604E+03  0.84330223605E+03  0.25500000920E-02 0. -1.
    10030    2    1    2    0    0  0.00000000000E+00  0.00000000000E+00  0.25972008385E+03  0.19463245559E+04  0.19289180271E+04 0.  0.
        4    1    3    3  502    0  0.70436097324E+01 -0.81824654235E+03  0.64495918620E+03  0.10418977787E+04  0.12699999809E+01 0.  1.
       -4    1    3    3    0  502 -0.70436097324E+01  0.81824654235E+03 -0.38523910235E+03  0.90442677724E+03  0.12699999809E+01 0. -1.
</event>
<event>
 5   0  0.1277709E-04  0.1769733E+04  0.7818609E-02  0.8722563E-01
       -1   -1    0    0    0  501  0.00000000000E+00  0.00000000000E+00  0.56758805911E+03  0.56758805913E+03  0.50400001928E-02 0.  1.
        1   -1    0    0  501    0  0.00000000000E+00  0.00000000000E+00 -0.13795013655E+04  0.13795013655E+04  0.50400001928E-02 0. -1.
    10030    2    1    2    0    0  0.00000000000E+00  0.00000000000E+00 -0.81191330639E+03  0.19470894246E+04  0.17697327511E+04 0.  0.
        4    1    3    3  502    0  0.12958637686E+03  0.64639154783E+03  0.24342493737E+03  0.70276025443E+03  0.12699999809E+01 0.  1.
       -4    1    3    3    0  502 -0.12958637686E+03 -0.64639154783E+03 -0.10553382438E+04  0.12443291702E+04  0.12699999809E+01 0. -1.
</event>
<event>
 5   0  0.2651828E-04  0.1945749E+04  0.7818609E-02  0.8632413E-01
        2   -1    0    0  501    0  0.00000000000E+00  0.00000000000E+00  0.19780703972E+04  0.19780703972E+04  0.25500000920E-02 0.  1.
       -2   -1    0    0    0  501  0.00000000000E+00  0.00000000000E+00 -0.47848916104E+03  0.47848916104E+03  0.25500000920E-02 0. -1.
    10030    2    1    2    0    0  0.00000000000E+00  0.00000000000E+00  0.14995812362E+04  0.24565595582E+04  0.19457494647E+04 0.  0.
        3    1    3    3  502    0  0.63547883182E+03  0.23540345375E+03 -0.13148256400E+03  0.69031572962E+03  0.10100000352E+00 0. -1.
       -3    1    3    3    0  502 -0.63547883182E+03 -0.23540345375E+03  0.16310638002E+04  0.17662438286E+04  0.10100000352E+00 0.  1.
</event>
<event>
 5   0  0.1277709E-04  0.1902248E+04  0.7818609E-02  0.8653738E-01
       -1   -1    0    0    0  501  0.00000000000E+00  0.00000000000E+00  0.52754225646E+03  0.52754225648E+03  0.50400001928E-02 0.  1.
        1   -1    0    0  501    0  0.00000000000E+00  0.00000000000E+00 -0.17148140518E+04  0.17148140518E+04  0.50400001928E-02 0. -1.
    10030    2    1    2    0    0  0.00000000000E+00  0.00000000000E+00 -0.11872717953E+04  0.22423563083E+04  0.19022480115E+04 0.  0.
        4    1    3    3  502    0 -0.69930079609E+03  0.54546670392E+03 -0.18857048185E+03  0.90670610896E+03  0.12699999809E+01 0.  1.
       -4    1    3    3    0  502  0.69930079609E+03 -0.54546670392E+03 -0.99870131350E+03  0.13356501993E+04  0.12699999809E+01 0. -1.
</event>
<event>
 5   0  0.2595012E-04  0.1883173E+04  0.7818609E-02  0.8663278E-01
        2   -1    0    0  501    0  0.00000000000E+00  0.00000000000E+00  0.16100442845E+04  0.16100442845E+04  0.25500000920E-02 0. -1.
       -2   -1    0    0    0  501  0.00000000000E+00  0.00000000000E+00 -0.55065890352E+03  0.55065890352E+03  0.25500000920E-02 0.  1.
    10030    2    1    2    0    0  0.00000000000E+00  0.00000000000E+00  0.10593853810E+04  0.21607031881E+04  0.18831730885E+04 0.  0.
        1    1    3    3  502    0  0.22691248550E+02 -0.52293939659E+03 -0.36834598572E+03  0.64004630340E+03  0.50400001928E-02 0.  1.
       -1    1    3    3    0  502 -0.22691248550E+02  0.52293939659E+03  0.14277313667E+04  0.15206568847E+04  0.50400001928E-02 0. -1.
</event>
<event>
 5   0  0.2608744E-04  0.1917804E+04  0.7818609E-02  0.8646045E-01
        2   -1    0    0  501    0  0.00000000000E+00  0.00000000000E+00  0.97020789522E+03  0.97020789523E+03  0.25500000920E-02 0.  1.
       -2   -1    0    0    0  501  0.00000000000E+00  0.00000000000E+00 -0.94772766479E+03  0.94772766479E+03  0.25500000920E-02 0. -1.
    10030    2    1    2    0    0  0.00000000000E+00  0.00000000000E+00  0.22480230437E+02  0.19179355600E+04  0.19178038095E+04 0.  0.
        2    1    3    3  502    0  0.37139751581E+03 -0.88389165294E+03 -0.58576673935E+01  0.95876737594E+03  0.25500000920E-02 0.  1.
       -2    1    3    3    0  502 -0.37139751581E+03  0.88389165294E+03  0.28337897830E+02  0.95916818408E+03  0.25500000920E-02 0. -1.
</event>
<event>
 5   0  0.1277709E-04  0.1885430E+04  0.7818609E-02  0.8662143E-01
       -1   -1    0    0    0  501  0.00000000000E+00  0.00000000000E+00  0.60282964176E+03  0.60282964178E+03  0.50400001928E-02 0. -1.
        1   -1    0    0  501    0  0.00000000000E+00  0.00000000000E+00 -0.14742335467E+04  0.14742335467E+04  0.50400001928E-02 0.  1.
    10030    2    1    2    0    0  0.00000000000E+00  0.00000000000E+00 -0.87140390496E+03  0.20770631885E+04  0.18854301163E+04 0.  0.
        4    1    3    3  502    0 -0.53566126658E+03  0.43574272690E+03 -0.11427321876E+04  0.13351566133E+04  0.12699999809E+01 0.  1.
       -4    1    3    3    0  502  0.53566126658E+03 -0.43574272690E+03  0.27132828260E+03  0.74190657525E+03  0.12699999809E+01 0. -1.
</event>
<event>
 5   0  0.1255141E-04  0.1931047E+04  0.7818609E-02  0.8639555E-01
        1   -1    0    0  501    0  0.00000000000E+00  0.00000000000E+00  0.11799762635E+04  0.11799762635E+04  0.50400001928E-02 0.  1.
       -1   -1    0    0    0  501  0.00000000000E+00  0.00000000000E+00 -0.79004644033E+03  0.79004644034E+03  0.50400001928E-02 0. -1.
    10030    2    1    2    0    0  0.00000000000E+00  0.00000000000E+00  0.38992982317E+03  0.19700227038E+04  0.19310474325E+04 0.  0.
        2    1    3    3  502    0 -0.89830947933E+03  0.33711196849E+03  0.84938007975E+02  0.96323354653E+03  0.25500000920E-02 0.  1.
       -2    1    3    3    0  502  0.89830947933E+03 -0.33711196849E+03  0.30499181520E+03  0.10067891573E+04  0.25500000920E-02 0. -1.
</event>
<event>
 5   0  0.2562925E-04  0.1911142E+04  0.7818609E-02  0.8649330E-01
       -2   -1    0    0    0  501  0.00000000000E+00  0.00000000000E+00  0.69618793261E+03  0.69618793261E+03  0.25500000920E-02 0.  1.
        2   -1    0    0  501    0  0.00000000000E+00  0.00000000000E+00 -0.13115938667E+04  0.13115938667E+04  0.25500000920E-02 0. -1.
    10030    2    1    2    0    0  0.00000000000E+00  0.00000000000E+00 -0.61540593410E+03  0.20077817993E+04  0.19111418812E+04 0.  0.
        4    1    3    3  502    0  0.20072796699E+03  0.22745172221E+03 -0.12596625070E+04  0.12956763666E+04  0.12699999809E+01 0. -1.
       -4    1    3    3    0  502 -0.20072796699E+03 -0.22745172221E+03  0.64425657288E+03  0.71210543269E+03  0.12699999809E+01 0.  1.
</event>
<event>
 5   0  0.2562925E-04  0.1889012E+04  0.7818609E-02  0.8660345E-01
       -2   -1    0    0    0  501  0.00000000000E+00  0.00000000000E+00  0.55033817775E+03  0.55033817775E+03  0.25500000920E-02 0.  1.
        2   -1    0    0  501    0  0.00000000000E+00  0.00000000000E+00 -0.16209877798E+04  0.16209877798E+04  0.25500000920E-02 0. -1.
    10030    2    1    2    0    0  0.00000000000E+00  0.00000000000E+00 -0.10706496020E+04  0.21713259575E+04  0.18890118696E+04 0.  0.
        4    1    3    3  502    0  0.48127236877E+03 -0.23081353406E+03 -0.14310056955E+04  0.15273103463E+04  0.12699999809E+01 0. -1.
       -4    1    3    3    0  502 -0.48127236877E+03  0.23081353406E+03  0.36035609351E+03  0.64401561120E+03  0.12699999809E+01 0.  1.
</event>
<event>
 5   0  0.1277709E-04  0.1872593E+04  0.7818609E-02  0.8668620E-01
        1   -1    0    0  501    0  0.00000000000E+00  0.00000000000E+00  0.10659561017E+04  0.10659561017E+04  0.50400001928E-02 0. -1.
       -1   -1    0    0    0  501  0.00000000000E+00  0.00000000000E+00 -0.82240846959E+03  0.82240846960E+03  0.50400001928E-02 0.  1.
    10030    2    1    2    0    0  0.00000000000E+00  0.00000000000E+00  0.24354763211E+03  0.18883645713E+04  0.18725932033E+04 0.  0.
        4    1    3    3  502    0  0.15292706732E+03 -0.21895764362E+03 -0.78318079803E+03  0.82746777153E+03  0.12699999809E+01 0.  1.
       -4    1    3    3    0  502 -0.15292706732E+03  0.21895764362E+03  0.10267284301E+04  0.10608967998E+04  0.12699999809E+01 0. -1.
</event>
<event>
 5   0  0.1255141E-04  0.1754171E+04  0.7818609E-02  0.8731058E-01
        1   -1    0    0  501    0  0.00000000000E+00  0.00000000000E+00  0.22616769254E+04  0.22616769254E+04  0.50400001928E-02 0. -1.
       -1   -1    0    0    0  501  0.00000000000E+00  0.00000000000E+00 -0.34013655573E+03  0.34013655577E+03  0.50400001928E-02 0.  1.
    10030    2    1    2    0    0  0.00000000000E+00  0.00000000000E+00  0.19215403697E+04  0.26018134812E+04  0.17541710289E+04 0.  0.
        2    1    3    3  502    0 -0.22687330780E+03 -0.74883661464E+03  0.15485638370E+04  0.17350151960E+04  0.25500000920E-02 0. -1.
       -2    1    3    3    0  502  0.22687330780E+03  0.74883661464E+03  0.37297653270E+03  0.86679828516E+03  0.25500000920E-02 0.  1.
</event>
<event>
 5   0  0.2541124E-04  0.1893048E+04  0.7818609E-02  0.8658325E-01
       -2   -1    0    0    0  501  0.00000000000E+00  0.00000000000E+00  0.40865472719E+03  0.40865472720E+03  0.25500000920E-02 0.  1.
        2   -1    0    0  501    0  0.00000000000E+00  0.00000000000E+00 -0.21923341988E+04  0.21923341988E+04  0.25500000920E-02 0. -1.
    10030    2    1    2    0    0  0.00000000000E+00  0.00000000000E+00 -0.17836794716E+04  0.26009889260E+04  0.18930480543E+04 0.  0.
        5    1    3    3  502    0 -0.54778385495E+03  0.72267398649E+03 -0.51919062373E+03  0.10449429823E+04  0.46999998093E+01 0. -1.
       -5    1    3    3    0  502  0.54778385495E+03 -0.72267398649E+03 -0.12644888479E+04  0.15560459437E+04  0.46999998093E+01 0.  1.
</event>
<event>
 5   0  0.9266125E-05  0.1878861E+04  0.7818609E-02  0.8665451E-01
       -4   -1    0    0    0  501  0.00000000000E+00  0.00000000000E+00  0.16140560275E+04  0.16140565272E+04  0.12699999809E+01 0. -1.
        4   -1    0    0  501    0  0.00000000000E+00  0.00000000000E+00 -0.54677623568E+03  0.54677771060E+03  0.12699999809E+01 0.  1.
    10030    2    1    2    0    0  0.00000000000E+00  0.00000000000E+00  0.10672797919E+04  0.21608342378E+04  0.18788609446E+04 0.  0.
        2    1    3    3  502    0  0.62018035888E+03 -0.36992809501E+02  0.13440462279E+04  0.14806932188E+04  0.25500000920E-02 0. -1.
       -2    1    3    3    0  502 -0.62018035888E+03  0.36992809501E+02 -0.27676643608E+03  0.68014101894E+03  0.25500000920E-02 0.  1.
</event>
<event>
 5   0  0.1324058E-04  0.1440131E+04  0.7818609E-02  0.8925271E-01
        1   -1    0    0  501    0  0.00000000000E+00  0.00000000000E+00  0.45233035214E+03  0.45233035217E+03  0.50400001928E-02 0. -1.
       -1   -1    0    0    0  501  0.00000000000E+00  0.00000000000E+00 -0.11462737986E+04  0.11462737987E+04  0.50400001928E-02 0.  1.
    10030    2    1    2    0    0  0.00000000000E+00  0.00000000000E+00 -0.69394344650E+03  0.15986041508E+04  0.14401311482E+04 0.  0.
        5    1    3    3  502    0  0.69978181272E+03  0.12961467381E+03 -0.46845801475E+03  0.85203846783E+03  0.46999998093E+01 0. -1.
       -5    1    3    3    0  502 -0.69978181272E+03 -0.12961467381E+03 -0.22548543175E+03  0.74656568299E+03  0.46999998093E+01 0.  1.
</event>
<event>
 5   0  0.2608744E-04  0.1904076E+04  0.7818609E-02  0.8652830E-01
       -2   -1    0    0    0  501  0.00000000000E+00  0.00000000000E+00  0.90869256263E+03  0.90869256263E+03  0.25500000920E-02 0. -1.
        2   -1    0    0  501    0  0.00000000000E+00  0.00000000000E+00 -0.99745094100E+03  0.99745094101E+03  0.25500000920E-02 0.  1.
    10030    2    1    2    0    0  0.00000000000E+00  0.00000000000E+00 -0.88758378376E+02  0.19061435036E+04  0.19040758931E+04 0.  0.
        2    1    3    3  502    0 -0.74202392393E+03  0.35819334573E+03  0.43308134932E+03  0.93083910089E+03  0.25500000920E-02 0. -1.
       -2    1    3    3    0  502  0.74202392393E+03 -0.35819334573E+03 -0.52183972770E+03  0.97530440275E+03  0.25500000920E-02 0.  1.
</event>
<event>
 5   0  0.1277709E-04  0.1880437E+04  0.7818609E-02  0.8664656E-01
        1   -1    0    0  501    0  0.00000000000E+00  0.00000000000E+00  0.12463356761E+04  0.12463356761E+04  0.50400001928E-02 0.  1.
       -1   -1    0    0    0  501  0.00000000000E+00  0.00000000000E+00 -0.70928760227E+03  0.70928760229E+03  0.50400001928E-02 0. -1.
    10030    2    1    2    0    0  0.00000000000E+00  0.00000000000E+00  0.53704807385E+03  0.19556232784E+04  0.18804365912E+04 0.  0.
        4    1    3    3  502    0 -0.31312670931E+03  0.74778640164E+03  0.76377467332E+03  0.11138160544E+04  0.12699999809E+01 0.  1.
       -4    1    3    3    0  502  0.31312670931E+03 -0.74778640164E+03 -0.22672659948E+03  0.84180722400E+03  0.12699999809E+01 0. -1.
</event>
<event>
 5   0  0.2651828E-04  0.1892884E+04  0.7818609E-02  0.8658407E-01
        2   -1    0    0  501    0  0.00000000000E+00  0.00000000000E+00  0.89320352188E+03  0.89320352189E+03  0.25500000920E-02 0. -1.
       -2   -1    0    0    0  501  0.00000000000E+00  0.00000000000E+00 -0.10028535569E+04  0.10028535569E+04  0.25500000920E-02 0.  1.
    10030    2    1    2    0    0  0.00000000000E+00  0.00000000000E+00 -0.10965003502E+03  0.18960570788E+04  0.18928838622E+04 0.  0.
        3    1    3    3  502    0  0.86288427886E+03 -0.32967115643E+03  0.15167578490E+03  0.93608648319E+03  0.10100000352E+00 0. -1.
       -3    1    3    3    0  502 -0.86288427886E+03  0.32967115643E+03 -0.26132581992E+03  0.95997059561E+03  0.10100000352E+00 0.  1.
</event>
<event>
 5   0  0.9266125E-05  0.1938297E+04  0.7818609E-02  0.8636025E-01
        4   -1    0    0  501    0  0.00000000000E+00  0.00000000000E+00  0.11094888340E+04  0.11094895609E+04  0.12699999809E+01 0.  1.
       -4   -1    0    0    0  501  0.00000000000E+00  0.00000000000E+00 -0.84655837698E+03  0.84655932960E+03  0.12699999809E+01 0. -1.
    10030    2    1    2    0    0  0.00000000000E+00  0.00000000000E+00  0.26293045702E+03  0.19560488905E+04  0.19382968907E+04 0.  0.
        3    1    3    3  502    0 -0.56441703072E+03  0.42389324639E+03  0.80162297467E+03  0.10681064894E+04  0.10100000352E+00 0.  1.
       -3    1    3    3    0  502  0.56441703072E+03 -0.42389324639E+03 -0.53869251765E+03  0.88794240110E+03  0.10100000352E+00 0. -1.
</event>
<event>
 5   0  0.2608744E-04  0.2071296E+04  0.7818609E-02  0.8573994E-01
        2   -1    0    0  501    0  0.00000000000E+00  0.00000000000E+00  0.15810701858E+04  0.15810701858E+04  0.25500000920E-02 0. -1.
       -2   -1    0    0    0  501  0.00000000000E+00  0.00000000000E+00 -0.67838049878E+03  0.67838049878E+03  0.25500000920E-02 0.  1.
    10030    2    1    2    0    0  0.00000000000E+00  0.00000000000E+00  0.90268968701E+03  0.22594506846E+04  0.20712963875E+04 0.  0.
        2    1    3    3  502    0  0.41526230957E+03  0.91661983566E+03  0.18429537626E+03  0.10230344543E+04  0.25500000920E-02 0.  1.
       -2    1    3    3    0  502 -0.41526230957E+03 -0.91661983566E+03  0.71839431075E+03  0.12364162303E+04  0.25500000920E-02 0. -1.
</event>
<event>
 5   0  0.1239615E-04  0.1905556E+04  0.7818609E-02  0.8652096E-01
        1   -1    0    0  501    0  0.00000000000E+00  0.00000000000E+00  0.19021858833E+04  0.19021858833E+04  0.50400001928E-02 0. -1.
       -1   -1    0    0    0  501  0.00000000000E+00  0.00000000000E+00 -0.47723301003E+03  0.47723301005E+03  0.50400001928E-02 0.  1.
    10030    2    1    2    0    0  0.00000000000E+00  0.00000000000E+00  0.14249528732E+04  0.23794188933E+04  0.19055559763E+04 0.  0.
        3    1    3    3  502    0  0.57121767694E+03  0.61410877952E+02  0.16615715957E+04  0.17580901877E+04  0.10100000352E+00 0. -1.
       -3    1    3    3    0  502 -0.57121767694E+03 -0.61410877952E+02 -0.23661872246E+03  0.62132870559E+03  0.10100000352E+00 0.  1.
</event>
<event>
 5   0  0.2608744E-04  0.1919860E+04  0.7818609E-02  0.8645034E-01
        2   -1    0    0  501    0  0.00000000000E+00  0.00000000000E+00  0.22014558140E+04  0.22014558140E+04  0.25500000920E-02 0. -1.
       -2   -1    0    0    0  501  0.00000000000E+00  0.00000000000E+00 -0.41857086378E+03  0.41857086379E+03  0.25500000920E-02 0.  1.
    10030    2    1    2    0    0  0.00000000000E+00  0.00000000000E+00  0.17828849502E+04  0.26200266778E+04  0.19198596424E+04 0.  0.
        2    1    3    3  502    0  0.52429588504E+02  0.91351993655E+03  0.12874344766E+04  0.15794793660E+04  0.25500000920E-02 0. -1.
       -2    1    3    3    0  502 -0.52429588504E+02 -0.91351993655E+03  0.49545047368E+03  0.10405473118E+04  0.25500000920E-02 0.  1.
</event>
<event>
 5   0  0.1324058E-04  0.1900904E+04  0.7818609E-02  0.8654406E-01
        1   -1    0    0  501    0  0.00000000000E+00  0.00000000000E+00  0.16421356986E+04  0.16421356986E+04  0.50400001928E-02 0. -1.
       -1   -1    0    0    0  501  0.00000000000E+00  0.00000000000E+00 -0.55011243595E+03  0.55011243597E+03  0.50400001928E-02 0.  1.
    10030    2    1    2    0    0  0.00000000000E+00  0.00000000000E+00  0.10920232626E+04  0.21922481345E+04  0.19009042788E+04 0.  0.
        5    1    3    3  502    0  0.18237583151E+02 -0.59010649514E+02 -0.54778210316E+03  0.55127324326E+03  0.46999998093E+01 0.  1.
       -5    1    3    3    0  502 -0.18237583151E+02  0.59010649514E+02  0.16398053658E+04  0.16409748913E+04  0.46999998093E+01 0. -1.
</event>
<event>
 5   0  0.1277709E-04  0.1892000E+04  0.7818609E-02  0.8658849E-01
        1   -1    0    0  501    0  0.00000000000E+00  0.00000000000E+00  0.11775977791E+04  0.11775977791E+04  0.50400001928E-02 0. -1.
       -1   -1    0    0    0  501  0.00000000000E+00  0.00000000000E+00 -0.75995018727E+03  0.75995018729E+03  0.50400001928E-02 0.  1.
    10030    2    1    2    0    0  0.00000000000E+00  0.00000000000E+00  0.41764759184E+03  0.19375479664E+04  0.18919996330E+04 0.  0.
        4    1    3    3  502    0  0.65527035464E+03  0.33295116310E+03 -0.40106230987E+03  0.83731015996E+03  0.12699999809E+01 0.  1.
       -4    1    3    3    0  502 -0.65527035464E+03 -0.33295116310E+03  0.81870990171E+03  0.11002378064E+04  0.12699999809E+01 0. -1.
</event>
<event>
 5   0  0.2651828E-04  0.1881213E+04  0.7818609E-02  0.8664265E-01
       -2   -1    0    0    0  501  0.00000000000E+00  0.00000000000E+00  0.28214197628E+03  0.28214197629E+03  0.25500000920E-02 0.  1.
        2   -1    0    0  501    0  0.00000000000E+00  0.00000000000E+00 -0.31358004085E+04  0.31358004085E+04  0.25500000920E-02 0. -1.
    10030    2    1    2    0    0  0.00000000000E+00  0.00000000000E+00 -0.28536584322E+04  0.34179423848E+04  0.18812133579E+04 0.  0.
        3    1    3    3  502    0  0.34174753574E+03 -0.35995085621E+02 -0.30176686786E+04  0.30371715935E+04  0.10100000352E+00 0. -1.
       -3    1    3    3    0  502 -0.34174753574E+03  0.35995085621E+02  0.16401024639E+03  0.38077079128E+03  0.10100000352E+00 0.  1.
</event>
<event>
 5   0  0.1239615E-04  0.1885048E+04  0.7818609E-02  0.8662335E-01
        1   -1    0    0  501    0  0.00000000000E+00  0.00000000000E+00  0.48881589927E+03  0.48881589930E+03  0.50400001928E-02 0. -1.
       -1   -1    0    0    0  501  0.00000000000E+00  0.00000000000E+00 -0.18173539609E+04  0.18173539609E+04  0.50400001928E-02 0.  1.
    10030    2    1    2    0    0  0.00000000000E+00  0.00000000000E+00 -0.13285380616E+04  0.23061698602E+04  0.18850480214E+04 0.  0.
        3    1    3    3  502    0 -0.51585565709E+03 -0.52905285141E+02  0.29860708725E+03  0.59839136934E+03  0.10100000352E+00 0. -1.
       -3    1    3    3    0  502  0.51585565709E+03  0.52905285141E+02 -0.16271451489E+04  0.17077784909E+04  0.10100000352E+00 0.  1.
</event>
<event>
 5   0  0.1255141E-04  0.1888498E+04  0.7818609E-02  0.8660603E-01
       -1   -1    0    0    0  501  0.00000000000E+00  0.00000000000E+00  0.74855103252E+03  0.74855103254E+03  0.50400001928E-02 0.  1.
        1   -1    0    0  501    0  0.00000000000E+00  0.00000000000E+00 -0.11911088838E+04  0.11911088838E+04  0.50400001928E-02 0. -1.
    10030    2    1    2    0    0  0.00000000000E+00  0.00000000000E+00 -0.44255785126E+03  0.19396599163E+04  0.18884975878E+04 0.  0.
        2    1    3    3  502    0  0.67654414457E+03 -0.23985433579E+03  0.40882621530E+03  0.82606353041E+03  0.25500000920E-02 0.  1.
       -2    1    3    3    0  502 -0.67654414457E+03  0.23985433579E+03 -0.85138406655E+03  0.11135963859E+04  0.25500000920E-02 0. -1.
</event>
<event>
 5   0  0.1255141E-04  0.1879905E+04  0.7818609E-02  0.8664924E-01
        1   -1    0    0  501    0  0.00000000000E+00  0.00000000000E+00  0.14947681097E+04  0.14947681097E+04  0.50400001928E-02 0.  1.
       -1   -1    0    0    0  501  0.00000000000E+00  0.00000000000E+00 -0.59106901115E+03  0.59106901117E+03  0.50400001928E-02 0. -1.
    10030    2    1    2    0    0  0.00000000000E+00  0.00000000000E+00  0.90369909858E+03  0.20858371209E+04  0.18799054323E+04 0.  0.
        2    1    3    3  502    0  0.75144395907E+03 -0.50657734313E+03  0.17508016415E+03  0.92300687543E+03  0.25500000920E-02 0. -1.
       -2    1    3    3    0  502 -0.75144395907E+03  0.50657734313E+03  0.72861893442E+03  0.11628302455E+04  0.25500000920E-02 0.  1.
</event>
<event>
 5   0  0.2562925E-04  0.1904526E+04  0.7818609E-02  0.8652607E-01
        2   -1    0    0  501    0  0.00000000000E+00  0.00000000000E+00  0.24984407873E+04  0.24984407873E+04  0.25500000920E-02 0.  1.
       -2   -1    0    0    0  501  0.00000000000E+00  0.00000000000E+00 -0.36294841054E+03  0.36294841055E+03  0.25500000920E-02 0. -1.
    10030    2    1    2    0    0  0.00000000000E+00  0.00000000000E+00  0.21354923767E+04  0.28613891978E+04  0.19045263060E+04 0.  0.
        4    1    3    3  502    0 -0.10747901088E+03 -0.68023457288E+03  0.20558428332E+04  0.21681241153E+04  0.12699999809E+01 0.  1.
       -4    1    3    3    0  502  0.10747901088E+03  0.68023457288E+03  0.79649543577E+02  0.69326508250E+03  0.12699999809E+01 0. -1.
</event>
<event>
 5   0  0.1317527E-04  0.1871695E+04  0.7818609E-02  0.8669075E-01
       -1   -1    0    0    0  501  0.00000000000E+00  0.00000000000E+00  0.17548059298E+04  0.17548059298E+04  0.50400001928E-02 0.  1.
        1   -1    0    0  501    0  0.00000000000E+00  0.00000000000E+00 -0.49909275384E+03  0.49909275386E+03  0.50400001928E-02 0. -1.
    10030    2    1    2    0    0  0.00000000000E+00  0.00000000000E+00  0.12557131760E+04  0.22538986837E+04  0.18716954068E+04 0.  0.
        1    1    3    3  502    0 -0.46133227910E+03  0.80673616178E+03  0.49506520716E+03  0.10529673622E+04  0.50400001928E-02 0. -1.
       -1    1    3    3    0  502  0.46133227910E+03 -0.80673616178E+03  0.76064796880E+03  0.12009313215E+04  0.50400001928E-02 0.  1.
</event>
<event>
 5   0  0.1317527E-04  0.1909074E+04  0.7818609E-02  0.8650353E-01
       -1   -1    0    0    0  501  0.00000000000E+00  0.00000000000E+00  0.85751764272E+03  0.85751764273E+03  0.50400001928E-02 0. -1.
        1   -1    0    0  501    0  0.00000000000E+00  0.00000000000E+00 -0.10625331484E+04  0.10625331484E+04  0.50400001928E-02 0.  1.
    10030    2    1    2    0    0  0.00000000000E+00  0.00000000000E+00 -0.20501550569E+03  0.19200507911E+04  0.19090740381E+04 0.  0.
        1    1    3    3  502    0 -0.74258750202E+03 -0.61679690675E+02 -0.70251175339E+03  0.10240914735E+04  0.50400001928E-02 0.  1.
       -1    1    3    3    0  502  0.74258750202E+03  0.61679690675E+02  0.49749624770E+03  0.89595931766E+03  0.50400001928E-02 0. -1.
</event>
<event>
 5   0  0.2541124E-04  0.1906027E+04  0.7818609E-02  0.8651862E-01
       -2   -1    0    0    0  501  0.00000000000E+00  0.00000000000E+00  0.57162368640E+03  0.57162368641E+03  0.25500000920E-02 0. -1.
        2   -1    0    0  501    0  0.00000000000E+00  0.00000000000E+00 -0.15888680138E+04  0.15888680138E+04  0.25500000920E-02 0.  1.
    10030    2    1    2    0    0  0.00000000000E+00  0.00000000000E+00 -0.10172443274E+04  0.21604917002E+04  0.19060268532E+04 0.  0.
        5    1    3    3  502    0  0.29174505007E-01 -0.28640104542E+03  0.52167558422E+03  0.59514121420E+03  0.46999998093E+01 0. -1.
       -5    1    3    3    0  502 -0.29174505007E-01  0.28640104542E+03 -0.15389199116E+04  0.15653504860E+04  0.46999998093E+01 0.  1.
</event>
<event>
 5   0  0.2595012E-04  0.1898771E+04  0.7818609E-02  0.8655468E-01
       -2   -1    0    0    0  501  0.00000000000E+00  0.00000000000E+00  0.52418006221E+03  0.52418006221E+03  0.25500000920E-02 0. -1.
        2   -1    0    0  501    0  0.00000000000E+00  0.00000000000E+00 -0.17195095589E+04  0.17195095589E+04  0.25500000920E-02 0.  1.
    10030    2    1    2    0    0  0.00000000000E+00  0.00000000000E+00 -0.11953294967E+04  0.22436896211E+04  0.18987707893E+04 0.  0.
        1    1    3    3  502    0  0.11224808547E+03  0.91972249425E+03 -0.35307804005E+03  0.99154082191E+03  0.50400001928E-02 0.  1.
       -1    1    3    3    0  502 -0.11224808547E+03 -0.91972249425E+03 -0.84225145667E+03  0.12521487992E+04  0.50400001928E-02 0. -1.
</event>
<event>
 5   0  0.2595012E-04  0.1963067E+04  0.7818609E-02  0.8624085E-01
        2   -1    0    0  501    0  0.00000000000E+00  0.00000000000E+00  0.77163804515E+03  0.77163804516E+03  0.25500000920E-02 0.  1.
       -2   -1    0    0    0  501  0.00000000000E+00  0.00000000000E+00 -0.12485237776E+04  0.12485237776E+04  0.25500000920E-02 0. -1.
    10030    2    1    2    0    0  0.00000000000E+00  0.00000000000E+00 -0.47688573247E+03  0.20201618228E+04  0.19630674437E+04 0.  0.
        1    1    3    3  502    0  0.70261254340E+03  0.29843402542E+03  0.39649561668E+03  0.86019534278E+03  0.50400001928E-02 0.  1.
       -1    1    3    3    0  502 -0.70261254340E+03 -0.29843402542E+03 -0.87338134915E+03  0.11599664800E+04  0.50400001928E-02 0. -1.
</event>
<event>
 5   0  0.1239615E-04  0.1896006E+04  0.7818609E-02  0.8656847E-01
       -1   -1    0    0    0  501  0.00000000000E+00  0.00000000000E+00  0.27974521367E+03  0.27974521372E+03  0.50400001928E-02 0.  1.
        1   -1    0    0  501    0  0.00000000000E+00  0.00000000000E+00 -0.32126018168E+04  0.32126018168E+04  0.50400001928E-02 0. -1.
    10030    2    1    2    0    0  0.00000000000E+00  0.00000000000E+00 -0.29328566031E+04  0.34923470305E+04  0.18960063099E+04 0.  0.
        3    1    3    3  502    0  0.91353994257E+03  0.55603144657E+02 -0.10112654517E+04  0.13639298957E+04  0.10100000352E+00 0.  1.
       -3    1    3    3    0  502 -0.91353994257E+03 -0.55603144657E+02 -0.19215911514E+04  0.21284171348E+04  0.10100000352E+00 0. -1.
</event>
<event>
 5   0  0.2541124E-04  0.1888077E+04  0.7818609E-02  0.8660814E-01
       -2   -1    0    0    0  501  0.00000000000E+00  0.00000000000E+00  0.55299283581E+03  0.55299283582E+03  0.25500000920E-02 0.  1.
        2   -1    0    0  501    0  0.00000000000E+00  0.00000000000E+00 -0.16116093088E+04  0.16116093088E+04  0.25500000920E-02 0. -1.
    10030    2    1    2    0    0  0.00000000000E+00  0.00000000000E+00 -0.10586164730E+04  0.21646021446E+04  0.18880766954E+04 0.  0.
        5    1    3    3  502    0 -0.18512117008E+03 -0.34819241452E+03  0.45402900357E+03  0.60139191151E+03  0.46999998093E+01 0.  1.
       -5    1    3    3    0  502  0.18512117008E+03  0.34819241452E+03 -0.15126454766E+04  0.15632102331E+04  0.46999998093E+01 0. -1.
</event>
<event>
 5   0  0.2608744E-04  0.2134398E+04  0.7818609E-02  0.8546240E-01
        2   -1    0    0  501    0  0.00000000000E+00  0.00000000000E+00  0.96480460605E+03  0.96480460605E+03  0.25500000920E-02 0.  1.
       -2   -1    0    0    0  501  0.00000000000E+00  0.00000000000E+00 -0.11804608448E+04  0.11804608448E+04  0.25500000920E-02 0. -1.
    10030    2    1    2    0    0  0.00000000000E+00  0.00000000000E+00 -0.21565623870E+03  0.21452654508E+04  0.21343983323E+04 0.  0.
        2    1    3    3  502    0  0.64741692901E+03  0.74255232337E+02 -0.95726508890E+03  0.11580237346E+04  0.25500000920E-02 0. -1.
       -2    1    3    3    0  502 -0.64741692901E+03 -0.74255232337E+02  0.74160885019E+03  0.98724171619E+03  0.25500000920E-02 0.  1.
</event>
<event>
 5   0  0.1324058E-04  0.1917827E+04  0.7818609E-02  0.8646033E-01
       -1   -1    0    0    0  501  0.00000000000E+00  0.00000000000E+00  0.10231097951E+04  0.10231097952E+04  0.50400001928E-02 0.  1.
        1   -1    0    0  501    0  0.00000000000E+00  0.00000000000E+00 -0.89874488322E+03  0.89874488323E+03  0.50400001928E-02 0. -1.
    10030    2    1    2    0    0  0.00000000000E+00  0.00000000000E+00  0.12436491193E+03  0.19218546784E+04  0.19178265755E+04 0.  0.
        5    1    3    3  502    0 -0.24662735215E+03 -0.55464908941E+03 -0.68169192089E+03  0.91279057194E+03  0.46999998093E+01 0. -1.
       -5    1    3    3    0  502  0.24662735215E+03  0.55464908941E+03  0.80605683282E+03  0.10090641065E+04  0.46999998093E+01 0.  1.
</event>
<event>
 5   0  0.2595012E-04  0.1935547E+04  0.7818609E-02  0.8637362E-01
        2   -1    0    0  501    0  0.00000000000E+00  0.00000000000E+00  0.68444925638E+03  0.68444925639E+03  0.25500000920E-02 0.  1.
       -2   -1    0    0    0  501  0.00000000000E+00  0.00000000000E+00 -0.13683785785E+04  0.13683785785E+04  0.25500000920E-02 0. -1.
    10030    2    1    2    0    0  0.00000000000E+00  0.00000000000E+00 -0.68392932211E+03  0.20528278349E+04  0.19355471583E+04 0.  0.
        1    1    3    3  502    0 -0.20148620808E+03  0.94421766379E+03 -0.27127781143E+03  0.10028635698E+04  0.50400001928E-02 0.  1.
       -1    1    3    3    0  502  0.20148620808E+03 -0.94421766379E+03 -0.41265151069E+03  0.10499642651E+04  0.50400001928E-02 0. -1.
</event>
<event>
 5   0  0.2562925E-04  0.1970061E+04  0.7818609E-02  0.8620747E-01
       -2   -1    0    0    0  501  0.00000000000E+00  0.00000000000E+00  0.12712542290E+04  0.12712542290E+04  0.25500000920E-02 0.  1.
        2   -1    0    0  501    0  0.00000000000E+00  0.00000000000E+00 -0.76325037953E+03  0.76325037954E+03  0.25500000920E-02 0. -1.
    10030    2    1    2    0    0  0.00000000000E+00  0.00000000000E+00  0.50800384949E+03  0.20345046086E+04  0.19700611897E+04 0.  0.
        4    1    3    3  502    0 -0.18052739611E+03 -0.26880202238E+03  0.12147227206E+04  0.12571386435E+04  0.12699999809E+01 0.  1.
       -4    1    3    3    0  502  0.18052739611E+03  0.26880202238E+03 -0.70671887113E+03  0.77736596510E+03  0.12699999809E+01 0. -1.
</event>
<event>
 5   0  0.2595012E-04  0.1931008E+04  0.7818609E-02  0.8639574E-01
       -2   -1    0    0    0  501  0.00000000000E+00  0.00000000000E+00  0.94364485984E+03  0.94364485985E+03  0.25500000920E-02 0. -1.
        2   -1    0    0  501    0  0.00000000000E+00  0.00000000000E+00 -0.98786994271E+03  0.98786994272E+03  0.25500000920E-02 0.  1.
    10030    2    1    2    0    0  0.00000000000E+00  0.00000000000E+00 -0.44225082871E+02  0.19315148026E+04  0.19310084346E+04 0.  0.
        1    1    3    3  502    0  0.26014498391E+03  0.66093273134E+03 -0.67626484909E+03  0.98073525182E+03  0.50400001928E-02 0.  1.
       -1    1    3    3    0  502 -0.26014498391E+03 -0.66093273134E+03  0.63203976622E+03  0.95077955075E+03  0.50400001928E-02 0. -1.
</event>
<event>
 5   0  0.2608744E-04  0.1840125E+04  0.7818609E-02  0.8685248E-01
       -2   -1    0    0    0  501  0.00000000000E+00  0.00000000000E+00  0.80940251084E+03  0.80940251084E+03  0.25500000920E-02 0.  1.
        2   -1    0    0  501    0  0.00000000000E+00  0.00000000000E+00 -0.10458513992E+04  0.10458513992E+04  0.25500000920E-02 0. -1.
    10030    2    1    2    0    0  0.00000000000E+00  0.00000000000E+00 -0.23644888831E+03  0.18552539100E+04  0.18401247223E+04 0.  0.
        2    1    3    3  502    0  0.15735314031E+03 -0.87750416861E+03 -0.34756149597E+03  0.95685556390E+03  0.25500000920E-02 0.  1.
       -2    1    3    3    0  502 -0.15735314031E+03  0.87750416861E+03  0.11111260765E+03  0.89839834610E+03  0.25500000920E-02 0. -1.
</event>
<event>
 5   0  0.1255141E-04  0.1886833E+04  0.7818609E-02  0.8661439E-01
        1   -1    0    0  501    0  0.00000000000E+00  0.00000000000E+00  0.91318291384E+03  0.91318291386E+03  0.50400001928E-02 0.  1.
       -1   -1    0    0    0  501  0.00000000000E+00  0.00000000000E+00 -0.97465055285E+03  0.97465055286E+03  0.50400001928E-02 0. -1.
    10030    2    1    2    0    0  0.00000000000E+00  0.00000000000E+00 -0.61467639002E+02  0.18878334667E+04  0.18868325118E+04 0.  0.
        2    1    3    3  502    0 -0.76974580601E+03  0.40237800291E+03 -0.39919208818E+03  0.95591369191E+03  0.25500000920E-02 0.  1.
       -2    1    3    3    0  502  0.76974580601E+03 -0.40237800291E+03  0.33772444918E+03  0.93191977481E+03  0.25500000920E-02 0. -1.
</event>
<event>
 5   0  0.1255141E-04  0.1907547E+04  0.7818609E-02  0.8651109E-01
       -1   -1    0    0    0  501  0.00000000000E+00  0.00000000000E+00  0.75231065757E+03  0.75231065759E+03  0.50400001928E-02 0. -1.
        1   -1    0    0  501    0  0.00000000000E+00  0.00000000000E+00 -0.12091861433E+04  0.12091861433E+04  0.50400001928E-02 0.  1.
    10030    2    1    2    0    0  0.00000000000E+00  0.00000000000E+00 -0.45687548571E+03  0.19614968009E+04  0.19075467204E+04 0.  0.
        2    1    3    3  502    0  0.83215060340E+03 -0.21358536525E+03 -0.65438788899E+03  0.10799615013E+04  0.25500000920E-02 0.  1.
       -2    1    3    3    0  502 -0.83215060340E+03  0.21358536525E+03  0.19751240328E+03  0.88153529960E+03  0.25500000920E-02 0. -1.
</event>
<event>
 5   0  0.2595012E-04  0.1855810E+04  0.7818609E-02  0.8677171E-01
        2   -1    0    0  501    0  0.00000000000E+00  0.00000000000E+00  0.82968088653E+03  0.82968088653E+03  0.25500000920E-02 0. -1.
       -2   -1    0    0    0  501  0.00000000000E+00  0.00000000000E+00 -0.10377578813E+04  0.10377578813E+04  0.25500000920E-02 0.  1.
    10030    2    1    2    0    0  0.00000000000E+00  0.00000000000E+00 -0.20807699480E+03  0.18674387679E+04  0.18558102047E+04 0.  0.
        1    1    3    3  502    0  0.28238221053E+03  0.80425263339E+03 -0.47300466168E+03  0.97483097054E+03  0.50400001928E-02 0.  1.
       -1    1    3    3    0  502 -0.28238221053E+03 -0.80425263339E+03  0.26492766688E+03  0.89260779732E+03  0.50400001928E-02 0. -1.
</event>
<event>
 5   0  0.1317527E-04  0.1904513E+04  0.7818609E-02  0.8652613E-01
        1   -1    0    0  501    0  0.00000000000E+00  0.00000000000E+00  0.15038409219E+04  0.15038409219E+04  0.50400001928E-02 0.  1.
       -1   -1    0    0    0  501  0.00000000000E+00  0.00000000000E+00 -0.60298399080E+03  0.60298399082E+03  0.50400001928E-02 0. -1.
    10030    2    1    2    0    0  0.00000000000E+00  0.00000000000E+00  0.90085693113E+03  0.21068249128E+04  0.19045125368E+04 0.  0.
        1    1    3    3  502    0  0.67517038349E+03 -0.81608242298E+02 -0.28691790768E+03  0.73813063730E+03  0.50400001928E-02 0. -1.
       -1    1    3    3    0  502 -0.67517038349E+03  0.81608242298E+02  0.11877748388E+04  0.13686942755E+04  0.50400001928E-02 0.  1.
</event>
<event>
 5   0  0.1324058E-04  0.1896134E+04  0.7818609E-02  0.8656783E-01
       -1   -1    0    0    0  501  0.00000000000E+00  0.00000000000E+00  0.71764591869E+03  0.71764591870E+03  0.50400001928E-02 0.  1.
        1   -1    0    0  501    0  0.00000000000E+00  0.00000000000E+00 -0.12524713137E+04  0.12524713137E+04  0.50400001928E-02 0. -1.
    10030    2    1    2    0    0  0.00000000000E+00  0.00000000000E+00 -0.53482539502E+03  0.19701172324E+04  0.18961338841E+04 0.  0.
        5    1    3    3  502    0  0.17390760823E+02 -0.35851641937E+03 -0.11791309356E+04  0.12325616880E+04  0.46999998093E+01 0. -1.
       -5    1    3    3    0  502 -0.17390760823E+02  0.35851641937E+03  0.64430554055E+03  0.73755554442E+03  0.46999998093E+01 0.  1.
</event>
<event>
 5   0  0.2651828E-04  0.1930771E+04  0.7818609E-02  0.8639689E-01
        2   -1    0    0  501    0  0.00000000000E+00  0.00000000000E+00  0.10991498493E+04  0.10991498493E+04  0.25500000920E-02 0.  1.
       -2   -1    0    0    0  501  0.00000000000E+00  0.00000000000E+00 -0.84790014304E+03  0.84790014305E+03  0.25500000920E-02 0. -1.
    10030    2    1    2    0    0  0.00000000000E+00  0.00000000000E+00  0.25124970626E+03  0.19470499924E+04  0.19307711563E+04 0.  0.
        3    1    3    3  502    0  0.19550501039E+03 -0.86567799134E+03  0.50876067117E+03  0.10229653095E+04  0.10100000352E+00 0.  1.
       -3    1    3    3    0  502 -0.19550501039E+03  0.86567799134E+03 -0.25751096491E+03  0.92408468282E+03  0.10100000352E+00 0. -1.
</event>
<event>
 5   0  0.1277709E-04  0.1906556E+04  0.7818609E-02  0.8651600E-01
       -1   -1    0    0    0  501  0.00000000000E+00  0.00000000000E+00  0.66729658772E+03  0.66729658774E+03  0.50400001928E-02 0. -1.
        1   -1    0    0  501    0  0.00000000000E+00  0.00000000000E+00 -0.13618219579E+04  0.13618219580E+04  0.50400001928E-02 0.  1.
    10030    2    1    2    0    0  0.00000000000E+00  0.00000000000E+00 -0.69452537022E+03  0.20291185457E+04  0.19065562102E+04 0.  0.
        4    1    3    3  502    0  0.63469684207E+03 -0.70654761658E+03 -0.43429955038E+03  0.10443501942E+04  0.12699999809E+01 0. -1.
       -4    1    3    3    0  502 -0.63469684207E+03  0.70654761658E+03 -0.26022581983E+03  0.98476835146E+03  0.12699999809E+01 0.  1.
</event>
<event>
 5   0  0.2608744E-04  0.1884032E+04  0.7818609E-02  0.8662846E-01
        2   -1    0    0  501    0  0.00000000000E+00  0.00000000000E+00  0.11997599377E+04  0.11997599377E+04  0.25500000920E-02 0.  1.
       -2   -1    0    0    0  501  0.00000000000E+00  0.00000000000E+00 -0.73964309114E+03  0.73964309115E+03  0.25500000920E-02 0. -1.
    10030    2    1    2    0    0  0.00000000000E+00  0.00000000000E+00  0.46011684655E+03  0.19394030288E+04  0.18840320050E+04 0.  0.
        2    1    3    3  502    0 -0.14006708899E+03 -0.73066760314E+03 -0.36476510899E+03  0.82858163173E+03  0.25500000920E-02 0. -1.
       -2    1    3    3    0  502  0.14006708899E+03  0.73066760314E+03  0.82488195554E+03  0.11108213971E+04  0.25500000920E-02 0.  1.
</event>
<event>
 5   0  0.1277709E-04  0.1883137E+04  0.7818609E-02  0.8663296E-01
        1   -1    0    0  501    0  0.00000000000E+00  0.00000000000E+00  0.10797116346E+04  0.10797116346E+04  0.50400001928E-02 0.  1.
       -1   -1    0    0    0  501  0.00000000000E+00  0.00000000000E+00 -0.82110034958E+03  0.82110034960E+03  0.50400001928E-02 0. -1.
    10030    2    1    2    0    0  0.00000000000E+00  0.00000000000E+00  0.25861128502E+03  0.19008119842E+04  0.18831373828E+04 0.  0.
        4    1    3    3  502    0 -0.63569890126E+03 -0.68855150903E+03  0.37159649377E+02  0.93786924787E+03  0.12699999809E+01 0. -1.
       -4    1    3    3    0  502  0.63569890126E+03  0.68855150903E+03  0.22145163564E+03  0.96294273635E+03  0.12699999809E+01 0.  1.
</event>
<event>
 5   0  0.1317527E-04  0.1873918E+04  0.7818609E-02  0.8667949E-01
       -1   -1    0    0    0  501  0.00000000000E+00  0.00000000000E+00  0.64251595371E+03  0.64251595373E+03  0.50400001928E-02 0.  1.
        1   -1    0    0  501    0  0.00000000000E+00  0.00000000000E+00 -0.13663350721E+04  0.13663350721E+04  0.50400001928E-02 0. -1.
    10030    2    1    2    0    0  0.00000000000E+00  0.00000000000E+00 -0.72381911836E+03  0.20088510258E+04  0.18739179085E+04 0.  0.
        1    1    3    3  502    0  0.21317657872E+03  0.73844881129E+03 -0.93634987310E+03  0.12114049635E+04  0.50400001928E-02 0. -1.
       -1    1    3    3    0  502 -0.21317657872E+03 -0.73844881129E+03  0.21253075474E+03  0.79744606234E+03  0.50400001928E-02 0.  1.
</event>
<event>
 5   0  0.2541124E-04  0.1917014E+04  0.7818609E-02  0.8646434E-01
        2   -1    0    0  501    0  0.00000000000E+00  0.00000000000E+00  0.12224416321E+04  0.12224416321E+04  0.25500000920E-02 0. -1.
       -2   -1    0    0    0  501  0.00000000000E+00  0.00000000000E+00 -0.75155756623E+03  0.75155756624E+03  0.25500000920E-02 0.  1.
    10030    2    1    2    0    0  0.00000000000E+00  0.00000000000E+00  0.47088406585E+03  0.19739991983E+04  0.19170135710E+04 0.  0.
        5    1    3    3  502    0  0.23261691643E+03  0.85525599317E+03 -0.14028774094E+03  0.89737182032E+03  0.46999998093E+01 0.  1.
       -5    1    3    3    0  502 -0.23261691643E+03 -0.85525599317E+03  0.61117180679E+03  0.10766273780E+04  0.46999998093E+01 0. -1.
</event>
<event>
 5   0  0.1239615E-04  0.1888007E+04  0.7818609E-02  0.8660849E-01
       -1   -1    0    0    0  501  0.00000000000E+00  0.00000000000E+00  0.69975346814E+03  0.69975346816E+03  0.50400001928E-02 0. -1.
        1   -1    0    0  501    0  0.00000000000E+00  0.00000000000E+00 -0.12735087819E+04  0.12735087819E+04  0.50400001928E-02 0.  1.
    10030    2    1    2    0    0  0.00000000000E+00  0.00000000000E+00 -0.57375531379E+03  0.19732622501E+04  0.18880065539E+04 0.  0.
        3    1    3    3  502    0 -0.84175182896E+03 -0.66133635557E+02 -0.72810500840E+03  0.11149245323E+04  0.10100000352E+00 0.  1.
       -3    1    3    3    0  502  0.84175182896E+03  0.66133635557E+02  0.15434969462E+03  0.85833771777E+03  0.10100000352E+00 0. -1.
</event>
<event>
 5   0  0.1324058E-04  0.1915278E+04  0.7818609E-02  0.8647289E-01
       -1   -1    0    0    0  501  0.00000000000E+00  0.00000000000E+00  0.73760042234E+03  0.73760042236E+03  0.50400001928E-02 0.  1.
        1   -1    0    0  501    0  0.00000000000E+00  0.00000000000E+00 -0.12433182307E+04  0.12433182307E+04  0.50400001928E-02 0. -1.
    10030    2    1    2    0    0  0.00000000000E+00  0.00000000000E+00 -0.50571780836E+03  0.19809186531E+04  0.19152775800E+04 0.  0.
        5    1    3    3  502    0 -0.83047264485E+03 -0.19543518071E+03  0.19698446389E+03  0.87561674991E+03  0.46999998093E+01 0.  1.
       -5    1    3    3    0  502  0.83047264485E+03  0.19543518071E+03 -0.70270227225E+03  0.11053019032E+04  0.46999998093E+01 0. -1.
</event>
<event>
 5   0  0.2608744E-04  0.1872633E+04  0.7818609E-02  0.8668600E-01
        2   -1    0    0  501    0  0.00000000000E+00  0.00000000000E+00  0.14593109493E+04  0.14593109493E+04  0.25500000920E-02 0. -1.
       -2   -1    0    0    0  501  0.00000000000E+00  0.00000000000E+00 -0.60075492060E+03  0.60075492061E+03  0.25500000920E-02 0.  1.
    10030    2    1    2    0    0  0.00000000000E+00  0.00000000000E+00  0.85855602866E+03  0.20600658699E+04  0.18726326212E+04 0.  0.
        2    1    3    3  502    0  0.27216112816E+03 -0.76274449864E+03  0.94624739240E+03  0.12454858399E+04  0.25500000920E-02 0. -1.
       -2    1    3    3    0  502 -0.27216112816E+03  0.76274449864E+03 -0.87691363738E+02  0.81458002993E+03  0.25500000920E-02 0.  1.
</event>
<event>
 5   0  0.2562925E-04  0.1880681E+04  0.7818609E-02  0.8664533E-01
       -2   -1    0    0    0  501  0.00000000000E+00  0.00000000000E+00  0.78414851770E+03  0.78414851771E+03  0.25500000920E-02 0. -1.
        2   -1    0    0  501    0  0.00000000000E+00  0.00000000000E+00 -0.11276444016E+04  0.11276444016E+04  0.25500000920E-02 0.  1.
    10030    2    1    2    0    0  0.00000000000E+00  0.00000000000E+00 -0.34349588393E+03  0.19117929193E+04  0.18806814574E+04 0.  0.
        4    1    3    3  502    0 -0.35145072084E+03  0.85029687163E+03 -0.36916851839E+03  0.99136743287E+03  0.12699999809E+01 0. -1.
       -4    1    3    3    0  502  0.35145072084E+03 -0.85029687163E+03  0.25672634467E+02  0.92042548647E+03  0.12699999809E+01 0.  1.
</event>
<event>
 5   0  0.1239615E-04  0.1883784E+04  0.7818609E-02  0.8662971E-01
       -1   -1    0    0    0  501  0.00000000000E+00  0.00000000000E+00  0.49625667336E+03  0.49625667338E+03  0.50400001928E-02 0.  1.
        1   -1    0    0  501    0  0.00000000000E+00  0.00000000000E+00 -0.17877043456E+04  0.17877043456E+04  0.50400001928E-02 0. -1.
    10030    2    1    2    0    0  0.00000000000E+00  0.00000000000E+00 -0.12914476722E+04  0.22839610190E+04  0.18837836516E+04 0.  0.
        3    1    3    3  502    0  0.76530126776E+03  0.89727301317E+02 -0.13024810855E+04  0.15133386955E+04  0.10100000352E+00 0. -1.
       -3    1    3    3    0  502 -0.76530126776E+03 -0.89727301317E+02  0.11033413257E+02  0.77062232348E+03  0.10100000352E+00 0.  1.
</event>
<event>
 5   0  0.2608744E-04  0.1786652E+04  0.7818609E-02  0.8713430E-01
       -2   -1    0    0    0  501  0.00000000000E+00  0.00000000000E+00  0.11549551501E+04  0.11549551501E+04  0.25500000920E-02 0.  1.
        2   -1    0    0  501    0  0.00000000000E+00  0.00000000000E+00 -0.69096269771E+03  0.69096269772E+03  0.25500000920E-02 0. -1.
    10030    2    1    2    0    0  0.00000000000E+00  0.00000000000E+00  0.46399245236E+03  0.18459178478E+04  0.17866515343E+04 0.  0.
        2    1    3    3  502    0 -0.20744207693E+03 -0.85093397767E+03  0.41364085188E+03  0.96861736717E+03  0.25500000920E-02 0.  1.
       -2    1    3    3    0  502  0.20744207693E+03  0.85093397767E+03  0.50351600474E+02  0.87730048063E+03  0.25500000920E-02 0. -1.
</event>
<event>
 5   0  0.2562925E-04  0.1881372E+04  0.7818609E-02  0.8664185E-01
        2   -1    0    0  501    0  0.00000000000E+00  0.00000000000E+00  0.13070422549E+04  0.13070422549E+04  0.25500000920E-02 0.  1.
       -2   -1    0    0    0  501  0.00000000000E+00  0.00000000000E+00 -0.67701729286E+03  0.67701729286E+03  0.25500000920E-02 0. -1.
    10030    2    1    2    0    0  0.00000000000E+00  0.00000000000E+00  0.63002496202E+03  0.19840595477E+04  0.18813720621E+04 0.  0.
        4    1    3    3  502    0  0.67200913933E+03 -0.64105684576E+03  0.15739427961E+03  0.94197915847E+03  0.12699999809E+01 0. -1.
       -4    1    3    3    0  502 -0.67200913933E+03  0.64105684576E+03  0.47263068242E+03  0.10420803893E+04  0.12699999809E+01 0.  1.
</event>
<event>
 5   0  0.2651828E-04  0.1739730E+04  0.7818609E-02  0.8739024E-01
       -2   -1    0    0    0  501  0.00000000000E+00  0.00000000000E+00  0.54105601509E+03  0.54105601509E+03  0.25500000920E-02 0.  1.
        2   -1    0    0  501    0  0.00000000000E+00  0.00000000000E+00 -0.13984962411E+04  0.13984962411E+04  0.25500000920E-02 0. -1.
    10030    2    1    2    0    0  0.00000000000E+00  0.00000000000E+00 -0.85744022601E+03  0.19395522562E+04  0.17397296380E+04 0.  0.
        3    1    3    3  502    0  0.52521125051E+02 -0.77911766208E+03 -0.85599168794E+03  0.11586649990E+04  0.10100000352E+00 0. -1.
       -3    1    3    3    0  502 -0.52521125051E+02  0.77911766208E+03 -0.14485380659E+01  0.78088725716E+03  0.10100000352E+00 0.  1.
</event>
<event>
 5   0  0.1324058E-04  0.1852709E+04  0.7818609E-02  0.8678761E-01
        1   -1    0    0  501    0  0.00000000000E+00  0.00000000000E+00  0.17362304786E+04  0.17362304786E+04  0.50400001928E-02 0. -1.
       -1   -1    0    0    0  501  0.00000000000E+00  0.00000000000E+00 -0.49425039746E+03  0.49425039749E+03  0.50400001928E-02 0.  1.
    10030    2    1    2    0    0  0.00000000000E+00  0.00000000000E+00  0.12419800811E+04  0.22304808761E+04  0.18527089401E+04 0.  0.
        5    1    3    3  502    0 -0.73255058605E+03  0.49749555489E+03  0.94843895610E+03  0.12975710893E+04  0.46999998093E+01 0. -1.
       -5    1    3    3    0  502  0.73255058605E+03 -0.49749555489E+03  0.29354112502E+03  0.93290978681E+03  0.46999998093E+01 0.  1.
</event>
<event>
 5   0  0.2608744E-04  0.1922200E+04  0.7818609E-02  0.8643884E-01
        2   -1    0    0  501    0  0.00000000000E+00  0.00000000000E+00  0.13250405709E+04  0.13250405709E+04  0.25500000920E-02 0.  1.
       -2   -1    0    0    0  501  0.00000000000E+00  0.00000000000E+00 -0.69712098186E+03  0.69712098186E+03  0.25500000920E-02 0. -1.
    10030    2    1    2    0    0  0.00000000000E+00  0.00000000000E+00  0.62791958906E+03  0.20221615528E+04  0.19222003889E+04 0.  0.
        2    1    3    3  502    0 -0.13428182525E+03 -0.44966128330E+03 -0.56839883079E+03  0.73709165586E+03  0.25500000920E-02 0. -1.
       -2    1    3    3    0  502  0.13428182525E+03  0.44966128330E+03  0.11963184199E+04  0.12850698969E+04  0.25500000920E-02 0.  1.
</event>
<event>
 5   0  0.9266125E-05  0.1898771E+04  0.7818609E-02  0.8655468E-01
       -3   -1    0    0    0  501  0.00000000000E+00  0.00000000000E+00  0.11845417817E+04  0.11845417860E+04  0.10100000352E+00 0.  1.
        3   -1    0    0  501    0  0.00000000000E+00  0.00000000000E+00 -0.76091272383E+03  0.76091273054E+03  0.10100000352E+00 0. -1.
    10030    2    1    2    0    0  0.00000000000E+00  0.00000000000E+00  0.42362905782E+03  0.19454545165E+04  0.18987711018E+04 0.  0.
        3    1    3    3  502    0  0.39989374706E+03 -0.57956937396E+03  0.86427338848E+03  0.11148023001E+04  0.10100000352E+00 0.  1.
       -3    1    3    3    0  502 -0.39989374706E+03  0.57956937396E+03 -0.44064433067E+03  0.83065221635E+03  0.10100000352E+00 0. -1.
</event>
<event>
 5   0  0.1277709E-04  0.1944750E+04  0.7818609E-02  0.8632897E-01
        1   -1    0    0  501    0  0.00000000000E+00  0.00000000000E+00  0.71405157775E+03  0.71405157777E+03  0.50400001928E-02 0.  1.
       -1   -1    0    0    0  501  0.00000000000E+00  0.00000000000E+00 -0.13241525940E+04  0.13241525940E+04  0.50400001928E-02 0. -1.
    10030    2    1    2    0    0  0.00000000000E+00  0.00000000000E+00 -0.61010101628E+03  0.20382041718E+04  0.19447501114E+04 0.  0.
        4    1    3    3  502    0 -0.10122447063E+03  0.91955129815E+03 -0.61892604846E+03  0.11130552770E+04  0.12699999809E+01 0.  1.
       -4    1    3    3    0  502  0.10122447063E+03 -0.91955129815E+03  0.88250321860E+01  0.92514889476E+03  0.12699999809E+01 0. -1.
</event>
<event>
 5   0  0.2608744E-04  0.1883709E+04  0.7818609E-02  0.8663008E-01
       -2   -1    0    0    0  501  0.00000000000E+00  0.00000000000E+00  0.87714670106E+03  0.87714670106E+03  0.25500000920E-02 0.  1.
        2   -1    0    0  501    0  0.00000000000E+00  0.00000000000E+00 -0.10113363427E+04  0.10113363427E+04  0.25500000920E-02 0. -1.
    10030    2    1    2    0    0  0.00000000000E+00  0.00000000000E+00 -0.13418964166E+03  0.18884830438E+04  0.18837094645E+04 0.  0.
        2    1    3    3  502    0 -0.28858890985E+03  0.62333653767E+03  0.57894360603E+03  0.89833607133E+03  0.25500000920E-02 0.  1.
       -2    1    3    3    0  502  0.28858890985E+03 -0.62333653767E+03 -0.71313324769E+03  0.99014697245E+03  0.25500000920E-02 0. -1.
</event>
<event>
 5   0  0.1324058E-04  0.1904589E+04  0.7818609E-02  0.8652575E-01
        1   -1    0    0  501    0  0.00000000000E+00  0.00000000000E+00  0.75660658004E+03  0.75660658006E+03  0.50400001928E-02 0. -1.
       -1   -1    0    0    0  501  0.00000000000E+00  0.00000000000E+00 -0.11985953958E+04  0.11985953958E+04  0.50400001928E-02 0.  1.
    10030    2    1    2    0    0  0.00000000000E+00  0.00000000000E+00 -0.44198881572E+03  0.19552019758E+04  0.19045893660E+04 0.  0.
        5    1    3    3  502    0  0.48424166809E+03  0.69762668656E+03  0.22135071367E+03  0.87760538704E+03  0.46999998093E+01 0. -1.
       -5    1    3    3    0  502 -0.48424166809E+03 -0.69762668656E+03 -0.66333952939E+03  0.10775965888E+04  0.46999998093E+01 0.  1.
</event>
<event>
 5   0  0.1324058E-04  0.1887584E+04  0.7818609E-02  0.8661061E-01
       -1   -1    0    0    0  501  0.00000000000E+00  0.00000000000E+00  0.80800087656E+03  0.80800087657E+03  0.50400001928E-02 0. -1.
        1   -1    0    0  501    0  0.00000000000E+00  0.00000000000E+00 -0.11024040095E+04  0.11024040095E+04  0.50400001928E-02 0.  1.
    10030    2    1    2    0    0  0.00000000000E+00  0.00000000000E+00 -0.29440313290E+03  0.19104048860E+04  0.18875840707E+04 0.  0.
        5    1    3    3  502    0  0.39493558489E+03  0.85206053849E+03 -0.52583124978E+02  0.94062125879E+03  0.46999998093E+01 0. -1.
       -5    1    3    3    0  502 -0.39493558489E+03 -0.85206053849E+03 -0.24182000793E+03  0.96978362725E+03  0.46999998093E+01 0.  1.
</event>
<event>
 5   0  0.1239615E-04  0.1915198E+04  0.7818609E-02  0.8647328E-01
       -1   -1    0    0    0  501  0.00000000000E+00  0.00000000000E+00  0.60320348378E+03  0.60320348380E+03  0.50400001928E-02 0. -1.
        1   -1    0    0  501    0  0.00000000000E+00  0.00000000000E+00 -0.15202096359E+04  0.15202096359E+04  0.50400001928E-02 0.  1.
    10030    2    1    2    0    0  0.00000000000E+00  0.00000000000E+00 -0.91700615212E+03  0.21234131197E+04  0.19151978994E+04 0.  0.
        3    1    3    3  502    0  0.30818493268E+03  0.64081081519E+03  0.25261554160E+03  0.75460657011E+03  0.10100000352E+00 0. -1.
       -3    1    3    3    0  502 -0.30818493268E+03 -0.64081081519E+03 -0.11696216937E+04  0.13688065496E+04  0.10100000352E+00 0.  1.
</event>
<event>
 5   0  0.1255141E-04  0.1888520E+04  0.7818609E-02  0.8660592E-01
       -1   -1    0    0    0  501  0.00000000000E+00  0.00000000000E+00  0.94092183172E+03  0.94092183174E+03  0.50400001928E-02 0. -1.
        1   -1    0    0  501    0  0.00000000000E+00  0.00000000000E+00 -0.94760990989E+03  0.94760990990E+03  0.50400001928E-02 0.  1.
    10030    2    1    2    0    0  0.00000000000E+00  0.00000000000E+00 -0.66880781646E+01  0.18885317416E+04  0.18885198990E+04 0.  0.
        2    1    3    3  502    0 -0.44246949147E+03 -0.11702871294E+03  0.82258600460E+03  0.94134090823E+03  0.25500000920E-02 0. -1.
       -2    1    3    3    0  502  0.44246949147E+03  0.11702871294E+03 -0.82927408277E+03  0.94719083341E+03  0.25500000920E-02 0.  1.
</event>
<event>
 5   0  0.2541124E-04  0.1875160E+04  0.7818609E-02  0.8667321E-01
        2   -1    0    0  501    0  0.00000000000E+00  0.00000000000E+00  0.14703670126E+04  0.14703670126E+04  0.25500000920E-02 0. -1.
       -2   -1    0    0    0  501  0.00000000000E+00  0.00000000000E+00 -0.59784794102E+03  0.59784794103E+03  0.25500000920E-02 0.  1.
    10030    2    1    2    0    0  0.00000000000E+00  0.00000000000E+00  0.87251907155E+03  0.20682149536E+04  0.18751596103E+04 0.  0.
        5    1    3    3  502    0  0.27800638457E+03 -0.14217151015E+03  0.14113193022E+04  0.14454565199E+04  0.46999998093E+01 0. -1.
       -5    1    3    3    0  502 -0.27800638457E+03  0.14217151015E+03 -0.53880023067E+03  0.62275843368E+03  0.46999998093E+01 0.  1.
</event>
<event>
 5   0  0.1277709E-04  0.1904367E+04  0.7818609E-02  0.8652686E-01
       -1   -1    0    0    0  501  0.00000000000E+00  0.00000000000E+00  0.78437472961E+03  0.78437472962E+03  0.50400001928E-02 0.  1.
        1   -1    0    0  501    0  0.00000000000E+00  0.00000000000E+00 -0.11558935472E+04  0.11558935472E+04  0.50400001928E-02 0. -1.
    10030    2    1    2    0    0  0.00000000000E+00  0.00000000000E+00 -0.37151881759E+03  0.19402682768E+04  0.19043672845E+04 0.  0.
        4    1    3    3  502    0 -0.91819202850E+02  0.52419624498E+03 -0.99022646794E+03  0.11241719352E+04  0.12699999809E+01 0. -1.
       -4    1    3    3    0  502  0.91819202850E+02 -0.52419624498E+03  0.61870765035E+03  0.81609634160E+03  0.12699999809E+01 0.  1.
</event>
<event>
 5   0  0.1324058E-04  0.1885811E+04  0.7818609E-02  0.8661951E-01
        1   -1    0    0  501    0  0.00000000000E+00  0.00000000000E+00  0.90446008810E+03  0.90446008812E+03  0.50400001928E-02 0.  1.
       -1   -1    0    0    0  501  0.00000000000E+00  0.00000000000E+00 -0.98298555242E+03  0.98298555243E+03  0.50400001928E-02 0. -1.
    10030    2    1    2    0    0  0.00000000000E+00  0.00000000000E+00 -0.78525464316E+02  0.18874456405E+04  0.18858114427E+04 0.  0.
        5    1    3    3  502    0 -0.21862876107E+03 -0.19548009520E+03 -0.93616322597E+03  0.98103755200E+03  0.46999998093E+01 0. -1.
       -5    1    3    3    0  502  0.21862876107E+03  0.19548009520E+03  0.85763776165E+03  0.90640808855E+03  0.46999998093E+01 0.  1.
</event>
<event>
 5   0  0.2608744E-04  0.1919044E+04  0.7818609E-02  0.8645435E-01
       -2   -1    0    0    0  501  0.00000000000E+00  0.00000000000E+00  0.56540284860E+03  0.56540284861E+03  0.25500000920E-02 0.  1.
        2   -1    0    0  501    0  0.00000000000E+00  0.00000000000E+00 -0.16283656042E+04  0.16283656042E+04  0.25500000920E-02 0. -1.
    10030    2    1    2    0    0  0.00000000000E+00  0.00000000000E+00 -0.10629627556E+04  0.21937684528E+04  0.19190440862E+04 0.  0.
        2    1    3    3  502    0  0.85634839922E+03 -0.39666046905E+03 -0.33344634014E+03  0.10009288538E+04  0.25500000920E-02 0.  1.
       -2    1    3    3    0  502 -0.85634839922E+03  0.39666046905E+03 -0.72951641542E+03  0.11928395990E+04  0.25500000920E-02 0. -1.
</event>
<event>
 5   0  0.1255141E-04  0.1933170E+04  0.7818609E-02  0.8638520E-01
       -1   -1    0    0    0  501  0.00000000000E+00  0.00000000000E+00  0.47374470658E+03  0.47374470661E+03  0.50400001928E-02 0. -1.
        1   -1    0    0  501    0  0.00000000000E+00  0.00000000000E+00 -0.19721298759E+04  0.19721298759E+04  0.50400001928E-02 0.  1.
    10030    2    1    2    0    0  0.00000000000E+00  0.00000000000E+00 -0.14983851693E+04  0.24458745825E+04  0.19331695109E+04 0.  0.
        2    1    3    3  502    0 -0.78008992853E+03  0.54658426568E+03 -0.95705559892E+03  0.13502777772E+04  0.25500000920E-02 0.  1.
       -2    1    3    3    0  502  0.78008992853E+03 -0.54658426568E+03 -0.54132957040E+03  0.10955968053E+04  0.25500000920E-02 0. -1.
</event>
<event>
 5   0  0.2541124E-04  0.1785857E+04  0.7818609E-02  0.8713857E-01
        2   -1    0    0  501    0  0.00000000000E+00  0.00000000000E+00  0.75629258744E+03  0.75629258744E+03  0.25500000920E-02 0. -1.
       -2   -1    0    0    0  501  0.00000000000E+00  0.00000000000E+00 -0.10542492727E+04  0.10542492727E+04  0.25500000920E-02 0.  1.
    10030    2    1    2    0    0  0.00000000000E+00  0.00000000000E+00 -0.29795668530E+03  0.18105418602E+04  0.17858565567E+04 0.  0.
        5    1    3    3  502    0 -0.23779849989E+03 -0.33338555163E+03  0.65546599978E+03  0.77288538571E+03  0.46999998093E+01 0. -1.
       -5    1    3    3    0  502  0.23779849989E+03  0.33338555163E+03 -0.95342268507E+03  0.10376564745E+04  0.46999998093E+01 0.  1.
</event>
<event>
 5   0  0.1317527E-04  0.1856751E+04  0.7818609E-02  0.8676689E-01
       -1   -1    0    0    0  501  0.00000000000E+00  0.00000000000E+00  0.52010686103E+03  0.52010686105E+03  0.50400001928E-02 0.  1.
        1   -1    0    0  501    0  0.00000000000E+00  0.00000000000E+00 -0.16571227954E+04  0.16571227954E+04  0.50400001928E-02 0. -1.
    10030    2    1    2    0    0  0.00000000000E+00  0.00000000000E+00 -0.11370159343E+04  0.21772296564E+04  0.18567508562E+04 0.  0.
        1    1    3    3  502    0  0.38323574072E+03 -0.41437958783E+03 -0.14328204882E+04  0.15399852685E+04  0.50400001928E-02 0. -1.
       -1    1    3    3    0  502 -0.38323574072E+03  0.41437958783E+03  0.29580455389E+03  0.63724438790E+03  0.50400001928E-02 0.  1.
</event>
<event>
 5   0  0.2651828E-04  0.1973201E+04  0.7818609E-02  0.8619254E-01
        2   -1    0    0  501    0  0.00000000000E+00  0.00000000000E+00  0.19648512294E+04  0.19648512294E+04  0.25500000920E-02 0. -1.
       -2   -1    0    0    0  501  0.00000000000E+00  0.00000000000E+00 -0.49539660055E+03  0.49539660056E+03  0.25500000920E-02 0.  1.
    10030    2    1    2    0    0  0.00000000000E+00  0.00000000000E+00  0.14694546289E+04  0.24602478300E+04  0.19732010740E+04 0.  0.
        3    1    3    3  502    0  0.98440983582E+03  0.11767598406E+02  0.65412177102E+03  0.11819799079E+04  0.10100000352E+00 0. -1.
       -3    1    3    3    0  502 -0.98440983582E+03 -0.11767598406E+02  0.81533285785E+03  0.12782679220E+04  0.10100000352E+00 0.  1.
</event>
<event>
 5   0  0.2541124E-04  0.1888395E+04  0.7818609E-02  0.8660655E-01
        2   -1    0    0  501    0  0.00000000000E+00  0.00000000000E+00  0.12854794742E+04  0.12854794742E+04  0.25500000920E-02 0. -1.
       -2   -1    0    0    0  501  0.00000000000E+00  0.00000000000E+00 -0.69352231210E+03  0.69352231210E+03  0.25500000920E-02 0.  1.
    10030    2    1    2    0    0  0.00000000000E+00  0.00000000000E+00  0.59195716206E+03  0.19790017863E+04  0.18883947650E+04 0.  0.
        5    1    3    3  502    0 -0.82948557481E+03 -0.84116695356E+02  0.76037094953E+03  0.11284095037E+04  0.46999998093E+01 0. -1.
       -5    1    3    3    0  502  0.82948557481E+03  0.84116695356E+02 -0.16841378748E+03  0.85059228251E+03  0.46999998093E+01 0.  1.
</event>
<event>
 5   0  0.1317527E-04  0.1871897E+04  0.7818609E-02  0.8668973E-01
        1   -1    0    0  501    0  0.00000000000E+00  0.00000000000E+00  0.12184615529E+04  0.12184615529E+04  0.50400001928E-02 0.  1.
       -1   -1    0    0    0  501  0.00000000000E+00  0.00000000000E+00 -0.71893894642E+03  0.71893894644E+03  0.50400001928E-02 0. -1.
    10030    2    1    2    0    0  0.00000000000E+00  0.00000000000E+00  0.49952260652E+03  0.19374004994E+04  0.18718968616E+04 0.  0.
        1    1    3    3  502    0 -0.80368074217E+03 -0.36098315783E+03 -0.77184984053E+02  0.88440324364E+03  0.50400001928E-02 0.  1.
       -1    1    3    3    0  502  0.80368074217E+03  0.36098315783E+03  0.57670759057E+03  0.10529972557E+04  0.50400001928E-02 0. -1.
</event>
<event>
 5   0  0.2608744E-04  0.1905683E+04  0.7818609E-02  0.8652033E-01
        2   -1    0    0  501    0  0.00000000000E+00  0.00000000000E+00  0.13649132117E+04  0.13649132117E+04  0.25500000920E-02 0.  1.
       -2   -1    0    0    0  501  0.00000000000E+00  0.00000000000E+00 -0.66517561937E+03  0.66517561938E+03  0.25500000920E-02 0. -1.
    10030    2    1    2    0    0  0.00000000000E+00  0.00000000000E+00  0.69973759235E+03  0.20300888311E+04  0.19056830702E+04 0.  0.
        2    1    3    3  502    0 -0.28968082512E+03 -0.85231103602E+03  0.17136002447E+02  0.90035699872E+03  0.25500000920E-02 0. -1.
       -2    1    3    3    0  502  0.28968082512E+03  0.85231103602E+03  0.68260158990E+03  0.11297318324E+04  0.25500000920E-02 0.  1.
</event>
<event>
 5   0  0.2541124E-04  0.1894494E+04  0.7818609E-02  0.8657602E-01
       -2   -1    0    0    0  501  0.00000000000E+00  0.00000000000E+00  0.33727851074E+03  0.33727851075E+03  0.25500000920E-02 0.  1.
        2   -1    0    0  501    0  0.00000000000E+00  0.00000000000E+00 -0.26603428382E+04  0.26603428382E+04  0.25500000920E-02 0. -1.
    10030    2    1    2    0    0  0.00000000000E+00  0.00000000000E+00 -0.23230643275E+04  0.29976213490E+04  0.18944935688E+04 0.  0.
        5    1    3    3  502    0  0.65706202919E+03 -0.48702899175E+03 -0.40546230902E+03  0.91287979660E+03  0.46999998093E+01 0.  1.
       -5    1    3    3    0  502 -0.65706202919E+03  0.48702899175E+03 -0.19176020185E+04  0.20847415524E+04  0.46999998093E+01 0. -1.
</event>
<event>
 5   0  0.1255141E-04  0.1887677E+04  0.7818609E-02  0.8661014E-01
        1   -1    0    0  501    0  0.00000000000E+00  0.00000000000E+00  0.71030778054E+03  0.71030778056E+03  0.50400001928E-02 0. -1.
       -1   -1    0    0    0  501  0.00000000000E+00  0.00000000000E+00 -0.12541486993E+04  0.12541486993E+04  0.50400001928E-02 0.  1.
    10030    2    1    2    0    0  0.00000000000E+00  0.00000000000E+00 -0.54384091876E+03  0.19644564799E+04  0.18876774927E+04 0.  0.
        2    1    3    3  502    0 -0.45073844115E+02 -0.80954892218E+03  0.23087736155E+03  0.84303348979E+03  0.25500000920E-02 0. -1.
       -2    1    3    3    0  502  0.45073844115E+02  0.80954892218E+03 -0.77471828031E+03  0.11214229901E+04  0.25500000920E-02 0.  1.
</event>
<event>
 5   0  0.2541124E-04  0.1886076E+04  0.7818609E-02  0.8661818E-01
       -2   -1    0    0    0  501  0.00000000000E+00  0.00000000000E+00  0.10029882069E+04  0.10029882069E+04  0.25500000920E-02 0. -1.
        2   -1    0    0  501    0  0.00000000000E+00  0.00000000000E+00 -0.88667129052E+03  0.88667129052E+03  0.25500000920E-02 0.  1.
    10030    2    1    2    0    0  0.00000000000E+00  0.00000000000E+00  0.11631691642E+03  0.18896594975E+04  0.18860761892E+04 0.  0.
        5    1    3    3  502    0 -0.46982399763E+03  0.16403525420E+03  0.86071503238E+03  0.99423066254E+03  0.46999998093E+01 0. -1.
       -5    1    3    3    0  502  0.46982399763E+03 -0.16403525420E+03 -0.74439811596E+03  0.89542883492E+03  0.46999998093E+01 0.  1.
</event>
<event>
 5   0  0.1277709E-04  0.1891817E+04  0.7818609E-02  0.8658940E-01
       -1   -1    0    0    0  501  0.00000000000E+00  0.00000000000E+00  0.15345338944E+04  0.15345338944E+04  0.50400001928E-02 0. -1.
        1   -1    0    0  501    0  0.00000000000E+00  0.00000000000E+00 -0.58307157439E+03  0.58307157441E+03  0.50400001928E-02 0.  1.
    10030    2    1    2    0    0  0.00000000000E+00  0.00000000000E+00  0.95146232002E+03  0.21176054688E+04  0.18918172151E+04 0.  0.
        4    1    3    3  502    0  0.73234879215E+03 -0.37227674755E+03  0.10005341114E+04  0.12946021980E+04  0.12699999809E+01 0. -1.
       -4    1    3    3    0  502 -0.73234879215E+03  0.37227674755E+03 -0.49071791415E+02  0.82300327079E+03  0.12699999809E+01 0.  1.
</event>
<event>
 5   0  0.1324058E-04  0.2019925E+04  0.7818609E-02  0.8597361E-01
       -1   -1    0    0    0  501  0.00000000000E+00  0.00000000000E+00  0.10964403277E+04  0.10964403277E+04  0.50400001928E-02 0.  1.
        1   -1    0    0  501    0  0.00000000000E+00  0.00000000000E+00 -0.93030507139E+03  0.93030507140E+03  0.50400001928E-02 0. -1.
    10030    2    1    2    0    0  0.00000000000E+00  0.00000000000E+00  0.16613525629E+03  0.20267453991E+04  0.20199247484E+04 0.  0.
        5    1    3    3  502    0 -0.69909260110E+03 -0.37246179270E+03 -0.54558102106E+03  0.96184145912E+03  0.46999998093E+01 0. -1.
       -5    1    3    3    0  502  0.69909260110E+03  0.37246179270E+03  0.71171627735E+03  0.10649039400E+04  0.46999998093E+01 0.  1.
</event>
<event>
 5   0  0.1324058E-04  0.1905377E+04  0.7818609E-02  0.8652185E-01
        1   -1    0    0  501    0  0.00000000000E+00  0.00000000000E+00  0.13106900764E+04  0.13106900764E+04  0.50400001928E-02 0. -1.
       -1   -1    0    0    0  501  0.00000000000E+00  0.00000000000E+00 -0.69247133167E+03  0.69247133168E+03  0.50400001928E-02 0.  1.
    10030    2    1    2    0    0  0.00000000000E+00  0.00000000000E+00  0.61821874477E+03  0.20031614081E+04  0.19053769209E+04 0.  0.
        5    1    3    3  502    0  0.28160070161E+02 -0.38550126687E+03 -0.60631776525E+03  0.71906017743E+03  0.46999998093E+01 0.  1.
       -5    1    3    3    0  502 -0.28160070161E+02  0.38550126687E+03  0.12245365100E+04  0.12841012307E+04  0.46999998093E+01 0. -1.
</event>
<event>
 5   0  0.9266125E-05  0.1836241E+04  0.7818609E-02  0.8687261E-01
        3   -1    0    0  501    0  0.00000000000E+00  0.00000000000E+00  0.43698340319E+03  0.43698341486E+03  0.10100000352E+00 0.  1.
       -3   -1    0    0    0  501  0.00000000000E+00  0.00000000000E+00 -0.19290098933E+04  0.19290098960E+04  0.10100000352E+00 0. -1.
    10030    2    1    2    0    0  0.00000000000E+00  0.00000000000E+00 -0.14920264901E+04  0.23659933108E+04  0.18362410788E+04 0.  0.
        5    1    3    3  502    0 -0.30176641235E+03  0.43125997529E+03  0.22325527095E+03  0.57176318517E+03  0.46999998093E+01 0.  1.
       -5    1    3    3    0  502  0.30176641235E+03 -0.43125997529E+03 -0.17152817611E+04  0.17942301257E+04  0.46999998093E+01 0. -1.
</event>
<event>
 5   0  0.2651828E-04  0.1730934E+04  0.7818609E-02  0.8743916E-01
       -2   -1    0    0    0  501  0.00000000000E+00  0.00000000000E+00  0.13029385036E+04  0.13029385036E+04  0.25500000920E-02 0.  1.
        2   -1    0    0  501    0  0.00000000000E+00  0.00000000000E+00 -0.57487975693E+03  0.57487975694E+03  0.25500000920E-02 0. -1.
    10030    2    1    2    0    0  0.00000000000E+00  0.00000000000E+00  0.72805874666E+03  0.18778182605E+04  0.17309338176E+04 0.  0.
        3    1    3    3  502    0  0.70467160053E+03 -0.29199555459E+03  0.80764165180E+03  0.11109043687E+04  0.10100000352E+00 0.  1.
       -3    1    3    3    0  502 -0.70467160053E+03  0.29199555459E+03 -0.79582905136E+02  0.76691389183E+03  0.10100000352E+00 0. -1.
</event>
<event>
 5   0  0.1324058E-04  0.1912362E+04  0.7818609E-02  0.8648727E-01
       -1   -1    0    0    0  501  0.00000000000E+00  0.00000000000E+00  0.82449429842E+03  0.82449429844E+03  0.50400001928E-02 0. -1.
        1   -1    0    0  501    0  0.00000000000E+00  0.00000000000E+00 -0.11089010141E+04  0.11089010141E+04  0.50400001928E-02 0.  1.
    10030    2    1    2    0    0  0.00000000000E+00  0.00000000000E+00 -0.28440671563E+03  0.19333953125E+04  0.19123624799E+04 0.  0.
        5    1    3    3  502    0  0.45881017507E+03  0.43617343975E+03  0.58227161774E+03  0.86012578912E+03  0.46999998093E+01 0. -1.
       -5    1    3    3    0  502 -0.45881017507E+03 -0.43617343975E+03 -0.86667833337E+03  0.10732695234E+04  0.46999998093E+01 0.  1.
</event>
<event>
 5   0  0.1324058E-04  0.1752926E+04  0.7818609E-02  0.8731741E-01
        1   -1    0    0  501    0  0.00000000000E+00  0.00000000000E+00  0.19783890781E+04  0.19783890781E+04  0.50400001928E-02 0.  1.
       -1   -1    0    0    0  501  0.00000000000E+00  0.00000000000E+00 -0.38828930900E+03  0.38828930903E+03  0.50400001928E-02 0. -1.
    10030    2    1    2    0    0  0.00000000000E+00  0.00000000000E+00  0.15900997691E+04  0.23666783872E+04  0.17529259290E+04 0.  0.
        5    1    3    3  502    0 -0.76088240536E+03 -0.47896120172E+02  0.21131692912E+03  0.79114664105E+03  0.46999998093E+01 0.  1.
       -5    1    3    3    0  502  0.76088240536E+03  0.47896120172E+02  0.13787828400E+04  0.15755317461E+04  0.46999998093E+01 0. -1.
</event>
<event>
 5   0  0.2651828E-04  0.1782529E+04  0.7818609E-02  0.8715646E-01
        2   -1    0    0  501    0  0.00000000000E+00  0.00000000000E+00  0.74352364959E+03  0.74352364959E+03  0.25500000920E-02 0. -1.
       -2   -1    0    0    0  501  0.00000000000E+00  0.00000000000E+00 -0.10683614279E+04  0.10683614279E+04  0.25500000920E-02 0.  1.
    10030    2    1    2    0    0  0.00000000000E+00  0.00000000000E+00 -0.32483777833E+03  0.18118850775E+04  0.17825285276E+04 0.  0.
        3    1    3    3  502    0 -0.59462285022E+03 -0.39866328301E+03  0.37721344380E+03  0.80919635417E+03  0.10100000352E+00 0. -1.
       -3    1    3    3    0  502  0.59462285022E+03  0.39866328301E+03 -0.70205122212E+03  0.10026887233E+04  0.10100000352E+00 0.  1.
</event>
<event>
 5   0  0.2595012E-04  0.1897466E+04  0.7818609E-02  0.8656119E-01
        2   -1    0    0  501    0  0.00000000000E+00  0.00000000000E+00  0.11628445431E+04  0.11628445431E+04  0.25500000920E-02 0.  1.
       -2   -1    0    0    0  501  0.00000000000E+00  0.00000000000E+00 -0.77404519479E+03  0.77404519479E+03  0.25500000920E-02 0. -1.
    10030    2    1    2    0    0  0.00000000000E+00  0.00000000000E+00  0.38879934830E+03  0.19368897379E+04  0.18974659216E+04 0.  0.
        1    1    3    3  502    0  0.41823983433E+03 -0.47786410308E+03 -0.52509653949E+03  0.82401761865E+03  0.50400001928E-02 0. -1.
       -1    1    3    3    0  502 -0.41823983433E+03  0.47786410308E+03  0.91389588779E+03  0.11128721192E+04  0.50400001928E-02 0.  1.
</event>
<event>
 5   0  0.2562925E-04  0.1854861E+04  0.7818609E-02  0.8677657E-01
       -2   -1    0    0    0  501  0.00000000000E+00  0.00000000000E+00  0.35755109488E+03  0.35755109489E+03  0.25500000920E-02 0.  1.
        2   -1    0    0  501    0  0.00000000000E+00  0.00000000000E+00 -0.24056055220E+04  0.24056055220E+04  0.25500000920E-02 0. -1.
    10030    2    1    2    0    0  0.00000000000E+00  0.00000000000E+00 -0.20480544271E+04  0.27631566169E+04  0.18548605212E+04 0.  0.
        4    1    3    3  502    0 -0.40298456073E+03 -0.58693199320E+03 -0.13864884325E+03  0.72533498155E+03  0.12699999809E+01 0.  1.
       -4    1    3    3    0  502  0.40298456073E+03  0.58693199320E+03 -0.19094055838E+04  0.20378216353E+04  0.12699999809E+01 0. -1.
</event>
<event>
 5   0  0.1255141E-04  0.1909026E+04  0.7818609E-02  0.8650377E-01
        1   -1    0    0  501    0  0.00000000000E+00  0.00000000000E+00  0.10249543703E+04  0.10249543703E+04  0.50400001928E-02 0. -1.
       -1   -1    0    0    0  501  0.00000000000E+00  0.00000000000E+00 -0.88891274563E+03  0.88891274565E+03  0.50400001928E-02 0.  1.
    10030    2    1    2    0    0  0.00000000000E+00  0.00000000000E+00  0.13604162469E+03  0.19138671160E+04  0.19090259333E+04 0.  0.
        2    1    3    3  502    0 -0.38022677412E+03  0.55490005201E+03  0.74694459038E+03  0.10051928614E+04  0.25500000920E-02 0. -1.
       -2    1    3    3    0  502  0.38022677412E+03 -0.55490005201E+03 -0.61090296568E+03  0.90867425460E+03  0.25500000920E-02 0.  1.
</event>
<event>
 5   0  0.2541124E-04  0.1903252E+04  0.7818609E-02  0.8653239E-01
        2   -1    0    0  501    0  0.00000000000E+00  0.00000000000E+00  0.15107650771E+04  0.15107650771E+04  0.25500000920E-02 0. -1.
       -2   -1    0    0    0  501  0.00000000000E+00  0.00000000000E+00 -0.59942621621E+03  0.59942621621E+03  0.25500000920E-02 0.  1.
    10030    2    1    2    0    0  0.00000000000E+00  0.00000000000E+00  0.91133886088E+03  0.21101912933E+04  0.19032521575E+04 0.  0.
        5    1    3    3  502    0  0.11881848965E+03 -0.47073348905E+03 -0.45177125848E+03  0.66319470081E+03  0.46999998093E+01 0.  1.
       -5    1    3    3    0  502 -0.11881848965E+03  0.47073348905E+03  0.13631101194E+04  0.14469965925E+04  0.46999998093E+01 0. -1.
</event>
<event>
 5   0  0.1277709E-04  0.1870923E+04  0.7818609E-02  0.8669467E-01
        1   -1    0    0  501    0  0.00000000000E+00  0.00000000000E+00  0.20636715162E+04  0.20636715162E+04  0.50400001928E-02 0.  1.
       -1   -1    0    0    0  501  0.00000000000E+00  0.00000000000E+00 -0.42404438805E+03  0.42404438808E+03  0.50400001928E-02 0. -1.
    10030    2    1    2    0    0  0.00000000000E+00  0.00000000000E+00  0.16396271281E+04  0.24877159043E+04  0.18709231147E+04 0.  0.
        4    1    3    3  502    0 -0.30721472390E+03 -0.22398919658E+03 -0.31667548834E+03  0.49481008941E+03  0.12699999809E+01 0. -1.
       -4    1    3    3    0  502  0.30721472390E+03  0.22398919658E+03  0.19563026165E+04  0.19929058149E+04  0.12699999809E+01 0.  1.
</event>
<event>
 5   0  0.2595012E-04  0.1862402E+04  0.7818609E-02  0.8673801E-01
       -2   -1    0    0    0  501  0.00000000000E+00  0.00000000000E+00  0.13116711146E+04  0.13116711146E+04  0.25500000920E-02 0. -1.
        2   -1    0    0  501    0  0.00000000000E+00  0.00000000000E+00 -0.66109205083E+03  0.66109205084E+03  0.25500000920E-02 0.  1.
    10030    2    1    2    0    0  0.00000000000E+00  0.00000000000E+00  0.65057906374E+03  0.19727631654E+04  0.18624020481E+04 0.  0.
        1    1    3    3  502    0  0.57815841741E+03 -0.28069343481E+03 -0.38849544593E+03  0.75098912875E+03  0.50400001928E-02 0.  1.
       -1    1    3    3    0  502 -0.57815841741E+03  0.28069343481E+03  0.10390745097E+04  0.12217740367E+04  0.50400001928E-02 0. -1.
</event>
<event>
 5   0  0.9266125E-05  0.1841974E+04  0.7818609E-02  0.8684291E-01
        4   -1    0    0  501    0  0.00000000000E+00  0.00000000000E+00  0.11131023234E+04  0.11131030479E+04  0.12699999809E+01 0.  1.
       -4   -1    0    0    0  501  0.00000000000E+00  0.00000000000E+00 -0.76202785197E+03  0.76202891026E+03  0.12699999809E+01 0. -1.
    10030    2    1    2    0    0  0.00000000000E+00  0.00000000000E+00  0.35107447144E+03  0.18751319582E+04  0.18419735547E+04 0.  0.
        2    1    3    3  502    0  0.19483608696E+03 -0.80687932299E+03 -0.23064577248E+03  0.86151773924E+03  0.25500000920E-02 0. -1.
       -2    1    3    3    0  502 -0.19483608696E+03  0.80687932299E+03  0.58172024392E+03  0.10136142189E+04  0.25500000920E-02 0.  1.
</event>
<event>
 5   0  0.2608744E-04  0.1930160E+04  0.7818609E-02  0.8639988E-01
       -2   -1    0    0    0  501  0.00000000000E+00  0.00000000000E+00  0.50754472708E+03  0.50754472708E+03  0.25500000920E-02 0.  1.
        2   -1    0    0  501    0  0.00000000000E+00  0.00000000000E+00 -0.18350683063E+04  0.18350683063E+04  0.25500000920E-02 0. -1.
    10030    2    1    2    0    0  0.00000000000E+00  0.00000000000E+00 -0.13275235793E+04  0.23426130334E+04  0.19301598304E+04 0.  0.
        2    1    3    3  502    0  0.31818005616E+03 -0.26754880353E+03 -0.17208269854E+04  0.17703294676E+04  0.25500000920E-02 0. -1.
       -2    1    3    3    0  502 -0.31818005616E+03  0.26754880353E+03  0.39330340610E+03  0.57228356579E+03  0.25500000920E-02 0.  1.
</event>
<event>
 5   0  0.1317527E-04  0.1848189E+04  0.7818609E-02  0.8681085E-01
       -1   -1    0    0    0  501  0.00000000000E+00  0.00000000000E+00  0.95217787216E+03  0.95217787218E+03  0.50400001928E-02 0. -1.
        1   -1    0    0  501    0  0.00000000000E+00  0.00000000000E+00 -0.89683944820E+03  0.89683944822E+03  0.50400001928E-02 0.  1.
    10030    2    1    2    0    0  0.00000000000E+00  0.00000000000E+00  0.55338423960E+02  0.18490173204E+04  0.18481890352E+04 0.  0.
        1    1    3    3  502    0  0.87474222002E+03  0.17568959528E+03  0.26842180192E+03  0.93171403829E+03  0.50400001928E-02 0. -1.
       -1    1    3    3    0  502 -0.87474222002E+03 -0.17568959528E+03 -0.21308337796E+03  0.91730328211E+03  0.50400001928E-02 0.  1.
</event>
<event>
 5   0  0.1277709E-04  0.1915497E+04  0.7818609E-02  0.8647181E-01
        1   -1    0    0  501    0  0.00000000000E+00  0.00000000000E+00  0.12124104692E+04  0.12124104692E+04  0.50400001928E-02 0. -1.
       -1   -1    0    0    0  501  0.00000000000E+00  0.00000000000E+00 -0.75657746527E+03  0.75657746529E+03  0.50400001928E-02 0.  1.
    10030    2    1    2    0    0  0.00000000000E+00  0.00000000000E+00  0.45583300392E+03  0.19689879345E+04  0.19154972615E+04 0.  0.
        4    1    3    3  502    0 -0.30952939252E+03 -0.87351768237E+03 -0.20576293093E+02  0.92696633326E+03  0.12699999809E+01 0. -1.
       -4    1    3    3    0  502  0.30952939252E+03  0.87351768237E+03  0.47640929701E+03  0.10420216012E+04  0.12699999809E+01 0.  1.
</event>
<event>
 5   0  0.2608744E-04  0.1842449E+04  0.7818609E-02  0.8684046E-01
        2   -1    0    0  501    0  0.00000000000E+00  0.00000000000E+00  0.82953895595E+03  0.82953895596E+03  0.25500000920E-02 0.  1.
       -2   -1    0    0    0  501  0.00000000000E+00  0.00000000000E+00 -0.10230433102E+04  0.10230433102E+04  0.25500000920E-02 0. -1.
    10030    2    1    2    0    0  0.00000000000E+00  0.00000000000E+00 -0.19350435424E+03  0.18525822662E+04  0.18424486744E+04 0.  0.
        2    1    3    3  502    0 -0.91928241028E+03 -0.26831352331E+02 -0.43033547881E+02  0.92068016030E+03  0.25500000920E-02 0. -1.
       -2    1    3    3    0  502  0.91928241028E+03  0.26831352331E+02 -0.15047080636E+03  0.93190210585E+03  0.25500000920E-02 0.  1.
</event>
<event>
 5   0  0.2541124E-04  0.1918328E+04  0.7818609E-02  0.8645787E-01
       -2   -1    0    0    0  501  0.00000000000E+00  0.00000000000E+00  0.11791406631E+04  0.11791406631E+04  0.25500000920E-02 0.  1.
        2   -1    0    0  501    0  0.00000000000E+00  0.00000000000E+00 -0.78022534448E+03  0.78022534448E+03  0.25500000920E-02 0. -1.
    10030    2    1    2    0    0  0.00000000000E+00  0.00000000000E+00  0.39891531858E+03  0.19593660075E+04  0.19183278448E+04 0.  0.
        5    1    3    3  502    0  0.63573141882E+03 -0.19132479937E+03 -0.50760412091E+03  0.83572941153E+03  0.46999998093E+01 0. -1.
       -5    1    3    3    0  502 -0.63573141882E+03  0.19132479937E+03  0.90651943949E+03  0.11236365960E+04  0.46999998093E+01 0.  1.
</event>
<event>
 5   0  0.1317527E-04  0.1814636E+04  0.7818609E-02  0.8698555E-01
       -1   -1    0    0    0  501  0.00000000000E+00  0.00000000000E+00  0.45852721913E+03  0.45852721916E+03  0.50400001928E-02 0.  1.
        1   -1    0    0  501    0  0.00000000000E+00  0.00000000000E+00 -0.17953695464E+04  0.17953695464E+04  0.50400001928E-02 0. -1.
    10030    2    1    2    0    0  0.00000000000E+00  0.00000000000E+00 -0.13368423272E+04  0.22538967655E+04  0.18146358372E+04 0.  0.
        1    1    3    3  502    0 -0.78412957403E+03  0.32727443342E+03 -0.10636597541E+04  0.13613742381E+04  0.50400001928E-02 0. -1.
       -1    1    3    3    0  502  0.78412957403E+03 -0.32727443342E+03 -0.27318257308E+03  0.89252252739E+03  0.50400001928E-02 0.  1.
</event>
<event>
 5   0  0.1255141E-04  0.1891308E+04  0.7818609E-02  0.8659195E-01
       -1   -1    0    0    0  501  0.00000000000E+00  0.00000000000E+00  0.11712206023E+04  0.11712206023E+04  0.50400001928E-02 0.  1.
        1   -1    0    0  501    0  0.00000000000E+00  0.00000000000E+00 -0.76352964989E+03  0.76352964991E+03  0.50400001928E-02 0. -1.
    10030    2    1    2    0    0  0.00000000000E+00  0.00000000000E+00  0.40769095242E+03  0.19347502522E+04  0.18913081784E+04 0.  0.
        2    1    3    3  502    0 -0.20613629367E+03 -0.82952053372E+03 -0.21000241166E+03  0.88016901806E+03  0.25500000920E-02 0. -1.
       -2    1    3    3    0  502  0.20613629367E+03  0.82952053372E+03  0.61769336408E+03  0.10545812342E+04  0.25500000920E-02 0.  1.
</event>
<event>
 5   0  0.2562925E-04  0.1917468E+04  0.7818609E-02  0.8646210E-01
        2   -1    0    0  501    0  0.00000000000E+00  0.00000000000E+00  0.23929289083E+04  0.23929289083E+04  0.25500000920E-02 0. -1.
       -2   -1    0    0    0  501  0.00000000000E+00  0.00000000000E+00 -0.38411958818E+03  0.38411958819E+03  0.25500000920E-02 0.  1.
    10030    2    1    2    0    0  0.00000000000E+00  0.00000000000E+00  0.20088093201E+04  0.27770484965E+04  0.19174679834E+04 0.  0.
        4    1    3    3  502    0  0.90902626622E+03  0.25928290122E+03  0.77262008205E+03  0.12208602621E+04  0.12699999809E+01 0.  1.
       -4    1    3    3    0  502 -0.90902626622E+03 -0.25928290122E+03  0.12361892381E+04  0.15561882344E+04  0.12699999809E+01 0. -1.
</event>
<event>
 5   0  0.9266125E-05  0.1909860E+04  0.7818609E-02  0.8649964E-01
       -3   -1    0    0    0  501  0.00000000000E+00  0.00000000000E+00  0.20163783695E+04  0.20163783720E+04  0.10100000352E+00 0.  1.
        3   -1    0    0  501    0  0.00000000000E+00  0.00000000000E+00 -0.45224223097E+03  0.45224224225E+03  0.10100000352E+00 0. -1.
    10030    2    1    2    0    0  0.00000000000E+00  0.00000000000E+00  0.15641361385E+04  0.24686206143E+04  0.19098601722E+04 0.  0.
        1    1    3    3  502    0 -0.38125797450E+03 -0.47988090277E+02 -0.34789720104E+03  0.51835601901E+03  0.50400001928E-02 0. -1.
       -1    1    3    3    0  502  0.38125797450E+03  0.47988090277E+02  0.19120333396E+04  0.19502645953E+04  0.50400001928E-02 0.  1.
</event>
<event>
 5   0  0.2562925E-04  0.1904453E+04  0.7818609E-02  0.8652643E-01
       -2   -1    0    0    0  501  0.00000000000E+00  0.00000000000E+00  0.12525798937E+04  0.12525798937E+04  0.25500000920E-02 0. -1.
        2   -1    0    0  501    0  0.00000000000E+00  0.00000000000E+00 -0.72389431026E+03  0.72389431026E+03  0.25500000920E-02 0.  1.
    10030    2    1    2    0    0  0.00000000000E+00  0.00000000000E+00  0.52868558346E+03  0.19764742040E+04  0.19044531585E+04 0.  0.
        4    1    3    3  502    0  0.36690735079E+03  0.13870573590E+03 -0.63615339478E+03  0.74736406110E+03  0.12699999809E+01 0.  1.
       -4    1    3    3    0  502 -0.36690735079E+03 -0.13870573590E+03  0.11648389782E+04  0.12291101429E+04  0.12699999809E+01 0. -1.
</event>
<event>
 5   0  0.2562925E-04  0.1899866E+04  0.7818609E-02  0.8654923E-01
       -2   -1    0    0    0  501  0.00000000000E+00  0.00000000000E+00  0.21932591324E+04  0.21932591324E+04  0.25500000920E-02 0.  1.
        2   -1    0    0  501    0  0.00000000000E+00  0.00000000000E+00 -0.41143013165E+03  0.41143013166E+03  0.25500000920E-02 0. -1.
    10030    2    1    2    0    0  0.00000000000E+00  0.00000000000E+00  0.17818290007E+04  0.26046892640E+04  0.18998661991E+04 0.  0.
        4    1    3    3  502    0 -0.47622406920E+03 -0.82113179921E+03  0.94080942988E+03  0.13364770077E+04  0.12699999809E+01 0. -1.
       -4    1    3    3    0  502  0.47622406920E+03  0.82113179921E+03  0.84101957084E+03  0.12682122564E+04  0.12699999809E+01 0.  1.
</event>
<event>
 5   0  0.2541124E-04  0.1880521E+04  0.7818609E-02  0.8664614E-01
       -2   -1    0    0    0  501  0.00000000000E+00  0.00000000000E+00  0.42429757229E+03  0.42429757230E+03  0.25500000920E-02 0.  1.
        2   -1    0    0  501    0  0.00000000000E+00  0.00000000000E+00 -0.20836548300E+04  0.20836548300E+04  0.25500000920E-02 0. -1.
    10030    2    1    2    0    0  0.00000000000E+00  0.00000000000E+00 -0.16593572577E+04  0.25079524023E+04  0.18805208702E+04 0.  0.
        5    1    3    3  502    0  0.48023280593E+03 -0.80582200326E+03 -0.74433614547E+03  0.11975103491E+04  0.46999998093E+01 0.  1.
       -5    1    3    3    0  502 -0.48023280593E+03  0.80582200326E+03 -0.91502111220E+03  0.13104420531E+04  0.46999998093E+01 0. -1.
</event>
<event>
 5   0  0.1255141E-04  0.1856306E+04  0.7818609E-02  0.8676917E-01
        1   -1    0    0  501    0  0.00000000000E+00  0.00000000000E+00  0.12726291789E+04  0.12726291789E+04  0.50400001928E-02 0.  1.
       -1   -1    0    0    0  501  0.00000000000E+00  0.00000000000E+00 -0.67691983854E+03  0.67691983855E+03  0.50400001928E-02 0. -1.
    10030    2    1    2    0    0  0.00000000000E+00  0.00000000000E+00  0.59570934040E+03  0.19495490175E+04  0.18563059428E+04 0.  0.
        2    1    3    3  502    0 -0.21604912786E+03 -0.89942215993E+03  0.21766154002E+03  0.95027048435E+03  0.25500000920E-02 0.  1.
       -2    1    3    3    0  502  0.21604912786E+03  0.89942215993E+03  0.37804780037E+03  0.99927853314E+03  0.25500000920E-02 0. -1.
</event>
<event>
 5   0  0.1317527E-04  0.1909433E+04  0.7818609E-02  0.8650175E-01
       -1   -1    0    0    0  501  0.00000000000E+00  0.00000000000E+00  0.10945688252E+04  0.10945688252E+04  0.50400001928E-02 0. -1.
        1   -1    0    0  501    0  0.00000000000E+00  0.00000000000E+00 -0.83273290408E+03  0.83273290409E+03  0.50400001928E-02 0.  1.
    10030    2    1    2    0    0  0.00000000000E+00  0.00000000000E+00  0.26183592111E+03  0.19273017293E+04  0.19094328755E+04 0.  0.
        1    1    3    3  502    0 -0.87468824055E+02  0.63495630948E+03  0.84511514899E+03  0.10606789925E+04  0.50400001928E-02 0. -1.
       -1    1    3    3    0  502  0.87468824055E+02 -0.63495630948E+03 -0.58327922789E+03  0.86662273674E+03  0.50400001928E-02 0.  1.
</event>
<event>
 5   0  0.9266125E-05  0.1895076E+04  0.7818609E-02  0.8657311E-01
        3   -1    0    0  501    0  0.00000000000E+00  0.00000000000E+00  0.10055890772E+04  0.10055890823E+04  0.10100000352E+00 0.  1.
       -3   -1    0    0    0  501  0.00000000000E+00  0.00000000000E+00 -0.89283811161E+03  0.89283811732E+03  0.10100000352E+00 0. -1.
    10030    2    1    2    0    0  0.00000000000E+00  0.00000000000E+00  0.11275096563E+03  0.18984271996E+04  0.18950760017E+04 0.  0.
        2    1    3    3  502    0 -0.58648868400E+03  0.18619098851E+03  0.77819961312E+03  0.99208401788E+03  0.25500000920E-02 0.  1.
       -2    1    3    3    0  502  0.58648868400E+03 -0.18619098851E+03 -0.66544864749E+03  0.90634318176E+03  0.25500000920E-02 0. -1.
</event>
<event>
 5   0  0.2595012E-04  0.1897320E+04  0.7818609E-02  0.8656192E-01
       -2   -1    0    0    0  501  0.00000000000E+00  0.00000000000E+00  0.42196432128E+03  0.42196432129E+03  0.25500000920E-02 0. -1.
        2   -1    0    0  501    0  0.00000000000E+00  0.00000000000E+00 -0.21327764135E+04  0.21327764135E+04  0.25500000920E-02 0.  1.
    10030    2    1    2    0    0  0.00000000000E+00  0.00000000000E+00 -0.17108120922E+04  0.25547407348E+04  0.18973197430E+04 0.  0.
        1    1    3    3  502    0 -0.44996747043E+03  0.74236964974E+03 -0.13705581810E+04  0.16223480356E+04  0.50400001928E-02 0.  1.
       -1    1    3    3    0  502  0.44996747043E+03 -0.74236964974E+03 -0.34025391128E+03  0.93239269917E+03  0.50400001928E-02 0. -1.
</event>
<event>
 5   0  0.2541124E-04  0.1892358E+04  0.7818609E-02  0.8658670E-01
       -2   -1    0    0    0  501  0.00000000000E+00  0.00000000000E+00  0.59330860688E+03  0.59330860689E+03  0.25500000920E-02 0.  1.
        2   -1    0    0  501    0  0.00000000000E+00  0.00000000000E+00 -0.15089187979E+04  0.15089187979E+04  0.25500000920E-02 0. -1.
    10030    2    1    2    0    0  0.00000000000E+00  0.00000000000E+00 -0.91561019102E+03  0.21022274048E+04  0.18923577990E+04 0.  0.
        5    1    3    3  502    0 -0.91411274252E+03 -0.17256494310E+03 -0.64974295202E+03  0.11347108704E+04  0.46999998093E+01 0. -1.
       -5    1    3    3    0  502  0.91411274252E+03  0.17256494310E+03 -0.26586723900E+03  0.96751653443E+03  0.46999998093E+01 0.  1.
</event>
<event>
 5   0  0.2562925E-04  0.1901568E+04  0.7818609E-02  0.8654076E-01
        2   -1    0    0  501    0  0.00000000000E+00  0.00000000000E+00  0.95086695254E+03  0.95086695254E+03  0.25500000920E-02 0. -1.
       -2   -1    0    0    0  501  0.00000000000E+00  0.00000000000E+00 -0.95070128096E+03  0.95070128096E+03  0.25500000920E-02 0.  1.
    10030    2    1    2    0    0  0.00000000000E+00  0.00000000000E+00  0.16567157927E+00  0.19015682335E+04  0.19015682263E+04 0.  0.
        4    1    3    3  502    0  0.13429751089E+03  0.73665612396E+03  0.58599302782E+03  0.95083516339E+03  0.12699999809E+01 0. -1.
       -4    1    3    3    0  502 -0.13429751089E+03 -0.73665612396E+03 -0.58582735624E+03  0.95073307011E+03  0.12699999809E+01 0.  1.
</event>
<event>
 5   0  0.1324058E-04  0.1891906E+04  0.7818609E-02  0.8658896E-01
       -1   -1    0    0    0  501  0.00000000000E+00  0.00000000000E+00  0.64716999320E+03  0.64716999322E+03  0.50400001928E-02 0.  1.
        1   -1    0    0  501    0  0.00000000000E+00  0.00000000000E+00 -0.13826769753E+04  0.13826769753E+04  0.50400001928E-02 0. -1.
    10030    2    1    2    0    0  0.00000000000E+00  0.00000000000E+00 -0.73550698213E+03  0.20298469686E+04  0.18919059689E+04 0.  0.
        5    1    3    3  502    0 -0.32876156623E+03 -0.31677069759E+03  0.52113062978E+03  0.69283985565E+03  0.46999998093E+01 0.  1.
       -5    1    3    3    0  502  0.32876156623E+03  0.31677069759E+03 -0.12566376119E+04  0.13370071129E+04  0.46999998093E+01 0. -1.
</event>
<event>
 5   0  0.1239615E-04  0.1899957E+04  0.7818609E-02  0.8654878E-01
        1   -1    0    0  501    0  0.00000000000E+00  0.00000000000E+00  0.93078278440E+03  0.93078278442E+03  0.50400001928E-02 0.  1.
       -1   -1    0    0    0  501  0.00000000000E+00  0.00000000000E+00 -0.96956969136E+03  0.96956969137E+03  0.50400001928E-02 0. -1.
    10030    2    1    2    0    0  0.00000000000E+00  0.00000000000E+00 -0.38786906959E+02  0.19003524758E+04  0.18999566069E+04 0.  0.
        3    1    3    3  502    0 -0.65847954932E+03 -0.18477301564E+03 -0.67886563352E+03  0.96363631249E+03  0.10100000352E+00 0. -1.
       -3    1    3    3    0  502  0.65847954932E+03  0.18477301564E+03  0.64007872656E+03  0.93671616330E+03  0.10100000352E+00 0.  1.
</event>
<event>
 5   0  0.1255141E-04  0.1943382E+04  0.7818609E-02  0.8633559E-01
       -1   -1    0    0    0  501  0.00000000000E+00  0.00000000000E+00  0.10107065056E+04  0.10107065056E+04  0.50400001928E-02 0.  1.
        1   -1    0    0  501    0  0.00000000000E+00  0.00000000000E+00 -0.93418170770E+03  0.93418170771E+03  0.50400001928E-02 0. -1.
    10030    2    1    2    0    0  0.00000000000E+00  0.00000000000E+00  0.76524797902E+02  0.19448882133E+04  0.19433821337E+04 0.  0.
        2    1    3    3  502    0  0.48852844768E+03 -0.12489128908E+03  0.86952374218E+03  0.10051514396E+04  0.25500000920E-02 0.  1.
       -2    1    3    3    0  502 -0.48852844768E+03  0.12489128908E+03 -0.79299894428E+03  0.93973677374E+03  0.25500000920E-02 0. -1.
</event>
<event>
 5   0  0.1255141E-04  0.1544573E+04  0.7818609E-02  0.8855342E-01
       -1   -1    0    0    0  501  0.00000000000E+00  0.00000000000E+00  0.26622433575E+03  0.26622433580E+03  0.50400001928E-02 0.  1.
        1   -1    0    0  501    0  0.00000000000E+00  0.00000000000E+00 -0.22403138935E+04  0.22403138935E+04  0.50400001928E-02 0. -1.
    10030    2    1    2    0    0  0.00000000000E+00  0.00000000000E+00 -0.19740895578E+04  0.25065382293E+04  0.15445725340E+04 0.  0.
        2    1    3    3  502    0  0.50391285049E+03  0.54318990853E+03 -0.63357649475E+03  0.97488594837E+03  0.25500000920E-02 0.  1.
       -2    1    3    3    0  502 -0.50391285049E+03 -0.54318990853E+03 -0.13405130630E+04  0.15316522809E+04  0.25500000920E-02 0. -1.
</event>
<event>
 5   0  0.1324058E-04  0.1913913E+04  0.7818609E-02  0.8647962E-01
        1   -1    0    0  501    0  0.00000000000E+00  0.00000000000E+00  0.95866893813E+03  0.95866893815E+03  0.50400001928E-02 0.  1.
       -1   -1    0    0    0  501  0.00000000000E+00  0.00000000000E+00 -0.95524699637E+03  0.95524699639E+03  0.50400001928E-02 0. -1.
    10030    2    1    2    0    0  0.00000000000E+00  0.00000000000E+00  0.34219417604E+01  0.19139159345E+04  0.19139128754E+04 0.  0.
        5    1    3    3  502    0  0.39424480321E+03  0.72070956022E+03  0.49251955751E+03  0.95783549714E+03  0.46999998093E+01 0.  1.
       -5    1    3    3    0  502 -0.39424480321E+03 -0.72070956022E+03 -0.48909761575E+03  0.95608043740E+03  0.46999998093E+01 0. -1.
</event>
<event>
 5   0  0.2595012E-04  0.1928662E+04  0.7818609E-02  0.8640719E-01
       -2   -1    0    0    0  501  0.00000000000E+00  0.00000000000E+00  0.13094598561E+04  0.13094598561E+04  0.25500000920E-02 0.  1.
        2   -1    0    0  501    0  0.00000000000E+00  0.00000000000E+00 -0.71016651248E+03  0.71016651249E+03  0.25500000920E-02 0. -1.
    10030    2    1    2    0    0  0.00000000000E+00  0.00000000000E+00  0.59929334358E+03  0.20196263686E+04  0.19286622713E+04 0.  0.
        1    1    3    3  502    0  0.28013000252E+03  0.15389387482E+03  0.12523811703E+04  0.12925226260E+04  0.50400001928E-02 0.  1.
       -1    1    3    3    0  502 -0.28013000252E+03 -0.15389387482E+03 -0.65308782670E+03  0.72710374255E+03  0.50400001928E-02 0. -1.
</event>
<event>
 5   0  0.1277709E-04  0.1898115E+04  0.7818609E-02  0.8655795E-01
       -1   -1    0    0    0  501  0.00000000000E+00  0.00000000000E+00  0.13444246812E+04  0.13444246812E+04  0.50400001928E-02 0.  1.
        1   -1    0    0  501    0  0.00000000000E+00  0.00000000000E+00 -0.66995980071E+03  0.66995980073E+03  0.50400001928E-02 0. -1.
    10030    2    1    2    0    0  0.00000000000E+00  0.00000000000E+00  0.67446488050E+03  0.20143844819E+04  0.18981153722E+04 0.  0.
        4    1    3    3  502    0 -0.47646734322E+03 -0.36261520818E+03  0.11186779508E+04  0.12688391895E+04  0.12699999809E+01 0.  1.
       -4    1    3    3    0  502  0.47646734322E+03  0.36261520818E+03 -0.44421307028E+03  0.74554529244E+03  0.12699999809E+01 0. -1.
</event>
<event>
 5   0  0.1317527E-04  0.1907349E+04  0.7818609E-02  0.8651207E-01
        1   -1    0    0  501    0  0.00000000000E+00  0.00000000000E+00  0.10394212163E+04  0.10394212163E+04  0.50400001928E-02 0.  1.
       -1   -1    0    0    0  501  0.00000000000E+00  0.00000000000E+00 -0.87500111879E+03  0.87500111880E+03  0.50400001928E-02 0. -1.
    10030    2    1    2    0    0  0.00000000000E+00  0.00000000000E+00  0.16442009753E+03  0.19144223351E+04  0.19073486595E+04 0.  0.
        1    1    3    3  502    0  0.62999638989E+03  0.65093179434E+03 -0.21703499877E+03  0.93151051678E+03  0.50400001928E-02 0.  1.
       -1    1    3    3    0  502 -0.62999638989E+03 -0.65093179434E+03  0.38145509631E+03  0.98291181836E+03  0.50400001928E-02 0. -1.
</event>
<event>
 5   0  0.2562925E-04  0.1924509E+04  0.7818609E-02  0.8642752E-01
       -2   -1    0    0    0  501  0.00000000000E+00  0.00000000000E+00  0.34002652050E+03  0.34002652051E+03  0.25500000920E-02 0.  1.
        2   -1    0    0  501    0  0.00000000000E+00  0.00000000000E+00 -0.27231206641E+04  0.27231206641E+04  0.25500000920E-02 0. -1.
    10030    2    1    2    0    0  0.00000000000E+00  0.00000000000E+00 -0.23830941436E+04  0.30631471846E+04  0.19245085028E+04 0.  0.
        4    1    3    3  502    0 -0.61447319785E+03 -0.18201224924E+03 -0.49071670257E+02  0.64274054756E+03  0.12699999809E+01 0.  1.
       -4    1    3    3    0  502  0.61447319785E+03  0.18201224924E+03 -0.23340224733E+04  0.24204066370E+04  0.12699999809E+01 0. -1.
</event>
<event>
 5   0  0.1324058E-04  0.1364628E+04  0.7818609E-02  0.8979828E-01
       -1   -1    0    0    0  501  0.00000000000E+00  0.00000000000E+00  0.69468130975E+03  0.69468130977E+03  0.50400001928E-02 0.  1.
        1   -1    0    0  501    0  0.00000000000E+00  0.00000000000E+00 -0.67016718328E+03  0.67016718330E+03  0.50400001928E-02 0. -1.
    10030    2    1    2    0    0  0.00000000000E+00  0.00000000000E+00  0.24514126470E+02  0.13648484931E+04  0.13646283255E+04 0.  0.
        5    1    3    3  502    0 -0.40379353723E+03  0.35904449288E+03 -0.40442551289E+03  0.67494018554E+03  0.46999998093E+01 0. -1.
       -5    1    3    3    0  502  0.40379353723E+03 -0.35904449288E+03  0.42893963936E+03  0.68990830753E+03  0.46999998093E+01 0.  1.
</event>
<event>
 5   0  0.9266125E-05  0.1901299E+04  0.7818609E-02  0.8654210E-01
       -3   -1    0    0    0  501  0.00000000000E+00  0.00000000000E+00  0.10951036656E+04  0.10951036703E+04  0.10100000352E+00 0. -1.
        3   -1    0    0  501    0  0.00000000000E+00  0.00000000000E+00 -0.82525040289E+03  0.82525040907E+03  0.10100000352E+00 0.  1.
    10030    2    1    2    0    0  0.00000000000E+00  0.00000000000E+00  0.26985326271E+03  0.19203540793E+04  0.19012992943E+04 0.  0.
        2    1    3    3  502    0  0.88120449190E+03 -0.13859675165E+03  0.46686038716E+03  0.10068212539E+04  0.25500000920E-02 0. -1.
       -2    1    3    3    0  502 -0.88120449190E+03  0.13859675165E+03 -0.19700712445E+03  0.91353282546E+03  0.25500000920E-02 0.  1.
</event>
<event>
 5   0  0.1255141E-04  0.1911654E+04  0.7818609E-02  0.8649077E-01
        1   -1    0    0  501    0  0.00000000000E+00  0.00000000000E+00  0.12191063741E+04  0.12191063741E+04  0.50400001928E-02 0.  1.
       -1   -1    0    0    0  501  0.00000000000E+00  0.00000000000E+00 -0.74940586061E+03  0.74940586063E+03  0.50400001928E-02 0. -1.
    10030    2    1    2    0    0  0.00000000000E+00  0.00000000000E+00  0.46970051349E+03  0.19685122347E+04  0.19116542172E+04 0.  0.
        2    1    3    3  502    0  0.33474570223E+03 -0.59929833761E+03  0.91975874478E+03  0.11476799777E+04  0.25500000920E-02 0.  1.
       -2    1    3    3    0  502 -0.33474570223E+03  0.59929833761E+03 -0.45005823129E+03  0.82083225703E+03  0.25500000920E-02 0. -1.
</event>
<event>
 5   0  0.2595012E-04  0.1886719E+04  0.7818609E-02  0.8661496E-01
        2   -1    0    0  501    0  0.00000000000E+00  0.00000000000E+00  0.18109034585E+04  0.18109034585E+04  0.25500000920E-02 0.  1.
       -2   -1    0    0    0  501  0.00000000000E+00  0.00000000000E+00 -0.49142709759E+03  0.49142709759E+03  0.25500000920E-02 0. -1.
    10030    2    1    2    0    0  0.00000000000E+00  0.00000000000E+00  0.13194763610E+04  0.23023305561E+04  0.18867188775E+04 0.  0.
        1    1    3    3  502    0  0.36641236581E+03 -0.62088003401E+03  0.14021847309E+04  0.15766648528E+04  0.50400001928E-02 0.  1.
       -1    1    3    3    0  502 -0.36641236581E+03  0.62088003401E+03 -0.82708369988E+02  0.72566570330E+03  0.50400001928E-02 0. -1.
</event>
<event>
 5   0  0.1277709E-04  0.1668760E+04  0.7818609E-02  0.8779385E-01
        1   -1    0    0  501    0  0.00000000000E+00  0.00000000000E+00  0.21872681017E+04  0.21872681017E+04  0.50400001928E-02 0. -1.
       -1   -1    0    0    0  501  0.00000000000E+00  0.00000000000E+00 -0.31829196772E+03  0.31829196776E+03  0.50400001928E-02 0.  1.
    10030    2    1    2    0    0  0.00000000000E+00  0.00000000000E+00  0.18689761340E+04  0.25055600694E+04  0.16687598606E+04 0.  0.
        4    1    3    3  502    0  0.53937739855E+03  0.43491544509E+03  0.23650122919E+03  0.73212967892E+03  0.12699999809E+01 0. -1.
       -4    1    3    3    0  502 -0.53937739855E+03 -0.43491544509E+03  0.16324749048E+04  0.17734303905E+04  0.12699999809E+01 0.  1.
</event>
<event>
 5   0  0.2595012E-04  0.1900941E+04  0.7818609E-02  0.8654388E-01
        2   -1    0    0  501    0  0.00000000000E+00  0.00000000000E+00  0.11063401154E+04  0.11063401154E+04  0.25500000920E-02 0.  1.
       -2   -1    0    0    0  501  0.00000000000E+00  0.00000000000E+00 -0.81656133721E+03  0.81656133721E+03  0.25500000920E-02 0. -1.
    10030    2    1    2    0    0  0.00000000000E+00  0.00000000000E+00  0.28977877823E+03  0.19229014526E+04  0.19009414132E+04 0.  0.
        1    1    3    3  502    0 -0.38861965883E+03 -0.57312718874E+03 -0.51370376493E+03  0.86220158422E+03  0.50400001928E-02 0. -1.
       -1    1    3    3    0  502  0.38861965883E+03  0.57312718874E+03  0.80348254315E+03  0.10606998684E+04  0.50400001928E-02 0.  1.
</event>
<event>
 5   0  0.2651828E-04  0.1905662E+04  0.7818609E-02  0.8652043E-01
       -2   -1    0    0    0  501  0.00000000000E+00  0.00000000000E+00  0.86089112993E+03  0.86089112993E+03  0.25500000920E-02 0.  1.
        2   -1    0    0  501    0  0.00000000000E+00  0.00000000000E+00 -0.10545892787E+04  0.10545892787E+04  0.25500000920E-02 0. -1.
    10030    2    1    2    0    0  0.00000000000E+00  0.00000000000E+00 -0.19369814881E+03  0.19154804087E+04  0.19056616235E+04 0.  0.
        3    1    3    3  502    0  0.69060516305E+03 -0.65261267108E+03 -0.25435446069E+02  0.95051868040E+03  0.10100000352E+00 0.  1.
       -3    1    3    3    0  502 -0.69060516305E+03  0.65261267108E+03 -0.16826270274E+03  0.96496172826E+03  0.10100000352E+00 0. -1.
</event>
<event>
 5   0  0.2651828E-04  0.1969590E+04  0.7818609E-02  0.8620972E-01
       -2   -1    0    0    0  501  0.00000000000E+00  0.00000000000E+00  0.80527866098E+03  0.80527866099E+03  0.25500000920E-02 0. -1.
        2   -1    0    0  501    0  0.00000000000E+00  0.00000000000E+00 -0.12043302827E+04  0.12043302827E+04  0.25500000920E-02 0.  1.
    10030    2    1    2    0    0  0.00000000000E+00  0.00000000000E+00 -0.39905162173E+03  0.20096089437E+04  0.19695902898E+04 0.  0.
        3    1    3    3  502    0 -0.21962865613E+03  0.41157943959E+03 -0.10844347794E+04  0.11805224194E+04  0.10100000352E+00 0.  1.
       -3    1    3    3    0  502  0.21962865613E+03 -0.41157943959E+03  0.68538315771E+03  0.82908652429E+03  0.10100000352E+00 0. -1.
</event>
<event>
 5   0  0.1317527E-04  0.1929783E+04  0.7818609E-02  0.8640172E-01
        1   -1    0    0  501    0  0.00000000000E+00  0.00000000000E+00  0.57864509003E+03  0.57864509005E+03  0.50400001928E-02 0.  1.
       -1   -1    0    0    0  501  0.00000000000E+00  0.00000000000E+00 -0.16089575639E+04  0.16089575639E+04  0.50400001928E-02 0. -1.
    10030    2    1    2    0    0  0.00000000000E+00  0.00000000000E+00 -0.10303124739E+04  0.21876026539E+04  0.19297827799E+04 0.  0.
        1    1    3    3  502    0  0.17162013373E+03  0.12237838233E+02  0.56111496747E+03  0.58690139012E+03  0.50400001928E-02 0.  1.
       -1    1    3    3    0  502 -0.17162013373E+03 -0.12237838233E+02 -0.15914274413E+04  0.16007012638E+04  0.50400001928E-02 0. -1.
</event>
<event>
 5   0  0.1324058E-04  0.1882982E+04  0.7818609E-02  0.8663374E-01
        1   -1    0    0  501    0  0.00000000000E+00  0.00000000000E+00  0.11232014674E+04  0.11232014675E+04  0.50400001928E-02 0.  1.
       -1   -1    0    0    0  501  0.00000000000E+00  0.00000000000E+00 -0.78917713227E+03  0.78917713229E+03  0.50400001928E-02 0. -1.
    10030    2    1    2    0    0  0.00000000000E+00  0.00000000000E+00  0.33402433517E+03  0.19123785997E+04  0.18829815857E+04 0.  0.
        5    1    3    3  502    0 -0.12014841945E+03 -0.78215405577E+03  0.68505611524E+03  0.10466731012E+04  0.46999998093E+01 0.  1.
       -5    1    3    3    0  502  0.12014841945E+03  0.78215405577E+03 -0.35103178007E+03  0.86570549858E+03  0.46999998093E+01 0. -1.
</event>
<event>
 5   0  0.2651828E-04  0.1700802E+04  0.7818609E-02  0.8760907E-01
        2   -1    0    0  501    0  0.00000000000E+00  0.00000000000E+00  0.26051419705E+04  0.26051419705E+04  0.25500000920E-02 0. -1.
       -2   -1    0    0    0  501  0.00000000000E+00  0.00000000000E+00 -0.27759788922E+03  0.27759788923E+03  0.25500000920E-02 0.  1.
    10030    2    1    2    0    0  0.00000000000E+00  0.00000000000E+00  0.23275440813E+04  0.28827398597E+04  0.17008020604E+04 0.  0.
        3    1    3    3  502    0  0.10175170459E+03  0.45781040600E+03  0.23661429149E+04  0.24121724816E+04  0.10100000352E+00 0. -1.
       -3    1    3    3    0  502 -0.10175170459E+03 -0.45781040600E+03 -0.38598833566E+02  0.47056737815E+03  0.10100000352E+00 0.  1.
</event>
<event>
 5   0  0.1324058E-04  0.1958585E+04  0.7818609E-02  0.8626232E-01
       -1   -1    0    0    0  501  0.00000000000E+00  0.00000000000E+00  0.74245266345E+03  0.74245266347E+03  0.50400001928E-02 0. -1.
        1   -1    0    0  501    0  0.00000000000E+00  0.00000000000E+00 -0.12916837905E+04  0.12916837905E+04  0.50400001928E-02 0.  1.
    10030    2    1    2    0    0  0.00000000000E+00  0.00000000000E+00 -0.54923112706E+03  0.20341364540E+04  0.19585852758E+04 0.  0.
        5    1    3    3  502    0 -0.16108288788E+03  0.27695417904E+03 -0.12356985339E+04  0.12765673781E+04  0.46999998093E+01 0.  1.
       -5    1    3    3    0  502  0.16108288788E+03 -0.27695417904E+03  0.68646740688E+03  0.75756907590E+03  0.46999998093E+01 0. -1.
</event>
<event>
 5   0  0.2608744E-04  0.2116158E+04  0.7818609E-02  0.8554159E-01
       -2   -1    0    0    0  501  0.00000000000E+00  0.00000000000E+00  0.77339118070E+03  0.77339118071E+03  0.25500000920E-02 0. -1.
        2   -1    0    0  501    0  0.00000000000E+00  0.00000000000E+00 -0.14475606520E+04  0.14475606520E+04  0.25500000920E-02 0.  1.
    10030    2    1    2    0    0  0.00000000000E+00  0.00000000000E+00 -0.67416947130E+03  0.22209518327E+04  0.21161575006E+04 0.  0.
        2    1    3    3  502    0  0.21214080639E+03  0.60481763089E+03  0.54646149496E+03  0.84227564006E+03  0.25500000920E-02 0. -1.
       -2    1    3    3    0  502 -0.21214080639E+03 -0.60481763089E+03 -0.12206309663E+04  0.13786761926E+04  0.25500000920E-02 0.  1.
</event>
<event>
 5   0  0.1239615E-04  0.1900965E+04  0.7818609E-02  0.8654376E-01
        1   -1    0    0  501    0  0.00000000000E+00  0.00000000000E+00  0.90295707298E+03  0.90295707300E+03  0.50400001928E-02 0.  1.
       -1   -1    0    0    0  501  0.00000000000E+00  0.00000000000E+00 -0.10005097888E+04  0.10005097888E+04  0.50400001928E-02 0. -1.
    10030    2    1    2    0    0  0.00000000000E+00  0.00000000000E+00 -0.97552715831E+02  0.19034668618E+04  0.19009654289E+04 0.  0.
        3    1    3    3  502    0 -0.68042660677E+03 -0.57678227654E+03 -0.37747530894E+03  0.96857925892E+03  0.10100000352E+00 0.  1.
       -3    1    3    3    0  502  0.68042660677E+03  0.57678227654E+03  0.27992259311E+03  0.93488760291E+03  0.10100000352E+00 0. -1.
</event>
<event>
 5   0  0.1317527E-04  0.1431428E+04  0.7818609E-02  0.8931378E-01
       -1   -1    0    0    0  501  0.00000000000E+00  0.00000000000E+00  0.49434684248E+03  0.49434684251E+03  0.50400001928E-02 0. -1.
        1   -1    0    0  501    0  0.00000000000E+00  0.00000000000E+00 -0.10362092635E+04  0.10362092635E+04  0.50400001928E-02 0.  1.
    10030    2    1    2    0    0  0.00000000000E+00  0.00000000000E+00 -0.54186242104E+03  0.15305561060E+04  0.14314283462E+04 0.  0.
        1    1    3    3  502    0 -0.54726881589E+03 -0.44347134235E+03 -0.13535630816E+03  0.71728050198E+03  0.50400001928E-02 0.  1.
       -1    1    3    3    0  502  0.54726881589E+03  0.44347134235E+03 -0.40650611287E+03  0.81327560406E+03  0.50400001928E-02 0. -1.
</event>
<event>
 5   0  0.1277709E-04  0.1874856E+04  0.7818609E-02  0.8667474E-01
        1   -1    0    0  501    0  0.00000000000E+00  0.00000000000E+00  0.70928938834E+03  0.70928938836E+03  0.50400001928E-02 0. -1.
       -1   -1    0    0    0  501  0.00000000000E+00  0.00000000000E+00 -0.12389462008E+04  0.12389462008E+04  0.50400001928E-02 0.  1.
    10030    2    1    2    0    0  0.00000000000E+00  0.00000000000E+00 -0.52965681244E+03  0.19482355891E+04  0.18748561470E+04 0.  0.
        4    1    3    3  502    0  0.29563618652E+03 -0.47855502051E+03  0.51442455484E+03  0.76226629071E+03  0.12699999809E+01 0. -1.
       -4    1    3    3    0  502 -0.29563618652E+03  0.47855502051E+03 -0.10440813673E+04  0.11859692984E+04  0.12699999809E+01 0.  1.
</event>
<event>
 5   0  0.2562925E-04  0.1937092E+04  0.7818609E-02  0.8636610E-01
       -2   -1    0    0    0  501  0.00000000000E+00  0.00000000000E+00  0.94145161549E+03  0.94145161549E+03  0.25500000920E-02 0. -1.
        2   -1    0    0  501    0  0.00000000000E+00  0.00000000000E+00 -0.99642049675E+03  0.99642049675E+03  0.25500000920E-02 0.  1.
    10030    2    1    2    0    0  0.00000000000E+00  0.00000000000E+00 -0.54968881261E+02  0.19378721122E+04  0.19370923431E+04 0.  0.
        4    1    3    3  502    0 -0.65819289453E+03 -0.56289756672E+03  0.40628959173E+03  0.95663180079E+03  0.12699999809E+01 0. -1.
       -4    1    3    3    0  502  0.65819289453E+03  0.56289756672E+03 -0.46125847299E+03  0.98124031146E+03  0.12699999809E+01 0.  1.
</event>
<event>
 5   0  0.1239615E-04  0.1957492E+04  0.7818609E-02  0.8626756E-01
        1   -1    0    0  501    0  0.00000000000E+00  0.00000000000E+00  0.15761289690E+04  0.15761289690E+04  0.50400001928E-02 0. -1.
       -1   -1    0    0    0  501  0.00000000000E+00  0.00000000000E+00 -0.60778276487E+03  0.60778276489E+03  0.50400001928E-02 0.  1.
    10030    2    1    2    0    0  0.00000000000E+00  0.00000000000E+00  0.96834620416E+03  0.21839117339E+04  0.19574922964E+04 0.  0.
        3    1    3    3  502    0  0.10881673194E+03 -0.37541358256E+03  0.14852747083E+04  0.15358442006E+04  0.10100000352E+00 0. -1.
       -3    1    3    3    0  502 -0.10881673194E+03  0.37541358256E+03 -0.51692850417E+03  0.64806753332E+03  0.10100000352E+00 0.  1.
</event>
<event>
 5   0  0.1324058E-04  0.1883366E+04  0.7818609E-02  0.8663181E-01
       -1   -1    0    0    0  501  0.00000000000E+00  0.00000000000E+00  0.21713905969E+04  0.21713905969E+04  0.50400001928E-02 0. -1.
        1   -1    0    0  501    0  0.00000000000E+00  0.00000000000E+00 -0.40838669314E+03  0.40838669317E+03  0.50400001928E-02 0.  1.
    10030    2    1    2    0    0  0.00000000000E+00  0.00000000000E+00  0.17630039038E+04  0.25797772901E+04  0.18833661624E+04 0.  0.
        5    1    3    3  502    0 -0.22133469400E+03 -0.18068283613E+03 -0.34756334075E+03  0.44995299740E+03  0.46999998093E+01 0.  1.
       -5    1    3    3    0  502  0.22133469400E+03  0.18068283613E+03  0.21105672445E+04  0.21298242927E+04  0.46999998093E+01 0. -1.
</event>
<event>
 5   0  0.1277709E-04  0.1867477E+04  0.7818609E-02  0.8671217E-01
       -1   -1    0    0    0  501  0.00000000000E+00  0.00000000000E+00  0.78473675643E+03  0.78473675644E+03  0.50400001928E-02 0. -1.
        1   -1    0    0  501    0  0.00000000000E+00  0.00000000000E+00 -0.11110322698E+04  0.11110322698E+04  0.50400001928E-02 0.  1.
    10030    2    1    2    0    0  0.00000000000E+00  0.00000000000E+00 -0.32629551333E+03  0.18957690262E+04  0.18674772927E+04 0.  0.
        4    1    3    3  502    0  0.37557447769E+03  0.53586103114E+03  0.51302350100E+03  0.83150343262E+03  0.12699999809E+01 0. -1.
       -4    1    3    3    0  502 -0.37557447769E+03 -0.53586103114E+03 -0.83931901433E+03  0.10642655936E+04  0.12699999809E+01 0.  1.
</event>
<event>
 5   0  0.2608744E-04  0.1827373E+04  0.7818609E-02  0.8691877E-01
       -2   -1    0    0    0  501  0.00000000000E+00  0.00000000000E+00  0.38366374702E+03  0.38366374703E+03  0.25500000920E-02 0.  1.
        2   -1    0    0  501    0  0.00000000000E+00  0.00000000000E+00 -0.21759237587E+04  0.21759237587E+04  0.25500000920E-02 0. -1.
    10030    2    1    2    0    0  0.00000000000E+00  0.00000000000E+00 -0.17922600116E+04  0.25595875057E+04  0.18273730462E+04 0.  0.
        2    1    3    3  502    0 -0.47245529422E+03 -0.78060244238E+03 -0.96284891721E+03  0.13265112949E+04  0.25500000920E-02 0.  1.
       -2    1    3    3    0  502  0.47245529422E+03  0.78060244238E+03 -0.82941109443E+03  0.12330762108E+04  0.25500000920E-02 0. -1.
</event>
<event>
 5   0  0.2562925E-04  0.1900360E+04  0.7818609E-02  0.8654677E-01
       -2   -1    0    0    0  501  0.00000000000E+00  0.00000000000E+00  0.46933678967E+03  0.46933678968E+03  0.25500000920E-02 0.  1.
        2   -1    0    0  501    0  0.00000000000E+00  0.00000000000E+00 -0.19236539717E+04  0.19236539717E+04  0.25500000920E-02 0. -1.
    10030    2    1    2    0    0  0.00000000000E+00  0.00000000000E+00 -0.14543171820E+04  0.23929907614E+04  0.19003595234E+04 0.  0.
        4    1    3    3  502    0  0.23233398036E+03  0.80104701925E+03 -0.13003292431E+04  0.15448343467E+04  0.12699999809E+01 0. -1.
       -4    1    3    3    0  502 -0.23233398036E+03 -0.80104701925E+03 -0.15398793894E+03  0.84815641466E+03  0.12699999809E+01 0.  1.
</event>
<event>
 5   0  0.2562925E-04  0.1865782E+04  0.7818609E-02  0.8672079E-01
        2   -1    0    0  501    0  0.00000000000E+00  0.00000000000E+00  0.14458821252E+04  0.14458821252E+04  0.25500000920E-02 0. -1.
       -2   -1    0    0    0  501  0.00000000000E+00  0.00000000000E+00 -0.60190647088E+03  0.60190647089E+03  0.25500000920E-02 0.  1.
    10030    2    1    2    0    0  0.00000000000E+00  0.00000000000E+00  0.84397565427E+03  0.20477885960E+04  0.18657822030E+04 0.  0.
        4    1    3    3  502    0  0.22604871520E+03  0.89167855533E+03  0.59235753783E+03  0.10941104758E+04  0.12699999809E+01 0.  1.
       -4    1    3    3    0  502 -0.22604871520E+03 -0.89167855533E+03  0.25161811644E+03  0.95367812028E+03  0.12699999809E+01 0. -1.
</event>
<event>
 5   0  0.1277709E-04  0.1883239E+04  0.7818609E-02  0.8663244E-01
        1   -1    0    0  501    0  0.00000000000E+00  0.00000000000E+00  0.13088861729E+04  0.13088861729E+04  0.50400001928E-02 0.  1.
       -1   -1    0    0    0  501  0.00000000000E+00  0.00000000000E+00 -0.67740626119E+03  0.67740626121E+03  0.50400001928E-02 0. -1.
    10030    2    1    2    0    0  0.00000000000E+00  0.00000000000E+00  0.63147991168E+03  0.19862924341E+04  0.18832394311E+04 0.  0.
        4    1    3    3  502    0 -0.18353985587E+03 -0.34102613006E+03  0.12209957321E+04  0.12809441404E+04  0.12699999809E+01 0.  1.
       -4    1    3    3    0  502  0.18353985587E+03  0.34102613006E+03 -0.58951582040E+03  0.70534829373E+03  0.12699999809E+01 0. -1.
</event>
<event>
 5   0  0.2608744E-04  0.1905017E+04  0.7818609E-02  0.8652363E-01
        2   -1    0    0  501    0  0.00000000000E+00  0.00000000000E+00  0.12523879251E+04  0.12523879251E+04  0.25500000920E-02 0.  1.
       -2   -1    0    0    0  501  0.00000000000E+00  0.00000000000E+00 -0.72443433762E+03  0.72443433762E+03  0.25500000920E-02 0. -1.
    10030    2    1    2    0    0  0.00000000000E+00  0.00000000000E+00  0.52795358751E+03  0.19768222628E+04  0.19050173931E+04 0.  0.
        2    1    3    3  502    0  0.19711629106E+03  0.87771564584E+03  0.58888100002E+03  0.10751839002E+04  0.25500000920E-02 0.  1.
       -2    1    3    3    0  502 -0.19711629106E+03 -0.87771564584E+03 -0.60927412508E+02  0.90163836251E+03  0.25500000920E-02 0. -1.
</event>
<event>
 5   0  0.2562925E-04  0.1914396E+04  0.7818609E-02  0.8647723E-01
        2   -1    0    0  501    0  0.00000000000E+00  0.00000000000E+00  0.12127100148E+04  0.12127100148E+04  0.25500000920E-02 0. -1.
       -2   -1    0    0    0  501  0.00000000000E+00  0.00000000000E+00 -0.75552145459E+03  0.75552145460E+03  0.25500000920E-02 0.  1.
    10030    2    1    2    0    0  0.00000000000E+00  0.00000000000E+00  0.45718856022E+03  0.19682314694E+04  0.19143964421E+04 0.  0.
        4    1    3    3  502    0  0.92694602955E+03 -0.18009069903E+02  0.47335093772E+03  0.10409687754E+04  0.12699999809E+01 0. -1.
       -4    1    3    3    0  502 -0.92694602955E+03  0.18009069903E+02 -0.16162377501E+02  0.92726269397E+03  0.12699999809E+01 0.  1.
</event>
<event>
 5   0  0.2541124E-04  0.1908100E+04  0.7818609E-02  0.8650835E-01
        2   -1    0    0  501    0  0.00000000000E+00  0.00000000000E+00  0.99013296014E+03  0.99013296014E+03  0.25500000920E-02 0.  1.
       -2   -1    0    0    0  501  0.00000000000E+00  0.00000000000E+00 -0.91928239061E+03  0.91928239061E+03  0.25500000920E-02 0. -1.
    10030    2    1    2    0    0  0.00000000000E+00  0.00000000000E+00  0.70850569531E+02  0.19094153508E+04  0.19081004110E+04 0.  0.
        5    1    3    3  502    0 -0.26334456819E+03  0.44215755656E+03 -0.76845641837E+03  0.92487892362E+03  0.46999998093E+01 0. -1.
       -5    1    3    3    0  502  0.26334456819E+03 -0.44215755656E+03  0.83930698790E+03  0.98453642713E+03  0.46999998093E+01 0.  1.
</event>
<event>
 5   0  0.1255141E-04  0.1432265E+04  0.7818609E-02  0.8930789E-01
        1   -1    0    0  501    0  0.00000000000E+00  0.00000000000E+00  0.16057723534E+04  0.16057723534E+04  0.50400001928E-02 0. -1.
       -1   -1    0    0    0  501  0.00000000000E+00  0.00000000000E+00 -0.31937635296E+03  0.31937635300E+03  0.50400001928E-02 0.  1.
    10030    2    1    2    0    0  0.00000000000E+00  0.00000000000E+00  0.12863960004E+04  0.19251487064E+04  0.14322649447E+04 0.  0.
        2    1    3    3  502    0  0.42662656579E+03  0.44894972149E+03  0.15991003059E+03  0.63963841110E+03  0.25500000920E-02 0.  1.
       -2    1    3    3    0  502 -0.42662656579E+03 -0.44894972149E+03  0.11264859698E+04  0.12855102953E+04  0.25500000920E-02 0. -1.
</event>
<event>
 5   0  0.2541124E-04  0.1806722E+04  0.7818609E-02  0.8702733E-01
        2   -1    0    0  501    0  0.00000000000E+00  0.00000000000E+00  0.14238142310E+04  0.14238142310E+04  0.25500000920E-02 0. -1.
       -2   -1    0    0    0  501  0.00000000000E+00  0.00000000000E+00 -0.57315107837E+03  0.57315107837E+03  0.25500000920E-02 0.  1.
    10030    2    1    2    0    0  0.00000000000E+00  0.00000000000E+00  0.85066315259E+03  0.19969653093E+04  0.18067215191E+04 0.  0.
        5    1    3    3  502    0 -0.71511312390E+03 -0.24500991118E+02  0.10348023347E+04  0.12581037479E+04  0.46999998093E+01 0. -1.
       -5    1    3    3    0  502  0.71511312390E+03  0.24500991118E+02 -0.18413918215E+03  0.73886156142E+03  0.46999998093E+01 0.  1.
</event>
<event>
 5   0  0.9266125E-05  0.1873799E+04  0.7818609E-02  0.8668009E-01
       -3   -1    0    0    0  501  0.00000000000E+00  0.00000000000E+00  0.71624363709E+03  0.71624364421E+03  0.10100000352E+00 0. -1.
        3   -1    0    0  501    0  0.00000000000E+00  0.00000000000E+00 -0.12255340204E+04  0.12255340245E+04  0.10100000352E+00 0.  1.
    10030    2    1    2    0    0  0.00000000000E+00  0.00000000000E+00 -0.50929038327E+03  0.19417776687E+04  0.18737993010E+04 0.  0.
        4    1    3    3  502    0 -0.60937389818E+03  0.50445908449E+03  0.26552507891E+03  0.83445832498E+03  0.12699999809E+01 0. -1.
       -4    1    3    3    0  502  0.60937389818E+03 -0.50445908449E+03 -0.77481546217E+03  0.11073193437E+04  0.12699999809E+01 0.  1.
</event>
<event>
 5   0  0.1255141E-04  0.1692297E+04  0.7818609E-02  0.8765770E-01
       -1   -1    0    0    0  501  0.00000000000E+00  0.00000000000E+00  0.54198644637E+03  0.54198644639E+03  0.50400001928E-02 0. -1.
        1   -1    0    0  501    0  0.00000000000E+00  0.00000000000E+00 -0.13210063866E+04  0.13210063866E+04  0.50400001928E-02 0.  1.
    10030    2    1    2    0    0  0.00000000000E+00  0.00000000000E+00 -0.77901994021E+03  0.18629928330E+04  0.16922973227E+04 0.  0.
        2    1    3    3  502    0 -0.22689143038E+03 -0.77314094922E+03 -0.67391061319E+03  0.10504199937E+04  0.25500000920E-02 0. -1.
       -2    1    3    3    0  502  0.22689143038E+03  0.77314094922E+03 -0.10510932703E+03  0.81257283930E+03  0.25500000920E-02 0.  1.
</event>
<event>
 5   0  0.2595012E-04  0.1847469E+04  0.7818609E-02  0.8681456E-01
        2   -1    0    0  501    0  0.00000000000E+00  0.00000000000E+00  0.67598041902E+03  0.67598041903E+03  0.25500000920E-02 0.  1.
       -2   -1    0    0    0  501  0.00000000000E+00  0.00000000000E+00 -0.12622926744E+04  0.12622926744E+04  0.25500000920E-02 0. -1.
    10030    2    1    2    0    0  0.00000000000E+00  0.00000000000E+00 -0.58631225539E+03  0.19382730934E+04  0.18474686801E+04 0.  0.
        1    1    3    3  502    0  0.13154630941E+03 -0.85343171150E+03 -0.63735914001E+03  0.10732552311E+04  0.50400001928E-02 0. -1.
       -1    1    3    3    0  502 -0.13154630941E+03  0.85343171150E+03  0.51046884617E+02  0.86501786234E+03  0.50400001928E-02 0.  1.
</event>
<event>
 5   0  0.1277709E-04  0.1875153E+04  0.7818609E-02  0.8667324E-01
        1   -1    0    0  501    0  0.00000000000E+00  0.00000000000E+00  0.98119888778E+03  0.98119888779E+03  0.50400001928E-02 0. -1.
       -1   -1    0    0    0  501  0.00000000000E+00  0.00000000000E+00 -0.89589304702E+03  0.89589304704E+03  0.50400001928E-02 0.  1.
    10030    2    1    2    0    0  0.00000000000E+00  0.00000000000E+00  0.85305840759E+02  0.18770919348E+04  0.18751525392E+04 0.  0.
        4    1    3    3  502    0 -0.69841778609E+03  0.52280125871E+03 -0.30112487698E+03  0.92292272942E+03  0.12699999809E+01 0.  1.
       -4    1    3    3    0  502  0.69841778609E+03 -0.52280125871E+03  0.38643071774E+03  0.95416920541E+03  0.12699999809E+01 0. -1.
</event>
<event>
 5   0  0.2651828E-04  0.1903648E+04  0.7818609E-02  0.8653043E-01
        2   -1    0    0  501    0  0.00000000000E+00  0.00000000000E+00  0.36397232097E+03  0.36397232098E+03  0.25500000920E-02 0. -1.
       -2   -1    0    0    0  501  0.00000000000E+00  0.00000000000E+00 -0.24891157461E+04  0.24891157461E+04  0.25500000920E-02 0.  1.
    10030    2    1    2    0    0  0.00000000000E+00  0.00000000000E+00 -0.21251434251E+04  0.28530880670E+04  0.19036483239E+04 0.  0.
        3    1    3    3  502    0  0.64269599762E+03  0.22219701138E+03 -0.20607190234E+04  0.21700213273E+04  0.10100000352E+00 0.  1.
       -3    1    3    3    0  502 -0.64269599762E+03 -0.22219701138E+03 -0.64424401665E+02  0.68306673975E+03  0.10100000352E+00 0. -1.
</event>
<event>
 5   0  0.1324058E-04  0.1997023E+04  0.7818609E-02  0.8608014E-01
       -1   -1    0    0    0  501  0.00000000000E+00  0.00000000000E+00  0.75254515273E+03  0.75254515275E+03  0.50400001928E-02 0.  1.
        1   -1    0    0  501    0  0.00000000000E+00  0.00000000000E+00 -0.13248704119E+04  0.13248704119E+04  0.50400001928E-02 0. -1.
    10030    2    1    2    0    0  0.00000000000E+00  0.00000000000E+00 -0.57232525919E+03  0.20774155647E+04  0.19970225903E+04 0.  0.
        5    1    3    3  502    0  0.55451047998E+02  0.46213411190E+03  0.63277892873E+03  0.78554059013E+03  0.46999998093E+01 0.  1.
       -5    1    3    3    0  502 -0.55451047998E+02 -0.46213411190E+03 -0.12051041879E+04  0.12918749745E+04  0.46999998093E+01 0. -1.
</event>
<event>
 5   0  0.1239615E-04  0.1904804E+04  0.7818609E-02  0.8652469E-01
        1   -1    0    0  501    0  0.00000000000E+00  0.00000000000E+00  0.75886302083E+03  0.75886302084E+03  0.50400001928E-02 0. -1.
       -1   -1    0    0    0  501  0.00000000000E+00  0.00000000000E+00 -0.11953005324E+04  0.11953005324E+04  0.50400001928E-02 0.  1.
    10030    2    1    2    0    0  0.00000000000E+00  0.00000000000E+00 -0.43643751155E+03  0.19541635532E+04  0.19048037934E+04 0.  0.
        3    1    3    3  502    0 -0.23443001546E+03  0.75639130131E+03  0.32462815330E+03  0.85584384146E+03  0.10100000352E+00 0. -1.
       -3    1    3    3    0  502  0.23443001546E+03 -0.75639130131E+03 -0.76106566485E+03  0.10983197118E+04  0.10100000352E+00 0.  1.
</event>
<event>
 5   0  0.9266125E-05  0.1900083E+04  0.7818609E-02  0.8654815E-01
       -3   -1    0    0    0  501  0.00000000000E+00  0.00000000000E+00  0.61284597191E+03  0.61284598023E+03  0.10100000352E+00 0. -1.
        3   -1    0    0  501    0  0.00000000000E+00  0.00000000000E+00 -0.14727656760E+04  0.14727656795E+04  0.10100000352E+00 0.  1.
    10030    2    1    2    0    0  0.00000000000E+00  0.00000000000E+00 -0.85991970413E+03  0.20856116597E+04  0.19000826555E+04 0.  0.
        5    1    3    3  502    0  0.12813193920E+03 -0.38862107656E+03  0.51114453315E+03  0.65477855704E+03  0.46999998093E+01 0. -1.
       -5    1    3    3    0  502 -0.12813193920E+03  0.38862107656E+03 -0.13710642373E+04  0.14308331027E+04  0.46999998093E+01 0.  1.
</event>
<event>
 5   0  0.2608744E-04  0.1890098E+04  0.7818609E-02  0.8659801E-01
       -2   -1    0    0    0  501  0.00000000000E+00  0.00000000000E+00  0.15059603154E+04  0.15059603154E+04  0.25500000920E-02 0. -1.
        2   -1    0    0  501    0  0.00000000000E+00  0.00000000000E+00 -0.59305535401E+03  0.59305535402E+03  0.25500000920E-02 0.  1.
    10030    2    1    2    0    0  0.00000000000E+00  0.00000000000E+00  0.91290496139E+03  0.20990156694E+04  0.18900982281E+04 0.  0.
        2    1    3    3  502    0  0.52693043105E+02  0.61432604431E+02  0.15021044546E+04  0.15042833225E+04  0.25500000920E-02 0. -1.
       -2    1    3    3    0  502 -0.52693043105E+02 -0.61432604431E+02 -0.58919949323E+03  0.59473234695E+03  0.25500000920E-02 0.  1.
</event>
<event>
 5   0  0.2541124E-04  0.1852259E+04  0.7818609E-02  0.8678992E-01
       -2   -1    0    0    0  501  0.00000000000E+00  0.00000000000E+00  0.66744733086E+03  0.66744733086E+03  0.25500000920E-02 0.  1.
        2   -1    0    0  501    0  0.00000000000E+00  0.00000000000E+00 -0.12850693344E+04  0.12850693344E+04  0.25500000920E-02 0. -1.
    10030    2    1    2    0    0  0.00000000000E+00  0.00000000000E+00 -0.61762200353E+03  0.19525166653E+04  0.18522592661E+04 0.  0.
        5    1    3    3  502    0  0.38351128082E+03 -0.13401482659E+03  0.56849454292E+03  0.69874817466E+03  0.46999998093E+01 0.  1.
       -5    1    3    3    0  502 -0.38351128082E+03  0.13401482659E+03 -0.11861165464E+04  0.12537684906E+04  0.46999998093E+01 0. -1.
</event>
<event>
 5   0  0.1277709E-04  0.1898239E+04  0.7818609E-02  0.8655733E-01
        1   -1    0    0  501    0  0.00000000000E+00  0.00000000000E+00  0.11823941700E+04  0.11823941700E+04  0.50400001928E-02 0.  1.
       -1   -1    0    0    0  501  0.00000000000E+00  0.00000000000E+00 -0.76186773388E+03  0.76186773390E+03  0.50400001928E-02 0. -1.
    10030    2    1    2    0    0  0.00000000000E+00  0.00000000000E+00  0.42052643610E+03  0.19442619039E+04  0.18982391492E+04 0.  0.
        4    1    3    3  502    0  0.59656261174E+03  0.73631678351E+03  0.26423809585E+03  0.98380523459E+03  0.12699999809E+01 0.  1.
       -4    1    3    3    0  502 -0.59656261174E+03 -0.73631678351E+03  0.15628834026E+03  0.96045666930E+03  0.12699999809E+01 0. -1.
</event>
<event>
 5   0  0.2562925E-04  0.1799913E+04  0.7818609E-02  0.8706346E-01
       -2   -1    0    0    0  501  0.00000000000E+00  0.00000000000E+00  0.50185069156E+03  0.50185069156E+03  0.25500000920E-02 0. -1.
        2   -1    0    0  501    0  0.00000000000E+00  0.00000000000E+00 -0.16138689730E+04  0.16138689730E+04  0.25500000920E-02 0.  1.
    10030    2    1    2    0    0  0.00000000000E+00  0.00000000000E+00 -0.11120182815E+04  0.21157196646E+04  0.17999125092E+04 0.  0.
        4    1    3    3  502    0  0.75679786344E+03 -0.94348789994E+02  0.56021788909E+01  0.76267797765E+03  0.12699999809E+01 0. -1.
       -4    1    3    3    0  502 -0.75679786344E+03  0.94348789994E+02 -0.11176204604E+04  0.13530416870E+04  0.12699999809E+01 0.  1.
</event>
<event>
 5   0  0.1324058E-04  0.1886588E+04  0.7818609E-02  0.8661562E-01
        1   -1    0    0  501    0  0.00000000000E+00  0.00000000000E+00  0.10673969418E+04  0.10673969418E+04  0.50400001928E-02 0.  1.
       -1   -1    0    0    0  501  0.00000000000E+00  0.00000000000E+00 -0.83361978072E+03  0.83361978074E+03  0.50400001928E-02 0. -1.
    10030    2    1    2    0    0  0.00000000000E+00  0.00000000000E+00  0.23377716103E+03  0.19010167225E+04  0.18865876121E+04 0.  0.
        5    1    3    3  502    0 -0.69625921315E+03 -0.38013765272E+03 -0.39740662881E+03  0.88726300810E+03  0.46999998093E+01 0. -1.
       -5    1    3    3    0  502  0.69625921315E+03  0.38013765272E+03  0.63118378984E+03  0.10137537144E+04  0.46999998093E+01 0.  1.
</event>
<event>
 5   0  0.2608744E-04  0.1863634E+04  0.7818609E-02  0.8673173E-01
        2   -1    0    0  501    0  0.00000000000E+00  0.00000000000E+00  0.19047447562E+04  0.19047447562E+04  0.25500000920E-02 0. -1.
       -2   -1    0    0    0  501  0.00000000000E+00  0.00000000000E+00 -0.45585273309E+03  0.45585273310E+03  0.25500000920E-02 0.  1.
    10030    2    1    2    0    0  0.00000000000E+00  0.00000000000E+00  0.14488920231E+04  0.23605974893E+04  0.18636341948E+04 0.  0.
        2    1    3    3  502    0  0.83628808435E+03 -0.28167932869E+03  0.11035194908E+04  0.14129671868E+04  0.25500000920E-02 0. -1.
       -2    1    3    3    0  502 -0.83628808435E+03  0.28167932869E+03  0.34537253229E+03  0.94763030255E+03  0.25500000920E-02 0.  1.
</event>
<event>
 5   0  0.2651828E-04  0.1801810E+04  0.7818609E-02  0.8705337E-01
        2   -1    0    0  501    0  0.00000000000E+00  0.00000000000E+00  0.20182456330E+04  0.20182456330E+04  0.25500000920E-02 0.  1.
       -2   -1    0    0    0  501  0.00000000000E+00  0.00000000000E+00 -0.40214625161E+03  0.40214625162E+03  0.25500000920E-02 0. -1.
    10030    2    1    2    0    0  0.00000000000E+00  0.00000000000E+00  0.16160993814E+04  0.24203918846E+04  0.18018101078E+04 0.  0.
        3    1    3    3  502    0  0.79331175578E+03  0.26871799631E+03  0.12537315597E+04  0.15077784112E+04  0.10100000352E+00 0.  1.
       -3    1    3    3    0  502 -0.79331175578E+03 -0.26871799631E+03  0.36236782167E+03  0.91261347337E+03  0.10100000352E+00 0. -1.
</event>
<event>
 5   0  0.1255141E-04  0.1901425E+04  0.7818609E-02  0.8654147E-01
       -1   -1    0    0    0  501  0.00000000000E+00  0.00000000000E+00  0.58138267510E+03  0.58138267512E+03  0.50400001928E-02 0. -1.
        1   -1    0    0  501    0  0.00000000000E+00  0.00000000000E+00 -0.15546638081E+04  0.15546638081E+04  0.50400001928E-02 0.  1.
    10030    2    1    2    0    0  0.00000000000E+00  0.00000000000E+00 -0.97328113298E+03  0.21360464832E+04  0.19014253639E+04 0.  0.
        2    1    3    3  502    0 -0.29023640348E+03 -0.95779812533E+02 -0.14979704292E+04  0.15288316942E+04  0.25500000920E-02 0.  1.
       -2    1    3    3    0  502  0.29023640348E+03  0.95779812533E+02  0.52468929624E+03  0.60721478900E+03  0.25500000920E-02 0. -1.
</event>
<event>
 5   0  0.1324058E-04  0.1898993E+04  0.7818609E-02  0.8655358E-01
       -1   -1    0    0    0  501  0.00000000000E+00  0.00000000000E+00  0.45736283164E+03  0.45736283167E+03  0.50400001928E-02 0.  1.
        1   -1    0    0  501    0  0.00000000000E+00  0.00000000000E+00 -0.19711781531E+04  0.19711781531E+04  0.50400001928E-02 0. -1.
    10030    2    1    2    0    0  0.00000000000E+00  0.00000000000E+00 -0.15138153214E+04  0.24285409848E+04  0.18989930193E+04 0.  0.
        5    1    3    3  502    0 -0.58301904802E+03 -0.60937430630E+03 -0.19906597185E+03  0.86654348228E+03  0.46999998093E+01 0.  1.
       -5    1    3    3    0  502  0.58301904802E+03  0.60937430630E+03 -0.13147493496E+04  0.15619975025E+04  0.46999998093E+01 0. -1.
</event>
<event>
 5   0  0.2651828E-04  0.1887690E+04  0.7818609E-02  0.8661008E-01
       -2   -1    0    0    0  501  0.00000000000E+00  0.00000000000E+00  0.50739073309E+03  0.50739073309E+03  0.25500000920E-02 0. -1.
        2   -1    0    0  501    0  0.00000000000E+00  0.00000000000E+00 -0.17557348632E+04  0.17557348632E+04  0.25500000920E-02 0.  1.
    10030    2    1    2    0    0  0.00000000000E+00  0.00000000000E+00 -0.12483441301E+04  0.22631255963E+04  0.18876902282E+04 0.  0.
        3    1    3    3  502    0 -0.59824531528E+03 -0.11369731867E+03 -0.14887169714E+04  0.16084473161E+04  0.10100000352E+00 0.  1.
       -3    1    3    3    0  502  0.59824531528E+03  0.11369731867E+03  0.24037284129E+03  0.65467828020E+03  0.10100000352E+00 0. -1.
</event>
<event>
 5   0  0.2651828E-04  0.1897706E+04  0.7818609E-02  0.8655999E-01
        2   -1    0    0  501    0  0.00000000000E+00  0.00000000000E+00  0.82719937701E+03  0.82719937702E+03  0.25500000920E-02 0.  1.
       -2   -1    0    0    0  501  0.00000000000E+00  0.00000000000E+00 -0.10883973886E+04  0.10883973886E+04  0.25500000920E-02 0. -1.
    10030    2    1    2    0    0  0.00000000000E+00  0.00000000000E+00 -0.26119801163E+03  0.19155967657E+04  0.18977056061E+04 0.  0.
        3    1    3    3  502    0 -0.57283264409E+03  0.74637083978E+03 -0.25470101107E+03  0.97472010540E+03  0.10100000352E+00 0. -1.
       -3    1    3    3    0  502  0.57283264409E+03 -0.74637083978E+03 -0.64970005554E+01  0.94087666027E+03  0.10100000352E+00 0.  1.
</event>
<event>
 5   0  0.2608744E-04  0.1848603E+04  0.7818609E-02  0.8680872E-01
       -2   -1    0    0    0  501  0.00000000000E+00  0.00000000000E+00  0.77498011819E+03  0.77498011819E+03  0.25500000920E-02 0.  1.
        2   -1    0    0  501    0  0.00000000000E+00  0.00000000000E+00 -0.11023933911E+04  0.11023933911E+04  0.25500000920E-02 0. -1.
    10030    2    1    2    0    0  0.00000000000E+00  0.00000000000E+00 -0.32741327289E+03  0.18773735093E+04  0.18486026728E+04 0.  0.
        2    1    3    3  502    0 -0.59149609898E+03  0.14819123717E+03  0.54172977956E+03  0.81565889436E+03  0.25500000920E-02 0.  1.
       -2    1    3    3    0  502  0.59149609898E+03 -0.14819123717E+03 -0.86914305245E+03  0.10617146149E+04  0.25500000920E-02 0. -1.
</event>
<event>
 5   0  0.1317527E-04  0.1914204E+04  0.7818609E-02  0.8647818E-01
       -1   -1    0    0    0  501  0.00000000000E+00  0.00000000000E+00  0.18995220434E+04  0.18995220434E+04  0.50400001928E-02 0.  1.
        1   -1    0    0  501    0  0.00000000000E+00  0.00000000000E+00 -0.48224996166E+03  0.48224996168E+03  0.50400001928E-02 0. -1.
    10030    2    1    2    0    0  0.00000000000E+00  0.00000000000E+00  0.14172720817E+04  0.23817720051E+04  0.19142042029E+04 0.  0.
        1    1    3    3  502    0  0.48768985993E+03  0.81532330508E+03  0.56432875452E+03  0.11050160336E+04  0.50400001928E-02 0.  1.
       -1    1    3    3    0  502 -0.48768985993E+03 -0.81532330508E+03  0.85294332722E+03  0.12767559715E+04  0.50400001928E-02 0. -1.
</event>
<event>
 5   0  0.2562925E-04  0.1394579E+04  0.7818609E-02  0.8957752E-01
       -2   -1    0    0    0  501  0.00000000000E+00  0.00000000000E+00  0.37726164597E+03  0.37726164598E+03  0.25500000920E-02 0.  1.
        2   -1    0    0  501    0  0.00000000000E+00  0.00000000000E+00 -0.12887941638E+04  0.12887941638E+04  0.25500000920E-02 0. -1.
    10030    2    1    2    0    0  0.00000000000E+00  0.00000000000E+00 -0.91153251788E+03  0.16660558098E+04  0.13945789437E+04 0.  0.
        4    1    3    3  502    0  0.27510359909E+02 -0.57588313380E+03 -0.92430193798E+03  0.10893731634E+04  0.12699999809E+01 0.  1.
       -4    1    3    3    0  502 -0.27510359909E+02  0.57588313380E+03  0.12769420099E+02  0.57668264643E+03  0.12699999809E+01 0. -1.
</event>
<event>
 5   0  0.2651828E-04  0.1518018E+04  0.7818609E-02  0.8872559E-01
       -2   -1    0    0    0  501  0.00000000000E+00  0.00000000000E+00  0.41697971508E+03  0.41697971509E+03  0.25500000920E-02 0. -1.
        2   -1    0    0  501    0  0.00000000000E+00  0.00000000000E+00 -0.13815885597E+04  0.13815885597E+04  0.25500000920E-02 0.  1.
    10030    2    1    2    0    0  0.00000000000E+00  0.00000000000E+00 -0.96460884462E+03  0.17985682748E+04  0.15180176600E+04 0.  0.
        3    1    3    3  502    0 -0.84811651424E+02  0.44922751328E+02 -0.13743703366E+04  0.13777172794E+04  0.10100000352E+00 0.  1.
       -3    1    3    3    0  502  0.84811651424E+02 -0.44922751328E+02  0.40976149195E+03  0.42085099535E+03  0.10100000352E+00 0. -1.
</event>
<event>
 5   0  0.1255141E-04  0.1902116E+04  0.7818609E-02  0.8653804E-01
        1   -1    0    0  501    0  0.00000000000E+00  0.00000000000E+00  0.17384595727E+04  0.17384595727E+04  0.50400001928E-02 0.  1.
       -1   -1    0    0    0  501  0.00000000000E+00  0.00000000000E+00 -0.52029478886E+03  0.52029478889E+03  0.50400001928E-02 0. -1.
    10030    2    1    2    0    0  0.00000000000E+00  0.00000000000E+00  0.12181647839E+04  0.22587543616E+04  0.19021161441E+04 0.  0.
        2    1    3    3  502    0 -0.27902346521E+03 -0.77481927463E+03  0.11740014150E+04  0.14340426510E+04  0.25500000920E-02 0.  1.
       -2    1    3    3    0  502  0.27902346521E+03  0.77481927463E+03  0.44163368886E+02  0.82471171063E+03  0.25500000920E-02 0. -1.
</event>
<event>
 5   0  0.1317527E-04  0.1969842E+04  0.7818609E-02  0.8620852E-01
        1   -1    0    0  501    0  0.00000000000E+00  0.00000000000E+00  0.12950139677E+04  0.12950139677E+04  0.50400001928E-02 0. -1.
       -1   -1    0    0    0  501  0.00000000000E+00  0.00000000000E+00 -0.74908014423E+03  0.74908014425E+03  0.50400001928E-02 0.  1.
    10030    2    1    2    0    0  0.00000000000E+00  0.00000000000E+00  0.54593382347E+03  0.20440941120E+04  0.19698418716E+04 0.  0.
        1    1    3    3  502    0  0.31398556694E+03  0.28361946641E+03 -0.64996439831E+03  0.77555184035E+03  0.50400001928E-02 0.  1.
       -1    1    3    3    0  502 -0.31398556694E+03 -0.28361946641E+03  0.11958982218E+04  0.12685422716E+04  0.50400001928E-02 0. -1.
</event>
<event>
 5   0  0.2595012E-04  0.1865111E+04  0.7818609E-02  0.8672420E-01
        2   -1    0    0  501    0  0.00000000000E+00  0.00000000000E+00  0.16434170614E+04  0.16434170614E+04  0.25500000920E-02 0. -1.
       -2   -1    0    0    0  501  0.00000000000E+00  0.00000000000E+00 -0.52917770026E+03  0.52917770027E+03  0.25500000920E-02 0.  1.
    10030    2    1    2    0    0  0.00000000000E+00  0.00000000000E+00  0.11142393612E+04  0.21725947617E+04  0.18651108934E+04 0.  0.
        1    1    3    3  502    0  0.45688835437E+03 -0.71455140976E+03  0.10547654029E+03  0.85466717857E+03  0.50400001928E-02 0.  1.
       -1    1    3    3    0  502 -0.45688835437E+03  0.71455140976E+03  0.10087628209E+04  0.13179275831E+04  0.50400001928E-02 0. -1.
</event>
<event>
 5   0  0.1324058E-04  0.1818619E+04  0.7818609E-02  0.8696460E-01
        1   -1    0    0  501    0  0.00000000000E+00  0.00000000000E+00  0.52922229335E+03  0.52922229338E+03  0.50400001928E-02 0.  1.
       -1   -1    0    0    0  501  0.00000000000E+00  0.00000000000E+00 -0.15623759657E+04  0.15623759657E+04  0.50400001928E-02 0. -1.
    10030    2    1    2    0    0  0.00000000000E+00  0.00000000000E+00 -0.10331536723E+04  0.20915982590E+04  0.18186194672E+04 0.  0.
        5    1    3    3  502    0  0.24001707435E+03 -0.54806630138E+03 -0.13040712541E+04  0.14347852774E+04  0.46999998093E+01 0. -1.
       -5    1    3    3    0  502 -0.24001707435E+03  0.54806630138E+03  0.27091758177E+03  0.65681298159E+03  0.46999998093E+01 0.  1.
</event>
<event>
 5   0  0.1317527E-04  0.1802603E+04  0.7818609E-02  0.8704916E-01
       -1   -1    0    0    0  501  0.00000000000E+00  0.00000000000E+00  0.30671762586E+03  0.30671762590E+03  0.50400001928E-02 0. -1.
        1   -1    0    0  501    0  0.00000000000E+00  0.00000000000E+00 -0.26485091301E+04  0.26485091301E+04  0.50400001928E-02 0.  1.
    10030    2    1    2    0    0  0.00000000000E+00  0.00000000000E+00 -0.23417915042E+04  0.29552267560E+04  0.18026030428E+04 0.  0.
        1    1    3    3  502    0  0.76143962063E+03  0.94016386292E+02 -0.39547339847E+03  0.86315038416E+03  0.50400001928E-02 0. -1.
       -1    1    3    3    0  502 -0.76143962063E+03 -0.94016386292E+02 -0.19463181057E+04  0.20920763718E+04  0.50400001928E-02 0.  1.
</event>
<event>
 5   0  0.2651828E-04  0.1897090E+04  0.7818609E-02  0.8656306E-01
        2   -1    0    0  501    0  0.00000000000E+00  0.00000000000E+00  0.15034442217E+04  0.15034442217E+04  0.25500000920E-02 0.  1.
       -2   -1    0    0    0  501  0.00000000000E+00  0.00000000000E+00 -0.59845106465E+03  0.59845106465E+03  0.25500000920E-02 0. -1.
    10030    2    1    2    0    0  0.00000000000E+00  0.00000000000E+00  0.90499315701E+03  0.21018952863E+04  0.18970901877E+04 0.  0.
        3    1    3    3  502    0  0.51070093284E+03 -0.34603584863E+03 -0.34583391278E+03  0.70721804047E+03  0.10100000352E+00 0. -1.
       -3    1    3    3    0  502 -0.51070093284E+03  0.34603584863E+03  0.12508270698E+04  0.13946772458E+04  0.10100000352E+00 0.  1.
</event>
<event>
 5   0  0.1317527E-04  0.1877680E+04  0.7818609E-02  0.8666047E-01
       -1   -1    0    0    0  501  0.00000000000E+00  0.00000000000E+00  0.11645309931E+04  0.11645309931E+04  0.50400001928E-02 0.  1.
        1   -1    0    0  501    0  0.00000000000E+00  0.00000000000E+00 -0.75688880624E+03  0.75688880625E+03  0.50400001928E-02 0. -1.
    10030    2    1    2    0    0  0.00000000000E+00  0.00000000000E+00  0.40764218685E+03  0.19214197994E+04  0.18776799229E+04 0.  0.
        1    1    3    3  502    0  0.44351987196E+03  0.48995236437E+03  0.88618084287E+03  0.11054771289E+04  0.50400001928E-02 0.  1.
       -1    1    3    3    0  502 -0.44351987196E+03 -0.48995236437E+03 -0.47853865601E+03  0.81594267048E+03  0.50400001928E-02 0. -1.
</event>
<event>
 5   0  0.1317527E-04  0.1856753E+04  0.7818609E-02  0.8676688E-01
        1   -1    0    0  501    0  0.00000000000E+00  0.00000000000E+00  0.82228350445E+03  0.82228350446E+03  0.50400001928E-02 0. -1.
       -1   -1    0    0    0  501  0.00000000000E+00  0.00000000000E+00 -0.10481577494E+04  0.10481577494E+04  0.50400001928E-02 0.  1.
    10030    2    1    2    0    0  0.00000000000E+00  0.00000000000E+00 -0.22587424497E+03  0.18704412539E+04  0.18567528941E+04 0.  0.
        1    1    3    3  502    0  0.14415557801E+02  0.85187393611E+02  0.81822476055E+03  0.82277363785E+03  0.50400001928E-02 0. -1.
       -1    1    3    3    0  502 -0.14415557801E+02 -0.85187393611E+02 -0.10440990055E+04  0.10476676160E+04  0.50400001928E-02 0.  1.
</event>
<event>
 5   0  0.1255141E-04  0.1911854E+04  0.7818609E-02  0.8648978E-01
       -1   -1    0    0    0  501  0.00000000000E+00  0.00000000000E+00  0.80898209384E+03  0.80898209386E+03  0.50400001928E-02 0.  1.
        1   -1    0    0  501    0  0.00000000000E+00  0.00000000000E+00 -0.11295636835E+04  0.11295636835E+04  0.50400001928E-02 0. -1.
    10030    2    1    2    0    0  0.00000000000E+00  0.00000000000E+00 -0.32058158968E+03  0.19385457774E+04  0.19118543813E+04 0.  0.
        2    1    3    3  502    0  0.58667166237E+03 -0.11690848632E+02 -0.92546292928E+03  0.10958110918E+04  0.25500000920E-02 0. -1.
       -2    1    3    3    0  502 -0.58667166237E+03  0.11690848632E+02  0.60488133960E+03  0.84273468563E+03  0.25500000920E-02 0.  1.
</event>
<event>
 5   0  0.2595012E-04  0.1885828E+04  0.7818609E-02  0.8661943E-01
        2   -1    0    0  501    0  0.00000000000E+00  0.00000000000E+00  0.14938436666E+04  0.14938436666E+04  0.25500000920E-02 0.  1.
       -2   -1    0    0    0  501  0.00000000000E+00  0.00000000000E+00 -0.59516732084E+03  0.59516732084E+03  0.25500000920E-02 0. -1.
    10030    2    1    2    0    0  0.00000000000E+00  0.00000000000E+00  0.89867634571E+03  0.20890109874E+04  0.18858281287E+04 0.  0.
        1    1    3    3  502    0 -0.44869149607E+02 -0.91715828551E+03  0.68664942358E+03  0.11465949556E+04  0.50400001928E-02 0. -1.
       -1    1    3    3    0  502  0.44869149607E+02  0.91715828551E+03  0.21202692214E+03  0.94241603181E+03  0.50400001928E-02 0.  1.
</event>
<event>
 5   0  0.9266125E-05  0.1905867E+04  0.7818609E-02  0.8651941E-01
       -3   -1    0    0    0  501  0.00000000000E+00  0.00000000000E+00  0.17958726282E+04  0.17958726311E+04  0.10100000352E+00 0.  1.
        3   -1    0    0  501    0  0.00000000000E+00  0.00000000000E+00 -0.50564982335E+03  0.50564983343E+03  0.10100000352E+00 0. -1.
    10030    2    1    2    0    0  0.00000000000E+00  0.00000000000E+00  0.12902228049E+04  0.23015224645E+04  0.19058674582E+04 0.  0.
        5    1    3    3  502    0  0.93162907441E+03 -0.17755136278E+03  0.53310130841E+03  0.10879688937E+04  0.46999998093E+01 0. -1.
       -5    1    3    3    0  502 -0.93162907441E+03  0.17755136278E+03  0.75712149649E+03  0.12135535708E+04  0.46999998093E+01 0.  1.
</event>
<event>
 5   0  0.2651828E-04  0.1906581E+04  0.7818609E-02  0.8651588E-01
       -2   -1    0    0    0  501  0.00000000000E+00  0.00000000000E+00  0.51148449023E+03  0.51148449024E+03  0.25500000920E-02 0.  1.
        2   -1    0    0  501    0  0.00000000000E+00  0.00000000000E+00 -0.17767153812E+04  0.17767153812E+04  0.25500000920E-02 0. -1.
    10030    2    1    2    0    0  0.00000000000E+00  0.00000000000E+00 -0.12652308910E+04  0.22881998714E+04  0.19065805633E+04 0.  0.
        3    1    3    3  502    0 -0.60604064279E+03 -0.66538279151E+03 -0.25548500998E+03  0.93557047862E+03  0.10100000352E+00 0. -1.
       -3    1    3    3    0  502  0.60604064279E+03  0.66538279151E+03 -0.10097458810E+04  0.13526293928E+04  0.10100000352E+00 0.  1.
</event>
<event>
 5   0  0.2608744E-04  0.1936498E+04  0.7818609E-02  0.8636899E-01
       -2   -1    0    0    0  501  0.00000000000E+00  0.00000000000E+00  0.69881787070E+03  0.69881787071E+03  0.25500000920E-02 0. -1.
        2   -1    0    0  501    0  0.00000000000E+00  0.00000000000E+00 -0.13415598890E+04  0.13415598890E+04  0.25500000920E-02 0.  1.
    10030    2    1    2    0    0  0.00000000000E+00  0.00000000000E+00 -0.64274201830E+03  0.20403777597E+04  0.19364978958E+04 0.  0.
        2    1    3    3  502    0  0.23678026013E+03  0.19297524714E+03 -0.12894630723E+04  0.13251488039E+04  0.25500000920E-02 0.  1.
       -2    1    3    3    0  502 -0.23678026013E+03 -0.19297524714E+03  0.64672105399E+03  0.71522895584E+03  0.25500000920E-02 0. -1.
</event>
<event>
 5   0  0.2595012E-04  0.1901074E+04  0.7818609E-02  0.8654322E-01
       -2   -1    0    0    0  501  0.00000000000E+00  0.00000000000E+00  0.70474820468E+03  0.70474820469E+03  0.25500000920E-02 0.  1.
        2   -1    0    0  501    0  0.00000000000E+00  0.00000000000E+00 -0.12820474120E+04  0.12820474120E+04  0.25500000920E-02 0. -1.
    10030    2    1    2    0    0  0.00000000000E+00  0.00000000000E+00 -0.57729920731E+03  0.19867956167E+04  0.19010740248E+04 0.  0.
        1    1    3    3  502    0 -0.57682728386E+03 -0.58734227950E+03 -0.78528230431E+03  0.11377033735E+04  0.50400001928E-02 0.  1.
       -1    1    3    3    0  502  0.57682728386E+03  0.58734227950E+03  0.20798309700E+03  0.84909224314E+03  0.50400001928E-02 0. -1.
</event>
<event>
 5   0  0.2651828E-04  0.1854143E+04  0.7818609E-02  0.8678025E-01
       -2   -1    0    0    0  501  0.00000000000E+00  0.00000000000E+00  0.41614137090E+03  0.41614137090E+03  0.25500000920E-02 0.  1.
        2   -1    0    0  501    0  0.00000000000E+00  0.00000000000E+00 -0.20653111088E+04  0.20653111088E+04  0.25500000920E-02 0. -1.
    10030    2    1    2    0    0  0.00000000000E+00  0.00000000000E+00 -0.16491697379E+04  0.24814524797E+04  0.18541428167E+04 0.  0.
        3    1    3    3  502    0 -0.40944384639E+03  0.71411872610E+03 -0.25386721800E+03  0.86142811243E+03  0.10100000352E+00 0.  1.
       -3    1    3    3    0  502  0.40944384639E+03 -0.71411872610E+03 -0.13953025199E+04  0.16200243673E+04  0.10100000352E+00 0. -1.
</event>
<event>
 5   0  0.1317527E-04  0.1882427E+04  0.7818609E-02  0.8663653E-01
        1   -1    0    0  501    0  0.00000000000E+00  0.00000000000E+00  0.17724646136E+04  0.17724646136E+04  0.50400001928E-02 0. -1.
       -1   -1    0    0    0  501  0.00000000000E+00  0.00000000000E+00 -0.49980301316E+03  0.49980301319E+03  0.50400001928E-02 0.  1.
    10030    2    1    2    0    0  0.00000000000E+00  0.00000000000E+00  0.12726616005E+04  0.22722676268E+04  0.18824273209E+04 0.  0.
        1    1    3    3  502    0  0.17679450202E+03 -0.49623636364E+03  0.15778461787E+04  0.16634618685E+04  0.50400001928E-02 0. -1.
       -1    1    3    3    0  502 -0.17679450202E+03  0.49623636364E+03 -0.30518457819E+03  0.60880575829E+03  0.50400001928E-02 0.  1.
</event>
<event>
 5   0  0.9266125E-05  0.1866970E+04  0.7818609E-02  0.8671474E-01
       -3   -1    0    0    0  501  0.00000000000E+00  0.00000000000E+00  0.25612446312E+04  0.25612446332E+04  0.10100000352E+00 0.  1.
        3   -1    0    0  501    0  0.00000000000E+00  0.00000000000E+00 -0.34022304956E+03  0.34022306455E+03  0.10100000352E+00 0. -1.
    10030    2    1    2    0    0  0.00000000000E+00  0.00000000000E+00  0.22210215817E+04  0.29014676978E+04  0.18669702555E+04 0.  0.
        3    1    3    3  502    0  0.55192910157E+01  0.92512768545E+03  0.91700895699E+03  0.13026116591E+04  0.10100000352E+00 0. -1.
       -3    1    3    3    0  502 -0.55192910157E+01 -0.92512768545E+03  0.13040126247E+04  0.15988560387E+04  0.10100000352E+00 0.  1.
</event>
<event>
 5   0  0.2562925E-04  0.1888692E+04  0.7818609E-02  0.8660506E-01
       -2   -1    0    0    0  501  0.00000000000E+00  0.00000000000E+00  0.37764522162E+03  0.37764522163E+03  0.25500000920E-02 0.  1.
        2   -1    0    0  501    0  0.00000000000E+00  0.00000000000E+00 -0.23614481562E+04  0.23614481562E+04  0.25500000920E-02 0. -1.
    10030    2    1    2    0    0  0.00000000000E+00  0.00000000000E+00 -0.19838029346E+04  0.27390933779E+04  0.18886922590E+04 0.  0.
        4    1    3    3  502    0 -0.38874152658E+03  0.81038011512E+03 -0.14121066495E+04  0.16738825251E+04  0.12699999809E+01 0. -1.
       -4    1    3    3    0  502  0.38874152658E+03 -0.81038011512E+03 -0.57169628509E+03  0.10652108527E+04  0.12699999809E+01 0.  1.
</event>
<event>
 5   0  0.2608744E-04  0.1834307E+04  0.7818609E-02  0.8688265E-01
       -2   -1    0    0    0  501  0.00000000000E+00  0.00000000000E+00  0.12958423945E+04  0.12958423945E+04  0.25500000920E-02 0.  1.
        2   -1    0    0  501    0  0.00000000000E+00  0.00000000000E+00 -0.64913037741E+03  0.64913037742E+03  0.25500000920E-02 0. -1.
    10030    2    1    2    0    0  0.00000000000E+00  0.00000000000E+00  0.64671201710E+03  0.19449727719E+04  0.18343071309E+04 0.  0.
        2    1    3    3  502    0 -0.90731748033E+03  0.10433893738E+03  0.41244299158E+03  0.10021082004E+04  0.25500000920E-02 0.  1.
       -2    1    3    3    0  502  0.90731748033E+03 -0.10433893738E+03  0.23426902551E+03  0.94286457155E+03  0.25500000920E-02 0. -1.
</event>
<event>
 5   0  0.1255141E-04  0.1922399E+04  0.7818609E-02  0.8643787E-01
        1   -1    0    0  501    0  0.00000000000E+00  0.00000000000E+00  0.97146131629E+03  0.97146131630E+03  0.50400001928E-02 0. -1.
       -1   -1    0    0    0  501  0.00000000000E+00  0.00000000000E+00 -0.95104569996E+03  0.95104569997E+03  0.50400001928E-02 0.  1.
    10030    2    1    2    0    0  0.00000000000E+00  0.00000000000E+00  0.20415616329E+02  0.19225070163E+04  0.19223986138E+04 0.  0.
        2    1    3    3  502    0 -0.25068062075E+03  0.92785316289E+03 -0.21153075026E+01  0.96112264568E+03  0.25500000920E-02 0.  1.
       -2    1    3    3    0  502  0.25068062075E+03 -0.92785316289E+03  0.22530923832E+02  0.96138437060E+03  0.25500000920E-02 0. -1.
</event>
<event>
 5   0  0.1255141E-04  0.1876275E+04  0.7818609E-02  0.8666757E-01
       -1   -1    0    0    0  501  0.00000000000E+00  0.00000000000E+00  0.11082276409E+04  0.11082276409E+04  0.50400001928E-02 0.  1.
        1   -1    0    0  501    0  0.00000000000E+00  0.00000000000E+00 -0.79415280689E+03  0.79415280691E+03  0.50400001928E-02 0. -1.
    10030    2    1    2    0    0  0.00000000000E+00  0.00000000000E+00  0.31407483404E+03  0.19023804479E+04  0.18762751309E+04 0.  0.
        2    1    3    3  502    0  0.87966271306E+03  0.27348072630E+03  0.33700031558E+03  0.98090132486E+03  0.25500000920E-02 0.  1.
       -2    1    3    3    0  502 -0.87966271306E+03 -0.27348072630E+03 -0.22925481533E+02  0.92147912299E+03  0.25500000920E-02 0. -1.
</event>
<event>
 5   0  0.2595012E-04  0.1901020E+04  0.7818609E-02  0.8654349E-01
       -2   -1    0    0    0  501  0.00000000000E+00  0.00000000000E+00  0.79024329509E+03  0.79024329509E+03  0.25500000920E-02 0.  1.
        2   -1    0    0  501    0  0.00000000000E+00  0.00000000000E+00 -0.11432799829E+04  0.11432799829E+04  0.25500000920E-02 0. -1.
    10030    2    1    2    0    0  0.00000000000E+00  0.00000000000E+00 -0.35303668780E+03  0.19335232780E+04  0.19010200850E+04 0.  0.
        1    1    3    3  502    0  0.15535958739E+03  0.92382773831E+03 -0.12910811893E+02  0.93688899052E+03  0.50400001928E-02 0.  1.
       -1    1    3    3    0  502 -0.15535958739E+03 -0.92382773831E+03 -0.34012587591E+03  0.99663428747E+03  0.50400001928E-02 0. -1.
</event>
<event>
 5   0  0.1317527E-04  0.1912077E+04  0.7818609E-02  0.8648868E-01
        1   -1    0    0  501    0  0.00000000000E+00  0.00000000000E+00  0.12948166359E+04  0.12948166359E+04  0.50400001928E-02 0. -1.
       -1   -1    0    0    0  501  0.00000000000E+00  0.00000000000E+00 -0.70589880704E+03  0.70589880706E+03  0.50400001928E-02 0.  1.
    10030    2    1    2    0    0  0.00000000000E+00  0.00000000000E+00  0.58891782886E+03  0.20007154430E+04  0.19120769008E+04 0.  0.
        1    1    3    3  502    0  0.46459497253E+03  0.83316661083E+03  0.22832757684E+03  0.98089172301E+03  0.50400001928E-02 0.  1.
       -1    1    3    3    0  502 -0.46459497253E+03 -0.83316661083E+03  0.36059025202E+03  0.10198237200E+04  0.50400001928E-02 0. -1.
</event>
<event>
 5   0  0.1324058E-04  0.1700492E+04  0.7818609E-02  0.8761084E-01
       -1   -1    0    0    0  501  0.00000000000E+00  0.00000000000E+00  0.50123475154E+03  0.50123475157E+03  0.50400001928E-02 0.  1.
        1   -1    0    0  501    0  0.00000000000E+00  0.00000000000E+00 -0.14422753481E+04  0.14422753481E+04  0.50400001928E-02 0. -1.
    10030    2    1    2    0    0  0.00000000000E+00  0.00000000000E+00 -0.94104059657E+03  0.19435100997E+04  0.17004923120E+04 0.  0.
        5    1    3    3  502    0 -0.36935463692E+03  0.28397480963E+03  0.34233873105E+03  0.57817163290E+03  0.46999998093E+01 0.  1.
       -5    1    3    3    0  502  0.36935463692E+03 -0.28397480963E+03 -0.12833793276E+04  0.13653384668E+04  0.46999998093E+01 0. -1.
</event>
<event>
 5   0  0.1317527E-04  0.1852392E+04  0.7818609E-02  0.8678924E-01
       -1   -1    0    0    0  501  0.00000000000E+00  0.00000000000E+00  0.59452217934E+03  0.59452217937E+03  0.50400001928E-02 0. -1.
        1   -1    0    0  501    0  0.00000000000E+00  0.00000000000E+00 -0.14429049316E+04  0.14429049317E+04  0.50400001928E-02 0.  1.
    10030    2    1    2    0    0  0.00000000000E+00  0.00000000000E+00 -0.84838275230E+03  0.20374271110E+04  0.18523919505E+04 0.  0.
        1    1    3    3  502    0 -0.61510767536E+03 -0.44097698901E+03 -0.10113933327E+04  0.12632239035E+04  0.50400001928E-02 0.  1.
       -1    1    3    3    0  502  0.61510767536E+03  0.44097698901E+03  0.16301058035E+03  0.77420320747E+03  0.50400001928E-02 0. -1.
</event>
<event>
 5   0  0.1239615E-04  0.2061824E+04  0.7818609E-02  0.8578249E-01
       -1   -1    0    0    0  501  0.00000000000E+00  0.00000000000E+00  0.60430681597E+03  0.60430681600E+03  0.50400001928E-02 0. -1.
        1   -1    0    0  501    0  0.00000000000E+00  0.00000000000E+00 -0.17586746698E+04  0.17586746698E+04  0.50400001928E-02 0.  1.
    10030    2    1    2    0    0  0.00000000000E+00  0.00000000000E+00 -0.11543678538E+04  0.23629814858E+04  0.20618235522E+04 0.  0.
        3    1    3    3  502    0  0.29759039311E+03 -0.16822679777E+03  0.53745895542E+03  0.63696344991E+03  0.10100000352E+00 0. -1.
       -3    1    3    3    0  502 -0.29759039311E+03  0.16822679777E+03 -0.16918268092E+04  0.17260180359E+04  0.10100000352E+00 0.  1.
</event>
<event>
 5   0  0.2651828E-04  0.1918896E+04  0.7818609E-02  0.8645507E-01
       -2   -1    0    0    0  501  0.00000000000E+00  0.00000000000E+00  0.73006176313E+03  0.73006176313E+03  0.25500000920E-02 0. -1.
        2   -1    0    0  501    0  0.00000000000E+00  0.00000000000E+00 -0.12609074732E+04  0.12609074732E+04  0.25500000920E-02 0.  1.
    10030    2    1    2    0    0  0.00000000000E+00  0.00000000000E+00 -0.53084571010E+03  0.19909692364E+04  0.19188958628E+04 0.  0.
        3    1    3    3  502    0  0.11236452316E+03 -0.53275103722E+03 -0.10850891128E+04  0.12140295905E+04  0.10100000352E+00 0.  1.
       -3    1    3    3    0  502 -0.11236452316E+03  0.53275103722E+03  0.55424340267E+03  0.77693964587E+03  0.10100000352E+00 0. -1.
</event>
<event>
 5   0  0.2595012E-04  0.1924514E+04  0.7818609E-02  0.8642749E-01
        2   -1    0    0  501    0  0.00000000000E+00  0.00000000000E+00  0.10650082342E+04  0.10650082342E+04  0.25500000920E-02 0.  1.
       -2   -1    0    0    0  501  0.00000000000E+00  0.00000000000E+00 -0.86941941952E+03  0.86941941953E+03  0.25500000920E-02 0. -1.
    10030    2    1    2    0    0  0.00000000000E+00  0.00000000000E+00  0.19558881467E+03  0.19344276537E+04  0.19245143188E+04 0.  0.
        1    1    3    3  502    0  0.94252643308E+03  0.11197535487E+03 -0.61274629656E+02  0.95113045236E+03  0.50400001928E-02 0. -1.
       -1    1    3    3    0  502 -0.94252643308E+03 -0.11197535487E+03  0.25686344433E+03  0.98329720136E+03  0.50400001928E-02 0.  1.
</event>
<event>
 5   0  0.2562925E-04  0.1922012E+04  0.7818609E-02  0.8643976E-01
        2   -1    0    0  501    0  0.00000000000E+00  0.00000000000E+00  0.11773881237E+04  0.11773881237E+04  0.25500000920E-02 0.  1.
       -2   -1    0    0    0  501  0.00000000000E+00  0.00000000000E+00 -0.78439099635E+03  0.78439099635E+03  0.25500000920E-02 0. -1.
    10030    2    1    2    0    0  0.00000000000E+00  0.00000000000E+00  0.39299712734E+03  0.19617791200E+04  0.19220121159E+04 0.  0.
        4    1    3    3  502    0  0.38079607690E+03  0.30427067927E+03 -0.64885531455E+03  0.81154243917E+03  0.12699999809E+01 0. -1.
       -4    1    3    3    0  502 -0.38079607690E+03 -0.30427067927E+03  0.10418524419E+04  0.11502366809E+04  0.12699999809E+01 0.  1.
</event>
<event>
 5   0  0.1255141E-04  0.1892831E+04  0.7818609E-02  0.8658433E-01
        1   -1    0    0  501    0  0.00000000000E+00  0.00000000000E+00  0.67811304714E+03  0.67811304716E+03  0.50400001928E-02 0.  1.
       -1   -1    0    0    0  501  0.00000000000E+00  0.00000000000E+00 -0.13208740315E+04  0.13208740315E+04  0.50400001928E-02 0. -1.
    10030    2    1    2    0    0  0.00000000000E+00  0.00000000000E+00 -0.64276098431E+03  0.19989870786E+04  0.18928305940E+04 0.  0.
        2    1    3    3  502    0  0.26660963816E+03  0.63358789972E+03  0.36563210591E+03  0.77858921307E+03  0.25500000920E-02 0.  1.
       -2    1    3    3    0  502 -0.26660963816E+03 -0.63358789972E+03 -0.10083930902E+04  0.12203978656E+04  0.25500000920E-02 0. -1.
</event>
<event>
 5   0  0.2541124E-04  0.1860889E+04  0.7818609E-02  0.8674573E-01
       -2   -1    0    0    0  501  0.00000000000E+00  0.00000000000E+00  0.94905416333E+03  0.94905416334E+03  0.25500000920E-02 0. -1.
        2   -1    0    0  501    0  0.00000000000E+00  0.00000000000E+00 -0.91220022035E+03  0.91220022035E+03  0.25500000920E-02 0.  1.
    10030    2    1    2    0    0  0.00000000000E+00  0.00000000000E+00  0.36853942985E+02  0.18612543837E+04  0.18608894829E+04 0.  0.
        5    1    3    3  502    0 -0.85555486325E+03  0.18118204125E+03  0.33614358613E+03  0.93691816964E+03  0.46999998093E+01 0. -1.
       -5    1    3    3    0  502  0.85555486325E+03 -0.18118204125E+03 -0.29928964314E+03  0.92433621405E+03  0.46999998093E+01 0.  1.
</event>
<event>
 5   0  0.2541124E-04  0.1934658E+04  0.7818609E-02  0.8637795E-01
       -2   -1    0    0    0  501  0.00000000000E+00  0.00000000000E+00  0.44359072246E+03  0.44359072247E+03  0.25500000920E-02 0. -1.
        2   -1    0    0  501    0  0.00000000000E+00  0.00000000000E+00 -0.21094344800E+04  0.21094344800E+04  0.25500000920E-02 0.  1.
    10030    2    1    2    0    0  0.00000000000E+00  0.00000000000E+00 -0.16658437575E+04  0.25530252025E+04  0.19346581765E+04 0.  0.
        5    1    3    3  502    0  0.33949307450E+03  0.89480016713E+03 -0.10185186687E+04  0.13976141296E+04  0.46999998093E+01 0.  1.
       -5    1    3    3    0  502 -0.33949307450E+03 -0.89480016713E+03 -0.64732508889E+03  0.11554110729E+04  0.46999998093E+01 0. -1.
</event>
<event>
 5   0  0.2651828E-04  0.1942880E+04  0.7818609E-02  0.8633802E-01
       -2   -1    0    0    0  501  0.00000000000E+00  0.00000000000E+00  0.11611236180E+04  0.11611236180E+04  0.25500000920E-02 0. -1.
        2   -1    0    0  501    0  0.00000000000E+00  0.00000000000E+00 -0.81274340140E+03  0.81274340141E+03  0.25500000920E-02 0.  1.
    10030    2    1    2    0    0  0.00000000000E+00  0.00000000000E+00  0.34838021661E+03  0.19738670194E+04  0.19428798818E+04 0.  0.
        3    1    3    3  502    0 -0.33242680844E+03  0.91259947268E+03  0.19320133771E+03  0.99028892127E+03  0.10100000352E+00 0. -1.
       -3    1    3    3    0  502  0.33242680844E+03 -0.91259947268E+03  0.15517887889E+03  0.98357809815E+03  0.10100000352E+00 0.  1.
</event>
<event>
 5   0  0.2541124E-04  0.1873854E+04  0.7818609E-02  0.8667981E-01
        2   -1    0    0  501    0  0.00000000000E+00  0.00000000000E+00  0.59074741966E+03  0.59074741966E+03  0.25500000920E-02 0.  1.
       -2   -1    0    0    0  501  0.00000000000E+00  0.00000000000E+00 -0.14859691471E+04  0.14859691471E+04  0.25500000920E-02 0. -1.
    10030    2    1    2    0    0  0.00000000000E+00  0.00000000000E+00 -0.89522172747E+03  0.20767165668E+04  0.18738542519E+04 0.  0.
        5    1    3    3  502    0 -0.65274189373E+03 -0.58907737128E+03 -0.88962269018E+02  0.88375364468E+03  0.46999998093E+01 0.  1.
       -5    1    3    3    0  502  0.65274189373E+03  0.58907737128E+03 -0.80625945845E+03  0.11929629221E+04  0.46999998093E+01 0. -1.
</event>
<event>
 5   0  0.2608744E-04  0.1885642E+04  0.7818609E-02  0.8662036E-01
       -2   -1    0    0    0  501  0.00000000000E+00  0.00000000000E+00  0.53098127005E+03  0.53098127006E+03  0.25500000920E-02 0.  1.
        2   -1    0    0  501    0  0.00000000000E+00  0.00000000000E+00 -0.16740926779E+04  0.16740926779E+04  0.25500000920E-02 0. -1.
    10030    2    1    2    0    0  0.00000000000E+00  0.00000000000E+00 -0.11431114078E+04  0.22050739479E+04  0.18856424436E+04 0.  0.
        2    1    3    3  502    0 -0.74085911196E+03  0.53527043505E+02  0.10747774286E+03  0.75052570468E+03  0.25500000920E-02 0.  1.
       -2    1    3    3    0  502  0.74085911196E+03 -0.53527043505E+02 -0.12505891507E+04  0.14545482432E+04  0.25500000920E-02 0. -1.
</event>
<event>
 5   0  0.2541124E-04  0.1940500E+04  0.7818609E-02  0.8634956E-01
        2   -1    0    0  501    0  0.00000000000E+00  0.00000000000E+00  0.77978390633E+03  0.77978390634E+03  0.25500000920E-02 0.  1.
       -2   -1    0    0    0  501  0.00000000000E+00  0.00000000000E+00 -0.12072379118E+04  0.12072379118E+04  0.25500000920E-02 0. -1.
    10030    2    1    2    0    0  0.00000000000E+00  0.00000000000E+00 -0.42745400547E+03  0.19870218181E+04  0.19404996210E+04 0.  0.
        5    1    3    3  502    0  0.30680912683E+03 -0.87457992480E+03 -0.50755718368E+03  0.10567205259E+04  0.46999998093E+01 0. -1.
       -5    1    3    3    0  502 -0.30680912683E+03  0.87457992480E+03  0.80103178206E+02  0.93030129223E+03  0.46999998093E+01 0.  1.
</event>
<event>
 5   0  0.2608744E-04  0.2207872E+04  0.7818609E-02  0.8515159E-01
       -2   -1    0    0    0  501  0.00000000000E+00  0.00000000000E+00  0.56919279988E+03  0.56919279989E+03  0.25500000920E-02 0. -1.
        2   -1    0    0  501    0  0.00000000000E+00  0.00000000000E+00 -0.21410580630E+04  0.21410580630E+04  0.25500000920E-02 0.  1.
    10030    2    1    2    0    0  0.00000000000E+00  0.00000000000E+00 -0.15718652631E+04  0.27102508629E+04  0.22078721282E+04 0.  0.
        2    1    3    3  502    0  0.10303077990E+02  0.33923632230E+03 -0.20754264459E+04  0.21029936681E+04  0.25500000920E-02 0.  1.
       -2    1    3    3    0  502 -0.10303077990E+02 -0.33923632230E+03  0.50356118279E+03  0.60725719477E+03  0.25500000920E-02 0. -1.
</event>
<event>
 5   0  0.2562925E-04  0.1908489E+04  0.7818609E-02  0.8650642E-01
       -2   -1    0    0    0  501  0.00000000000E+00  0.00000000000E+00  0.57177265296E+03  0.57177265297E+03  0.25500000920E-02 0. -1.
        2   -1    0    0  501    0  0.00000000000E+00  0.00000000000E+00 -0.15925612232E+04  0.15925612232E+04  0.25500000920E-02 0.  1.
    10030    2    1    2    0    0  0.00000000000E+00  0.00000000000E+00 -0.10207885702E+04  0.21643338762E+04  0.19084894085E+04 0.  0.
        4    1    3    3  502    0 -0.57578521867E+03  0.22213154351E+03  0.31498528061E+03  0.69288410327E+03  0.12699999809E+01 0. -1.
       -4    1    3    3    0  502  0.57578521867E+03 -0.22213154351E+03 -0.13357738509E+04  0.14714497729E+04  0.12699999809E+01 0.  1.
</event>
<event>
 5   0  0.2595012E-04  0.1898811E+04  0.7818609E-02  0.8655449E-01
       -2   -1    0    0    0  501  0.00000000000E+00  0.00000000000E+00  0.90452652921E+03  0.90452652922E+03  0.25500000920E-02 0.  1.
        2   -1    0    0  501    0  0.00000000000E+00  0.00000000000E+00 -0.99651088433E+03  0.99651088434E+03  0.25500000920E-02 0. -1.
    10030    2    1    2    0    0  0.00000000000E+00  0.00000000000E+00 -0.91984355119E+02  0.19010374136E+04  0.18988107136E+04 0.  0.
        1    1    3    3  502    0  0.16028536245E+03 -0.10749711152E+03 -0.97666471745E+03  0.99555059978E+03  0.50400001928E-02 0. -1.
       -1    1    3    3    0  502 -0.16028536245E+03  0.10749711152E+03  0.88468036233E+03  0.90548681377E+03  0.50400001928E-02 0.  1.
</event>
<event>
 5   0  0.1317527E-04  0.1898686E+04  0.7818609E-02  0.8655511E-01
        1   -1    0    0  501    0  0.00000000000E+00  0.00000000000E+00  0.10850468487E+04  0.10850468488E+04  0.50400001928E-02 0. -1.
       -1   -1    0    0    0  501  0.00000000000E+00  0.00000000000E+00 -0.83061088009E+03  0.83061088010E+03  0.50400001928E-02 0.  1.
    10030    2    1    2    0    0  0.00000000000E+00  0.00000000000E+00  0.25443596865E+03  0.19156577289E+04  0.18986855643E+04 0.  0.
        1    1    3    3  502    0  0.42591803085E+03  0.31576737768E+03  0.92174472573E+03  0.10633572049E+04  0.50400001928E-02 0. -1.
       -1    1    3    3    0  502 -0.42591803085E+03 -0.31576737768E+03 -0.66730875707E+03  0.85230052394E+03  0.50400001928E-02 0.  1.
</event>
<event>
 5   0  0.1324058E-04  0.1900240E+04  0.7818609E-02  0.8654737E-01
       -1   -1    0    0    0  501  0.00000000000E+00  0.00000000000E+00  0.42924210416E+03  0.42924210419E+03  0.50400001928E-02 0. -1.
        1   -1    0    0  501    0  0.00000000000E+00  0.00000000000E+00 -0.21030742880E+04  0.21030742880E+04  0.50400001928E-02 0.  1.
    10030    2    1    2    0    0  0.00000000000E+00  0.00000000000E+00 -0.16738321839E+04  0.25323163922E+04  0.19002400192E+04 0.  0.
        5    1    3    3  502    0 -0.38430327864E+03  0.73040862643E+03 -0.14641306719E+04  0.16807398627E+04  0.46999998093E+01 0. -1.
       -5    1    3    3    0  502  0.38430327864E+03 -0.73040862643E+03 -0.20970151194E+03  0.85157652953E+03  0.46999998093E+01 0.  1.
</event>
<event>
 5   0  0.1255141E-04  0.1863943E+04  0.7818609E-02  0.8673015E-01
        1   -1    0    0  501    0  0.00000000000E+00  0.00000000000E+00  0.11879019305E+04  0.11879019306E+04  0.50400001928E-02 0.  1.
       -1   -1    0    0    0  501  0.00000000000E+00  0.00000000000E+00 -0.73118090050E+03  0.73118090052E+03  0.50400001928E-02 0. -1.
    10030    2    1    2    0    0  0.00000000000E+00  0.00000000000E+00  0.45672103005E+03  0.19190828311E+04  0.18639433503E+04 0.  0.
        2    1    3    3  502    0 -0.32366238519E+03  0.23586085597E+02 -0.67112995931E+03  0.74547237730E+03  0.25500000920E-02 0. -1.
       -2    1    3    3    0  502  0.32366238519E+03 -0.23586085597E+02  0.11278509894E+04  0.11736104538E+04  0.25500000920E-02 0.  1.
</event>
<event>
 5   0  0.1324058E-04  0.1883863E+04  0.7818609E-02  0.8662931E-01
        1   -1    0    0  501    0  0.00000000000E+00  0.00000000000E+00  0.83394665902E+03  0.83394665904E+03  0.50400001928E-02 0.  1.
       -1   -1    0    0    0  501  0.00000000000E+00  0.00000000000E+00 -0.10638987969E+04  0.10638987969E+04  0.50400001928E-02 0. -1.
    10030    2    1    2    0    0  0.00000000000E+00  0.00000000000E+00 -0.22995213786E+03  0.18978454559E+04  0.18838628902E+04 0.  0.
        5    1    3    3  502    0  0.12213304808E+03  0.22629746429E+03  0.79788735495E+03  0.83831577879E+03  0.46999998093E+01 0.  1.
       -5    1    3    3    0  502 -0.12213304808E+03 -0.22629746429E+03 -0.10278394928E+04  0.10595296771E+04  0.46999998093E+01 0. -1.
</event>
<event>
 5   0  0.2595012E-04  0.1943280E+04  0.7818609E-02  0.8633608E-01
        2   -1    0    0  501    0  0.00000000000E+00  0.00000000000E+00  0.19709517240E+04  0.19709517240E+04  0.25500000920E-02 0.  1.
       -2   -1    0    0    0  501  0.00000000000E+00  0.00000000000E+00 -0.47899926814E+03  0.47899926814E+03  0.25500000920E-02 0. -1.
    10030    2    1    2    0    0  0.00000000000E+00  0.00000000000E+00  0.14919524559E+04  0.24499509921E+04  0.19432801479E+04 0.  0.
        1    1    3    3  502    0 -0.44986073666E+03 -0.70182782345E+03  0.13752653324E+04  0.16081951719E+04  0.50400001928E-02 0.  1.
       -1    1    3    3    0  502  0.44986073666E+03  0.70182782345E+03  0.11668712341E+03  0.84175582027E+03  0.50400001928E-02 0. -1.
</event>
<event>
 5   0  0.2562925E-04  0.1885934E+04  0.7818609E-02  0.8661890E-01
        2   -1    0    0  501    0  0.00000000000E+00  0.00000000000E+00  0.83577909939E+03  0.83577909940E+03  0.25500000920E-02 0. -1.
       -2   -1    0    0    0  501  0.00000000000E+00  0.00000000000E+00 -0.10639021787E+04  0.10639021787E+04  0.25500000920E-02 0.  1.
    10030    2    1    2    0    0  0.00000000000E+00  0.00000000000E+00 -0.22812307928E+03  0.18996812781E+04  0.18859344684E+04 0.  0.
        4    1    3    3  502    0 -0.26797394247E+03  0.32566889689E+03  0.73548119125E+03  0.84782336594E+03  0.12699999809E+01 0. -1.
       -4    1    3    3    0  502  0.26797394247E+03 -0.32566889689E+03 -0.96360427053E+03  0.10518579121E+04  0.12699999809E+01 0.  1.
</event>
<event>
 5   0  0.1277709E-04  0.1869290E+04  0.7818609E-02  0.8670295E-01
        1   -1    0    0  501    0  0.00000000000E+00  0.00000000000E+00  0.11946991369E+04  0.11946991369E+04  0.50400001928E-02 0.  1.
       -1   -1    0    0    0  501  0.00000000000E+00  0.00000000000E+00 -0.73119798469E+03  0.73119798471E+03  0.50400001928E-02 0. -1.
    10030    2    1    2    0    0  0.00000000000E+00  0.00000000000E+00  0.46350115220E+03  0.19258971216E+04  0.18692903480E+04 0.  0.
        4    1    3    3  502    0  0.57349691723E+02  0.18301031427E+03  0.11742074926E+04  0.11897674608E+04  0.12699999809E+01 0.  1.
       -4    1    3    3    0  502 -0.57349691723E+02 -0.18301031427E+03 -0.71070634041E+03  0.73612966077E+03  0.12699999809E+01 0. -1.
</event>
<event>
 5   0  0.1255141E-04  0.1870820E+04  0.7818609E-02  0.8669519E-01
       -1   -1    0    0    0  501  0.00000000000E+00  0.00000000000E+00  0.47448404669E+03  0.47448404672E+03  0.50400001928E-02 0. -1.
        1   -1    0    0  501    0  0.00000000000E+00  0.00000000000E+00 -0.18440920169E+04  0.18440920169E+04  0.50400001928E-02 0.  1.
    10030    2    1    2    0    0  0.00000000000E+00  0.00000000000E+00 -0.13696079702E+04  0.23185760636E+04  0.18708204004E+04 0.  0.
        2    1    3    3  502    0 -0.60387503325E+03  0.52932617361E+03 -0.12793510484E+04  0.15104934157E+04  0.25500000920E-02 0.  1.
       -2    1    3    3    0  502  0.60387503325E+03 -0.52932617361E+03 -0.90256921747E+02  0.80808264786E+03  0.25500000920E-02 0. -1.
</event>
<event>
 5   0  0.1255141E-04  0.1910537E+04  0.7818609E-02  0.8649629E-01
        1   -1    0    0  501    0  0.00000000000E+00  0.00000000000E+00  0.12512805089E+04  0.12512805090E+04  0.50400001928E-02 0.  1.
       -1   -1    0    0    0  501  0.00000000000E+00  0.00000000000E+00 -0.72928358441E+03  0.72928358443E+03  0.50400001928E-02 0. -1.
    10030    2    1    2    0    0  0.00000000000E+00  0.00000000000E+00  0.52199692454E+03  0.19805640934E+04  0.19105374476E+04 0.  0.
        2    1    3    3  502    0  0.24284276450E+03 -0.71713042911E+03  0.86483399844E+03  0.11494287736E+04  0.25500000920E-02 0.  1.
       -2    1    3    3    0  502 -0.24284276450E+03  0.71713042911E+03 -0.34283707390E+03  0.83113531983E+03  0.25500000920E-02 0. -1.
</event>
<event>
 5   0  0.2608744E-04  0.1781264E+04  0.7818609E-02  0.8716327E-01
       -2   -1    0    0    0  501  0.00000000000E+00  0.00000000000E+00  0.39449481397E+03  0.39449481398E+03  0.25500000920E-02 0. -1.
        2   -1    0    0  501    0  0.00000000000E+00  0.00000000000E+00 -0.20107379587E+04  0.20107379587E+04  0.25500000920E-02 0.  1.
    10030    2    1    2    0    0  0.00000000000E+00  0.00000000000E+00 -0.16162431447E+04  0.24052327727E+04  0.17812643790E+04 0.  0.
        2    1    3    3  502    0  0.50398979880E+03 -0.73416074311E+03 -0.78773332431E+03  0.11889161048E+04  0.25500000920E-02 0.  1.
       -2    1    3    3    0  502 -0.50398979880E+03  0.73416074311E+03 -0.82850982041E+03  0.12163166679E+04  0.25500000920E-02 0. -1.
</event>
<event>
 5   0  0.1317527E-04  0.1881483E+04  0.7818609E-02  0.8664129E-01
        1   -1    0    0  501    0  0.00000000000E+00  0.00000000000E+00  0.13611413740E+04  0.13611413740E+04  0.50400001928E-02 0. -1.
       -1   -1    0    0    0  501  0.00000000000E+00  0.00000000000E+00 -0.65018594100E+03  0.65018594102E+03  0.50400001928E-02 0.  1.
    10030    2    1    2    0    0  0.00000000000E+00  0.00000000000E+00  0.71095543297E+03  0.20113273150E+04  0.18814834414E+04 0.  0.
        1    1    3    3  502    0 -0.63194829344E+03 -0.35389683836E+03 -0.28627947770E+03  0.77881805139E+03  0.50400001928E-02 0.  1.
       -1    1    3    3    0  502  0.63194829344E+03  0.35389683836E+03  0.99723491067E+03  0.12325092636E+04  0.50400001928E-02 0. -1.
</event>
<event>
 5   0  0.1277709E-04  0.1822091E+04  0.7818609E-02  0.8694639E-01
       -1   -1    0    0    0  501  0.00000000000E+00  0.00000000000E+00  0.56977748634E+03  0.56977748637E+03  0.50400001928E-02 0. -1.
        1   -1    0    0  501    0  0.00000000000E+00  0.00000000000E+00 -0.14567163315E+04  0.14567163315E+04  0.50400001928E-02 0.  1.
    10030    2    1    2    0    0  0.00000000000E+00  0.00000000000E+00 -0.88693884515E+03  0.20264938179E+04  0.18220912927E+04 0.  0.
        4    1    3    3  502    0  0.52470758165E+03  0.30459351420E+03 -0.11993489175E+04  0.13440739168E+04  0.12699999809E+01 0.  1.
       -4    1    3    3    0  502 -0.52470758165E+03 -0.30459351420E+03  0.31241007234E+03  0.68241990104E+03  0.12699999809E+01 0. -1.
</event>
<event>
 5   0  0.1239615E-04  0.1802980E+04  0.7818609E-02  0.8704716E-01
        1   -1    0    0  501    0  0.00000000000E+00  0.00000000000E+00  0.11228043929E+04  0.11228043929E+04  0.50400001928E-02 0. -1.
       -1   -1    0    0    0  501  0.00000000000E+00  0.00000000000E+00 -0.72379876764E+03  0.72379876766E+03  0.50400001928E-02 0.  1.
    10030    2    1    2    0    0  0.00000000000E+00  0.00000000000E+00  0.39900562530E+03  0.18466031606E+04  0.18029802394E+04 0.  0.
        3    1    3    3  502    0 -0.89959880393E+02  0.51419679221E+03 -0.55325835310E+03  0.76064836599E+03  0.10100000352E+00 0.  1.
       -3    1    3    3    0  502  0.89959880393E+02 -0.51419679221E+03  0.95226397840E+03  0.10859547946E+04  0.10100000352E+00 0. -1.
</event>
<event>
 5   0  0.1277709E-04  0.1890320E+04  0.7818609E-02  0.8659690E-01
        1   -1    0    0  501    0  0.00000000000E+00  0.00000000000E+00  0.21643679518E+04  0.21643679518E+04  0.50400001928E-02 0. -1.
       -1   -1    0    0    0  501  0.00000000000E+00  0.00000000000E+00 -0.41274303030E+03  0.41274303033E+03  0.50400001928E-02 0.  1.
    10030    2    1    2    0    0  0.00000000000E+00  0.00000000000E+00  0.17516249215E+04  0.25771109821E+04  0.18903203825E+04 0.  0.
        4    1    3    3  502    0 -0.31372539086E+01 -0.37526886775E+03 -0.30681499693E+03  0.48474077681E+03  0.12699999809E+01 0.  1.
       -4    1    3    3    0  502  0.31372539086E+01  0.37526886775E+03  0.20584399184E+04  0.20923702053E+04  0.12699999809E+01 0. -1.
</event>
<event>
 5   0  0.2562925E-04  0.1941524E+04  0.7818609E-02  0.8634459E-01
        2   -1    0    0  501    0  0.00000000000E+00  0.00000000000E+00  0.89550576344E+03  0.89550576344E+03  0.25500000920E-02 0. -1.
       -2   -1    0    0    0  501  0.00000000000E+00  0.00000000000E+00 -0.10523423249E+04  0.10523423249E+04  0.25500000920E-02 0.  1.
    10030    2    1    2    0    0  0.00000000000E+00  0.00000000000E+00 -0.15683656147E+03  0.19478480883E+04  0.19415237491E+04 0.  0.
        4    1    3    3  502    0 -0.91405987516E+03  0.31029010448E+03 -0.18166901733E+03  0.98223757262E+03  0.12699999809E+01 0.  1.
       -4    1    3    3    0  502  0.91405987516E+03 -0.31029010448E+03  0.24832455860E+02  0.96561051572E+03  0.12699999809E+01 0. -1.
</event>
<event>
 5   0  0.2608744E-04  0.1851545E+04  0.7818609E-02  0.8679359E-01
       -2   -1    0    0    0  501  0.00000000000E+00  0.00000000000E+00  0.49486261305E+03  0.49486261306E+03  0.25500000920E-02 0.  1.
        2   -1    0    0  501    0  0.00000000000E+00  0.00000000000E+00 -0.17319047088E+04  0.17319047088E+04  0.25500000920E-02 0. -1.
    10030    2    1    2    0    0  0.00000000000E+00  0.00000000000E+00 -0.12370420958E+04  0.22267673219E+04  0.18515451815E+04 0.  0.
        2    1    3    3  502    0 -0.22025254967E+03 -0.21559521275E+03  0.43134960162E+03  0.53014616873E+03  0.25500000920E-02 0.  1.
       -2    1    3    3    0  502  0.22025254967E+03  0.21559521275E+03 -0.16683916974E+04  0.16966211531E+04  0.25500000920E-02 0. -1.
</event>
<event>
 5   0  0.2541124E-04  0.1651447E+04  0.7818609E-02  0.8789551E-01
        2   -1    0    0  501    0  0.00000000000E+00  0.00000000000E+00  0.75507039428E+03  0.75507039429E+03  0.25500000920E-02 0. -1.
       -2   -1    0    0    0  501  0.00000000000E+00  0.00000000000E+00 -0.90298820899E+03  0.90298820899E+03  0.25500000920E-02 0.  1.
    10030    2    1    2    0    0  0.00000000000E+00  0.00000000000E+00 -0.14791781471E+03  0.16580586033E+04  0.16514474415E+04 0.  0.
        5    1    3    3  502    0 -0.54672942216E+03 -0.32158213056E+03  0.45680610447E+03  0.78167898452E+03  0.46999998093E+01 0. -1.
       -5    1    3    3    0  502  0.54672942216E+03  0.32158213056E+03 -0.60472391918E+03  0.87637961876E+03  0.46999998093E+01 0.  1.
</event>
<event>
 5   0  0.2651828E-04  0.1846773E+04  0.7818609E-02  0.8681814E-01
       -2   -1    0    0    0  501  0.00000000000E+00  0.00000000000E+00  0.98925499517E+03  0.98925499517E+03  0.25500000920E-02 0.  1.
        2   -1    0    0  501    0  0.00000000000E+00  0.00000000000E+00 -0.86190348338E+03  0.86190348338E+03  0.25500000920E-02 0. -1.
    10030    2    1    2    0    0  0.00000000000E+00  0.00000000000E+00  0.12735151178E+03  0.18511584786E+04  0.18467726728E+04 0.  0.
        3    1    3    3  502    0  0.78438501817E+03  0.45843248847E+03 -0.10170732427E+03  0.91420161520E+03  0.10100000352E+00 0.  1.
       -3    1    3    3    0  502 -0.78438501817E+03 -0.45843248847E+03  0.22905883606E+03  0.93695686336E+03  0.10100000352E+00 0. -1.
</event>
<event>
 5   0  0.2595012E-04  0.1916390E+04  0.7818609E-02  0.8646741E-01
        2   -1    0    0  501    0  0.00000000000E+00  0.00000000000E+00  0.86885585934E+03  0.86885585934E+03  0.25500000920E-02 0. -1.
       -2   -1    0    0    0  501  0.00000000000E+00  0.00000000000E+00 -0.10567205210E+04  0.10567205210E+04  0.25500000920E-02 0.  1.
    10030    2    1    2    0    0  0.00000000000E+00  0.00000000000E+00 -0.18786466169E+03  0.19255763804E+04  0.19163901653E+04 0.  0.
        1    1    3    3  502    0 -0.41065852795E+02 -0.70040465339E+03  0.56179434686E+03  0.89881364639E+03  0.50400001928E-02 0. -1.
       -1    1    3    3    0  502  0.41065852795E+02  0.70040465339E+03 -0.74965900855E+03  0.10267627340E+04  0.50400001928E-02 0.  1.
</event>
<event>
 5   0  0.1239615E-04  0.1933483E+04  0.7818609E-02  0.8638367E-01
       -1   -1    0    0    0  501  0.00000000000E+00  0.00000000000E+00  0.39724285557E+03  0.39724285560E+03  0.50400001928E-02 0. -1.
        1   -1    0    0  501    0  0.00000000000E+00  0.00000000000E+00 -0.23526907179E+04  0.23526907179E+04  0.50400001928E-02 0.  1.
    10030    2    1    2    0    0  0.00000000000E+00  0.00000000000E+00 -0.19554478623E+04  0.27499335735E+04  0.19334834668E+04 0.  0.
        3    1    3    3  502    0  0.83197761729E+03  0.46278492868E+03 -0.12167028888E+04  0.15449021249E+04  0.10100000352E+00 0. -1.
       -3    1    3    3    0  502 -0.83197761729E+03 -0.46278492868E+03 -0.73874497354E+03  0.12050314486E+04  0.10100000352E+00 0.  1.
</event>
<event>
 5   0  0.1239615E-04  0.1909673E+04  0.7818609E-02  0.8650057E-01
        1   -1    0    0  501    0  0.00000000000E+00  0.00000000000E+00  0.17996455286E+04  0.17996455286E+04  0.50400001928E-02 0. -1.
       -1   -1    0    0    0  501  0.00000000000E+00  0.00000000000E+00 -0.50660665565E+03  0.50660665567E+03  0.50400001928E-02 0.  1.
    10030    2    1    2    0    0  0.00000000000E+00  0.00000000000E+00  0.12930388729E+04  0.23062521842E+04  0.19096726448E+04 0.  0.
        3    1    3    3  502    0 -0.62140628332E+03 -0.67647035789E+03  0.33170335476E+03  0.97661918874E+03  0.10100000352E+00 0.  1.
       -3    1    3    3    0  502  0.62140628332E+03  0.67647035789E+03  0.96133551815E+03  0.13296329955E+04  0.10100000352E+00 0. -1.
</event>
<event>
 5   0  0.2541124E-04  0.1900828E+04  0.7818609E-02  0.8654444E-01
       -2   -1    0    0    0  501  0.00000000000E+00  0.00000000000E+00  0.10309787306E+04  0.10309787306E+04  0.25500000920E-02 0. -1.
        2   -1    0    0  501    0  0.00000000000E+00  0.00000000000E+00 -0.87614499941E+03  0.87614499942E+03  0.25500000920E-02 0.  1.
    10030    2    1    2    0    0  0.00000000000E+00  0.00000000000E+00  0.15483373122E+03  0.19071237301E+04  0.19008280925E+04 0.  0.
        5    1    3    3  502    0  0.91569837743E+03  0.25447017158E+03  0.79911604565E+02  0.95376440550E+03  0.46999998093E+01 0.  1.
       -5    1    3    3    0  502 -0.91569837743E+03 -0.25447017158E+03  0.74922126658E+02  0.95335932456E+03  0.46999998093E+01 0. -1.
</event>
<event>
 5   0  0.1277709E-04  0.1850472E+04  0.7818609E-02  0.8679910E-01
        1   -1    0    0  501    0  0.00000000000E+00  0.00000000000E+00  0.10355613323E+04  0.10355613323E+04  0.50400001928E-02 0. -1.
       -1   -1    0    0    0  501  0.00000000000E+00  0.00000000000E+00 -0.82666476962E+03  0.82666476964E+03  0.50400001928E-02 0.  1.
    10030    2    1    2    0    0  0.00000000000E+00  0.00000000000E+00  0.20889656267E+03  0.18622261020E+04  0.18504724480E+04 0.  0.
        4    1    3    3  502    0  0.17935612409E+03 -0.57063555224E+03  0.81481205779E+03  0.10107986225E+04  0.12699999809E+01 0. -1.
       -4    1    3    3    0  502 -0.17935612409E+03  0.57063555224E+03 -0.60591549512E+03  0.85142747950E+03  0.12699999809E+01 0.  1.
</event>
<event>
 5   0  0.2595012E-04  0.1905830E+04  0.7818609E-02  0.8651960E-01
        2   -1    0    0  501    0  0.00000000000E+00  0.00000000000E+00  0.68778873239E+03  0.68778873240E+03  0.25500000920E-02 0. -1.
       -2   -1    0    0    0  501  0.00000000000E+00  0.00000000000E+00 -0.13202405089E+04  0.13202405089E+04  0.25500000920E-02 0.  1.
    10030    2    1    2    0    0  0.00000000000E+00  0.00000000000E+00 -0.63245177651E+03  0.20080292413E+04  0.19058295266E+04 0.  0.
        1    1    3    3  502    0 -0.95148313407E+02  0.32755572089E+03  0.62126373023E+03  0.70874154271E+03  0.50400001928E-02 0. -1.
       -1    1    3    3    0  502  0.95148313407E+02 -0.32755572089E+03 -0.12537155067E+04  0.12992876986E+04  0.50400001928E-02 0.  1.
</event>
<event>
 5   0  0.2651828E-04  0.1871125E+04  0.7818609E-02  0.8669364E-01
       -2   -1    0    0    0  501  0.00000000000E+00  0.00000000000E+00  0.61069441453E+03  0.61069441453E+03  0.25500000920E-02 0.  1.
        2   -1    0    0  501    0  0.00000000000E+00  0.00000000000E+00 -0.14332488301E+04  0.14332488301E+04  0.25500000920E-02 0. -1.
    10030    2    1    2    0    0  0.00000000000E+00  0.00000000000E+00 -0.82255441559E+03  0.20439432446E+04  0.18711248544E+04 0.  0.
        3    1    3    3  502    0  0.18260556106E+03  0.91723375160E+03 -0.38419858028E+03  0.10110742333E+04  0.10100000352E+00 0.  1.
       -3    1    3    3    0  502 -0.18260556106E+03 -0.91723375160E+03 -0.43835583530E+03  0.10328690113E+04  0.10100000352E+00 0. -1.
</event>
<event>
 5   0  0.1239615E-04  0.2018689E+04  0.7818609E-02  0.8597932E-01
       -1   -1    0    0    0  501  0.00000000000E+00  0.00000000000E+00  0.10302378052E+04  0.10302378052E+04  0.50400001928E-02 0.  1.
        1   -1    0    0  501    0  0.00000000000E+00  0.00000000000E+00 -0.98887495143E+03  0.98887495144E+03  0.50400001928E-02 0. -1.
    10030    2    1    2    0    0  0.00000000000E+00  0.00000000000E+00  0.41362853759E+02  0.20191127566E+04  0.20186890395E+04 0.  0.
        3    1    3    3  502    0  0.74879501206E+02  0.56159154072E+03 -0.81482878116E+03  0.99244040180E+03  0.10100000352E+00 0. -1.
       -3    1    3    3    0  502 -0.74879501206E+02 -0.56159154072E+03  0.85619163492E+03  0.10266723549E+04  0.10100000352E+00 0.  1.
</event>
<event>
 5   0  0.2651828E-04  0.1909694E+04  0.7818609E-02  0.8650046E-01
        2   -1    0    0  501    0  0.00000000000E+00  0.00000000000E+00  0.75334807737E+03  0.75334807737E+03  0.25500000920E-02 0. -1.
       -2   -1    0    0    0  501  0.00000000000E+00  0.00000000000E+00 -0.12102409564E+04  0.12102409564E+04  0.25500000920E-02 0.  1.
    10030    2    1    2    0    0  0.00000000000E+00  0.00000000000E+00 -0.45689287906E+03  0.19635890338E+04  0.19096938998E+04 0.  0.
        3    1    3    3  502    0 -0.15588287117E+03 -0.73322517691E+03 -0.83658909535E+03  0.11232986932E+04  0.10100000352E+00 0.  1.
       -3    1    3    3    0  502  0.15588287117E+03  0.73322517691E+03  0.37969621629E+03  0.84029034057E+03  0.10100000352E+00 0. -1.
</event>
<event>
 5   0  0.2595012E-04  0.1900981E+04  0.7818609E-02  0.8654368E-01
       -2   -1    0    0    0  501  0.00000000000E+00  0.00000000000E+00  0.64508048506E+03  0.64508048507E+03  0.25500000920E-02 0. -1.
        2   -1    0    0  501    0  0.00000000000E+00  0.00000000000E+00 -0.14004948355E+04  0.14004948355E+04  0.25500000920E-02 0.  1.
    10030    2    1    2    0    0  0.00000000000E+00  0.00000000000E+00 -0.75541435043E+03  0.20455753206E+04  0.19009806815E+04 0.  0.
        1    1    3    3  502    0 -0.59941406116E+03 -0.20532195278E+03  0.38468762660E+03  0.74124145262E+03  0.50400001928E-02 0. -1.
       -1    1    3    3    0  502  0.59941406116E+03  0.20532195278E+03 -0.11401019770E+04  0.13043338679E+04  0.50400001928E-02 0.  1.
</event>
<event>
 5   0  0.1255141E-04  0.1842746E+04  0.7818609E-02  0.8683892E-01
        1   -1    0    0  501    0  0.00000000000E+00  0.00000000000E+00  0.50937532230E+03  0.50937532233E+03  0.50400001928E-02 0. -1.
       -1   -1    0    0    0  501  0.00000000000E+00  0.00000000000E+00 -0.16666060437E+04  0.16666060437E+04  0.50400001928E-02 0.  1.
    10030    2    1    2    0    0  0.00000000000E+00  0.00000000000E+00 -0.11572307214E+04  0.21759813661E+04  0.18427457673E+04 0.  0.
        2    1    3    3  502    0  0.29782146670E+03 -0.63053331542E+03 -0.12897280728E+04  0.14661747473E+04  0.25500000920E-02 0.  1.
       -2    1    3    3    0  502 -0.29782146670E+03  0.63053331542E+03  0.13249735138E+03  0.70980661875E+03  0.25500000920E-02 0. -1.
</event>
<event>
 5   0  0.2562925E-04  0.1895868E+04  0.7818609E-02  0.8656916E-01
       -2   -1    0    0    0  501  0.00000000000E+00  0.00000000000E+00  0.69464544006E+03  0.69464544006E+03  0.25500000920E-02 0.  1.
        2   -1    0    0  501    0  0.00000000000E+00  0.00000000000E+00 -0.12935796485E+04  0.12935796485E+04  0.25500000920E-02 0. -1.
    10030    2    1    2    0    0  0.00000000000E+00  0.00000000000E+00 -0.59893420842E+03  0.19882250885E+04  0.18958683543E+04 0.  0.
        4    1    3    3  502    0 -0.25627109497E+03  0.76101310630E+02 -0.12532276464E+04  0.12814239853E+04  0.12699999809E+01 0. -1.
       -4    1    3    3    0  502  0.25627109497E+03 -0.76101310630E+02  0.65429343798E+03  0.70680110320E+03  0.12699999809E+01 0.  1.
</event>
<event>
 5   0  0.2608744E-04  0.1914529E+04  0.7818609E-02  0.8647658E-01
        2   -1    0    0  501    0  0.00000000000E+00  0.00000000000E+00  0.13552801720E+04  0.13552801720E+04  0.25500000920E-02 0.  1.
       -2   -1    0    0    0  501  0.00000000000E+00  0.00000000000E+00 -0.67613745053E+03  0.67613745053E+03  0.25500000920E-02 0. -1.
    10030    2    1    2    0    0  0.00000000000E+00  0.00000000000E+00  0.67914272147E+03  0.20314176225E+04  0.19145293732E+04 0.  0.
        2    1    3    3  502    0 -0.66452980334E+03 -0.57020079935E+03 -0.70861359640E+02  0.87849310948E+03  0.25500000920E-02 0. -1.
       -2    1    3    3    0  502  0.66452980334E+03  0.57020079935E+03  0.75000408111E+03  0.11529245131E+04  0.25500000920E-02 0.  1.
</event>
<event>
 5   0  0.1239615E-04  0.1908605E+04  0.7818609E-02  0.8650585E-01
        1   -1    0    0  501    0  0.00000000000E+00  0.00000000000E+00  0.11108579480E+04  0.11108579480E+04  0.50400001928E-02 0.  1.
       -1   -1    0    0    0  501  0.00000000000E+00  0.00000000000E+00 -0.81981060585E+03  0.81981060587E+03  0.50400001928E-02 0. -1.
    10030    2    1    2    0    0  0.00000000000E+00  0.00000000000E+00  0.29104734211E+03  0.19306685538E+04  0.19086048594E+04 0.  0.
        3    1    3    3  502    0  0.72304761318E+03 -0.60809539395E+03  0.28167251583E+03  0.98585864882E+03  0.10100000352E+00 0.  1.
       -3    1    3    3    0  502 -0.72304761318E+03  0.60809539395E+03  0.93748262747E+01  0.94480990503E+03  0.10100000352E+00 0. -1.
</event>
<event>
 5   0  0.1277709E-04  0.1907512E+04  0.7818609E-02  0.8651126E-01
       -1   -1    0    0    0  501  0.00000000000E+00  0.00000000000E+00  0.51358491410E+03  0.51358491412E+03  0.50400001928E-02 0. -1.
        1   -1    0    0  501    0  0.00000000000E+00  0.00000000000E+00 -0.17711792985E+04  0.17711792985E+04  0.50400001928E-02 0.  1.
    10030    2    1    2    0    0  0.00000000000E+00  0.00000000000E+00 -0.12575943844E+04  0.22847642126E+04  0.19075124827E+04 0.  0.
        4    1    3    3  502    0 -0.89696228684E+03 -0.32282978024E+03 -0.66450894735E+03  0.11620387967E+04  0.12699999809E+01 0. -1.
       -4    1    3    3    0  502  0.89696228684E+03  0.32282978024E+03 -0.59308543702E+03  0.11227254159E+04  0.12699999809E+01 0.  1.
</event>
<event>
 5   0  0.1324058E-04  0.1897940E+04  0.7818609E-02  0.8655882E-01
        1   -1    0    0  501    0  0.00000000000E+00  0.00000000000E+00  0.17665894023E+04  0.17665894023E+04  0.50400001928E-02 0.  1.
       -1   -1    0    0    0  501  0.00000000000E+00  0.00000000000E+00 -0.50976422334E+03  0.50976422337E+03  0.50400001928E-02 0. -1.
    10030    2    1    2    0    0  0.00000000000E+00  0.00000000000E+00  0.12568251789E+04  0.22763536257E+04  0.18979400145E+04 0.  0.
        5    1    3    3  502    0 -0.81402225942E+03 -0.33747716106E+03  0.10507564485E+04  0.13713621977E+04  0.46999998093E+01 0.  1.
       -5    1    3    3    0  502  0.81402225942E+03  0.33747716106E+03  0.20606873040E+03  0.90499142798E+03  0.46999998093E+01 0. -1.
</event>
<event>
 5   0  0.1277709E-04  0.1898765E+04  0.7818609E-02  0.8655471E-01
       -1   -1    0    0    0  501  0.00000000000E+00  0.00000000000E+00  0.74298731654E+03  0.74298731655E+03  0.50400001928E-02 0.  1.
        1   -1    0    0  501    0  0.00000000000E+00  0.00000000000E+00 -0.12131128305E+04  0.12131128305E+04  0.50400001928E-02 0. -1.
    10030    2    1    2    0    0  0.00000000000E+00  0.00000000000E+00 -0.47012551395E+03  0.19561001471E+04  0.18987653321E+04 0.  0.
        4    1    3    3  502    0  0.79529050752E+03 -0.42342652980E+03 -0.54334585633E+03  0.10521422670E+04  0.12699999809E+01 0. -1.
       -4    1    3    3    0  502 -0.79529050752E+03  0.42342652980E+03  0.73220342378E+02  0.90395788007E+03  0.12699999809E+01 0.  1.
</event>
<event>
 5   0  0.1317527E-04  0.1894503E+04  0.7818609E-02  0.8657598E-01
        1   -1    0    0  501    0  0.00000000000E+00  0.00000000000E+00  0.85531751579E+03  0.85531751580E+03  0.50400001928E-02 0. -1.
       -1   -1    0    0    0  501  0.00000000000E+00  0.00000000000E+00 -0.10490666156E+04  0.10490666156E+04  0.50400001928E-02 0.  1.
    10030    2    1    2    0    0  0.00000000000E+00  0.00000000000E+00 -0.19374909982E+03  0.19043841314E+04  0.18945026277E+04 0.  0.
        1    1    3    3  502    0 -0.84120113987E+02  0.82353509604E+03 -0.55970939402E+03  0.99928016781E+03  0.50400001928E-02 0.  1.
       -1    1    3    3    0  502  0.84120113987E+02 -0.82353509604E+03  0.36596029420E+03  0.90510396361E+03  0.50400001928E-02 0. -1.
</event>
<event>
 5   0  0.2541124E-04  0.1753461E+04  0.7818609E-02  0.8731448E-01
        2   -1    0    0  501    0  0.00000000000E+00  0.00000000000E+00  0.13860038792E+04  0.13860038792E+04  0.25500000920E-02 0.  1.
       -2   -1    0    0    0  501  0.00000000000E+00  0.00000000000E+00 -0.55458432165E+03  0.55458432166E+03  0.25500000920E-02 0. -1.
    10030    2    1    2    0    0  0.00000000000E+00  0.00000000000E+00  0.83141955751E+03  0.19405882008E+04  0.17534606025E+04 0.  0.
        5    1    3    3  502    0 -0.77182350748E+03 -0.20973766084E+02  0.87534140111E+03  0.11672172394E+04  0.46999998093E+01 0.  1.
       -5    1    3    3    0  502  0.77182350748E+03  0.20973766084E+02 -0.43921843597E+02  0.77337096138E+03  0.46999998093E+01 0. -1.
</event>
<event>
 5   0  0.1277709E-04  0.1909526E+04  0.7818609E-02  0.8650129E-01
        1   -1    0    0  501    0  0.00000000000E+00  0.00000000000E+00  0.86656497408E+03  0.86656497410E+03  0.50400001928E-02 0.  1.
       -1   -1    0    0    0  501  0.00000000000E+00  0.00000000000E+00 -0.10519377432E+04  0.10519377432E+04  0.50400001928E-02 0. -1.
    10030    2    1    2    0    0  0.00000000000E+00  0.00000000000E+00 -0.18537276911E+03  0.19185027173E+04  0.19095260178E+04 0.  0.
        4    1    3    3  502    0 -0.66476968857E+03  0.35605777055E+03 -0.68099430490E+03  0.10160958277E+04  0.12699999809E+01 0. -1.
       -4    1    3    3    0  502  0.66476968857E+03 -0.35605777055E+03  0.49562153579E+03  0.90240688963E+03  0.12699999809E+01 0.  1.
</event>
<event>
 5   0  0.9266125E-05  0.1912731E+04  0.7818609E-02  0.8648545E-01
        4   -1    0    0  501    0  0.00000000000E+00  0.00000000000E+00  0.79486156406E+03  0.79486257863E+03  0.12699999809E+01 0.  1.
       -4   -1    0    0    0  501  0.00000000000E+00  0.00000000000E+00 -0.11506820562E+04  0.11506827571E+04  0.12699999809E+01 0. -1.
    10030    2    1    2    0    0  0.00000000000E+00  0.00000000000E+00 -0.35582049218E+03  0.19455453357E+04  0.19127306216E+04 0.  0.
        3    1    3    3  502    0 -0.65886632602E+03 -0.76836481156E+02  0.52284001666E+03  0.84461255829E+03  0.10100000352E+00 0.  1.
       -3    1    3    3    0  502  0.65886632602E+03  0.76836481156E+02 -0.87866050885E+03  0.11009327774E+04  0.10100000352E+00 0. -1.
</event>
<event>
 5   0  0.2651828E-04  0.1785333E+04  0.7818609E-02  0.8714139E-01
        2   -1    0    0  501    0  0.00000000000E+00  0.00000000000E+00  0.85953216008E+03  0.85953216009E+03  0.25500000920E-02 0.  1.
       -2   -1    0    0    0  501  0.00000000000E+00  0.00000000000E+00 -0.92707764270E+03  0.92707764270E+03  0.25500000920E-02 0. -1.
    10030    2    1    2    0    0  0.00000000000E+00  0.00000000000E+00 -0.67545482616E+02  0.17866098028E+04  0.17853325167E+04 0.  0.
        3    1    3    3  502    0 -0.30281655123E+03 -0.54923194793E+03  0.60189777284E+03  0.86927241730E+03  0.10100000352E+00 0.  1.
       -3    1    3    3    0  502  0.30281655123E+03  0.54923194793E+03 -0.66944325546E+03  0.91733738548E+03  0.10100000352E+00 0. -1.
</event>
<event>
 5   0  0.2651828E-04  0.1899296E+04  0.7818609E-02  0.8655207E-01
        2   -1    0    0  501    0  0.00000000000E+00  0.00000000000E+00  0.10362962441E+04  0.10362962441E+04  0.25500000920E-02 0. -1.
       -2   -1    0    0    0  501  0.00000000000E+00  0.00000000000E+00 -0.87024507505E+03  0.87024507506E+03  0.25500000920E-02 0.  1.
    10030    2    1    2    0    0  0.00000000000E+00  0.00000000000E+00  0.16605116906E+03  0.19065413192E+04  0.18992963989E+04 0.  0.
        3    1    3    3  502    0 -0.73969211666E+03  0.59234273160E+03  0.14504599852E+03  0.95867235854E+03  0.10100000352E+00 0.  1.
       -3    1    3    3    0  502  0.73969211666E+03 -0.59234273160E+03  0.21005170540E+02  0.94786896063E+03  0.10100000352E+00 0. -1.
</event>
<event>
 5   0  0.1324058E-04  0.1890783E+04  0.7818609E-02  0.8659458E-01
       -1   -1    0    0    0  501  0.00000000000E+00  0.00000000000E+00  0.59991346133E+03  0.59991346135E+03  0.50400001928E-02 0.  1.
        1   -1    0    0  501    0  0.00000000000E+00  0.00000000000E+00 -0.14898233576E+04  0.14898233576E+04  0.50400001928E-02 0. -1.
    10030    2    1    2    0    0  0.00000000000E+00  0.00000000000E+00 -0.88990989627E+03  0.20897368190E+04  0.18907829989E+04 0.  0.
        5    1    3    3  502    0  0.52015428627E+02 -0.90915896262E+03 -0.72557577053E+03  0.11643701786E+04  0.46999998093E+01 0. -1.
       -5    1    3    3    0  502 -0.52015428627E+02  0.90915896262E+03 -0.16433412574E+03  0.92536664032E+03  0.46999998093E+01 0.  1.
</event>
<event>
 5   0  0.2541124E-04  0.1749004E+04  0.7818609E-02  0.8733899E-01
       -2   -1    0    0    0  501  0.00000000000E+00  0.00000000000E+00  0.52280071748E+03  0.52280071749E+03  0.25500000920E-02 0. -1.
        2   -1    0    0  501    0  0.00000000000E+00  0.00000000000E+00 -0.14628009171E+04  0.14628009171E+04  0.25500000920E-02 0.  1.
    10030    2    1    2    0    0  0.00000000000E+00  0.00000000000E+00 -0.94000019964E+03  0.19856016346E+04  0.17490035666E+04 0.  0.
        5    1    3    3  502    0 -0.22513921345E+03 -0.43339432647E+03  0.35353516565E+03  0.60293242656E+03  0.46999998093E+01 0. -1.
       -5    1    3    3    0  502  0.22513921345E+03  0.43339432647E+03 -0.12935353653E+04  0.13826692081E+04  0.46999998093E+01 0.  1.
</event>
<event>
 5   0  0.2651828E-04  0.1526609E+04  0.7818609E-02  0.8866949E-01
        2   -1    0    0  501    0  0.00000000000E+00  0.00000000000E+00  0.68927743197E+03  0.68927743197E+03  0.25500000920E-02 0. -1.
       -2   -1    0    0    0  501  0.00000000000E+00  0.00000000000E+00 -0.84528187548E+03  0.84528187548E+03  0.25500000920E-02 0.  1.
    10030    2    1    2    0    0  0.00000000000E+00  0.00000000000E+00 -0.15600444351E+03  0.15345593075E+04  0.15266089485E+04 0.  0.
        3    1    3    3  502    0 -0.32420648033E+03 -0.57244194340E+03 -0.46710218596E+03  0.80683584624E+03  0.10100000352E+00 0.  1.
       -3    1    3    3    0  502  0.32420648033E+03  0.57244194340E+03  0.31109774245E+03  0.72772346122E+03  0.10100000352E+00 0. -1.
</event>
<event>
 5   0  0.1239615E-04  0.1875757E+04  0.7818609E-02  0.8667019E-01
        1   -1    0    0  501    0  0.00000000000E+00  0.00000000000E+00  0.57745767290E+03  0.57745767292E+03  0.50400001928E-02 0.  1.
       -1   -1    0    0    0  501  0.00000000000E+00  0.00000000000E+00 -0.15232564693E+04  0.15232564693E+04  0.50400001928E-02 0. -1.
    10030    2    1    2    0    0  0.00000000000E+00  0.00000000000E+00 -0.94579879643E+03  0.21007141423E+04  0.18757570589E+04 0.  0.
        3    1    3    3  502    0 -0.25577346990E+03  0.65484718373E+03  0.22233301369E+03  0.73734447928E+03  0.10100000352E+00 0.  1.
       -3    1    3    3    0  502  0.25577346990E+03 -0.65484718373E+03 -0.11681318101E+04  0.13633696630E+04  0.10100000352E+00 0. -1.
</event>
<event>
 5   0  0.1239615E-04  0.1840379E+04  0.7818609E-02  0.8685116E-01
        1   -1    0    0  501    0  0.00000000000E+00  0.00000000000E+00  0.88965422985E+03  0.88965422987E+03  0.50400001928E-02 0.  1.
       -1   -1    0    0    0  501  0.00000000000E+00  0.00000000000E+00 -0.95177269036E+03  0.95177269037E+03  0.50400001928E-02 0. -1.
    10030    2    1    2    0    0  0.00000000000E+00  0.00000000000E+00 -0.62118460504E+02  0.18414269202E+04  0.18403788739E+04 0.  0.
        3    1    3    3  502    0 -0.28600024763E+03 -0.57668362909E+03 -0.68899619334E+03  0.94290822159E+03  0.10100000352E+00 0. -1.
       -3    1    3    3    0  502  0.28600024763E+03  0.57668362909E+03  0.62687773283E+03  0.89851869865E+03  0.10100000352E+00 0.  1.
</event>
<event>
 5   0  0.1277709E-04  0.1919649E+04  0.7818609E-02  0.8645137E-01
       -1   -1    0    0    0  501  0.00000000000E+00  0.00000000000E+00  0.59848920043E+03  0.59848920045E+03  0.50400001928E-02 0. -1.
        1   -1    0    0  501    0  0.00000000000E+00  0.00000000000E+00 -0.15393141368E+04  0.15393141368E+04  0.50400001928E-02 0.  1.
    10030    2    1    2    0    0  0.00000000000E+00  0.00000000000E+00 -0.94082493638E+03  0.21378033373E+04  0.19196488085E+04 0.  0.
        4    1    3    3  502    0  0.92066400748E+03  0.90784365317E+02 -0.75520312564E+03  0.11942350646E+04  0.12699999809E+01 0.  1.
       -4    1    3    3    0  502 -0.92066400748E+03 -0.90784365317E+02 -0.18562181074E+03  0.94356827266E+03  0.12699999809E+01 0. -1.
</event>
<event>
 5   0  0.2595012E-04  0.1901837E+04  0.7818609E-02  0.8653942E-01
       -2   -1    0    0    0  501  0.00000000000E+00  0.00000000000E+00  0.61876175881E+03  0.61876175882E+03  0.25500000920E-02 0.  1.
        2   -1    0    0  501    0  0.00000000000E+00  0.00000000000E+00 -0.14613804024E+04  0.14613804024E+04  0.25500000920E-02 0. -1.
    10030    2    1    2    0    0  0.00000000000E+00  0.00000000000E+00 -0.84261864356E+03  0.20801421612E+04  0.19018373307E+04 0.  0.
        1    1    3    3  502    0  0.54548123419E-01 -0.14404815808E+03 -0.14493778134E+04  0.14565184245E+04  0.50400001928E-02 0. -1.
       -1    1    3    3    0  502 -0.54548123419E-01  0.14404815808E+03  0.60675916983E+03  0.62362373673E+03  0.50400001928E-02 0.  1.
</event>
<event>
 5   0  0.9266125E-05  0.1916150E+04  0.7818609E-02  0.8646859E-01
        4   -1    0    0  501    0  0.00000000000E+00  0.00000000000E+00  0.13206662058E+04  0.13206668165E+04  0.12699999809E+01 0. -1.
       -4   -1    0    0    0  501  0.00000000000E+00  0.00000000000E+00 -0.69503214789E+03  0.69503330820E+03  0.12699999809E+01 0.  1.
    10030    2    1    2    0    0  0.00000000000E+00  0.00000000000E+00  0.62563405793E+03  0.20157001247E+04  0.19161495292E+04 0.  0.
        1    1    3    3  502    0  0.25315409411E+03 -0.72595362482E+01 -0.65918316153E+03  0.70616013532E+03  0.50400001928E-02 0.  1.
       -1    1    3    3    0  502 -0.25315409411E+03  0.72595362482E+01  0.12848172195E+04  0.13095399893E+04  0.50400001928E-02 0. -1.
</event>
<event>
 5   0  0.2608744E-04  0.1886033E+04  0.7818609E-02  0.8661840E-01
       -2   -1    0    0    0  501  0.00000000000E+00  0.00000000000E+00  0.94583501626E+03  0.94583501626E+03  0.25500000920E-02 0.  1.
        2   -1    0    0  501    0  0.00000000000E+00  0.00000000000E+00 -0.94020664935E+03  0.94020664936E+03  0.25500000920E-02 0. -1.
    10030    2    1    2    0    0  0.00000000000E+00  0.00000000000E+00  0.56283669029E+01  0.18860416656E+04  0.18860332675E+04 0.  0.
        2    1    3    3  502    0 -0.20572551579E+03 -0.39137652571E+03  0.83575354339E+03  0.94550650871E+03  0.25500000920E-02 0.  1.
       -2    1    3    3    0  502  0.20572551579E+03  0.39137652571E+03 -0.83012517649E+03  0.94053515690E+03  0.25500000920E-02 0. -1.
</event>
<event>
 5   0  0.2651828E-04  0.1847500E+04  0.7818609E-02  0.8681440E-01
       -2   -1    0    0    0  501  0.00000000000E+00  0.00000000000E+00  0.78252760113E+03  0.78252760114E+03  0.25500000920E-02 0. -1.
        2   -1    0    0  501    0  0.00000000000E+00  0.00000000000E+00 -0.10904584148E+04  0.10904584149E+04  0.25500000920E-02 0.  1.
    10030    2    1    2    0    0  0.00000000000E+00  0.00000000000E+00 -0.30793081372E+03  0.18729860160E+04  0.18474997240E+04 0.  0.
        3    1    3    3  502    0 -0.20028356179E+03 -0.33826918086E+03  0.69349340561E+03  0.79716538916E+03  0.10100000352E+00 0. -1.
       -3    1    3    3    0  502  0.20028356179E+03  0.33826918086E+03 -0.10014242193E+04  0.10758206268E+04  0.10100000352E+00 0.  1.
</event>
<event>
 5   0  0.1255141E-04  0.1896339E+04  0.7818609E-02  0.8656681E-01
        1   -1    0    0  501    0  0.00000000000E+00  0.00000000000E+00  0.89234412284E+03  0.89234412285E+03  0.50400001928E-02 0.  1.
       -1   -1    0    0    0  501  0.00000000000E+00  0.00000000000E+00 -0.10074870882E+04  0.10074870882E+04  0.50400001928E-02 0. -1.
    10030    2    1    2    0    0  0.00000000000E+00  0.00000000000E+00 -0.11514296531E+03  0.18998312110E+04  0.18963387693E+04 0.  0.
        2    1    3    3  502    0  0.60127920848E+03 -0.21744526344E+03 -0.75900809205E+03  0.99242753537E+03  0.25500000920E-02 0. -1.
       -2    1    3    3    0  502 -0.60127920848E+03  0.21744526344E+03  0.64386512674E+03  0.90740367565E+03  0.25500000920E-02 0.  1.
</event>
<event>
 5   0  0.1317527E-04  0.2059387E+04  0.7818609E-02  0.8579348E-01
       -1   -1    0    0    0  501  0.00000000000E+00  0.00000000000E+00  0.57212815370E+03  0.57212815373E+03  0.50400001928E-02 0.  1.
        1   -1    0    0  501    0  0.00000000000E+00  0.00000000000E+00 -0.18532015263E+04  0.18532015263E+04  0.50400001928E-02 0. -1.
    10030    2    1    2    0    0  0.00000000000E+00  0.00000000000E+00 -0.12810733726E+04  0.24253296800E+04  0.20593870619E+04 0.  0.
        1    1    3    3  502    0 -0.50036043415E+03 -0.80247380280E+03 -0.16078823883E+03  0.95925889415E+03  0.50400001928E-02 0.  1.
       -1    1    3    3    0  502  0.50036043415E+03  0.80247380280E+03 -0.11202851338E+04  0.14660707859E+04  0.50400001928E-02 0. -1.
</event>
<event>
 5   0  0.2651828E-04  0.1848704E+04  0.7818609E-02  0.8680820E-01
       -2   -1    0    0    0  501  0.00000000000E+00  0.00000000000E+00  0.48641710479E+03  0.48641710480E+03  0.25500000920E-02 0.  1.
        2   -1    0    0  501    0  0.00000000000E+00  0.00000000000E+00 -0.17565711620E+04  0.17565711620E+04  0.25500000920E-02 0. -1.
    10030    2    1    2    0    0  0.00000000000E+00  0.00000000000E+00 -0.12701540572E+04  0.22429882668E+04  0.18487036095E+04 0.  0.
        3    1    3    3  502    0  0.37678667147E+03 -0.76704333627E+03 -0.10624923695E+04  0.13635298754E+04  0.10100000352E+00 0. -1.
       -3    1    3    3    0  502 -0.37678667147E+03  0.76704333627E+03 -0.20766168768E+03  0.87945839143E+03  0.10100000352E+00 0.  1.
</event>
<event>
 5   0  0.2541124E-04  0.1903901E+04  0.7818609E-02  0.8652917E-01
        2   -1    0    0  501    0  0.00000000000E+00  0.00000000000E+00  0.78564734682E+03  0.78564734683E+03  0.25500000920E-02 0.  1.
       -2   -1    0    0    0  501  0.00000000000E+00  0.00000000000E+00 -0.11534563768E+04  0.11534563768E+04  0.25500000920E-02 0. -1.
    10030    2    1    2    0    0  0.00000000000E+00  0.00000000000E+00 -0.36780903001E+03  0.19391037237E+04  0.19039011972E+04 0.  0.
        5    1    3    3  502    0  0.64468675427E+03 -0.50008242304E+03 -0.68336380809E+03  0.10642892582E+04  0.46999998093E+01 0. -1.
       -5    1    3    3    0  502 -0.64468675427E+03  0.50008242304E+03  0.31555477808E+03  0.87481446544E+03  0.46999998093E+01 0.  1.
</event>
<event>
 5   0  0.1239615E-04  0.1895034E+04  0.7818609E-02  0.8657332E-01
        1   -1    0    0  501    0  0.00000000000E+00  0.00000000000E+00  0.72740965729E+03  0.72740965731E+03  0.50400001928E-02 0. -1.
       -1   -1    0    0    0  501  0.00000000000E+00  0.00000000000E+00 -0.12342263231E+04  0.12342263231E+04  0.50400001928E-02 0.  1.
    10030    2    1    2    0    0  0.00000000000E+00  0.00000000000E+00 -0.50681666580E+03  0.19616359804E+04  0.18950336638E+04 0.  0.
        3    1    3    3  502    0  0.94624467206E+03 -0.48671507523E+02 -0.25997490176E+03  0.98251455703E+03  0.10100000352E+00 0. -1.
       -3    1    3    3    0  502 -0.94624467206E+03  0.48671507523E+02 -0.24684176405E+03  0.97912142338E+03  0.10100000352E+00 0.  1.
</event>
<event>
 5   0  0.1277709E-04  0.1909732E+04  0.7818609E-02  0.8650027E-01
        1   -1    0    0  501    0  0.00000000000E+00  0.00000000000E+00  0.50927619396E+03  0.50927619399E+03  0.50400001928E-02 0. -1.
       -1   -1    0    0    0  501  0.00000000000E+00  0.00000000000E+00 -0.17903225149E+04  0.17903225150E+04  0.50400001928E-02 0.  1.
    10030    2    1    2    0    0  0.00000000000E+00  0.00000000000E+00 -0.12810463210E+04  0.22995987089E+04  0.19097315376E+04 0.  0.
        4    1    3    3  502    0  0.43928975231E+03 -0.61351623790E+03  0.64072343938E+02  0.75728761961E+03  0.12699999809E+01 0. -1.
       -4    1    3    3    0  502 -0.43928975231E+03  0.61351623790E+03 -0.13451186649E+04  0.15423110893E+04  0.12699999809E+01 0.  1.
</event>
<event>
 5   0  0.1255141E-04  0.1837552E+04  0.7818609E-02  0.8686581E-01
       -1   -1    0    0    0  501  0.00000000000E+00  0.00000000000E+00  0.93189381399E+03  0.93189381401E+03  0.50400001928E-02 0.  1.
        1   -1    0    0  501    0  0.00000000000E+00  0.00000000000E+00 -0.90584278256E+03  0.90584278258E+03  0.50400001928E-02 0. -1.
    10030    2    1    2    0    0  0.00000000000E+00  0.00000000000E+00  0.26051031428E+02  0.18377365966E+04  0.18375519427E+04 0.  0.
        2    1    3    3  502    0 -0.88788656890E+03 -0.16493898502E+03 -0.15611231615E+03  0.91647066689E+03  0.25500000920E-02 0.  1.
       -2    1    3    3    0  502  0.88788656890E+03  0.16493898502E+03  0.18216334757E+03  0.92126592969E+03  0.25500000920E-02 0. -1.
</event>
<event>
 5   0  0.2562925E-04  0.1914589E+04  0.7818609E-02  0.8647628E-01
        2   -1    0    0  501    0  0.00000000000E+00  0.00000000000E+00  0.25826439566E+04  0.25826439566E+04  0.25500000920E-02 0.  1.
       -2   -1    0    0    0  501  0.00000000000E+00  0.00000000000E+00 -0.35483526763E+03  0.35483526764E+03  0.25500000920E-02 0. -1.
    10030    2    1    2    0    0  0.00000000000E+00  0.00000000000E+00  0.22278086890E+04  0.29374792242E+04  0.19145894177E+04 0.  0.
        4    1    3    3  502    0 -0.24840437707E+03 -0.88041340011E+03  0.15467155975E+04  0.17969872682E+04  0.12699999809E+01 0.  1.
       -4    1    3    3    0  502  0.24840437707E+03  0.88041340011E+03  0.68109309150E+03  0.11404919561E+04  0.12699999809E+01 0. -1.
</event>
<event>
 5   0  0.1324058E-04  0.1919859E+04  0.7818609E-02  0.8645034E-01
        1   -1    0    0  501    0  0.00000000000E+00  0.00000000000E+00  0.16676729579E+04  0.16676729579E+04  0.50400001928E-02 0.  1.
       -1   -1    0    0    0  501  0.00000000000E+00  0.00000000000E+00 -0.55254519409E+03  0.55254519411E+03  0.50400001928E-02 0. -1.
    10030    2    1    2    0    0  0.00000000000E+00  0.00000000000E+00  0.11151277638E+04  0.22202181520E+04  0.19198590347E+04 0.  0.
        5    1    3    3  502    0 -0.91867752902E+03  0.27801349120E+03  0.57319454087E+03  0.11179597378E+04  0.46999998093E+01 0. -1.
       -5    1    3    3    0  502  0.91867752902E+03 -0.27801349120E+03  0.54193322295E+03  0.11022584142E+04  0.46999998093E+01 0.  1.
</event>
<event>
 5   0  0.2541124E-04  0.1742629E+04  0.7818609E-02  0.8737418E-01
       -2   -1    0    0    0  501  0.00000000000E+00  0.00000000000E+00  0.62261045051E+03  0.62261045052E+03  0.25500000920E-02 0.  1.
        2   -1    0    0  501    0  0.00000000000E+00  0.00000000000E+00 -0.12193648461E+04  0.12193648461E+04  0.25500000920E-02 0. -1.
    10030    2    1    2    0    0  0.00000000000E+00  0.00000000000E+00 -0.59675439563E+03  0.18419752967E+04  0.17426293883E+04 0.  0.
        5    1    3    3  502    0  0.42203798465E+03  0.54932261953E+03  0.26023571971E+03  0.74001089224E+03  0.46999998093E+01 0.  1.
       -5    1    3    3    0  502 -0.42203798465E+03 -0.54932261953E+03 -0.85699011534E+03  0.11019644044E+04  0.46999998093E+01 0. -1.
</event>
<event>
 5   0  0.1255141E-04  0.1925654E+04  0.7818609E-02  0.8642191E-01
       -1   -1    0    0    0  501  0.00000000000E+00  0.00000000000E+00  0.42415764103E+03  0.42415764106E+03  0.50400001928E-02 0.  1.
        1   -1    0    0  501    0  0.00000000000E+00  0.00000000000E+00 -0.21855927663E+04  0.21855927664E+04  0.50400001928E-02 0. -1.
    10030    2    1    2    0    0  0.00000000000E+00  0.00000000000E+00 -0.17614351253E+04  0.26097504074E+04  0.19256540417E+04 0.  0.
        2    1    3    3  502    0 -0.23780905102E+03  0.39684157042E+03  0.26364942195E+03  0.53249168488E+03  0.25500000920E-02 0.  1.
       -2    1    3    3    0  502  0.23780905102E+03 -0.39684157042E+03 -0.20250845473E+04  0.20772587225E+04  0.25500000920E-02 0. -1.
</event>
<event>
 5   0  0.2595012E-04  0.1963320E+04  0.7818609E-02  0.8623964E-01
       -2   -1    0    0    0  501  0.00000000000E+00  0.00000000000E+00  0.96287898113E+03  0.96287898114E+03  0.25500000920E-02 0.  1.
        2   -1    0    0  501    0  0.00000000000E+00  0.00000000000E+00 -0.10008073651E+04  0.10008073651E+04  0.25500000920E-02 0. -1.
    10030    2    1    2    0    0  0.00000000000E+00  0.00000000000E+00 -0.37928383926E+02  0.19636863462E+04  0.19633200208E+04 0.  0.
        1    1    3    3  502    0  0.74319713662E+03  0.21739311295E+03  0.58451778227E+03  0.97018698572E+03  0.50400001928E-02 0. -1.
       -1    1    3    3    0  502 -0.74319713662E+03 -0.21739311295E+03 -0.62244616619E+03  0.99349936048E+03  0.50400001928E-02 0.  1.
</event>
<event>
 5   0  0.1324058E-04  0.1916362E+04  0.7818609E-02  0.8646755E-01
        1   -1    0    0  501    0  0.00000000000E+00  0.00000000000E+00  0.12250849799E+04  0.12250849799E+04  0.50400001928E-02 0. -1.
       -1   -1    0    0    0  501  0.00000000000E+00  0.00000000000E+00 -0.74942613486E+03  0.74942613488E+03  0.50400001928E-02 0.  1.
    10030    2    1    2    0    0  0.00000000000E+00  0.00000000000E+00  0.47565884506E+03  0.19745111148E+04  0.19163618671E+04 0.  0.
        5    1    3    3  502    0 -0.12700590186E+03 -0.94797462292E+03  0.29703811881E+03  0.10015189059E+04  0.46999998093E+01 0. -1.
       -5    1    3    3    0  502  0.12700590186E+03  0.94797462292E+03  0.17862072626E+03  0.97299220893E+03  0.46999998093E+01 0.  1.
</event>
<event>
 5   0  0.1255141E-04  0.1927544E+04  0.7818609E-02  0.8641266E-01
        1   -1    0    0  501    0  0.00000000000E+00  0.00000000000E+00  0.12056730863E+04  0.12056730863E+04  0.50400001928E-02 0.  1.
       -1   -1    0    0    0  501  0.00000000000E+00  0.00000000000E+00 -0.77040481473E+03  0.77040481474E+03  0.50400001928E-02 0. -1.
    10030    2    1    2    0    0  0.00000000000E+00  0.00000000000E+00  0.43526827157E+03  0.19760779011E+04  0.19275438783E+04 0.  0.
        2    1    3    3  502    0 -0.16710043229E+03 -0.92803509946E+03  0.13408118683E+02  0.94305433457E+03  0.25500000920E-02 0. -1.
       -2    1    3    3    0  502  0.16710043229E+03  0.92803509946E+03  0.42186015289E+03  0.10330235665E+04  0.25500000920E-02 0.  1.
</event>
<event>
 5   0  0.2608744E-04  0.1907722E+04  0.7818609E-02  0.8651022E-01
        2   -1    0    0  501    0  0.00000000000E+00  0.00000000000E+00  0.16580606747E+04  0.16580606747E+04  0.25500000920E-02 0. -1.
       -2   -1    0    0    0  501  0.00000000000E+00  0.00000000000E+00 -0.54874392347E+03  0.54874392347E+03  0.25500000920E-02 0.  1.
    10030    2    1    2    0    0  0.00000000000E+00  0.00000000000E+00  0.11093167512E+04  0.22068045981E+04  0.19077219084E+04 0.  0.
        2    1    3    3  502    0 -0.84095755193E+02  0.76328255869E+03  0.12092113498E+04  0.14324330521E+04  0.25500000920E-02 0. -1.
       -2    1    3    3    0  502  0.84095755193E+02 -0.76328255869E+03 -0.99894598555E+02  0.77437154601E+03  0.25500000920E-02 0.  1.
</event>
<event>
 5   0  0.2608744E-04  0.1925594E+04  0.7818609E-02  0.8642220E-01
       -2   -1    0    0    0  501  0.00000000000E+00  0.00000000000E+00  0.92881802904E+03  0.92881802904E+03  0.25500000920E-02 0.  1.
        2   -1    0    0  501    0  0.00000000000E+00  0.00000000000E+00 -0.99801899157E+03  0.99801899157E+03  0.25500000920E-02 0. -1.
    10030    2    1    2    0    0  0.00000000000E+00  0.00000000000E+00 -0.69200962527E+02  0.19268370206E+04  0.19255939683E+04 0.  0.
        2    1    3    3  502    0 -0.94187847979E+02  0.42861476338E+02 -0.99243811842E+03  0.99781855853E+03  0.25500000920E-02 0. -1.
       -2    1    3    3    0  502  0.94187847979E+02 -0.42861476338E+02  0.92323715589E+03  0.92901846208E+03  0.25500000920E-02 0.  1.
</event>
<event>
 5   0  0.2562925E-04  0.1911390E+04  0.7818609E-02  0.8649207E-01
       -2   -1    0    0    0  501  0.00000000000E+00  0.00000000000E+00  0.60308694257E+03  0.60308694258E+03  0.25500000920E-02 0. -1.
        2   -1    0    0  501    0  0.00000000000E+00  0.00000000000E+00 -0.15144636365E+04  0.15144636365E+04  0.25500000920E-02 0.  1.
    10030    2    1    2    0    0  0.00000000000E+00  0.00000000000E+00 -0.91137669391E+03  0.21175505791E+04  0.19113903256E+04 0.  0.
        4    1    3    3  502    0 -0.88707090323E+01  0.95066715605E+03 -0.56369691034E+03  0.11052613043E+04  0.12699999809E+01 0.  1.
       -4    1    3    3    0  502  0.88707090323E+01 -0.95066715605E+03 -0.34767978357E+03  0.10122892748E+04  0.12699999809E+01 0. -1.
</event>
<event>
 5   0  0.2608744E-04  0.1897569E+04  0.7818609E-02  0.8656067E-01
       -2   -1    0    0    0  501  0.00000000000E+00  0.00000000000E+00  0.80053622746E+03  0.80053622746E+03  0.25500000920E-02 0. -1.
        2   -1    0    0  501    0  0.00000000000E+00  0.00000000000E+00 -0.11244861317E+04  0.11244861317E+04  0.25500000920E-02 0.  1.
    10030    2    1    2    0    0  0.00000000000E+00  0.00000000000E+00 -0.32394990420E+03  0.19250223591E+04  0.18975688506E+04 0.  0.
        2    1    3    3  502    0  0.40623104642E+03 -0.13606216605E+03 -0.10207776439E+04  0.11070336826E+04  0.25500000920E-02 0.  1.
       -2    1    3    3    0  502 -0.40623104642E+03  0.13606216605E+03  0.69682773971E+03  0.81798867653E+03  0.25500000920E-02 0. -1.
</event>
<event>
 5   0  0.2608744E-04  0.1894120E+04  0.7818609E-02  0.8657789E-01
        2   -1    0    0  501    0  0.00000000000E+00  0.00000000000E+00  0.11648495338E+04  0.11648495338E+04  0.25500000920E-02 0. -1.
       -2   -1    0    0    0  501  0.00000000000E+00  0.00000000000E+00 -0.76999015035E+03  0.76999015035E+03  0.25500000920E-02 0.  1.
    10030    2    1    2    0    0  0.00000000000E+00  0.00000000000E+00  0.39485938343E+03  0.19348396841E+04  0.18941200254E+04 0.  0.
        2    1    3    3  502    0 -0.11075840893E+03  0.84073484529E+03 -0.23332299206E+03  0.87951243530E+03  0.25500000920E-02 0.  1.
       -2    1    3    3    0  502  0.11075840893E+03 -0.84073484529E+03  0.62818237548E+03  0.10553272488E+04  0.25500000920E-02 0. -1.
</event>
<event>
 5   0  0.2651828E-04  0.1915778E+04  0.7818609E-02  0.8647042E-01
       -2   -1    0    0    0  501  0.00000000000E+00  0.00000000000E+00  0.43599722304E+03  0.43599722305E+03  0.25500000920E-02 0. -1.
        2   -1    0    0  501    0  0.00000000000E+00  0.00000000000E+00 -0.21044895884E+04  0.21044895884E+04  0.25500000920E-02 0.  1.
    10030    2    1    2    0    0  0.00000000000E+00  0.00000000000E+00 -0.16684923653E+04  0.25404868114E+04  0.19157782925E+04 0.  0.
        3    1    3    3  502    0 -0.55825348140E+03 -0.77751010459E+03 -0.78493621256E+03  0.12378585461E+04  0.10100000352E+00 0. -1.
       -3    1    3    3    0  502  0.55825348140E+03  0.77751010459E+03 -0.88355615277E+03  0.13026282653E+04  0.10100000352E+00 0.  1.
</event>
<event>
 5   0  0.1277709E-04  0.1905276E+04  0.7818609E-02  0.8652234E-01
        1   -1    0    0  501    0  0.00000000000E+00  0.00000000000E+00  0.16670677423E+04  0.16670677423E+04  0.50400001928E-02 0.  1.
       -1   -1    0    0    0  501  0.00000000000E+00  0.00000000000E+00 -0.54438069963E+03  0.54438069965E+03  0.50400001928E-02 0. -1.
    10030    2    1    2    0    0  0.00000000000E+00  0.00000000000E+00  0.11226870426E+04  0.22114484419E+04  0.19052763620E+04 0.  0.
        4    1    3    3  502    0 -0.51855139389E+03 -0.65047122711E+03  0.11001739023E+04  0.13792724871E+04  0.12699999809E+01 0.  1.
       -4    1    3    3    0  502  0.51855139389E+03  0.65047122711E+03  0.22513140311E+02  0.83217595482E+03  0.12699999809E+01 0. -1.
</event>
<event>
 5   0  0.1317527E-04  0.1908233E+04  0.7818609E-02  0.8650769E-01
       -1   -1    0    0    0  501  0.00000000000E+00  0.00000000000E+00  0.60784905911E+03  0.60784905913E+03  0.50400001928E-02 0.  1.
        1   -1    0    0  501    0  0.00000000000E+00  0.00000000000E+00 -0.14976382499E+04  0.14976382499E+04  0.50400001928E-02 0. -1.
    10030    2    1    2    0    0  0.00000000000E+00  0.00000000000E+00 -0.88978919081E+03  0.21054873091E+04  0.19082326914E+04 0.  0.
        1    1    3    3  502    0  0.32372773675E+03 -0.89022259232E+03 -0.57090165795E+03  0.11059948528E+04  0.50400001928E-02 0. -1.
       -1    1    3    3    0  502 -0.32372773675E+03  0.89022259232E+03 -0.31888753286E+03  0.99949245623E+03  0.50400001928E-02 0.  1.
</event>
<event>
 5   0  0.1239615E-04  0.1831149E+04  0.7818609E-02  0.8689908E-01
        1   -1    0    0  501    0  0.00000000000E+00  0.00000000000E+00  0.85709301249E+03  0.85709301251E+03  0.50400001928E-02 0.  1.
       -1   -1    0    0    0  501  0.00000000000E+00  0.00000000000E+00 -0.97804672536E+03  0.97804672538E+03  0.50400001928E-02 0. -1.
    10030    2    1    2    0    0  0.00000000000E+00  0.00000000000E+00 -0.12095371287E+03  0.18351397379E+04  0.18311493814E+04 0.  0.
        3    1    3    3  502    0  0.73941939032E+03  0.50625433078E+03 -0.24861586603E+03  0.92997007546E+03  0.10100000352E+00 0. -1.
       -3    1    3    3    0  502 -0.73941939032E+03 -0.50625433078E+03  0.12766215316E+03  0.90516966242E+03  0.10100000352E+00 0.  1.
</event>
<event>
 5   0  0.1255141E-04  0.1905136E+04  0.7818609E-02  0.8652304E-01
        1   -1    0    0  501    0  0.00000000000E+00  0.00000000000E+00  0.18141345469E+04  0.18141345469E+04  0.50400001928E-02 0.  1.
       -1   -1    0    0    0  501  0.00000000000E+00  0.00000000000E+00 -0.50017571079E+03  0.50017571082E+03  0.50400001928E-02 0. -1.
    10030    2    1    2    0    0  0.00000000000E+00  0.00000000000E+00  0.13139588361E+04  0.23143102577E+04  0.19051362539E+04 0.  0.
        2    1    3    3  502    0 -0.23797437731E+03 -0.38684382397E+03  0.16741350495E+04  0.17346492765E+04  0.25500000920E-02 0.  1.
       -2    1    3    3    0  502  0.23797437731E+03  0.38684382397E+03 -0.36017621344E+03  0.57966098121E+03  0.25500000920E-02 0. -1.
</event>
<event>
 5   0  0.1239615E-04  0.1893861E+04  0.7818609E-02  0.8657918E-01
       -1   -1    0    0    0  501  0.00000000000E+00  0.00000000000E+00  0.72696936265E+03  0.72696936266E+03  0.50400001928E-02 0.  1.
        1   -1    0    0  501    0  0.00000000000E+00  0.00000000000E+00 -0.12334460443E+04  0.12334460443E+04  0.50400001928E-02 0. -1.
    10030    2    1    2    0    0  0.00000000000E+00  0.00000000000E+00 -0.50647668167E+03  0.19604154070E+04  0.18938611192E+04 0.  0.
        3    1    3    3  502    0  0.54208940210E+03  0.11189666151E+03 -0.10485453055E+04  0.11856766214E+04  0.10100000352E+00 0. -1.
       -3    1    3    3    0  502 -0.54208940210E+03 -0.11189666151E+03  0.54206862382E+03  0.77473878557E+03  0.10100000352E+00 0.  1.
</event>
<event>
 5   0  0.2562925E-04  0.1964223E+04  0.7818609E-02  0.8623533E-01
        2   -1    0    0  501    0  0.00000000000E+00  0.00000000000E+00  0.65968711082E+03  0.65968711082E+03  0.25500000920E-02 0.  1.
       -2   -1    0    0    0  501  0.00000000000E+00  0.00000000000E+00 -0.14621216059E+04  0.14621216059E+04  0.25500000920E-02 0. -1.
    10030    2    1    2    0    0  0.00000000000E+00  0.00000000000E+00 -0.80243449509E+03  0.21218087167E+04  0.19642227754E+04 0.  0.
        4    1    3    3  502    0  0.46331371957E+03 -0.46091923326E+03  0.39069756971E+03  0.76141470054E+03  0.12699999809E+01 0.  1.
       -4    1    3    3    0  502 -0.46331371957E+03  0.46091923326E+03 -0.11931320648E+04  0.13603940162E+04  0.12699999809E+01 0. -1.
</event>
<event>
 5   0  0.2562925E-04  0.1811570E+04  0.7818609E-02  0.8700171E-01
        2   -1    0    0  501    0  0.00000000000E+00  0.00000000000E+00  0.10765003659E+04  0.10765003659E+04  0.25500000920E-02 0. -1.
       -2   -1    0    0    0  501  0.00000000000E+00  0.00000000000E+00 -0.76214271659E+03  0.76214271660E+03  0.25500000920E-02 0.  1.
    10030    2    1    2    0    0  0.00000000000E+00  0.00000000000E+00  0.31435764930E+03  0.18386430825E+04  0.18115704936E+04 0.  0.
        4    1    3    3  502    0 -0.42392650333E+03 -0.29503307579E+03 -0.59804276743E+03  0.79019931701E+03  0.12699999809E+01 0.  1.
       -4    1    3    3    0  502  0.42392650333E+03  0.29503307579E+03  0.91240041673E+03  0.10484437655E+04  0.12699999809E+01 0. -1.
</event>
<event>
 5   0  0.2608744E-04  0.1885019E+04  0.7818609E-02  0.8662350E-01
       -2   -1    0    0    0  501  0.00000000000E+00  0.00000000000E+00  0.66318220889E+03  0.66318220889E+03  0.25500000920E-02 0. -1.
        2   -1    0    0  501    0  0.00000000000E+00  0.00000000000E+00 -0.13394868091E+04  0.13394868092E+04  0.25500000920E-02 0.  1.
    10030    2    1    2    0    0  0.00000000000E+00  0.00000000000E+00 -0.67630460026E+03  0.20026690180E+04  0.18850186427E+04 0.  0.
        2    1    3    3  502    0 -0.37847602273E+03 -0.13704240855E+03  0.56727019914E+03  0.69557185133E+03  0.25500000920E-02 0. -1.
       -2    1    3    3    0  502  0.37847602273E+03  0.13704240855E+03 -0.12435747994E+04  0.13070971667E+04  0.25500000920E-02 0.  1.
</event>
<event>
 5   0  0.9266125E-05  0.1910420E+04  0.7818609E-02  0.8649687E-01
        3   -1    0    0  501    0  0.00000000000E+00  0.00000000000E+00  0.77688911701E+03  0.77688912357E+03  0.10100000352E+00 0.  1.
       -3   -1    0    0    0  501  0.00000000000E+00  0.00000000000E+00 -0.11744609896E+04  0.11744609940E+04  0.10100000352E+00 0. -1.
    10030    2    1    2    0    0  0.00000000000E+00  0.00000000000E+00 -0.39757187261E+03  0.19513501175E+04  0.19104198197E+04 0.  0.
        3    1    3    3  502    0  0.47545889872E+03  0.70916026679E+01  0.64740422822E+03  0.80327062695E+03  0.10100000352E+00 0.  1.
       -3    1    3    3    0  502 -0.47545889872E+03 -0.70916026679E+01 -0.10449761008E+04  0.11480794906E+04  0.10100000352E+00 0. -1.
</event>
<event>
 5   0  0.1277709E-04  0.1885859E+04  0.7818609E-02  0.8661927E-01
       -1   -1    0    0    0  501  0.00000000000E+00  0.00000000000E+00  0.70910985659E+03  0.70910985661E+03  0.50400001928E-02 0. -1.
        1   -1    0    0  501    0  0.00000000000E+00  0.00000000000E+00 -0.12538486587E+04  0.12538486588E+04  0.50400001928E-02 0.  1.
    10030    2    1    2    0    0  0.00000000000E+00  0.00000000000E+00 -0.54473880216E+03  0.19629585154E+04  0.18858594249E+04 0.  0.
        4    1    3    3  502    0  0.58906021944E+03 -0.73628841986E+03 -0.27080794560E+03  0.98104593962E+03  0.12699999809E+01 0. -1.
       -4    1    3    3    0  502 -0.58906021944E+03  0.73628841986E+03 -0.27393085656E+03  0.98191257575E+03  0.12699999809E+01 0.  1.
</event>
<event>
 5   0  0.1239615E-04  0.1894825E+04  0.7818609E-02  0.8657437E-01
        1   -1    0    0  501    0  0.00000000000E+00  0.00000000000E+00  0.90870033152E+03  0.90870033153E+03  0.50400001928E-02 0. -1.
       -1   -1    0    0    0  501  0.00000000000E+00  0.00000000000E+00 -0.98777344854E+03  0.98777344856E+03  0.50400001928E-02 0.  1.
    10030    2    1    2    0    0  0.00000000000E+00  0.00000000000E+00 -0.79073117024E+02  0.18964737801E+04  0.18948245937E+04 0.  0.
        3    1    3    3  502    0 -0.42092531543E+03 -0.27320295254E+03  0.76476231491E+03  0.91470180002E+03  0.10100000352E+00 0. -1.
       -3    1    3    3    0  502  0.42092531543E+03  0.27320295254E+03 -0.84383543194E+03  0.98177198007E+03  0.10100000352E+00 0.  1.
</event>
<event>
 5   0  0.1277709E-04  0.1930827E+04  0.7818609E-02  0.8639662E-01
       -1   -1    0    0    0  501  0.00000000000E+00  0.00000000000E+00  0.85656775430E+03  0.85656775432E+03  0.50400001928E-02 0. -1.
        1   -1    0    0  501    0  0.00000000000E+00  0.00000000000E+00 -0.10880900169E+04  0.10880900169E+04  0.50400001928E-02 0.  1.
    10030    2    1    2    0    0  0.00000000000E+00  0.00000000000E+00 -0.23152226256E+03  0.19446577712E+04  0.19308265818E+04 0.  0.
        4    1    3    3  502    0 -0.29115652744E+03  0.66341376015E+03 -0.75840022814E+03  0.10488386242E+04  0.12699999809E+01 0.  1.
       -4    1    3    3    0  502  0.29115652744E+03 -0.66341376015E+03  0.52687796558E+03  0.89581914701E+03  0.12699999809E+01 0. -1.
</event>
<event>
 5   0  0.1277709E-04  0.1873556E+04  0.7818609E-02  0.8668132E-01
        1   -1    0    0  501    0  0.00000000000E+00  0.00000000000E+00  0.12737104787E+04  0.12737104787E+04  0.50400001928E-02 0. -1.
       -1   -1    0    0    0  501  0.00000000000E+00  0.00000000000E+00 -0.68897372986E+03  0.68897372987E+03  0.50400001928E-02 0.  1.
    10030    2    1    2    0    0  0.00000000000E+00  0.00000000000E+00  0.58473674882E+03  0.19626842086E+04  0.18735560406E+04 0.  0.
        4    1    3    3  502    0  0.54127851677E+03  0.67046235041E+03 -0.92604233549E+02  0.86664834449E+03  0.12699999809E+01 0.  1.
       -4    1    3    3    0  502 -0.54127851677E+03 -0.67046235041E+03  0.67734098237E+03  0.10960358641E+04  0.12699999809E+01 0. -1.
</event>
<event>
 5   0  0.2595012E-04  0.1876761E+04  0.7818609E-02  0.8666511E-01
       -2   -1    0    0    0  501  0.00000000000E+00  0.00000000000E+00  0.86114779752E+03  0.86114779752E+03  0.25500000920E-02 0. -1.
        2   -1    0    0  501    0  0.00000000000E+00  0.00000000000E+00 -0.10225394606E+04  0.10225394606E+04  0.25500000920E-02 0.  1.
    10030    2    1    2    0    0  0.00000000000E+00  0.00000000000E+00 -0.16139166305E+03  0.18836872581E+04  0.18767606180E+04 0.  0.
        1    1    3    3  502    0  0.91829859219E+03  0.12404618600E+03  0.67829521659E+02  0.92911818662E+03  0.50400001928E-02 0. -1.
       -1    1    3    3    0  502 -0.91829859219E+03 -0.12404618600E+03 -0.22922118471E+03  0.95456907148E+03  0.50400001928E-02 0.  1.
</event>
<event>
 5   0  0.2608744E-04  0.1595239E+04  0.7818609E-02  0.8823478E-01
        2   -1    0    0  501    0  0.00000000000E+00  0.00000000000E+00  0.11895818316E+04  0.11895818316E+04  0.25500000920E-02 0. -1.
       -2   -1    0    0    0  501  0.00000000000E+00  0.00000000000E+00 -0.53480718373E+03  0.53480718373E+03  0.25500000920E-02 0.  1.
    10030    2    1    2    0    0  0.00000000000E+00  0.00000000000E+00  0.65477464786E+03  0.17243890153E+04  0.15952390531E+04 0.  0.
        2    1    3    3  502    0 -0.10280906658E+03  0.27810630962E+03 -0.47302228683E+03  0.55826777398E+03  0.25500000920E-02 0.  1.
       -2    1    3    3    0  502  0.10280906658E+03 -0.27810630962E+03  0.11277969347E+04  0.11661212413E+04  0.25500000920E-02 0. -1.
</event>
<event>
 5   0  0.2651828E-04  0.1958489E+04  0.7818609E-02  0.8626278E-01
       -2   -1    0    0    0  501  0.00000000000E+00  0.00000000000E+00  0.46120101927E+03  0.46120101928E+03  0.25500000920E-02 0.  1.
        2   -1    0    0  501    0  0.00000000000E+00  0.00000000000E+00 -0.20791802102E+04  0.20791802102E+04  0.25500000920E-02 0. -1.
    10030    2    1    2    0    0  0.00000000000E+00  0.00000000000E+00 -0.16179791909E+04  0.25403812295E+04  0.19584892465E+04 0.  0.
        3    1    3    3  502    0 -0.22827806585E+03  0.18893900737E+03 -0.20196281545E+04  0.20412512625E+04  0.10100000352E+00 0. -1.
       -3    1    3    3    0  502  0.22827806585E+03 -0.18893900737E+03  0.40164896356E+03  0.49912996703E+03  0.10100000352E+00 0.  1.
</event>
<event>
 5   0  0.2541124E-04  0.1878703E+04  0.7818609E-02  0.8665531E-01
        2   -1    0    0  501    0  0.00000000000E+00  0.00000000000E+00  0.16808486790E+04  0.16808486790E+04  0.25500000920E-02 0.  1.
       -2   -1    0    0    0  501  0.00000000000E+00  0.00000000000E+00 -0.52496162298E+03  0.52496162298E+03  0.25500000920E-02 0. -1.
    10030    2    1    2    0    0  0.00000000000E+00  0.00000000000E+00  0.11558870560E+04  0.22058103020E+04  0.18787027977E+04 0.  0.
        5    1    3    3  502    0  0.35122024994E+03  0.47281742613E+03 -0.28120512699E+03  0.65269471874E+03  0.46999998093E+01 0. -1.
       -5    1    3    3    0  502 -0.35122024994E+03 -0.47281742613E+03  0.14370921830E+04  0.15531155833E+04  0.46999998093E+01 0.  1.
</event>
<event>
 5   0  0.1324058E-04  0.1850355E+04  0.7818609E-02  0.8679970E-01
       -1   -1    0    0    0  501  0.00000000000E+00  0.00000000000E+00  0.37232027740E+03  0.37232027743E+03  0.50400001928E-02 0.  1.
        1   -1    0    0  501    0  0.00000000000E+00  0.00000000000E+00 -0.22989709542E+04  0.22989709542E+04  0.50400001928E-02 0. -1.
    10030    2    1    2    0    0  0.00000000000E+00  0.00000000000E+00 -0.19266506768E+04  0.26712912316E+04  0.18503551048E+04 0.  0.
        5    1    3    3  502    0  0.22479486763E+03  0.21375537985E+03  0.29498948007E+03  0.42809459033E+03  0.46999998093E+01 0.  1.
       -5    1    3    3    0  502 -0.22479486763E+03 -0.21375537985E+03 -0.22216401569E+04  0.22431966413E+04  0.46999998093E+01 0. -1.
</event>
<event>
 5   0  0.1255141E-04  0.1855119E+04  0.7818609E-02  0.8677525E-01
        1   -1    0    0  501    0  0.00000000000E+00  0.00000000000E+00  0.12826024060E+04  0.12826024060E+04  0.50400001928E-02 0. -1.
       -1   -1    0    0    0  501  0.00000000000E+00  0.00000000000E+00 -0.67079755645E+03  0.67079755647E+03  0.50400001928E-02 0.  1.
    10030    2    1    2    0    0  0.00000000000E+00  0.00000000000E+00  0.61180484958E+03  0.19533999625E+04  0.18551189287E+04 0.  0.
        2    1    3    3  502    0 -0.80029391002E+03  0.19233819422E+03  0.75623039929E+03  0.11177426986E+04  0.25500000920E-02 0. -1.
       -2    1    3    3    0  502  0.80029391002E+03 -0.19233819422E+03 -0.14442554971E+03  0.83565726395E+03  0.25500000920E-02 0.  1.
</event>
<event>
 5   0  0.1324058E-04  0.1618209E+04  0.7818609E-02  0.8809439E-01
        1   -1    0    0  501    0  0.00000000000E+00  0.00000000000E+00  0.63046114303E+03  0.63046114305E+03  0.50400001928E-02 0.  1.
       -1   -1    0    0    0  501  0.00000000000E+00  0.00000000000E+00 -0.10383676107E+04  0.10383676107E+04  0.50400001928E-02 0. -1.
    10030    2    1    2    0    0  0.00000000000E+00  0.00000000000E+00 -0.40790646766E+03  0.16688287537E+04  0.16182094188E+04 0.  0.
        5    1    3    3  502    0  0.57660028364E+02 -0.11119839014E+03  0.62038720561E+03  0.63292348331E+03  0.46999998093E+01 0.  1.
       -5    1    3    3    0  502 -0.57660028364E+02  0.11119839014E+03 -0.10282936733E+04  0.10359052704E+04  0.46999998093E+01 0. -1.
</event>
<event>
 5   0  0.2608744E-04  0.1894141E+04  0.7818609E-02  0.8657778E-01
        2   -1    0    0  501    0  0.00000000000E+00  0.00000000000E+00  0.85549198029E+03  0.85549198030E+03  0.25500000920E-02 0.  1.
       -2   -1    0    0    0  501  0.00000000000E+00  0.00000000000E+00 -0.10484525435E+04  0.10484525435E+04  0.25500000920E-02 0. -1.
    10030    2    1    2    0    0  0.00000000000E+00  0.00000000000E+00 -0.19296056316E+03  0.19039445238E+04  0.18941412224E+04 0.  0.
        2    1    3    3  502    0 -0.71022275348E+03  0.36963129692E+03  0.41200256025E+03  0.90043865137E+03  0.25500000920E-02 0.  1.
       -2    1    3    3    0  502  0.71022275348E+03 -0.36963129692E+03 -0.60496312341E+03  0.10035058724E+04  0.25500000920E-02 0. -1.
</event>
<event>
 5   0  0.2595012E-04  0.1958934E+04  0.7818609E-02  0.8626065E-01
       -2   -1    0    0    0  501  0.00000000000E+00  0.00000000000E+00  0.10879124081E+04  0.10879124081E+04  0.25500000920E-02 0. -1.
        2   -1    0    0  501    0  0.00000000000E+00  0.00000000000E+00 -0.88183200626E+03  0.88183200626E+03  0.25500000920E-02 0.  1.
    10030    2    1    2    0    0  0.00000000000E+00  0.00000000000E+00  0.20608040187E+03  0.19697444144E+04  0.19589343853E+04 0.  0.
        1    1    3    3  502    0 -0.73687839234E+03  0.62108963219E+03  0.27897397230E+03  0.10032789112E+04  0.50400001928E-02 0. -1.
       -1    1    3    3    0  502  0.73687839234E+03 -0.62108963219E+03 -0.72893570431E+02  0.96646550324E+03  0.50400001928E-02 0.  1.
</event>
<event>
 5   0  0.2595012E-04  0.1895890E+04  0.7818609E-02  0.8656905E-01
        2   -1    0    0  501    0  0.00000000000E+00  0.00000000000E+00  0.23628282496E+04  0.23628282496E+04  0.25500000920E-02 0. -1.
       -2   -1    0    0    0  501  0.00000000000E+00  0.00000000000E+00 -0.38030683465E+03  0.38030683465E+03  0.25500000920E-02 0.  1.
    10030    2    1    2    0    0  0.00000000000E+00  0.00000000000E+00  0.19825214150E+04  0.27431350843E+04  0.18958900099E+04 0.  0.
        1    1    3    3  502    0 -0.22344155059E+03 -0.43203761891E+03 -0.18598918895E+03  0.52074428380E+03  0.50400001928E-02 0.  1.
       -1    1    3    3    0  502  0.22344155059E+03  0.43203761891E+03  0.21685106039E+04  0.22223908005E+04  0.50400001928E-02 0. -1.
</event>
<event>
 5   0  0.2651828E-04  0.1910382E+04  0.7818609E-02  0.8649706E-01
       -2   -1    0    0    0  501  0.00000000000E+00  0.00000000000E+00  0.84301958291E+03  0.84301958291E+03  0.25500000920E-02 0.  1.
        2   -1    0    0  501    0  0.00000000000E+00  0.00000000000E+00 -0.10822877113E+04  0.10822877113E+04  0.25500000920E-02 0. -1.
    10030    2    1    2    0    0  0.00000000000E+00  0.00000000000E+00 -0.23926812834E+03  0.19253072942E+04  0.19103818832E+04 0.  0.
        3    1    3    3  502    0 -0.10854956716E+03  0.29044737074E+03 -0.10301565497E+04  0.10758090959E+04  0.10100000352E+00 0. -1.
       -3    1    3    3    0  502  0.10854956716E+03 -0.29044737074E+03  0.79088842134E+03  0.84949819830E+03  0.10100000352E+00 0.  1.
</event>
<event>
 5   0  0.1277709E-04  0.1859727E+04  0.7818609E-02  0.8675167E-01
       -1   -1    0    0    0  501  0.00000000000E+00  0.00000000000E+00  0.39560515290E+03  0.39560515293E+03  0.50400001928E-02 0. -1.
        1   -1    0    0  501    0  0.00000000000E+00  0.00000000000E+00 -0.21856289592E+04  0.21856289592E+04  0.50400001928E-02 0.  1.
    10030    2    1    2    0    0  0.00000000000E+00  0.00000000000E+00 -0.17900238063E+04  0.25812341121E+04  0.18597269462E+04 0.  0.
        4    1    3    3  502    0  0.10219413766E+03  0.55090713062E+03 -0.19250104240E+04  0.20048962701E+04  0.12699999809E+01 0.  1.
       -4    1    3    3    0  502 -0.10219413766E+03 -0.55090713062E+03  0.13498661769E+03  0.57633784207E+03  0.12699999809E+01 0. -1.
</event>
<event>
 5   0  0.2651828E-04  0.1940958E+04  0.7818609E-02  0.8634733E-01
        2   -1    0    0  501    0  0.00000000000E+00  0.00000000000E+00  0.91760065294E+03  0.91760065294E+03  0.25500000920E-02 0. -1.
       -2   -1    0    0    0  501  0.00000000000E+00  0.00000000000E+00 -0.10264042876E+04  0.10264042876E+04  0.25500000920E-02 0.  1.
    10030    2    1    2    0    0  0.00000000000E+00  0.00000000000E+00 -0.10880363469E+03  0.19440049406E+04  0.19409577476E+04 0.  0.
        3    1    3    3  502    0 -0.33874741600E+03 -0.75035708117E+03  0.46025670149E+03  0.94319764767E+03  0.10100000352E+00 0. -1.
       -3    1    3    3    0  502  0.33874741600E+03  0.75035708117E+03 -0.56906033618E+03  0.10008072929E+04  0.10100000352E+00 0.  1.
</event>
<event>
 5   0  0.1255141E-04  0.1928447E+04  0.7818609E-02  0.8640824E-01
       -1   -1    0    0    0  501  0.00000000000E+00  0.00000000000E+00  0.72892714552E+03  0.72892714553E+03  0.50400001928E-02 0. -1.
        1   -1    0    0  501    0  0.00000000000E+00  0.00000000000E+00 -0.12754735744E+04  0.12754735744E+04  0.50400001928E-02 0.  1.
    10030    2    1    2    0    0  0.00000000000E+00  0.00000000000E+00 -0.54654642884E+03  0.20044007199E+04  0.19284473669E+04 0.  0.
        2    1    3    3  502    0  0.41655263384E+02 -0.39472047358E+03 -0.11866253645E+04  0.12512470456E+04  0.25500000920E-02 0.  1.
       -2    1    3    3    0  502 -0.41655263384E+02  0.39472047358E+03  0.64007893571E+03  0.75315367434E+03  0.25500000920E-02 0. -1.
</event>
<event>
 5   0  0.9266125E-05  0.1855299E+04  0.7818609E-02  0.8677433E-01
       -4   -1    0    0    0  501  0.00000000000E+00  0.00000000000E+00  0.92204406646E+03  0.92204494109E+03  0.12699999809E+01 0.  1.
        4   -1    0    0  501    0  0.00000000000E+00  0.00000000000E+00 -0.93328701380E+03  0.93328787789E+03  0.12699999809E+01 0. -1.
    10030    2    1    2    0    0  0.00000000000E+00  0.00000000000E+00 -0.11242947336E+02  0.18553328190E+04  0.18552987537E+04 0.  0.
        4    1    3    3  502    0 -0.17768986889E+03 -0.63728938050E+03  0.64463681076E+03  0.92372597381E+03  0.12699999809E+01 0.  1.
       -4    1    3    3    0  502  0.17768986889E+03  0.63728938050E+03 -0.65587975810E+03  0.93160684518E+03  0.12699999809E+01 0. -1.
</event>
<event>
 5   0  0.2651828E-04  0.1905712E+04  0.7818609E-02  0.8652019E-01
       -2   -1    0    0    0  501  0.00000000000E+00  0.00000000000E+00  0.99039926100E+03  0.99039926100E+03  0.25500000920E-02 0. -1.
        2   -1    0    0  501    0  0.00000000000E+00  0.00000000000E+00 -0.91673550647E+03  0.91673550647E+03  0.25500000920E-02 0.  1.
    10030    2    1    2    0    0  0.00000000000E+00  0.00000000000E+00  0.73663754529E+02  0.19071347675E+04  0.19057115922E+04 0.  0.
        3    1    3    3  502    0  0.16244628536E+03  0.72507129955E+03  0.63378130207E+03  0.97662476628E+03  0.10100000352E+00 0. -1.
       -3    1    3    3    0  502 -0.16244628536E+03 -0.72507129955E+03 -0.56011754754E+03  0.93051000119E+03  0.10100000352E+00 0.  1.
</event>
<event>
 5   0  0.1255141E-04  0.1892696E+04  0.7818609E-02  0.8658501E-01
        1   -1    0    0  501    0  0.00000000000E+00  0.00000000000E+00  0.11980921937E+04  0.11980921937E+04  0.50400001928E-02 0.  1.
       -1   -1    0    0    0  501  0.00000000000E+00  0.00000000000E+00 -0.74750022391E+03  0.74750022393E+03  0.50400001928E-02 0. -1.
    10030    2    1    2    0    0  0.00000000000E+00  0.00000000000E+00  0.45059196977E+03  0.19455924176E+04  0.18926956259E+04 0.  0.
        2    1    3    3  502    0 -0.37823320760E+03  0.51681193608E+03  0.94148817770E+03  0.11386636577E+04  0.25500000920E-02 0.  1.
       -2    1    3    3    0  502  0.37823320760E+03 -0.51681193608E+03 -0.49089620793E+03  0.80692875991E+03  0.25500000920E-02 0. -1.
</event>
<event>
 5   0  0.1255141E-04  0.2046630E+04  0.7818609E-02  0.8585125E-01
       -1   -1    0    0    0  501  0.00000000000E+00  0.00000000000E+00  0.97029258248E+03  0.97029258249E+03  0.50400001928E-02 0.  1.
        1   -1    0    0  501    0  0.00000000000E+00  0.00000000000E+00 -0.10792352659E+04  0.10792352659E+04  0.50400001928E-02 0. -1.
    10030    2    1    2    0    0  0.00000000000E+00  0.00000000000E+00 -0.10894268339E+03  0.20495278484E+04  0.20466303753E+04 0.  0.
        2    1    3    3  502    0  0.69457621259E+03 -0.13926092339E+03 -0.79399109483E+03  0.10640731077E+04  0.25500000920E-02 0. -1.
       -2    1    3    3    0  502 -0.69457621259E+03  0.13926092339E+03  0.68504841144E+03  0.98545474066E+03  0.25500000920E-02 0.  1.
</event>
<event>
 5   0  0.9266125E-05  0.1907346E+04  0.7818609E-02  0.8651208E-01
       -3   -1    0    0    0  501  0.00000000000E+00  0.00000000000E+00  0.75730159355E+03  0.75730160028E+03  0.10100000352E+00 0.  1.
        3   -1    0    0  501    0  0.00000000000E+00  0.00000000000E+00 -0.12009647804E+04  0.12009647846E+04  0.10100000352E+00 0. -1.
    10030    2    1    2    0    0  0.00000000000E+00  0.00000000000E+00 -0.44366318681E+03  0.19582663849E+04  0.19073463794E+04 0.  0.
        2    1    3    3  502    0  0.16057083774E+03  0.54753734934E+03 -0.10063733299E+04  0.11568783091E+04  0.25500000920E-02 0. -1.
       -2    1    3    3    0  502 -0.16057083774E+03 -0.54753734934E+03  0.56271014312E+03  0.80138807580E+03  0.25500000920E-02 0.  1.
</event>
<event>
 5   0  0.2608744E-04  0.1904656E+04  0.7818609E-02  0.8652542E-01
       -2   -1    0    0    0  501  0.00000000000E+00  0.00000000000E+00  0.86933563870E+03  0.86933563871E+03  0.25500000920E-02 0. -1.
        2   -1    0    0  501    0  0.00000000000E+00  0.00000000000E+00 -0.10432430711E+04  0.10432430712E+04  0.25500000920E-02 0.  1.
    10030    2    1    2    0    0  0.00000000000E+00  0.00000000000E+00 -0.17390743245E+03  0.19125787099E+04  0.19046557501E+04 0.  0.
        2    1    3    3  502    0 -0.31796369282E+03 -0.74354337853E+03  0.41810044044E+03  0.91036566500E+03  0.25500000920E-02 0. -1.
       -2    1    3    3    0  502  0.31796369282E+03  0.74354337853E+03 -0.59200787289E+03  0.10022130449E+04  0.25500000920E-02 0.  1.
</event>
<event>
 5   0  0.2608744E-04  0.1906888E+04  0.7818609E-02  0.8651435E-01
        2   -1    0    0  501    0  0.00000000000E+00  0.00000000000E+00  0.17194698305E+04  0.17194698305E+04  0.25500000920E-02 0.  1.
       -2   -1    0    0    0  501  0.00000000000E+00  0.00000000000E+00 -0.52868354160E+03  0.52868354160E+03  0.25500000920E-02 0. -1.
    10030    2    1    2    0    0  0.00000000000E+00  0.00000000000E+00  0.11907862889E+04  0.22481533721E+04  0.19068879355E+04 0.  0.
        2    1    3    3  502    0 -0.85017552950E+03 -0.42907002024E+03  0.65013426731E+03  0.11530715844E+04  0.25500000920E-02 0.  1.
       -2    1    3    3    0  502  0.85017552950E+03  0.42907002024E+03  0.54065202154E+03  0.10950817876E+04  0.25500000920E-02 0. -1.
</event>
<event>
 5   0  0.1239615E-04  0.1885807E+04  0.7818609E-02  0.8661953E-01
       -1   -1    0    0    0  501  0.00000000000E+00  0.00000000000E+00  0.36799409674E+03  0.36799409678E+03  0.50400001928E-02 0.  1.
        1   -1    0    0  501    0  0.00000000000E+00  0.00000000000E+00 -0.24159826091E+04  0.24159826091E+04  0.50400001928E-02 0. -1.
    10030    2    1    2    0    0  0.00000000000E+00  0.00000000000E+00 -0.20479885123E+04  0.27839767058E+04  0.18858073476E+04 0.  0.
        3    1    3    3  502    0 -0.33160053793E+03 -0.76140488589E+03 -0.16831670570E+04  0.18768984174E+04  0.10100000352E+00 0.  1.
       -3    1    3    3    0  502  0.33160053793E+03  0.76140488589E+03 -0.36482145530E+03  0.90707828849E+03  0.10100000352E+00 0. -1.
</event>
<event>
 5   0  0.2562925E-04  0.1886076E+04  0.7818609E-02  0.8661819E-01
       -2   -1    0    0    0  501  0.00000000000E+00  0.00000000000E+00  0.78441246507E+03  0.78441246507E+03  0.25500000920E-02 0. -1.
        2   -1    0    0  501    0  0.00000000000E+00  0.00000000000E+00 -0.11337408873E+04  0.11337408873E+04  0.25500000920E-02 0.  1.
    10030    2    1    2    0    0  0.00000000000E+00  0.00000000000E+00 -0.34932842219E+03  0.19181533523E+04  0.18860758035E+04 0.  0.
        4    1    3    3  502    0 -0.71786391112E+03 -0.19629757599E+03 -0.76370173147E+03  0.10663504493E+04  0.12699999809E+01 0.  1.
       -4    1    3    3    0  502  0.71786391112E+03  0.19629757599E+03  0.41437330928E+03  0.85180290301E+03  0.12699999809E+01 0. -1.
</event>
<event>
 5   0  0.1317527E-04  0.1923361E+04  0.7818609E-02  0.8643315E-01
       -1   -1    0    0    0  501  0.00000000000E+00  0.00000000000E+00  0.50565290702E+03  0.50565290705E+03  0.50400001928E-02 0.  1.
        1   -1    0    0  501    0  0.00000000000E+00  0.00000000000E+00 -0.18289803131E+04  0.18289803131E+04  0.50400001928E-02 0. -1.
    10030    2    1    2    0    0  0.00000000000E+00  0.00000000000E+00 -0.13233274060E+04  0.23346332201E+04  0.19233608213E+04 0.  0.
        1    1    3    3  502    0  0.87688308230E+02  0.74706026759E+03  0.65663574195E+02  0.75504965917E+03  0.50400001928E-02 0.  1.
       -1    1    3    3    0  502 -0.87688308230E+02 -0.74706026759E+03 -0.13889909802E+04  0.15795835610E+04  0.50400001928E-02 0. -1.
</event>
<event>
 5   0  0.2608744E-04  0.1871633E+04  0.7818609E-02  0.8669107E-01
       -2   -1    0    0    0  501  0.00000000000E+00  0.00000000000E+00  0.74404998567E+03  0.74404998567E+03  0.25500000920E-02 0. -1.
        2   -1    0    0  501    0  0.00000000000E+00  0.00000000000E+00 -0.11770071102E+04  0.11770071102E+04  0.25500000920E-02 0.  1.
    10030    2    1    2    0    0  0.00000000000E+00  0.00000000000E+00 -0.43295712455E+03  0.19210570959E+04  0.18716325745E+04 0.  0.
        2    1    3    3  502    0  0.55110492125E+02 -0.89831908767E+03  0.46685859015E+02  0.90121801972E+03  0.25500000920E-02 0. -1.
       -2    1    3    3    0  502 -0.55110492125E+02  0.89831908767E+03 -0.47964298357E+03  0.10198390762E+04  0.25500000920E-02 0.  1.
</event>
<event>
 5   0  0.1324058E-04  0.1922059E+04  0.7818609E-02  0.8643954E-01
       -1   -1    0    0    0  501  0.00000000000E+00  0.00000000000E+00  0.39964636039E+03  0.39964636042E+03  0.50400001928E-02 0. -1.
        1   -1    0    0  501    0  0.00000000000E+00  0.00000000000E+00 -0.23109870743E+04  0.23109870743E+04  0.50400001928E-02 0.  1.
    10030    2    1    2    0    0  0.00000000000E+00  0.00000000000E+00 -0.19113407139E+04  0.27106334347E+04  0.19220588682E+04 0.  0.
        5    1    3    3  502    0 -0.65789779917E+03 -0.23728074746E+03 -0.18851950234E+04  0.20107496198E+04  0.46999998093E+01 0.  1.
       -5    1    3    3    0  502  0.65789779917E+03  0.23728074746E+03 -0.26145690515E+02  0.69988381493E+03  0.46999998093E+01 0. -1.
</event>
<event>
 5   0  0.2595012E-04  0.1900462E+04  0.7818609E-02  0.8654626E-01
       -2   -1    0    0    0  501  0.00000000000E+00  0.00000000000E+00  0.94189744677E+03  0.94189744677E+03  0.25500000920E-02 0. -1.
        2   -1    0    0  501    0  0.00000000000E+00  0.00000000000E+00 -0.95863856878E+03  0.95863856878E+03  0.25500000920E-02 0.  1.
    10030    2    1    2    0    0  0.00000000000E+00  0.00000000000E+00 -0.16741122013E+02  0.19005360156E+04  0.19004622809E+04 0.  0.
        1    1    3    3  502    0 -0.82234294535E+02  0.32990565681E+03 -0.89572623639E+03  0.95808439721E+03  0.50400001928E-02 0.  1.
       -1    1    3    3    0  502  0.82234294535E+02 -0.32990565681E+03  0.87898511438E+03  0.94245161834E+03  0.50400001928E-02 0. -1.
</event>
<event>
 5   0  0.9266125E-05  0.1909627E+04  0.7818609E-02  0.8650079E-01
       -4   -1    0    0    0  501  0.00000000000E+00  0.00000000000E+00  0.58495763495E+03  0.58495901360E+03  0.12699999809E+01 0. -1.
        4   -1    0    0  501    0  0.00000000000E+00  0.00000000000E+00 -0.15585176100E+04  0.15585181275E+04  0.12699999809E+01 0.  1.
    10030    2    1    2    0    0  0.00000000000E+00  0.00000000000E+00 -0.97355997509E+03  0.21434771411E+04  0.19096269869E+04 0.  0.
        4    1    3    3  502    0  0.54947656039E+03  0.77029557236E+03 -0.34309023181E+03  0.10064751757E+04  0.12699999809E+01 0. -1.
       -4    1    3    3    0  502 -0.54947656039E+03 -0.77029557236E+03 -0.63046974328E+03  0.11370019654E+04  0.12699999809E+01 0.  1.
</event>
<event>
 5   0  0.1317527E-04  0.1899686E+04  0.7818609E-02  0.8655013E-01
       -1   -1    0    0    0  501  0.00000000000E+00  0.00000000000E+00  0.72943765838E+03  0.72943765840E+03  0.50400001928E-02 0. -1.
        1   -1    0    0  501    0  0.00000000000E+00  0.00000000000E+00 -0.12368449192E+04  0.12368449192E+04  0.50400001928E-02 0.  1.
    10030    2    1    2    0    0  0.00000000000E+00  0.00000000000E+00 -0.50740726079E+03  0.19662825776E+04  0.18996855126E+04 0.  0.
        1    1    3    3  502    0 -0.47947155973E+03 -0.81939576551E+03 -0.28473574231E+03  0.99114925218E+03  0.50400001928E-02 0.  1.
       -1    1    3    3    0  502  0.47947155973E+03  0.81939576551E+03 -0.22267151848E+03  0.97513332540E+03  0.50400001928E-02 0. -1.
</event>
<event>
 5   0  0.1277709E-04  0.1858554E+04  0.7818609E-02  0.8675766E-01
       -1   -1    0    0    0  501  0.00000000000E+00  0.00000000000E+00  0.87748449260E+03  0.87748449262E+03  0.50400001928E-02 0. -1.
        1   -1    0    0  501    0  0.00000000000E+00  0.00000000000E+00 -0.98412655393E+03  0.98412655394E+03  0.50400001928E-02 0.  1.
    10030    2    1    2    0    0  0.00000000000E+00  0.00000000000E+00 -0.10664206133E+03  0.18616110466E+04  0.18585540507E+04 0.  0.
        4    1    3    3  502    0 -0.62494988858E+03  0.65697263789E+03  0.15043127086E+03  0.91913360853E+03  0.12699999809E+01 0. -1.
       -4    1    3    3    0  502  0.62494988858E+03 -0.65697263789E+03 -0.25707333218E+03  0.94247743803E+03  0.12699999809E+01 0.  1.
</event>
<event>
 5   0  0.1277709E-04  0.1883703E+04  0.7818609E-02  0.8663011E-01
       -1   -1    0    0    0  501  0.00000000000E+00  0.00000000000E+00  0.10139211517E+04  0.10139211517E+04  0.50400001928E-02 0. -1.
        1   -1    0    0  501    0  0.00000000000E+00  0.00000000000E+00 -0.87490479774E+03  0.87490479776E+03  0.50400001928E-02 0.  1.
    10030    2    1    2    0    0  0.00000000000E+00  0.00000000000E+00  0.13901635398E+03  0.18888259495E+04  0.18837032465E+04 0.  0.
        4    1    3    3  502    0 -0.90167636469E+02 -0.77710144029E+03 -0.45638546844E+03  0.90570754655E+03  0.12699999809E+01 0.  1.
       -4    1    3    3    0  502  0.90167636469E+02  0.77710144029E+03  0.59540182242E+03  0.98311840295E+03  0.12699999809E+01 0. -1.
</event>
<event>
 5   0  0.2608744E-04  0.1915411E+04  0.7818609E-02  0.8647223E-01
        2   -1    0    0  501    0  0.00000000000E+00  0.00000000000E+00  0.87642509617E+03  0.87642509618E+03  0.25500000920E-02 0. -1.
       -2   -1    0    0    0  501  0.00000000000E+00  0.00000000000E+00 -0.10465234295E+04  0.10465234295E+04  0.25500000920E-02 0.  1.
    10030    2    1    2    0    0  0.00000000000E+00  0.00000000000E+00 -0.17009833331E+03  0.19229485257E+04  0.19154105537E+04 0.  0.
        2    1    3    3  502    0  0.59768618980E+03 -0.29262345293E+03 -0.77648460213E+03  0.10226365943E+04  0.25500000920E-02 0.  1.
       -2    1    3    3    0  502 -0.59768618980E+03  0.29262345293E+03  0.60638626883E+03  0.90031193134E+03  0.25500000920E-02 0. -1.
</event>
<event>
 5   0  0.2608744E-04  0.1907462E+04  0.7818609E-02  0.8651151E-01
       -2   -1    0    0    0  501  0.00000000000E+00  0.00000000000E+00  0.43287983600E+03  0.43287983600E+03  0.25500000920E-02 0.  1.
        2   -1    0    0  501    0  0.00000000000E+00  0.00000000000E+00 -0.21012818237E+04  0.21012818237E+04  0.25500000920E-02 0. -1.
    10030    2    1    2    0    0  0.00000000000E+00  0.00000000000E+00 -0.16684019877E+04  0.25341616597E+04  0.19074616969E+04 0.  0.
        2    1    3    3  502    0 -0.34857689796E+03  0.53295449433E+03 -0.17774317730E+04  0.18880704580E+04  0.25500000920E-02 0. -1.
       -2    1    3    3    0  502  0.34857689796E+03 -0.53295449433E+03  0.10902978528E+03  0.64609120169E+03  0.25500000920E-02 0.  1.
</event>
<event>
 5   0  0.2562925E-04  0.1904719E+04  0.7818609E-02  0.8652511E-01
        2   -1    0    0  501    0  0.00000000000E+00  0.00000000000E+00  0.11785285666E+04  0.11785285666E+04  0.25500000920E-02 0.  1.
       -2   -1    0    0    0  501  0.00000000000E+00  0.00000000000E+00 -0.76959382804E+03  0.76959382804E+03  0.25500000920E-02 0. -1.
    10030    2    1    2    0    0  0.00000000000E+00  0.00000000000E+00  0.40893473860E+03  0.19481223947E+04  0.19047186785E+04 0.  0.
        4    1    3    3  502    0 -0.22468128110E+03 -0.86971329380E+01  0.11509903808E+04  0.11727479643E+04  0.12699999809E+01 0.  1.
       -4    1    3    3    0  502  0.22468128110E+03  0.86971329380E+01 -0.74205564222E+03  0.77537443036E+03  0.12699999809E+01 0. -1.
</event>
<event>
 5   0  0.2541124E-04  0.1865902E+04  0.7818609E-02  0.8672018E-01
       -2   -1    0    0    0  501  0.00000000000E+00  0.00000000000E+00  0.37067572537E+03  0.37067572538E+03  0.25500000920E-02 0.  1.
        2   -1    0    0  501    0  0.00000000000E+00  0.00000000000E+00 -0.23481375731E+04  0.23481375731E+04  0.25500000920E-02 0. -1.
    10030    2    1    2    0    0  0.00000000000E+00  0.00000000000E+00 -0.19774618478E+04  0.27188132985E+04  0.18659020319E+04 0.  0.
        5    1    3    3  502    0  0.44981402308E+03 -0.80790710835E+03 -0.80832663727E+03  0.12281940374E+04  0.46999998093E+01 0.  1.
       -5    1    3    3    0  502 -0.44981402308E+03  0.80790710835E+03 -0.11691352105E+04  0.14906192611E+04  0.46999998093E+01 0. -1.
</event>
<event>
 5   0  0.2608744E-04  0.1903000E+04  0.7818609E-02  0.8653364E-01
       -2   -1    0    0    0  501  0.00000000000E+00  0.00000000000E+00  0.52662819715E+03  0.52662819715E+03  0.25500000920E-02 0. -1.
        2   -1    0    0  501    0  0.00000000000E+00  0.00000000000E+00 -0.17191493182E+04  0.17191493182E+04  0.25500000920E-02 0.  1.
    10030    2    1    2    0    0  0.00000000000E+00  0.00000000000E+00 -0.11925211210E+04  0.22457775153E+04  0.19030002691E+04 0.  0.
        2    1    3    3  502    0 -0.37328206245E+03  0.78541312185E+03 -0.14051354161E+03  0.88088439963E+03  0.25500000920E-02 0. -1.
       -2    1    3    3    0  502  0.37328206245E+03 -0.78541312185E+03 -0.10520075794E+04  0.13648931157E+04  0.25500000920E-02 0.  1.
</event>
<event>
 5   0  0.2595012E-04  0.1887672E+04  0.7818609E-02  0.8661017E-01
        2   -1    0    0  501    0  0.00000000000E+00  0.00000000000E+00  0.70928864487E+03  0.70928864487E+03  0.25500000920E-02 0. -1.
       -2   -1    0    0    0  501  0.00000000000E+00  0.00000000000E+00 -0.12559435416E+04  0.12559435416E+04  0.25500000920E-02 0.  1.
    10030    2    1    2    0    0  0.00000000000E+00  0.00000000000E+00 -0.54665489669E+03  0.19652321864E+04  0.18876721035E+04 0.  0.
        1    1    3    3  502    0 -0.71839515881E+03  0.19089032837E+03  0.33220245476E+03  0.81418007385E+03  0.50400001928E-02 0. -1.
       -1    1    3    3    0  502  0.71839515881E+03 -0.19089032837E+03 -0.87885735145E+03  0.11510521126E+04  0.50400001928E-02 0.  1.
</event>
<event>
 5   0  0.2562925E-04  0.1886016E+04  0.7818609E-02  0.8661849E-01
        2   -1    0    0  501    0  0.00000000000E+00  0.00000000000E+00  0.85197354430E+03  0.85197354430E+03  0.25500000920E-02 0.  1.
       -2   -1    0    0    0  501  0.00000000000E+00  0.00000000000E+00 -0.10437691481E+04  0.10437691481E+04  0.25500000920E-02 0. -1.
    10030    2    1    2    0    0  0.00000000000E+00  0.00000000000E+00 -0.19179560384E+03  0.18957426924E+04  0.18860155891E+04 0.  0.
        4    1    3    3  502    0  0.85672285359E+03  0.38245889696E+03 -0.19132548640E+03  0.95752593196E+03  0.12699999809E+01 0.  1.
       -4    1    3    3    0  502 -0.85672285359E+03 -0.38245889696E+03 -0.47011743303E+00  0.93821676048E+03  0.12699999809E+01 0. -1.
</event>
<event>
 5   0  0.2562925E-04  0.1757476E+04  0.7818609E-02  0.8729246E-01
        2   -1    0    0  501    0  0.00000000000E+00  0.00000000000E+00  0.11116224318E+04  0.11116224318E+04  0.25500000920E-02 0. -1.
       -2   -1    0    0    0  501  0.00000000000E+00  0.00000000000E+00 -0.69464256657E+03  0.69464256657E+03  0.25500000920E-02 0.  1.
    10030    2    1    2    0    0  0.00000000000E+00  0.00000000000E+00  0.41697986522E+03  0.18062649984E+04  0.17574757570E+04 0.  0.
        4    1    3    3  502    0 -0.73668199929E+03 -0.46721773842E+03  0.99790601602E+02  0.87803904255E+03  0.12699999809E+01 0.  1.
       -4    1    3    3    0  502  0.73668199929E+03  0.46721773842E+03  0.31718926362E+03  0.92822595581E+03  0.12699999809E+01 0. -1.
</event>
<event>
 5   0  0.2541124E-04  0.1895399E+04  0.7818609E-02  0.8657150E-01
       -2   -1    0    0    0  501  0.00000000000E+00  0.00000000000E+00  0.88489407962E+03  0.88489407963E+03  0.25500000920E-02 0.  1.
        2   -1    0    0  501    0  0.00000000000E+00  0.00000000000E+00 -0.10149628317E+04  0.10149628317E+04  0.25500000920E-02 0. -1.
    10030    2    1    2    0    0  0.00000000000E+00  0.00000000000E+00 -0.13006875204E+03  0.18998569113E+04  0.18953992728E+04 0.  0.
        5    1    3    3  502    0  0.71017126340E+03  0.59532270482E+03  0.13382617394E+03  0.93631398636E+03  0.46999998093E+01 0.  1.
       -5    1    3    3    0  502 -0.71017126340E+03 -0.59532270482E+03 -0.26389492598E+03  0.96354292493E+03  0.46999998093E+01 0. -1.
</event>
<event>
 5   0  0.1277709E-04  0.1891083E+04  0.7818609E-02  0.8659308E-01
        1   -1    0    0  501    0  0.00000000000E+00  0.00000000000E+00  0.13566325587E+04  0.13566325587E+04  0.50400001928E-02 0. -1.
       -1   -1    0    0    0  501  0.00000000000E+00  0.00000000000E+00 -0.65902051344E+03  0.65902051346E+03  0.50400001928E-02 0.  1.
    10030    2    1    2    0    0  0.00000000000E+00  0.00000000000E+00  0.69761204525E+03  0.20156530722E+04  0.18910829547E+04 0.  0.
        4    1    3    3  502    0  0.19749132043E+03 -0.73074394604E+03  0.95274997802E+03  0.12168498962E+04  0.12699999809E+01 0. -1.
       -4    1    3    3    0  502 -0.19749132043E+03  0.73074394604E+03 -0.25513793277E+03  0.79880317598E+03  0.12699999809E+01 0.  1.
</event>
<event>
 5   0  0.2541124E-04  0.1921652E+04  0.7818609E-02  0.8644153E-01
       -2   -1    0    0    0  501  0.00000000000E+00  0.00000000000E+00  0.58192044414E+03  0.58192044414E+03  0.25500000920E-02 0.  1.
        2   -1    0    0  501    0  0.00000000000E+00  0.00000000000E+00 -0.15864480041E+04  0.15864480041E+04  0.25500000920E-02 0. -1.
    10030    2    1    2    0    0  0.00000000000E+00  0.00000000000E+00 -0.10045275600E+04  0.21683684483E+04  0.19216519218E+04 0.  0.
        5    1    3    3  502    0  0.77030767369E+03  0.26110804683E+03 -0.10794129945E+04  0.13515568160E+04  0.46999998093E+01 0. -1.
       -5    1    3    3    0  502 -0.77030767369E+03 -0.26110804683E+03  0.74885434513E+02  0.81681163224E+03  0.46999998093E+01 0.  1.
</event>
<event>
 5   0  0.2651828E-04  0.1897121E+04  0.7818609E-02  0.8656291E-01
        2   -1    0    0  501    0  0.00000000000E+00  0.00000000000E+00  0.21083832405E+04  0.21083832405E+04  0.25500000920E-02 0.  1.
       -2   -1    0    0    0  501  0.00000000000E+00  0.00000000000E+00 -0.42675696872E+03  0.42675696873E+03  0.25500000920E-02 0. -1.
    10030    2    1    2    0    0  0.00000000000E+00  0.00000000000E+00  0.16816262718E+04  0.25351402093E+04  0.18971212303E+04 0.  0.
        3    1    3    3  502    0 -0.21059504755E+02 -0.17410417609E+03  0.20865308843E+04  0.20938879885E+04  0.10100000352E+00 0.  1.
       -3    1    3    3    0  502  0.21059504755E+02  0.17410417609E+03 -0.40490461253E+03  0.44125222075E+03  0.10100000352E+00 0. -1.
</event>
<event>
 5   0  0.9266125E-05  0.1903541E+04  0.7818609E-02  0.8653096E-01
       -4   -1    0    0    0  501  0.00000000000E+00  0.00000000000E+00  0.73886718730E+03  0.73886827877E+03  0.12699999809E+01 0.  1.
        4   -1    0    0  501    0  0.00000000000E+00  0.00000000000E+00 -0.12260197925E+04  0.12260204503E+04  0.12699999809E+01 0. -1.
    10030    2    1    2    0    0  0.00000000000E+00  0.00000000000E+00 -0.48715260523E+03  0.19648887291E+04  0.19035414513E+04 0.  0.
        5    1    3    3  502    0 -0.23584029643E+03 -0.34950049894E+03 -0.11243481771E+04  0.12008131235E+04  0.46999998093E+01 0. -1.
       -5    1    3    3    0  502  0.23584029643E+03  0.34950049894E+03  0.63719557190E+03  0.76407560557E+03  0.46999998093E+01 0.  1.
</event>
<event>
 5   0  0.1317527E-04  0.1935453E+04  0.7818609E-02  0.8637407E-01
       -1   -1    0    0    0  501  0.00000000000E+00  0.00000000000E+00  0.64173255944E+03  0.64173255946E+03  0.50400001928E-02 0.  1.
        1   -1    0    0  501    0  0.00000000000E+00  0.00000000000E+00 -0.14593229603E+04  0.14593229603E+04  0.50400001928E-02 0. -1.
    10030    2    1    2    0    0  0.00000000000E+00  0.00000000000E+00 -0.81759040082E+03  0.21010555197E+04  0.19354534956E+04 0.  0.
        1    1    3    3  502    0 -0.15719544324E+02 -0.76547793736E+03  0.23369953902E+03  0.80051174334E+03  0.50400001928E-02 0.  1.
       -1    1    3    3    0  502  0.15719544324E+02  0.76547793736E+03 -0.10512899398E+04  0.13005437764E+04  0.50400001928E-02 0. -1.
</event>
<event>
 5   0  0.1324058E-04  0.1848769E+04  0.7818609E-02  0.8680786E-01
       -1   -1    0    0    0  501  0.00000000000E+00  0.00000000000E+00  0.10918199348E+04  0.10918199348E+04  0.50400001928E-02 0. -1.
        1   -1    0    0  501    0  0.00000000000E+00  0.00000000000E+00 -0.78262583284E+03  0.78262583286E+03  0.50400001928E-02 0.  1.
    10030    2    1    2    0    0  0.00000000000E+00  0.00000000000E+00  0.30919410198E+03  0.18744457677E+04  0.18487687642E+04 0.  0.
        5    1    3    3  502    0  0.32245689849E+03 -0.54394928492E+03 -0.52901143640E+03  0.82446010564E+03  0.46999998093E+01 0.  1.
       -5    1    3    3    0  502 -0.32245689849E+03  0.54394928492E+03  0.83820553839E+03  0.10499856621E+04  0.46999998093E+01 0. -1.
</event>
<event>
 5   0  0.1324058E-04  0.1920326E+04  0.7818609E-02  0.8644804E-01
       -1   -1    0    0    0  501  0.00000000000E+00  0.00000000000E+00  0.73336415863E+03  0.73336415864E+03  0.50400001928E-02 0. -1.
        1   -1    0    0  501    0  0.00000000000E+00  0.00000000000E+00 -0.12571013070E+04  0.12571013070E+04  0.50400001928E-02 0.  1.
    10030    2    1    2    0    0  0.00000000000E+00  0.00000000000E+00 -0.52373714834E+03  0.19904654656E+04  0.19203260581E+04 0.  0.
        5    1    3    3  502    0  0.47915851647E+03  0.76570377732E+03 -0.59932988386E+03  0.10840265487E+04  0.46999998093E+01 0. -1.
       -5    1    3    3    0  502 -0.47915851647E+03 -0.76570377732E+03  0.75592735519E+02  0.90643891696E+03  0.46999998093E+01 0.  1.
</event>
<event>
 5   0  0.2595012E-04  0.1889287E+04  0.7818609E-02  0.8660207E-01
       -2   -1    0    0    0  501  0.00000000000E+00  0.00000000000E+00  0.60757343239E+03  0.60757343240E+03  0.25500000920E-02 0. -1.
        2   -1    0    0  501    0  0.00000000000E+00  0.00000000000E+00 -0.14687134162E+04  0.14687134162E+04  0.25500000920E-02 0.  1.
    10030    2    1    2    0    0  0.00000000000E+00  0.00000000000E+00 -0.86113998382E+03  0.20762868486E+04  0.18892869041E+04 0.  0.
        1    1    3    3  502    0 -0.47029858176E+03  0.21688378919E+02 -0.13305930327E+04  0.14114279862E+04  0.50400001928E-02 0.  1.
       -1    1    3    3    0  502  0.47029858176E+03 -0.21688378919E+02  0.46945304883E+03  0.66485886237E+03  0.50400001928E-02 0. -1.
</event>
<event>
 5   0  0.2595012E-04  0.1891105E+04  0.7818609E-02  0.8659297E-01
       -2   -1    0    0    0  501  0.00000000000E+00  0.00000000000E+00  0.72087556092E+03  0.72087556093E+03  0.25500000920E-02 0. -1.
        2   -1    0    0  501    0  0.00000000000E+00  0.00000000000E+00 -0.12402549840E+04  0.12402549840E+04  0.25500000920E-02 0.  1.
    10030    2    1    2    0    0  0.00000000000E+00  0.00000000000E+00 -0.51937942310E+03  0.19611305450E+04  0.18911049757E+04 0.  0.
        1    1    3    3  502    0 -0.14986849618E+03  0.12782587628E+03 -0.12187421538E+04  0.12345575962E+04  0.50400001928E-02 0.  1.
       -1    1    3    3    0  502  0.14986849618E+03 -0.12782587628E+03  0.69936273069E+03  0.72657294878E+03  0.50400001928E-02 0. -1.
</event>
<event>
 5   0  0.1277709E-04  0.1400916E+04  0.7818609E-02  0.8953156E-01
        1   -1    0    0  501    0  0.00000000000E+00  0.00000000000E+00  0.72297707988E+03  0.72297707990E+03  0.50400001928E-02 0.  1.
       -1   -1    0    0    0  501  0.00000000000E+00  0.00000000000E+00 -0.67864065949E+03  0.67864065951E+03  0.50400001928E-02 0. -1.
    10030    2    1    2    0    0  0.00000000000E+00  0.00000000000E+00  0.44336420392E+02  0.14016177394E+04  0.14009163320E+04 0.  0.
        4    1    3    3  502    0 -0.12645329235E+03 -0.60468388525E+03 -0.30815916564E+03  0.69035984856E+03  0.12699999809E+01 0. -1.
       -4    1    3    3    0  502  0.12645329235E+03  0.60468388525E+03  0.35249558603E+03  0.71125789086E+03  0.12699999809E+01 0.  1.
</event>
<event>
 5   0  0.2608744E-04  0.2006044E+04  0.7818609E-02  0.8603800E-01
        2   -1    0    0  501    0  0.00000000000E+00  0.00000000000E+00  0.10345651134E+04  0.10345651134E+04  0.25500000920E-02 0. -1.
       -2   -1    0    0    0  501  0.00000000000E+00  0.00000000000E+00 -0.97244037727E+03  0.97244037727E+03  0.25500000920E-02 0.  1.
    10030    2    1    2    0    0  0.00000000000E+00  0.00000000000E+00  0.62124736139E+02  0.20070054907E+04  0.20060437574E+04 0.  0.
        2    1    3    3  502    0  0.17549127786E+03 -0.98154968210E+03  0.13981554912E+03  0.10068690852E+04  0.25500000920E-02 0. -1.
       -2    1    3    3    0  502 -0.17549127786E+03  0.98154968210E+03 -0.77690812977E+02  0.10001364054E+04  0.25500000920E-02 0.  1.
</event>
<event>
 5   0  0.2541124E-04  0.1928832E+04  0.7818609E-02  0.8640636E-01
        2   -1    0    0  501    0  0.00000000000E+00  0.00000000000E+00  0.94968120854E+03  0.94968120854E+03  0.25500000920E-02 0. -1.
       -2   -1    0    0    0  501  0.00000000000E+00  0.00000000000E+00 -0.97937943758E+03  0.97937943759E+03  0.25500000920E-02 0.  1.
    10030    2    1    2    0    0  0.00000000000E+00  0.00000000000E+00 -0.29698229045E+02  0.19290606461E+04  0.19288320278E+04 0.  0.
        5    1    3    3  502    0 -0.55552237743E+03  0.44282903113E+03  0.63743482485E+03  0.95448829672E+03  0.46999998093E+01 0. -1.
       -5    1    3    3    0  502  0.55552237743E+03 -0.44282903113E+03 -0.66713305390E+03  0.97457234941E+03  0.46999998093E+01 0.  1.
</event>
<event>
 5   0  0.2541124E-04  0.1911754E+04  0.7818609E-02  0.8649028E-01
       -2   -1    0    0    0  501  0.00000000000E+00  0.00000000000E+00  0.54280591756E+03  0.54280591756E+03  0.25500000920E-02 0. -1.
        2   -1    0    0  501    0  0.00000000000E+00  0.00000000000E+00 -0.16832922469E+04  0.16832922469E+04  0.25500000920E-02 0.  1.
    10030    2    1    2    0    0  0.00000000000E+00  0.00000000000E+00 -0.11404863293E+04  0.22260981645E+04  0.19117541606E+04 0.  0.
        5    1    3    3  502    0 -0.81548434430E+02  0.29888816451E+03 -0.16231933802E+04  0.16525020792E+04  0.46999998093E+01 0.  1.
       -5    1    3    3    0  502  0.81548434430E+02 -0.29888816451E+03  0.48270705091E+03  0.57359608527E+03  0.46999998093E+01 0. -1.
</event>
<event>
 5   0  0.1317527E-04  0.1902388E+04  0.7818609E-02  0.8653668E-01
        1   -1    0    0  501    0  0.00000000000E+00  0.00000000000E+00  0.14221148406E+04  0.14221148406E+04  0.50400001928E-02 0. -1.
       -1   -1    0    0    0  501  0.00000000000E+00  0.00000000000E+00 -0.63621471766E+03  0.63621471768E+03  0.50400001928E-02 0.  1.
    10030    2    1    2    0    0  0.00000000000E+00  0.00000000000E+00  0.78590012294E+03  0.20583295583E+04  0.19023883850E+04 0.  0.
        1    1    3    3  502    0 -0.38664640034E+03 -0.29721288989E+03 -0.49065649319E+03  0.69179096203E+03  0.50400001928E-02 0.  1.
       -1    1    3    3    0  502  0.38664640034E+03  0.29721288989E+03  0.12765566161E+04  0.13665385962E+04  0.50400001928E-02 0. -1.
</event>
<event>
 5   0  0.1277709E-04  0.1873843E+04  0.7818609E-02  0.8667987E-01
        1   -1    0    0  501    0  0.00000000000E+00  0.00000000000E+00  0.13155316806E+04  0.13155316807E+04  0.50400001928E-02 0. -1.
       -1   -1    0    0    0  501  0.00000000000E+00  0.00000000000E+00 -0.66727547450E+03  0.66727547452E+03  0.50400001928E-02 0.  1.
    10030    2    1    2    0    0  0.00000000000E+00  0.00000000000E+00  0.64825620614E+03  0.19828071552E+04  0.18738431380E+04 0.  0.
        4    1    3    3  502    0 -0.12076228015E+03  0.42718772866E+02 -0.65796509101E+03  0.67031939831E+03  0.12699999809E+01 0.  1.
       -4    1    3    3    0  502  0.12076228015E+03 -0.42718772866E+02  0.13062212972E+04  0.13124877569E+04  0.12699999809E+01 0. -1.
</event>
<event>
 5   0  0.2651828E-04  0.1886331E+04  0.7818609E-02  0.8661691E-01
       -2   -1    0    0    0  501  0.00000000000E+00  0.00000000000E+00  0.52982070450E+03  0.52982070451E+03  0.25500000920E-02 0. -1.
        2   -1    0    0  501    0  0.00000000000E+00  0.00000000000E+00 -0.16789845720E+04  0.16789845720E+04  0.25500000920E-02 0.  1.
    10030    2    1    2    0    0  0.00000000000E+00  0.00000000000E+00 -0.11491638675E+04  0.22088052765E+04  0.18863306060E+04 0.  0.
        3    1    3    3  502    0 -0.25919410313E+03  0.28288685076E+03  0.43431130637E+03  0.57951089246E+03  0.10100000352E+00 0. -1.
       -3    1    3    3    0  502  0.25919410313E+03 -0.28288685076E+03 -0.15834751739E+04  0.16292943841E+04  0.10100000352E+00 0.  1.
</event>
<event>
 5   0  0.2595012E-04  0.1791195E+04  0.7818609E-02  0.8710996E-01
        2   -1    0    0  501    0  0.00000000000E+00  0.00000000000E+00  0.14855254042E+04  0.14855254042E+04  0.25500000920E-02 0. -1.
       -2   -1    0    0    0  501  0.00000000000E+00  0.00000000000E+00 -0.53994042731E+03  0.53994042731E+03  0.25500000920E-02 0.  1.
    10030    2    1    2    0    0  0.00000000000E+00  0.00000000000E+00  0.94558497693E+03  0.20254658316E+04  0.17911953791E+04 0.  0.
        1    1    3    3  502    0 -0.21172398106E+03 -0.75130632794E+03 -0.23735045010E+02  0.78092995521E+03  0.50400001928E-02 0.  1.
       -1    1    3    3    0  502  0.21172398106E+03  0.75130632794E+03  0.96932002194E+03  0.12445358763E+04  0.50400001928E-02 0. -1.
</event>
<event>
 5   0  0.2541124E-04  0.1905019E+04  0.7818609E-02  0.8652362E-01
       -2   -1    0    0    0  501  0.00000000000E+00  0.00000000000E+00  0.54320562624E+03  0.54320562625E+03  0.25500000920E-02 0. -1.
        2   -1    0    0  501    0  0.00000000000E+00  0.00000000000E+00 -0.16702221977E+04  0.16702221977E+04  0.25500000920E-02 0.  1.
    10030    2    1    2    0    0  0.00000000000E+00  0.00000000000E+00 -0.11270165715E+04  0.22134278240E+04  0.19050187347E+04 0.  0.
        5    1    3    3  502    0 -0.65820664495E+03  0.23853163767E+03 -0.13139136521E+04  0.14887996860E+04  0.46999998093E+01 0.  1.
       -5    1    3    3    0  502  0.65820664495E+03 -0.23853163767E+03  0.18689708067E+03  0.72462813800E+03  0.46999998093E+01 0. -1.
</event>
<event>
 5   0  0.1255141E-04  0.1885984E+04  0.7818609E-02  0.8661865E-01
        1   -1    0    0  501    0  0.00000000000E+00  0.00000000000E+00  0.12228490980E+04  0.12228490980E+04  0.50400001928E-02 0. -1.
       -1   -1    0    0    0  501  0.00000000000E+00  0.00000000000E+00 -0.72718216711E+03  0.72718216712E+03  0.50400001928E-02 0.  1.
    10030    2    1    2    0    0  0.00000000000E+00  0.00000000000E+00  0.49566693085E+03  0.19500312651E+04  0.18859841538E+04 0.  0.
        2    1    3    3  502    0 -0.57269582925E+03  0.69337841170E+02  0.10191186205E+04  0.11710640511E+04  0.25500000920E-02 0. -1.
       -2    1    3    3    0  502  0.57269582925E+03 -0.69337841170E+02 -0.52345168967E+03  0.77896721400E+03  0.25500000920E-02 0.  1.
</event>
<event>
 5   0  0.2651828E-04  0.1874799E+04  0.7818609E-02  0.8667503E-01
        2   -1    0    0  501    0  0.00000000000E+00  0.00000000000E+00  0.83494982417E+03  0.83494982417E+03  0.25500000920E-02 0. -1.
       -2   -1    0    0    0  501  0.00000000000E+00  0.00000000000E+00 -0.10524194313E+04  0.10524194313E+04  0.25500000920E-02 0.  1.
    10030    2    1    2    0    0  0.00000000000E+00  0.00000000000E+00 -0.21746960714E+03  0.18873692555E+04  0.18747985696E+04 0.  0.
        3    1    3    3  502    0 -0.25869467683E+03 -0.43692377606E+03 -0.90198525018E+03  0.10350858533E+04  0.10100000352E+00 0.  1.
       -3    1    3    3    0  502  0.25869467683E+03  0.43692377606E+03  0.68451564304E+03  0.85228340221E+03  0.10100000352E+00 0. -1.
</event>
<event>
 5   0  0.2562925E-04  0.1912747E+04  0.7818609E-02  0.8648537E-01
        2   -1    0    0  501    0  0.00000000000E+00  0.00000000000E+00  0.32213881106E+04  0.32213881106E+04  0.25500000920E-02 0.  1.
       -2   -1    0    0    0  501  0.00000000000E+00  0.00000000000E+00 -0.28393040965E+03  0.28393040966E+03  0.25500000920E-02 0. -1.
    10030    2    1    2    0    0  0.00000000000E+00  0.00000000000E+00  0.29374577009E+04  0.35053185202E+04  0.19127467641E+04 0.  0.
        4    1    3    3  502    0  0.95805897111E+02  0.30585841875E+03  0.31200316190E+04  0.31364513480E+04  0.12699999809E+01 0.  1.
       -4    1    3    3    0  502 -0.95805897111E+02 -0.30585841875E+03 -0.18257391808E+03  0.36886717217E+03  0.12699999809E+01 0. -1.
</event>
<event>
 5   0  0.9266125E-05  0.1873342E+04  0.7818609E-02  0.8668241E-01
        3   -1    0    0  501    0  0.00000000000E+00  0.00000000000E+00  0.19117852054E+04  0.19117852081E+04  0.10100000352E+00 0.  1.
       -3   -1    0    0    0  501  0.00000000000E+00  0.00000000000E+00 -0.45891812824E+03  0.45891813935E+03  0.10100000352E+00 0. -1.
    10030    2    1    2    0    0  0.00000000000E+00  0.00000000000E+00  0.14528670772E+04  0.23707033474E+04  0.18733423653E+04 0.  0.
        3    1    3    3  502    0 -0.15179091252E+03  0.39728564425E+01 -0.44323929880E+03  0.46852678783E+03  0.10100000352E+00 0. -1.
       -3    1    3    3    0  502  0.15179091252E+03 -0.39728564425E+01  0.18961063760E+04  0.19021765596E+04  0.10100000352E+00 0.  1.
</event>
<event>
 5   0  0.2651828E-04  0.1904040E+04  0.7818609E-02  0.8652848E-01
       -2   -1    0    0    0  501  0.00000000000E+00  0.00000000000E+00  0.34945861638E+03  0.34945861639E+03  0.25500000920E-02 0.  1.
        2   -1    0    0  501    0  0.00000000000E+00  0.00000000000E+00 -0.25935606498E+04  0.25935606498E+04  0.25500000920E-02 0. -1.
    10030    2    1    2    0    0  0.00000000000E+00  0.00000000000E+00 -0.22441020334E+04  0.29430192662E+04  0.19040400376E+04 0.  0.
        3    1    3    3  502    0 -0.44189640743E+02 -0.78781983611E+03 -0.19453718644E+04  0.20993057232E+04  0.10100000352E+00 0.  1.
       -3    1    3    3    0  502  0.44189640743E+02  0.78781983611E+03 -0.29873016902E+03  0.84371354297E+03  0.10100000352E+00 0. -1.
</event>
<event>
 5   0  0.2562925E-04  0.1885777E+04  0.7818609E-02  0.8661969E-01
       -2   -1    0    0    0  501  0.00000000000E+00  0.00000000000E+00  0.49255721058E+03  0.49255721059E+03  0.25500000920E-02 0.  1.
        2   -1    0    0  501    0  0.00000000000E+00  0.00000000000E+00 -0.18049449117E+04  0.18049449117E+04  0.25500000920E-02 0. -1.
    10030    2    1    2    0    0  0.00000000000E+00  0.00000000000E+00 -0.13123877012E+04  0.22975021223E+04  0.18857769020E+04 0.  0.
        4    1    3    3  502    0  0.40687352918E+03 -0.15070368044E+03 -0.16760907166E+04  0.17313403395E+04  0.12699999809E+01 0. -1.
       -4    1    3    3    0  502 -0.40687352918E+03  0.15070368044E+03  0.36370301541E+03  0.56616178286E+03  0.12699999809E+01 0.  1.
</event>
<event>
 5   0  0.2595012E-04  0.1900985E+04  0.7818609E-02  0.8654366E-01
        2   -1    0    0  501    0  0.00000000000E+00  0.00000000000E+00  0.21579281939E+04  0.21579281939E+04  0.25500000920E-02 0. -1.
       -2   -1    0    0    0  501  0.00000000000E+00  0.00000000000E+00 -0.41865879241E+03  0.41865879241E+03  0.25500000920E-02 0.  1.
    10030    2    1    2    0    0  0.00000000000E+00  0.00000000000E+00  0.17392694015E+04  0.25765869864E+04  0.19009845994E+04 0.  0.
        1    1    3    3  502    0 -0.38826698801E+01  0.58591563233E+03 -0.14476256962E+03  0.60354652258E+03  0.50400001928E-02 0.  1.
       -1    1    3    3    0  502  0.38826698801E+01 -0.58591563233E+03  0.18840319712E+04  0.19730404638E+04  0.50400001928E-02 0. -1.
</event>
<event>
 5   0  0.1277709E-04  0.1920627E+04  0.7818609E-02  0.8644657E-01
        1   -1    0    0  501    0  0.00000000000E+00  0.00000000000E+00  0.88864220534E+03  0.88864220536E+03  0.50400001928E-02 0. -1.
       -1   -1    0    0    0  501  0.00000000000E+00  0.00000000000E+00 -0.10377648761E+04  0.10377648761E+04  0.50400001928E-02 0.  1.
    10030    2    1    2    0    0  0.00000000000E+00  0.00000000000E+00 -0.14912267075E+03  0.19264070815E+04  0.19206266354E+04 0.  0.
        4    1    3    3  502    0 -0.43995345850E+03 -0.20771851165E+03  0.75587617336E+03  0.89891958933E+03  0.12699999809E+01 0. -1.
       -4    1    3    3    0  502  0.43995345850E+03  0.20771851165E+03 -0.90499884411E+03  0.10274874921E+04  0.12699999809E+01 0.  1.
</event>
<event>
 5   0  0.2651828E-04  0.1908397E+04  0.7818609E-02  0.8650688E-01
       -2   -1    0    0    0  501  0.00000000000E+00  0.00000000000E+00  0.77083341854E+03  0.77083341855E+03  0.25500000920E-02 0. -1.
        2   -1    0    0  501    0  0.00000000000E+00  0.00000000000E+00 -0.11811819124E+04  0.11811819124E+04  0.25500000920E-02 0.  1.
    10030    2    1    2    0    0  0.00000000000E+00  0.00000000000E+00 -0.41034849389E+03  0.19520153310E+04  0.19083967004E+04 0.  0.
        3    1    3    3  502    0 -0.15786310296E+03  0.90910150599E+03 -0.45385280368E+03  0.10282843406E+04  0.10100000352E+00 0.  1.
       -3    1    3    3    0  502  0.15786310296E+03 -0.90910150599E+03  0.43504309785E+02  0.92373099041E+03  0.10100000352E+00 0. -1.
</event>
<event>
 5   0  0.2541124E-04  0.1912106E+04  0.7818609E-02  0.8648854E-01
        2   -1    0    0  501    0  0.00000000000E+00  0.00000000000E+00  0.11931506038E+04  0.11931506038E+04  0.25500000920E-02 0. -1.
       -2   -1    0    0    0  501  0.00000000000E+00  0.00000000000E+00 -0.76607031556E+03  0.76607031557E+03  0.25500000920E-02 0.  1.
    10030    2    1    2    0    0  0.00000000000E+00  0.00000000000E+00  0.42708028823E+03  0.19592209194E+04  0.19121059171E+04 0.  0.
        5    1    3    3  502    0  0.85521178371E+03  0.37496247540E+03  0.42360670612E+03  0.10254017673E+04  0.46999998093E+01 0. -1.
       -5    1    3    3    0  502 -0.85521178371E+03 -0.37496247540E+03  0.34735821116E+01  0.93381915205E+03  0.46999998093E+01 0.  1.
</event>
<event>
 5   0  0.1239615E-04  0.1895701E+04  0.7818609E-02  0.8656999E-01
        1   -1    0    0  501    0  0.00000000000E+00  0.00000000000E+00  0.12600322537E+04  0.12600322537E+04  0.50400001928E-02 0. -1.
       -1   -1    0    0    0  501  0.00000000000E+00  0.00000000000E+00 -0.71301405607E+03  0.71301405609E+03  0.50400001928E-02 0.  1.
    10030    2    1    2    0    0  0.00000000000E+00  0.00000000000E+00  0.54701819767E+03  0.19730463098E+04  0.18957011453E+04 0.  0.
        3    1    3    3  502    0 -0.41256193185E+03  0.55395328349E+03 -0.40208904354E+03  0.79921661459E+03  0.10100000352E+00 0.  1.
       -3    1    3    3    0  502  0.41256193185E+03 -0.55395328349E+03  0.94910724121E+03  0.11738296952E+04  0.10100000352E+00 0. -1.
</event>
<event>
 5   0  0.1277709E-04  0.1906001E+04  0.7818609E-02  0.8651875E-01
       -1   -1    0    0    0  501  0.00000000000E+00  0.00000000000E+00  0.61833278737E+03  0.61833278739E+03  0.50400001928E-02 0.  1.
        1   -1    0    0  501    0  0.00000000000E+00  0.00000000000E+00 -0.14688040278E+04  0.14688040278E+04  0.50400001928E-02 0. -1.
    10030    2    1    2    0    0  0.00000000000E+00  0.00000000000E+00 -0.85047124045E+03  0.20871368152E+04  0.19060007226E+04 0.  0.
        4    1    3    3  502    0  0.40450945857E+03  0.85504320946E+03 -0.29809231974E+03  0.99175976733E+03  0.12699999809E+01 0. -1.
       -4    1    3    3    0  502 -0.40450945857E+03 -0.85504320946E+03 -0.55237892071E+03  0.10953770479E+04  0.12699999809E+01 0.  1.
</event>
<event>
 5   0  0.2562925E-04  0.1895714E+04  0.7818609E-02  0.8656993E-01
        2   -1    0    0  501    0  0.00000000000E+00  0.00000000000E+00  0.22390033921E+04  0.22390033921E+04  0.25500000920E-02 0. -1.
       -2   -1    0    0    0  501  0.00000000000E+00  0.00000000000E+00 -0.40126477727E+03  0.40126477727E+03  0.25500000920E-02 0.  1.
    10030    2    1    2    0    0  0.00000000000E+00  0.00000000000E+00  0.18377386149E+04  0.26402681694E+04  0.18957143218E+04 0.  0.
        4    1    3    3  502    0 -0.18751665113E+03 -0.52124563897E+03 -0.15235145353E+03  0.57451900655E+03  0.12699999809E+01 0.  1.
       -4    1    3    3    0  502  0.18751665113E+03  0.52124563897E+03  0.19900900684E+04  0.20657491629E+04  0.12699999809E+01 0. -1.
</event>
<event>
 5   0  0.1239615E-04  0.1661380E+04  0.7818609E-02  0.8783702E-01
        1   -1    0    0  501    0  0.00000000000E+00  0.00000000000E+00  0.76500128002E+03  0.76500128003E+03  0.50400001928E-02 0.  1.
       -1   -1    0    0    0  501  0.00000000000E+00  0.00000000000E+00 -0.90201956037E+03  0.90201956038E+03  0.50400001928E-02 0. -1.
    10030    2    1    2    0    0  0.00000000000E+00  0.00000000000E+00 -0.13701828035E+03  0.16670208404E+04  0.16613802916E+04 0.  0.
        3    1    3    3  502    0  0.71901035219E+03  0.51688500279E-01 -0.48593864859E+03  0.86782041323E+03  0.10100000352E+00 0. -1.
       -3    1    3    3    0  502 -0.71901035219E+03 -0.51688500279E-01  0.34892036824E+03  0.79920042718E+03  0.10100000352E+00 0.  1.
</event>
<event>
 5   0  0.2541124E-04  0.1439065E+04  0.7818609E-02  0.8926017E-01
       -2   -1    0    0    0  501  0.00000000000E+00  0.00000000000E+00  0.70963232986E+03  0.70963232986E+03  0.25500000920E-02 0.  1.
        2   -1    0    0  501    0  0.00000000000E+00  0.00000000000E+00 -0.72957037778E+03  0.72957037779E+03  0.25500000920E-02 0. -1.
    10030    2    1    2    0    0  0.00000000000E+00  0.00000000000E+00 -0.19938047924E+02  0.14392027076E+04  0.14390645948E+04 0.  0.
        5    1    3    3  502    0  0.12860718650E+03 -0.69777271212E+03  0.10953332571E+03  0.71794582361E+03  0.46999998093E+01 0.  1.
       -5    1    3    3    0  502 -0.12860718650E+03  0.69777271212E+03 -0.12947137363E+03  0.72125688404E+03  0.46999998093E+01 0. -1.
</event>
<event>
 5   0  0.2608744E-04  0.1581886E+04  0.7818609E-02  0.8831754E-01
        2   -1    0    0  501    0  0.00000000000E+00  0.00000000000E+00  0.67573836207E+03  0.67573836207E+03  0.25500000920E-02 0. -1.
       -2   -1    0    0    0  501  0.00000000000E+00  0.00000000000E+00 -0.92578851309E+03  0.92578851309E+03  0.25500000920E-02 0.  1.
    10030    2    1    2    0    0  0.00000000000E+00  0.00000000000E+00 -0.25005015102E+03  0.16015268752E+04  0.15818859800E+04 0.  0.
        2    1    3    3  502    0  0.68257848165E+03  0.70597867125E+02  0.27316910229E+03  0.73859244574E+03  0.25500000920E-02 0. -1.
       -2    1    3    3    0  502 -0.68257848165E+03 -0.70597867125E+02 -0.52321925331E+03  0.86293442943E+03  0.25500000920E-02 0.  1.
</event>
<event>
 5   0  0.2541124E-04  0.1880552E+04  0.7818609E-02  0.8664598E-01
        2   -1    0    0  501    0  0.00000000000E+00  0.00000000000E+00  0.21533121374E+04  0.21533121374E+04  0.25500000920E-02 0.  1.
       -2   -1    0    0    0  501  0.00000000000E+00  0.00000000000E+00 -0.41058560618E+03  0.41058560619E+03  0.25500000920E-02 0. -1.
    10030    2    1    2    0    0  0.00000000000E+00  0.00000000000E+00  0.17427265313E+04  0.25638977436E+04  0.18805520139E+04 0.  0.
        5    1    3    3  502    0 -0.34735051690E+03 -0.87281575380E+03  0.92652788092E+03  0.13194452341E+04  0.46999998093E+01 0. -1.
       -5    1    3    3    0  502  0.34735051690E+03  0.87281575380E+03  0.81619865033E+03  0.12444525095E+04  0.46999998093E+01 0.  1.
</event>
<event>
 5   0  0.1324058E-04  0.1853324E+04  0.7818609E-02  0.8678445E-01
        1   -1    0    0  501    0  0.00000000000E+00  0.00000000000E+00  0.10661209501E+04  0.10661209501E+04  0.50400001928E-02 0.  1.
       -1   -1    0    0    0  501  0.00000000000E+00  0.00000000000E+00 -0.80544556948E+03  0.80544556950E+03  0.50400001928E-02 0. -1.
    10030    2    1    2    0    0  0.00000000000E+00  0.00000000000E+00  0.26067538060E+03  0.18715665196E+04  0.18533239283E+04 0.  0.
        5    1    3    3  502    0 -0.85089291012E+03 -0.28681711174E+03 -0.10082047640E+03  0.90358710623E+03  0.46999998093E+01 0. -1.
       -5    1    3    3    0  502  0.85089291012E+03  0.28681711174E+03  0.36149585701E+03  0.96797941337E+03  0.46999998093E+01 0.  1.
</event>
<event>
 5   0  0.1277709E-04  0.1901064E+04  0.7818609E-02  0.8654327E-01
        1   -1    0    0  501    0  0.00000000000E+00  0.00000000000E+00  0.11489977904E+04  0.11489977904E+04  0.50400001928E-02 0.  1.
       -1   -1    0    0    0  501  0.00000000000E+00  0.00000000000E+00 -0.78634707558E+03  0.78634707560E+03  0.50400001928E-02 0. -1.
    10030    2    1    2    0    0  0.00000000000E+00  0.00000000000E+00  0.36265071482E+03  0.19353448660E+04  0.19010639677E+04 0.  0.
        4    1    3    3  502    0  0.58297710236E+03  0.74900324976E+03  0.12900532709E+03  0.95786854909E+03  0.12699999809E+01 0. -1.
       -4    1    3    3    0  502 -0.58297710236E+03 -0.74900324976E+03  0.23364538774E+03  0.97747631692E+03  0.12699999809E+01 0.  1.
</event>
<event>
 5   0  0.2651828E-04  0.1889445E+04  0.7818609E-02  0.8660128E-01
        2   -1    0    0  501    0  0.00000000000E+00  0.00000000000E+00  0.11005574874E+04  0.11005574874E+04  0.25500000920E-02 0. -1.
       -2   -1    0    0    0  501  0.00000000000E+00  0.00000000000E+00 -0.81095334438E+03  0.81095334438E+03  0.25500000920E-02 0.  1.
    10030    2    1    2    0    0  0.00000000000E+00  0.00000000000E+00  0.28960414300E+03  0.19115108318E+04  0.18894451832E+04 0.  0.
        3    1    3    3  502    0 -0.70716982430E+03 -0.33591025361E+03  0.67972638399E+03  0.10367993182E+04  0.10100000352E+00 0. -1.
       -3    1    3    3    0  502  0.70716982430E+03  0.33591025361E+03 -0.39012224098E+03  0.87471151358E+03  0.10100000352E+00 0.  1.
</event>
<event>
 5   0  0.1255141E-04  0.1876424E+04  0.7818609E-02  0.8666682E-01
       -1   -1    0    0    0  501  0.00000000000E+00  0.00000000000E+00  0.90149813091E+03  0.90149813093E+03  0.50400001928E-02 0. -1.
        1   -1    0    0  501    0  0.00000000000E+00  0.00000000000E+00 -0.97642064959E+03  0.97642064961E+03  0.50400001928E-02 0.  1.
    10030    2    1    2    0    0  0.00000000000E+00  0.00000000000E+00 -0.74922518681E+02  0.18779187805E+04  0.18764236095E+04 0.  0.
        2    1    3    3  502    0  0.92290048826E+03  0.14871833603E+03 -0.11739314079E+03  0.94214839820E+03  0.25500000920E-02 0.  1.
       -2    1    3    3    0  502 -0.92290048826E+03 -0.14871833603E+03  0.42470622109E+02  0.93577038234E+03  0.25500000920E-02 0. -1.
</event>
<event>
 5   0  0.2562925E-04  0.1890644E+04  0.7818609E-02  0.8659527E-01
       -2   -1    0    0    0  501  0.00000000000E+00  0.00000000000E+00  0.78618756691E+03  0.78618756692E+03  0.25500000920E-02 0.  1.
        2   -1    0    0  501    0  0.00000000000E+00  0.00000000000E+00 -0.11366678076E+04  0.11366678076E+04  0.25500000920E-02 0. -1.
    10030    2    1    2    0    0  0.00000000000E+00  0.00000000000E+00 -0.35048024069E+03  0.19228553745E+04  0.18906444383E+04 0.  0.
        4    1    3    3  502    0 -0.47592752214E+03  0.68898633529E+03  0.27089416286E+03  0.88011046859E+03  0.12699999809E+01 0.  1.
       -4    1    3    3    0  502  0.47592752214E+03 -0.68898633529E+03 -0.62137440355E+03  0.10427449059E+04  0.12699999809E+01 0. -1.
</event>
<event>
 5   0  0.1277709E-04  0.1900570E+04  0.7818609E-02  0.8654573E-01
       -1   -1    0    0    0  501  0.00000000000E+00  0.00000000000E+00  0.45795693730E+03  0.45795693732E+03  0.50400001928E-02 0. -1.
        1   -1    0    0  501    0  0.00000000000E+00  0.00000000000E+00 -0.19718927024E+04  0.19718927024E+04  0.50400001928E-02 0.  1.
    10030    2    1    2    0    0  0.00000000000E+00  0.00000000000E+00 -0.15139357651E+04  0.24298496397E+04  0.19005703804E+04 0.  0.
        4    1    3    3  502    0 -0.39843228673E+03 -0.65400537378E+03 -0.14763003205E+04  0.16631102084E+04  0.12699999809E+01 0.  1.
       -4    1    3    3    0  502  0.39843228673E+03  0.65400537378E+03 -0.37635444646E+02  0.76673943138E+03  0.12699999809E+01 0. -1.
</event>
<event>
 5   0  0.1317527E-04  0.1717416E+04  0.7818609E-02  0.8751494E-01
        1   -1    0    0  501    0  0.00000000000E+00  0.00000000000E+00  0.84955871090E+03  0.84955871092E+03  0.50400001928E-02 0.  1.
       -1   -1    0    0    0  501  0.00000000000E+00  0.00000000000E+00 -0.86795534231E+03  0.86795534233E+03  0.50400001928E-02 0. -1.
    10030    2    1    2    0    0  0.00000000000E+00  0.00000000000E+00 -0.18396631414E+02  0.17175140532E+04  0.17174155254E+04 0.  0.
        1    1    3    3  502    0 -0.72255322193E+03  0.44908152619E+03  0.10752018772E+03  0.85750683174E+03  0.50400001928E-02 0. -1.
       -1    1    3    3    0  502  0.72255322193E+03 -0.44908152619E+03 -0.12591681913E+03  0.86000722151E+03  0.50400001928E-02 0.  1.
</event>
<event>
 5   0  0.1324058E-04  0.1954445E+04  0.7818609E-02  0.8628220E-01
        1   -1    0    0  501    0  0.00000000000E+00  0.00000000000E+00  0.47779187950E+03  0.47779187953E+03  0.50400001928E-02 0. -1.
       -1   -1    0    0    0  501  0.00000000000E+00  0.00000000000E+00 -0.19987020226E+04  0.19987020226E+04  0.50400001928E-02 0.  1.
    10030    2    1    2    0    0  0.00000000000E+00  0.00000000000E+00 -0.15209101431E+04  0.24764939022E+04  0.19544447764E+04 0.  0.
        5    1    3    3  502    0  0.22261798657E+02  0.53579961263E+03  0.27467630406E+03  0.60253296556E+03  0.46999998093E+01 0. -1.
       -5    1    3    3    0  502 -0.22261798657E+02 -0.53579961263E+03 -0.17955864472E+04  0.18739609366E+04  0.46999998093E+01 0.  1.
</event>
<event>
 5   0  0.1239615E-04  0.1798730E+04  0.7818609E-02  0.8706975E-01
        1   -1    0    0  501    0  0.00000000000E+00  0.00000000000E+00  0.10285518896E+04  0.10285518896E+04  0.50400001928E-02 0. -1.
       -1   -1    0    0    0  501  0.00000000000E+00  0.00000000000E+00 -0.78640420247E+03  0.78640420249E+03  0.50400001928E-02 0.  1.
    10030    2    1    2    0    0  0.00000000000E+00  0.00000000000E+00  0.24214768709E+03  0.18149560921E+04  0.17987301392E+04 0.  0.
        3    1    3    3  502    0 -0.86652796124E+03  0.22891659165E+03  0.19647413047E+03  0.91753779633E+03  0.10100000352E+00 0. -1.
       -3    1    3    3    0  502  0.86652796124E+03 -0.22891659165E+03  0.45673556627E+02  0.89741829574E+03  0.10100000352E+00 0.  1.
</event>
<event>
 5   0  0.2608744E-04  0.1883747E+04  0.7818609E-02  0.8662989E-01
        2   -1    0    0  501    0  0.00000000000E+00  0.00000000000E+00  0.11980135258E+04  0.11980135258E+04  0.25500000920E-02 0. -1.
       -2   -1    0    0    0  501  0.00000000000E+00  0.00000000000E+00 -0.74049721795E+03  0.74049721796E+03  0.25500000920E-02 0.  1.
    10030    2    1    2    0    0  0.00000000000E+00  0.00000000000E+00  0.45751630782E+03  0.19385107437E+04  0.18837469925E+04 0.  0.
        2    1    3    3  502    0  0.85859663182E+02  0.51078889134E+03  0.10382972268E+04  0.11603181910E+04  0.25500000920E-02 0. -1.
       -2    1    3    3    0  502 -0.85859663182E+02 -0.51078889134E+03 -0.58078091895E+03  0.77819255271E+03  0.25500000920E-02 0.  1.
</event>
<event>
 5   0  0.1277709E-04  0.1939622E+04  0.7818609E-02  0.8635382E-01
        1   -1    0    0  501    0  0.00000000000E+00  0.00000000000E+00  0.19040409392E+04  0.19040409392E+04  0.50400001928E-02 0.  1.
       -1   -1    0    0    0  501  0.00000000000E+00  0.00000000000E+00 -0.49396685604E+03  0.49396685607E+03  0.50400001928E-02 0. -1.
    10030    2    1    2    0    0  0.00000000000E+00  0.00000000000E+00  0.14100740832E+04  0.23980077953E+04  0.19396217328E+04 0.  0.
        4    1    3    3  502    0  0.24081146297E+03  0.37642352072E+03  0.17691744665E+04  0.18247368943E+04  0.12699999809E+01 0.  1.
       -4    1    3    3    0  502 -0.24081146297E+03 -0.37642352072E+03 -0.35910038336E+03  0.57327090095E+03  0.12699999809E+01 0. -1.
</event>
<event>
 5   0  0.2541124E-04  0.1893475E+04  0.7818609E-02  0.8658111E-01
        2   -1    0    0  501    0  0.00000000000E+00  0.00000000000E+00  0.20317091901E+04  0.20317091901E+04  0.25500000920E-02 0. -1.
       -2   -1    0    0    0  501  0.00000000000E+00  0.00000000000E+00 -0.44116146488E+03  0.44116146489E+03  0.25500000920E-02 0.  1.
    10030    2    1    2    0    0  0.00000000000E+00  0.00000000000E+00  0.15905477253E+04  0.24728706550E+04  0.18934749035E+04 0.  0.
        5    1    3    3  502    0  0.55292028738E+03  0.73639119262E+03  0.10822867414E+04  0.14210417001E+04  0.46999998093E+01 0. -1.
       -5    1    3    3    0  502 -0.55292028738E+03 -0.73639119262E+03  0.50826098388E+03  0.10518289550E+04  0.46999998093E+01 0.  1.
</event>
<event>
 5   0  0.2562925E-04  0.1922244E+04  0.7818609E-02  0.8643863E-01
        2   -1    0    0  501    0  0.00000000000E+00  0.00000000000E+00  0.14633525272E+04  0.14633525272E+04  0.25500000920E-02 0.  1.
       -2   -1    0    0    0  501  0.00000000000E+00  0.00000000000E+00 -0.63125992585E+03  0.63125992585E+03  0.25500000920E-02 0. -1.
    10030    2    1    2    0    0  0.00000000000E+00  0.00000000000E+00  0.83209260132E+03  0.20946124530E+04  0.19222443214E+04 0.  0.
        4    1    3    3  502    0  0.94131600677E+03  0.19075490191E+03  0.37689486105E+03  0.10317531713E+04  0.12699999809E+01 0. -1.
       -4    1    3    3    0  502 -0.94131600677E+03 -0.19075490191E+03  0.45519774028E+03  0.10628592818E+04  0.12699999809E+01 0.  1.
</event>
<event>
 5   0  0.1317527E-04  0.1874370E+04  0.7818609E-02  0.8667720E-01
        1   -1    0    0  501    0  0.00000000000E+00  0.00000000000E+00  0.25027158752E+04  0.25027158753E+04  0.50400001928E-02 0. -1.
       -1   -1    0    0    0  501  0.00000000000E+00  0.00000000000E+00 -0.35094492841E+03  0.35094492844E+03  0.50400001928E-02 0.  1.
    10030    2    1    2    0    0  0.00000000000E+00  0.00000000000E+00  0.21517709468E+04  0.28536608037E+04  0.18743697007E+04 0.  0.
        1    1    3    3  502    0  0.56540299739E+03  0.17315246671E+03  0.21828469153E+04  0.22615222709E+04  0.50400001928E-02 0. -1.
       -1    1    3    3    0  502 -0.56540299739E+03 -0.17315246671E+03 -0.31075968441E+02  0.59213853280E+03  0.50400001928E-02 0.  1.
</event>
<event>
 5   0  0.2541124E-04  0.1898077E+04  0.7818609E-02  0.8655814E-01
       -2   -1    0    0    0  501  0.00000000000E+00  0.00000000000E+00  0.64884140733E+03  0.64884140733E+03  0.25500000920E-02 0. -1.
        2   -1    0    0  501    0  0.00000000000E+00  0.00000000000E+00 -0.13881265200E+04  0.13881265200E+04  0.25500000920E-02 0.  1.
    10030    2    1    2    0    0  0.00000000000E+00  0.00000000000E+00 -0.73928511265E+03  0.20369679273E+04  0.18980768844E+04 0.  0.
        5    1    3    3  502    0  0.71163133666E+03  0.61244174249E+03 -0.51814381824E+03  0.10723801349E+04  0.46999998093E+01 0. -1.
       -5    1    3    3    0  502 -0.71163133666E+03 -0.61244174249E+03 -0.22114129442E+03  0.96458779246E+03  0.46999998093E+01 0.  1.
</event>
<event>
 5   0  0.2595012E-04  0.1705764E+04  0.7818609E-02  0.8758084E-01
        2   -1    0    0  501    0  0.00000000000E+00  0.00000000000E+00  0.76914929241E+03  0.76914929242E+03  0.25500000920E-02 0. -1.
       -2   -1    0    0    0  501  0.00000000000E+00  0.00000000000E+00 -0.94573027787E+03  0.94573027787E+03  0.25500000920E-02 0.  1.
    10030    2    1    2    0    0  0.00000000000E+00  0.00000000000E+00 -0.17658098546E+03  0.17148795703E+04  0.17057640799E+04 0.  0.
        1    1    3    3  502    0 -0.14978023813E+03  0.19439085148E+03 -0.90946994846E+03  0.94199655522E+03  0.50400001928E-02 0.  1.
       -1    1    3    3    0  502  0.14978023813E+03 -0.19439085148E+03  0.73288896300E+03  0.77288301507E+03  0.50400001928E-02 0. -1.
</event>
<event>
 5   0  0.2651828E-04  0.1829176E+04  0.7818609E-02  0.8690936E-01
        2   -1    0    0  501    0  0.00000000000E+00  0.00000000000E+00  0.19616629144E+04  0.19616629144E+04  0.25500000920E-02 0.  1.
       -2   -1    0    0    0  501  0.00000000000E+00  0.00000000000E+00 -0.42640903864E+03  0.42640903864E+03  0.25500000920E-02 0. -1.
    10030    2    1    2    0    0  0.00000000000E+00  0.00000000000E+00  0.15352538757E+04  0.23880719530E+04  0.18291755492E+04 0.  0.
        3    1    3    3  502    0  0.47782913572E+02 -0.88152113866E+03  0.45563689504E+03  0.99346248799E+03  0.10100000352E+00 0. -1.
       -3    1    3    3    0  502 -0.47782913572E+02  0.88152113866E+03  0.10796169807E+04  0.13946094650E+04  0.10100000352E+00 0.  1.
</event>
<event>
 5   0  0.1317527E-04  0.1897126E+04  0.7818609E-02  0.8656288E-01
        1   -1    0    0  501    0  0.00000000000E+00  0.00000000000E+00  0.14234380770E+04  0.14234380770E+04  0.50400001928E-02 0. -1.
       -1   -1    0    0    0  501  0.00000000000E+00  0.00000000000E+00 -0.63211136113E+03  0.63211136115E+03  0.50400001928E-02 0.  1.
    10030    2    1    2    0    0  0.00000000000E+00  0.00000000000E+00  0.79132671591E+03  0.20555494382E+04  0.18971255946E+04 0.  0.
        1    1    3    3  502    0 -0.38905877472E+03  0.13214348923E+02 -0.54157361099E+03  0.66696576025E+03  0.50400001928E-02 0.  1.
       -1    1    3    3    0  502  0.38905877472E+03 -0.13214348923E+02  0.13329003269E+04  0.13885836779E+04  0.50400001928E-02 0. -1.
</event>
<event>
 5   0  0.1255141E-04  0.1935406E+04  0.7818609E-02  0.8637431E-01
       -1   -1    0    0    0  501  0.00000000000E+00  0.00000000000E+00  0.59142509845E+03  0.59142509847E+03  0.50400001928E-02 0. -1.
        1   -1    0    0  501    0  0.00000000000E+00  0.00000000000E+00 -0.15833769566E+04  0.15833769566E+04  0.50400001928E-02 0.  1.
    10030    2    1    2    0    0  0.00000000000E+00  0.00000000000E+00 -0.99195185817E+03  0.21748020551E+04  0.19354057688E+04 0.  0.
        2    1    3    3  502    0 -0.66030329052E+03 -0.56646593507E+03 -0.19810036362E+02  0.87021636885E+03  0.25500000920E-02 0. -1.
       -2    1    3    3    0  502  0.66030329052E+03  0.56646593507E+03 -0.97214182181E+03  0.13045856863E+04  0.25500000920E-02 0.  1.
</event>
<event>
 5   0  0.2595012E-04  0.1914179E+04  0.7818609E-02  0.8647831E-01
       -2   -1    0    0    0  501  0.00000000000E+00  0.00000000000E+00  0.12958367892E+04  0.12958367892E+04  0.25500000920E-02 0. -1.
        2   -1    0    0  501    0  0.00000000000E+00  0.00000000000E+00 -0.70689459636E+03  0.70689459636E+03  0.25500000920E-02 0.  1.
    10030    2    1    2    0    0  0.00000000000E+00  0.00000000000E+00  0.58894219284E+03  0.20027313856E+04  0.19141787002E+04 0.  0.
        1    1    3    3  502    0  0.39342454565E+02  0.71717186735E+03 -0.36735581392E+03  0.80674259222E+03  0.50400001928E-02 0.  1.
       -1    1    3    3    0  502 -0.39342454565E+02 -0.71717186735E+03  0.95629800676E+03  0.11959887933E+04  0.50400001928E-02 0. -1.
</event>
<event>
 5   0  0.2651828E-04  0.2124781E+04  0.7818609E-02  0.8550405E-01
        2   -1    0    0  501    0  0.00000000000E+00  0.00000000000E+00  0.18109625190E+04  0.18109625190E+04  0.25500000920E-02 0. -1.
       -2   -1    0    0    0  501  0.00000000000E+00  0.00000000000E+00 -0.62324486906E+03  0.62324486907E+03  0.25500000920E-02 0.  1.
    10030    2    1    2    0    0  0.00000000000E+00  0.00000000000E+00  0.11877176500E+04  0.24342073881E+04  0.21247805515E+04 0.  0.
        3    1    3    3  502    0  0.62570113580E+02  0.91705244380E+03  0.12041385484E+04  0.15148761856E+04  0.10100000352E+00 0. -1.
       -3    1    3    3    0  502 -0.62570113580E+02 -0.91705244380E+03 -0.16420898395E+02  0.91933120251E+03  0.10100000352E+00 0.  1.
</event>
<event>
 5   0  0.1324058E-04  0.1919720E+04  0.7818609E-02  0.8645102E-01
       -1   -1    0    0    0  501  0.00000000000E+00  0.00000000000E+00  0.86602823872E+03  0.86602823873E+03  0.50400001928E-02 0. -1.
        1   -1    0    0  501    0  0.00000000000E+00  0.00000000000E+00 -0.10638579213E+04  0.10638579213E+04  0.50400001928E-02 0.  1.
    10030    2    1    2    0    0  0.00000000000E+00  0.00000000000E+00 -0.19782968258E+03  0.19298861600E+04  0.19197197731E+04 0.  0.
        5    1    3    3  502    0  0.38659500376E+03  0.19888274496E+03  0.76136161029E+03  0.87675745494E+03  0.46999998093E+01 0. -1.
       -5    1    3    3    0  502 -0.38659500376E+03 -0.19888274496E+03 -0.95919129287E+03  0.10531287051E+04  0.46999998093E+01 0.  1.
</event>
<event>
 5   0  0.2651828E-04  0.1910197E+04  0.7818609E-02  0.8649797E-01
       -2   -1    0    0    0  501  0.00000000000E+00  0.00000000000E+00  0.10594308617E+04  0.10594308617E+04  0.25500000920E-02 0. -1.
        2   -1    0    0  501    0  0.00000000000E+00  0.00000000000E+00 -0.86104059418E+03  0.86104059418E+03  0.25500000920E-02 0.  1.
    10030    2    1    2    0    0  0.00000000000E+00  0.00000000000E+00  0.19839026754E+03  0.19204714559E+04  0.19101968262E+04 0.  0.
        3    1    3    3  502    0  0.28723176228E+03 -0.22597892070E+03 -0.78795949465E+03  0.86859008357E+03  0.10100000352E+00 0.  1.
       -3    1    3    3    0  502 -0.28723176228E+03  0.22597892070E+03  0.98634976220E+03  0.10518813723E+04  0.10100000352E+00 0. -1.
</event>
<event>
 5   0  0.1277709E-04  0.1889150E+04  0.7818609E-02  0.8660276E-01
       -1   -1    0    0    0  501  0.00000000000E+00  0.00000000000E+00  0.44191435170E+03  0.44191435173E+03  0.50400001928E-02 0. -1.
        1   -1    0    0  501    0  0.00000000000E+00  0.00000000000E+00 -0.20189919715E+04  0.20189919715E+04  0.50400001928E-02 0.  1.
    10030    2    1    2    0    0  0.00000000000E+00  0.00000000000E+00 -0.15770776198E+04  0.24609063233E+04  0.18891495740E+04 0.  0.
        4    1    3    3  502    0  0.88504992253E+03 -0.13975522168E+03 -0.39910214899E+03  0.98088175923E+03  0.12699999809E+01 0. -1.
       -4    1    3    3    0  502 -0.88504992253E+03  0.13975522168E+03 -0.11779754708E+04  0.14800245640E+04  0.12699999809E+01 0.  1.
</event>
<event>
 5   0  0.1277709E-04  0.1888898E+04  0.7818609E-02  0.8660403E-01
        1   -1    0    0  501    0  0.00000000000E+00  0.00000000000E+00  0.78238068629E+03  0.78238068630E+03  0.50400001928E-02 0. -1.
       -1   -1    0    0    0  501  0.00000000000E+00  0.00000000000E+00 -0.11400888923E+04  0.11400888923E+04  0.50400001928E-02 0.  1.
    10030    2    1    2    0    0  0.00000000000E+00  0.00000000000E+00 -0.35770820603E+03  0.19224695786E+04  0.18888975939E+04 0.  0.
        4    1    3    3  502    0 -0.81476041155E+03 -0.44988860998E+03 -0.15541511045E+02  0.93084770026E+03  0.12699999809E+01 0. -1.
       -4    1    3    3    0  502  0.81476041155E+03  0.44988860998E+03 -0.34216669499E+03  0.99162187837E+03  0.12699999809E+01 0.  1.
</event>
<event>
 5   0  0.2651828E-04  0.1884211E+04  0.7818609E-02  0.8662756E-01
        2   -1    0    0  501    0  0.00000000000E+00  0.00000000000E+00  0.18498618787E+04  0.18498618787E+04  0.25500000920E-02 0. -1.
       -2   -1    0    0    0  501  0.00000000000E+00  0.00000000000E+00 -0.47979945445E+03  0.47979945446E+03  0.25500000920E-02 0.  1.
    10030    2    1    2    0    0  0.00000000000E+00  0.00000000000E+00  0.13700624243E+04  0.23296613332E+04  0.18842109438E+04 0.  0.
        3    1    3    3  502    0  0.33254213336E+03  0.40494099392E+03  0.16530726385E+04  0.17341310900E+04  0.10100000352E+00 0. -1.
       -3    1    3    3    0  502 -0.33254213336E+03 -0.40494099392E+03 -0.28301021420E+03  0.59553024319E+03  0.10100000352E+00 0.  1.
</event>
<event>
 5   0  0.1324058E-04  0.1927062E+04  0.7818609E-02  0.8641502E-01
        1   -1    0    0  501    0  0.00000000000E+00  0.00000000000E+00  0.46904052449E+03  0.46904052452E+03  0.50400001928E-02 0. -1.
       -1   -1    0    0    0  501  0.00000000000E+00  0.00000000000E+00 -0.19793427307E+04  0.19793427307E+04  0.50400001928E-02 0.  1.
    10030    2    1    2    0    0  0.00000000000E+00  0.00000000000E+00 -0.15103022063E+04  0.24483832553E+04  0.19270619633E+04 0.  0.
        5    1    3    3  502    0  0.21654829620E+03 -0.88811448525E+03 -0.36825678616E+03  0.98553318262E+03  0.46999998093E+01 0. -1.
       -5    1    3    3    0  502 -0.21654829620E+03  0.88811448525E+03 -0.11420454201E+04  0.14628500726E+04  0.46999998093E+01 0.  1.
</event>
<event>
 5   0  0.1317527E-04  0.1886762E+04  0.7818609E-02  0.8661474E-01
       -1   -1    0    0    0  501  0.00000000000E+00  0.00000000000E+00  0.86515862180E+03  0.86515862181E+03  0.50400001928E-02 0.  1.
        1   -1    0    0  501    0  0.00000000000E+00  0.00000000000E+00 -0.10286762712E+04  0.10286762712E+04  0.50400001928E-02 0. -1.
    10030    2    1    2    0    0  0.00000000000E+00  0.00000000000E+00 -0.16351764938E+03  0.18938348930E+04  0.18867624600E+04 0.  0.
        1    1    3    3  502    0 -0.49313820381E+03  0.60020133043E+03  0.45554315414E+03  0.90052567449E+03  0.50400001928E-02 0.  1.
       -1    1    3    3    0  502  0.49313820381E+03 -0.60020133043E+03 -0.61906080352E+03  0.99330921851E+03  0.50400001928E-02 0. -1.
</event>
<event>
 5   0  0.1277709E-04  0.1895972E+04  0.7818609E-02  0.8656864E-01
        1   -1    0    0  501    0  0.00000000000E+00  0.00000000000E+00  0.15529532544E+04  0.15529532544E+04  0.50400001928E-02 0.  1.
       -1   -1    0    0    0  501  0.00000000000E+00  0.00000000000E+00 -0.57868914784E+03  0.57868914786E+03  0.50400001928E-02 0. -1.
    10030    2    1    2    0    0  0.00000000000E+00  0.00000000000E+00  0.97426410655E+03  0.21316424023E+04  0.18959717249E+04 0.  0.
        4    1    3    3  502    0 -0.26763700393E+03  0.73982088155E+03  0.10817490639E+04  0.13375900541E+04  0.12699999809E+01 0.  1.
       -4    1    3    3    0  502  0.26763700393E+03 -0.73982088155E+03 -0.10748495737E+03  0.79405234815E+03  0.12699999809E+01 0. -1.
</event>
<event>
 5   0  0.2608744E-04  0.1820184E+04  0.7818609E-02  0.8695639E-01
       -2   -1    0    0    0  501  0.00000000000E+00  0.00000000000E+00  0.10972863940E+04  0.10972863940E+04  0.25500000920E-02 0.  1.
        2   -1    0    0  501    0  0.00000000000E+00  0.00000000000E+00 -0.75483264283E+03  0.75483264284E+03  0.25500000920E-02 0. -1.
    10030    2    1    2    0    0  0.00000000000E+00  0.00000000000E+00  0.34245375121E+03  0.18521190369E+04  0.18201841542E+04 0.  0.
        2    1    3    3  502    0  0.30702830153E+03  0.20102281011E+03  0.10186597424E+04  0.10827484560E+04  0.25500000920E-02 0.  1.
       -2    1    3    3    0  502 -0.30702830153E+03 -0.20102281011E+03 -0.67620599123E+03  0.76937058087E+03  0.25500000920E-02 0. -1.
</event>
<event>
 5   0  0.2608744E-04  0.1900427E+04  0.7818609E-02  0.8654644E-01
        2   -1    0    0  501    0  0.00000000000E+00  0.00000000000E+00  0.70589242028E+03  0.70589242028E+03  0.25500000920E-02 0.  1.
       -2   -1    0    0    0  501  0.00000000000E+00  0.00000000000E+00 -0.12790977201E+04  0.12790977201E+04  0.25500000920E-02 0. -1.
    10030    2    1    2    0    0  0.00000000000E+00  0.00000000000E+00 -0.57320529979E+03  0.19849901403E+04  0.19004266736E+04 0.  0.
        2    1    3    3  502    0 -0.20218085805E+03 -0.69621497596E+03  0.35498813419E+03  0.80722299740E+03  0.25500000920E-02 0. -1.
       -2    1    3    3    0  502  0.20218085805E+03  0.69621497596E+03 -0.92819343398E+03  0.11777671429E+04  0.25500000920E-02 0.  1.
</event>
<event>
 5   0  0.2608744E-04  0.2086534E+04  0.7818609E-02  0.8567198E-01
       -2   -1    0    0    0  501  0.00000000000E+00  0.00000000000E+00  0.11086076880E+04  0.11086076880E+04  0.25500000920E-02 0. -1.
        2   -1    0    0  501    0  0.00000000000E+00  0.00000000000E+00 -0.98177790850E+03  0.98177790850E+03  0.25500000920E-02 0.  1.
    10030    2    1    2    0    0  0.00000000000E+00  0.00000000000E+00  0.12682977951E+03  0.20903855965E+04  0.20865344831E+04 0.  0.
        2    1    3    3  502    0  0.10579852314E+03 -0.10295956687E+04  0.19459918663E+03  0.10531521314E+04  0.25500000920E-02 0. -1.
       -2    1    3    3    0  502 -0.10579852314E+03  0.10295956687E+04 -0.67769407121E+02  0.10372334651E+04  0.25500000920E-02 0.  1.
</event>
<event>
 5   0  0.1255141E-04  0.1900130E+04  0.7818609E-02  0.8654792E-01
        1   -1    0    0  501    0  0.00000000000E+00  0.00000000000E+00  0.75659768226E+03  0.75659768227E+03  0.50400001928E-02 0.  1.
       -1   -1    0    0    0  501  0.00000000000E+00  0.00000000000E+00 -0.11930032131E+04  0.11930032131E+04  0.50400001928E-02 0. -1.
    10030    2    1    2    0    0  0.00000000000E+00  0.00000000000E+00 -0.43640553082E+03  0.19496008954E+04  0.19001299597E+04 0.  0.
        2    1    3    3  502    0  0.48965227304E+03 -0.54468588796E+03 -0.83908688349E+03  0.11137813354E+04  0.25500000920E-02 0. -1.
       -2    1    3    3    0  502 -0.48965227304E+03  0.54468588796E+03  0.40268135267E+03  0.83581955997E+03  0.25500000920E-02 0.  1.
</event>
<event>
 5   0  0.1277709E-04  0.1898302E+04  0.7818609E-02  0.8655702E-01
        1   -1    0    0  501    0  0.00000000000E+00  0.00000000000E+00  0.12072368275E+04  0.12072368275E+04  0.50400001928E-02 0.  1.
       -1   -1    0    0    0  501  0.00000000000E+00  0.00000000000E+00 -0.74623944447E+03  0.74623944449E+03  0.50400001928E-02 0. -1.
    10030    2    1    2    0    0  0.00000000000E+00  0.00000000000E+00  0.46099738298E+03  0.19534762720E+04  0.18983021251E+04 0.  0.
        4    1    3    3  502    0 -0.93190448946E+02  0.77344966541E+03  0.78845435668E+03  0.11084090987E+04  0.12699999809E+01 0.  1.
       -4    1    3    3    0  502  0.93190448946E+02 -0.77344966541E+03 -0.32745697371E+03  0.84506717321E+03  0.12699999809E+01 0. -1.
</event>
<event>
 5   0  0.1239615E-04  0.1892689E+04  0.7818609E-02  0.8658504E-01
       -1   -1    0    0    0  501  0.00000000000E+00  0.00000000000E+00  0.62495809281E+03  0.62495809283E+03  0.50400001928E-02 0.  1.
        1   -1    0    0  501    0  0.00000000000E+00  0.00000000000E+00 -0.14330040602E+04  0.14330040602E+04  0.50400001928E-02 0. -1.
    10030    2    1    2    0    0  0.00000000000E+00  0.00000000000E+00 -0.80804596735E+03  0.20579621530E+04  0.18926885475E+04 0.  0.
        3    1    3    3  502    0  0.53876330178E+02  0.92205660536E+03 -0.62811802304E+03  0.11169705920E+04  0.10100000352E+00 0. -1.
       -3    1    3    3    0  502 -0.53876330178E+02 -0.92205660536E+03 -0.17992794432E+03  0.94099156095E+03  0.10100000352E+00 0.  1.
</event>
<event>
 5   0  0.2541124E-04  0.2062441E+04  0.7818609E-02  0.8577971E-01
        2   -1    0    0  501    0  0.00000000000E+00  0.00000000000E+00  0.67943827076E+03  0.67943827077E+03  0.25500000920E-02 0. -1.
       -2   -1    0    0    0  501  0.00000000000E+00  0.00000000000E+00 -0.15651389721E+04  0.15651389721E+04  0.25500000920E-02 0.  1.
    10030    2    1    2    0    0  0.00000000000E+00  0.00000000000E+00 -0.88570070134E+03  0.22445772429E+04  0.20624406093E+04 0.  0.
        5    1    3    3  502    0 -0.17762346359E+03  0.49946310732E+02 -0.15470162277E+04  0.15579878137E+04  0.46999998093E+01 0.  1.
       -5    1    3    3    0  502  0.17762346359E+03 -0.49946310732E+02  0.66131552640E+03  0.68658942916E+03  0.46999998093E+01 0. -1.
</event>
<event>
 5   0  0.1277709E-04  0.1889499E+04  0.7818609E-02  0.8660101E-01
       -1   -1    0    0    0  501  0.00000000000E+00  0.00000000000E+00  0.65315280153E+03  0.65315280155E+03  0.50400001928E-02 0. -1.
        1   -1    0    0  501    0  0.00000000000E+00  0.00000000000E+00 -0.13665276218E+04  0.13665276218E+04  0.50400001928E-02 0.  1.
    10030    2    1    2    0    0  0.00000000000E+00  0.00000000000E+00 -0.71337482027E+03  0.20196804234E+04  0.18894987109E+04 0.  0.
        4    1    3    3  502    0 -0.80928972944E+03  0.41155207944E+03 -0.63588202476E+03  0.11084550251E+04  0.12699999809E+01 0.  1.
       -4    1    3    3    0  502  0.80928972944E+03 -0.41155207944E+03 -0.77492795506E+02  0.91122539831E+03  0.12699999809E+01 0. -1.
</event>
<event>
 5   0  0.2541124E-04  0.1888770E+04  0.7818609E-02  0.8660466E-01
        2   -1    0    0  501    0  0.00000000000E+00  0.00000000000E+00  0.10869500870E+04  0.10869500870E+04  0.25500000920E-02 0. -1.
       -2   -1    0    0    0  501  0.00000000000E+00  0.00000000000E+00 -0.82051901203E+03  0.82051901203E+03  0.25500000920E-02 0.  1.
    10030    2    1    2    0    0  0.00000000000E+00  0.00000000000E+00  0.26643107496E+03  0.19074690990E+04  0.18887701941E+04 0.  0.
        5    1    3    3  502    0 -0.36214416370E+03  0.73850171874E+02 -0.74443285094E+03  0.83114655913E+03  0.46999998093E+01 0.  1.
       -5    1    3    3    0  502  0.36214416370E+03 -0.73850171874E+02  0.10108639259E+04  0.10763225399E+04  0.46999998093E+01 0. -1.
</event>
<event>
 5   0  0.1277709E-04  0.1910650E+04  0.7818609E-02  0.8649573E-01
       -1   -1    0    0    0  501  0.00000000000E+00  0.00000000000E+00  0.80076515526E+03  0.80076515528E+03  0.50400001928E-02 0. -1.
        1   -1    0    0  501    0  0.00000000000E+00  0.00000000000E+00 -0.11397174848E+04  0.11397174848E+04  0.50400001928E-02 0.  1.
    10030    2    1    2    0    0  0.00000000000E+00  0.00000000000E+00 -0.33895232957E+03  0.19404826401E+04  0.19106502021E+04 0.  0.
        4    1    3    3  502    0  0.72497430598E+03  0.57703861112E+03 -0.40566507227E+03  0.10114974379E+04  0.12699999809E+01 0. -1.
       -4    1    3    3    0  502 -0.72497430598E+03 -0.57703861112E+03  0.66712742701E+02  0.92898520225E+03  0.12699999809E+01 0.  1.
</event>
<event>
 5   0  0.9266125E-05  0.1934616E+04  0.7818609E-02  0.8637815E-01
       -3   -1    0    0    0  501  0.00000000000E+00  0.00000000000E+00  0.44313036330E+03  0.44313037481E+03  0.10100000352E+00 0.  1.
        3   -1    0    0  501    0  0.00000000000E+00  0.00000000000E+00 -0.21115332298E+04  0.21115332322E+04  0.10100000352E+00 0. -1.
    10030    2    1    2    0    0  0.00000000000E+00  0.00000000000E+00 -0.16684028665E+04  0.25546636070E+04  0.19346157293E+04 0.  0.
        4    1    3    3  502    0  0.70096558577E+03 -0.22589101626E+03 -0.16623396956E+04  0.18181733637E+04  0.12699999809E+01 0. -1.
       -4    1    3    3    0  502 -0.70096558577E+03  0.22589101626E+03 -0.60631708601E+01  0.73649024339E+03  0.12699999809E+01 0.  1.
</event>
<event>
 5   0  0.1239615E-04  0.2003360E+04  0.7818609E-02  0.8605051E-01
       -1   -1    0    0    0  501  0.00000000000E+00  0.00000000000E+00  0.58949053086E+03  0.58949053088E+03  0.50400001928E-02 0. -1.
        1   -1    0    0  501    0  0.00000000000E+00  0.00000000000E+00 -0.17020845352E+04  0.17020845352E+04  0.50400001928E-02 0.  1.
    10030    2    1    2    0    0  0.00000000000E+00  0.00000000000E+00 -0.11125940044E+04  0.22915750661E+04  0.20033598941E+04 0.  0.
        3    1    3    3  502    0  0.58401479445E+03  0.71626716042E+03 -0.99820658455E+03  0.13603412516E+04  0.10100000352E+00 0.  1.
       -3    1    3    3    0  502 -0.58401479445E+03 -0.71626716042E+03 -0.11438741981E+03  0.93123381449E+03  0.10100000352E+00 0. -1.
</event>
<event>
 5   0  0.1239615E-04  0.1898373E+04  0.7818609E-02  0.8655666E-01
       -1   -1    0    0    0  501  0.00000000000E+00  0.00000000000E+00  0.68966528263E+03  0.68966528265E+03  0.50400001928E-02 0.  1.
        1   -1    0    0  501    0  0.00000000000E+00  0.00000000000E+00 -0.13063662075E+04  0.13063662075E+04  0.50400001928E-02 0. -1.
    10030    2    1    2    0    0  0.00000000000E+00  0.00000000000E+00 -0.61670092487E+03  0.19960314902E+04  0.18983734298E+04 0.  0.
        3    1    3    3  502    0  0.67940721627E+03  0.40168589569E+03 -0.86274086701E+03  0.11693021586E+04  0.10100000352E+00 0. -1.
       -3    1    3    3    0  502 -0.67940721627E+03 -0.40168589569E+03  0.24603994214E+03  0.82672933155E+03  0.10100000352E+00 0.  1.
</event>
<event>
 5   0  0.2562925E-04  0.1892724E+04  0.7818609E-02  0.8658487E-01
       -2   -1    0    0    0  501  0.00000000000E+00  0.00000000000E+00  0.47124726024E+03  0.47124726025E+03  0.25500000920E-02 0. -1.
        2   -1    0    0  501    0  0.00000000000E+00  0.00000000000E+00 -0.19004899064E+04  0.19004899064E+04  0.25500000920E-02 0.  1.
    10030    2    1    2    0    0  0.00000000000E+00  0.00000000000E+00 -0.14292426461E+04  0.23717371666E+04  0.18927236053E+04 0.  0.
        4    1    3    3  502    0 -0.10472128216E+03  0.63181001848E+03  0.15845254239E+03  0.65974181881E+03  0.12699999809E+01 0. -1.
       -4    1    3    3    0  502  0.10472128216E+03 -0.63181001848E+03 -0.15876951885E+04  0.17119953478E+04  0.12699999809E+01 0.  1.
</event>
<event>
 5   0  0.2608744E-04  0.1890484E+04  0.7818609E-02  0.8659608E-01
        2   -1    0    0  501    0  0.00000000000E+00  0.00000000000E+00  0.14041308651E+04  0.14041308651E+04  0.25500000920E-02 0. -1.
       -2   -1    0    0    0  501  0.00000000000E+00  0.00000000000E+00 -0.63632435804E+03  0.63632435804E+03  0.25500000920E-02 0.  1.
    10030    2    1    2    0    0  0.00000000000E+00  0.00000000000E+00  0.76780650711E+03  0.20404552232E+04  0.18904842463E+04 0.  0.
        2    1    3    3  502    0 -0.25170449910E+03 -0.71371532018E+03 -0.22736126332E+03  0.79021380473E+03  0.25500000920E-02 0.  1.
       -2    1    3    3    0  502  0.25170449910E+03  0.71371532018E+03  0.99516777042E+03  0.12502414185E+04  0.25500000920E-02 0. -1.
</event>
<event>
 5   0  0.1239615E-04  0.1876542E+04  0.7818609E-02  0.8666622E-01
        1   -1    0    0  501    0  0.00000000000E+00  0.00000000000E+00  0.91642327337E+03  0.91642327339E+03  0.50400001928E-02 0.  1.
       -1   -1    0    0    0  501  0.00000000000E+00  0.00000000000E+00 -0.96063985183E+03  0.96063985184E+03  0.50400001928E-02 0. -1.
    10030    2    1    2    0    0  0.00000000000E+00  0.00000000000E+00 -0.44216578457E+02  0.18770631252E+04  0.18765422645E+04 0.  0.
        3    1    3    3  502    0 -0.12310461197E+03 -0.51416732582E+01  0.90829585568E+03  0.91661472492E+03  0.10100000352E+00 0.  1.
       -3    1    3    3    0  502  0.12310461197E+03  0.51416732582E+01 -0.95251243413E+03  0.96044840032E+03  0.10100000352E+00 0. -1.
</event>
<event>
 5   0  0.2651828E-04  0.1452347E+04  0.7818609E-02  0.8916775E-01
       -2   -1    0    0    0  501  0.00000000000E+00  0.00000000000E+00  0.64414824702E+03  0.64414824702E+03  0.25500000920E-02 0. -1.
        2   -1    0    0  501    0  0.00000000000E+00  0.00000000000E+00 -0.81864355738E+03  0.81864355739E+03  0.25500000920E-02 0.  1.
    10030    2    1    2    0    0  0.00000000000E+00  0.00000000000E+00 -0.17449531036E+03  0.14627918044E+04  0.14523468077E+04 0.  0.
        3    1    3    3  502    0 -0.49385623646E+03 -0.37639260872E+03 -0.46646897848E+03  0.77663292248E+03  0.10100000352E+00 0.  1.
       -3    1    3    3    0  502  0.49385623646E+03  0.37639260872E+03  0.29197366812E+03  0.68615888194E+03  0.10100000352E+00 0. -1.
</event>
<event>
 5   0  0.1317527E-04  0.1898815E+04  0.7818609E-02  0.8655446E-01
       -1   -1    0    0    0  501  0.00000000000E+00  0.00000000000E+00  0.60727500791E+03  0.60727500793E+03  0.50400001928E-02 0. -1.
        1   -1    0    0  501    0  0.00000000000E+00  0.00000000000E+00 -0.14842940504E+04  0.14842940504E+04  0.50400001928E-02 0.  1.
    10030    2    1    2    0    0  0.00000000000E+00  0.00000000000E+00 -0.87701904247E+03  0.20915690583E+04  0.18988150844E+04 0.  0.
        1    1    3    3  502    0  0.26750360381E+02 -0.94880408028E+03 -0.46134876245E+03  0.10553612866E+04  0.50400001928E-02 0. -1.
       -1    1    3    3    0  502 -0.26750360381E+02  0.94880408028E+03 -0.41567028002E+03  0.10362077718E+04  0.50400001928E-02 0.  1.
</event>
<event>
 5   0  0.1277709E-04  0.1585188E+04  0.7818609E-02  0.8829700E-01
        1   -1    0    0  501    0  0.00000000000E+00  0.00000000000E+00  0.15384113579E+04  0.15384113580E+04  0.50400001928E-02 0. -1.
       -1   -1    0    0    0  501  0.00000000000E+00  0.00000000000E+00 -0.40834676805E+03  0.40834676808E+03  0.50400001928E-02 0.  1.
    10030    2    1    2    0    0  0.00000000000E+00  0.00000000000E+00  0.11300645899E+04  0.19467581260E+04  0.15851880721E+04 0.  0.
        4    1    3    3  502    0  0.20853585015E+03 -0.38121179286E+03 -0.24903122192E+03  0.50082711009E+03  0.12699999809E+01 0.  1.
       -4    1    3    3    0  502 -0.20853585015E+03  0.38121179286E+03  0.13790958118E+04  0.14459310159E+04  0.12699999809E+01 0. -1.
</event>
<event>
 5   0  0.1324058E-04  0.1900158E+04  0.7818609E-02  0.8654778E-01
        1   -1    0    0  501    0  0.00000000000E+00  0.00000000000E+00  0.10898241747E+04  0.10898241747E+04  0.50400001928E-02 0.  1.
       -1   -1    0    0    0  501  0.00000000000E+00  0.00000000000E+00 -0.82825329019E+03  0.82825329020E+03  0.50400001928E-02 0. -1.
    10030    2    1    2    0    0  0.00000000000E+00  0.00000000000E+00  0.26157088450E+03  0.19180774649E+04  0.19001583707E+04 0.  0.
        5    1    3    3  502    0  0.83269787907E+03  0.30508581546E+03  0.47482982410E+03  0.10059565420E+04  0.46999998093E+01 0.  1.
       -5    1    3    3    0  502 -0.83269787907E+03 -0.30508581546E+03 -0.21325893960E+03  0.91212092286E+03  0.46999998093E+01 0. -1.
</event>
<event>
 5   0  0.2651828E-04  0.1849767E+04  0.7818609E-02  0.8680273E-01
        2   -1    0    0  501    0  0.00000000000E+00  0.00000000000E+00  0.17307170269E+04  0.17307170269E+04  0.25500000920E-02 0. -1.
       -2   -1    0    0    0  501  0.00000000000E+00  0.00000000000E+00 -0.49425164724E+03  0.49425164724E+03  0.25500000920E-02 0.  1.
    10030    2    1    2    0    0  0.00000000000E+00  0.00000000000E+00  0.12364653796E+04  0.22249686741E+04  0.18497672734E+04 0.  0.
        3    1    3    3  502    0 -0.58678399213E+03  0.17851980485E+03 -0.21444422206E+03  0.64974695746E+03  0.10100000352E+00 0.  1.
       -3    1    3    3    0  502  0.58678399213E+03 -0.17851980485E+03  0.14509096017E+04  0.15752217167E+04  0.10100000352E+00 0. -1.
</event>
<event>
 5   0  0.1317527E-04  0.1806294E+04  0.7818609E-02  0.8702959E-01
        1   -1    0    0  501    0  0.00000000000E+00  0.00000000000E+00  0.60803356952E+03  0.60803356954E+03  0.50400001928E-02 0.  1.
       -1   -1    0    0    0  501  0.00000000000E+00  0.00000000000E+00 -0.13414963395E+04  0.13414963395E+04  0.50400001928E-02 0. -1.
    10030    2    1    2    0    0  0.00000000000E+00  0.00000000000E+00 -0.73346276995E+03  0.19495299090E+04  0.18062943368E+04 0.  0.
        1    1    3    3  502    0 -0.52507697732E+03 -0.36477858564E+03  0.32174364507E+03  0.71574312559E+03  0.50400001928E-02 0.  1.
       -1    1    3    3    0  502  0.52507697732E+03  0.36477858564E+03 -0.10552064150E+04  0.12337867834E+04  0.50400001928E-02 0. -1.
</event>
<event>
 5   0  0.2595012E-04  0.1894661E+04  0.7818609E-02  0.8657518E-01
        2   -1    0    0  501    0  0.00000000000E+00  0.00000000000E+00  0.10331020080E+04  0.10331020080E+04  0.25500000920E-02 0. -1.
       -2   -1    0    0    0  501  0.00000000000E+00  0.00000000000E+00 -0.86868029393E+03  0.86868029394E+03  0.25500000920E-02 0.  1.
    10030    2    1    2    0    0  0.00000000000E+00  0.00000000000E+00  0.16442171402E+03  0.19017823019E+04  0.18946612953E+04 0.  0.
        1    1    3    3  502    0  0.18462912197E+02 -0.94195264615E+03  0.18167764392E+03  0.95949071546E+03  0.50400001928E-02 0. -1.
       -1    1    3    3    0  502 -0.18462912197E+02  0.94195264615E+03 -0.17255929897E+02  0.94229158643E+03  0.50400001928E-02 0.  1.
</event>
<event>
 5   0  0.1277709E-04  0.1871526E+04  0.7818609E-02  0.8669161E-01
        1   -1    0    0  501    0  0.00000000000E+00  0.00000000000E+00  0.82653317424E+03  0.82653317425E+03  0.50400001928E-02 0.  1.
       -1   -1    0    0    0  501  0.00000000000E+00  0.00000000000E+00 -0.10594277330E+04  0.10594277330E+04  0.50400001928E-02 0. -1.
    10030    2    1    2    0    0  0.00000000000E+00  0.00000000000E+00 -0.23289455872E+03  0.18859609072E+04  0.18715257594E+04 0.  0.
        4    1    3    3  502    0 -0.35709927215E+03 -0.58067941817E+03  0.52954478535E+03  0.86320783676E+03  0.12699999809E+01 0.  1.
       -4    1    3    3    0  502  0.35709927215E+03  0.58067941817E+03 -0.76243934407E+03  0.10227530705E+04  0.12699999809E+01 0. -1.
</event>
<event>
 5   0  0.1324058E-04  0.1912466E+04  0.7818609E-02  0.8648676E-01
        1   -1    0    0  501    0  0.00000000000E+00  0.00000000000E+00  0.12223022346E+04  0.12223022346E+04  0.50400001928E-02 0. -1.
       -1   -1    0    0    0  501  0.00000000000E+00  0.00000000000E+00 -0.74808168152E+03  0.74808168154E+03  0.50400001928E-02 0.  1.
    10030    2    1    2    0    0  0.00000000000E+00  0.00000000000E+00  0.47422055311E+03  0.19703839162E+04  0.19124663773E+04 0.  0.
        5    1    3    3  502    0  0.65677160455E+02  0.44233720307E+03 -0.63369879451E+03  0.77561069022E+03  0.46999998093E+01 0.  1.
       -5    1    3    3    0  502 -0.65677160455E+02 -0.44233720307E+03  0.11079193476E+04  0.11947732259E+04  0.46999998093E+01 0. -1.
</event>
<event>
 5   0  0.1255141E-04  0.1889016E+04  0.7818609E-02  0.8660343E-01
       -1   -1    0    0    0  501  0.00000000000E+00  0.00000000000E+00  0.78232657957E+03  0.78232657959E+03  0.50400001928E-02 0. -1.
        1   -1    0    0  501    0  0.00000000000E+00  0.00000000000E+00 -0.11403108165E+04  0.11403108166E+04  0.50400001928E-02 0.  1.
    10030    2    1    2    0    0  0.00000000000E+00  0.00000000000E+00 -0.35798423697E+03  0.19226373961E+04  0.18890161045E+04 0.  0.
        2    1    3    3  502    0 -0.10954438166E+03 -0.90408282256E+03 -0.43390892297E+03  0.10087827690E+04  0.25500000920E-02 0.  1.
       -2    1    3    3    0  502  0.10954438166E+03  0.90408282256E+03  0.75924685997E+02  0.91385462714E+03  0.25500000920E-02 0. -1.
</event>
<event>
 5   0  0.1277709E-04  0.1847706E+04  0.7818609E-02  0.8681333E-01
        1   -1    0    0  501    0  0.00000000000E+00  0.00000000000E+00  0.16230829204E+04  0.16230829204E+04  0.50400001928E-02 0. -1.
       -1   -1    0    0    0  501  0.00000000000E+00  0.00000000000E+00 -0.52585401108E+03  0.52585401110E+03  0.50400001928E-02 0.  1.
    10030    2    1    2    0    0  0.00000000000E+00  0.00000000000E+00  0.10972289093E+04  0.21489369315E+04  0.18477063230E+04 0.  0.
        4    1    3    3  502    0 -0.23315757967E+03 -0.61684523143E+03 -0.20389577935E+03  0.69024314428E+03  0.12699999809E+01 0.  1.
       -4    1    3    3    0  502  0.23315757967E+03  0.61684523143E+03  0.13011246886E+04  0.14586937872E+04  0.12699999809E+01 0. -1.
</event>
<event>
 5   0  0.1324058E-04  0.1891211E+04  0.7818609E-02  0.8659244E-01
        1   -1    0    0  501    0  0.00000000000E+00  0.00000000000E+00  0.92122546548E+03  0.92122546549E+03  0.50400001928E-02 0.  1.
       -1   -1    0    0    0  501  0.00000000000E+00  0.00000000000E+00 -0.97063049647E+03  0.97063049648E+03  0.50400001928E-02 0. -1.
    10030    2    1    2    0    0  0.00000000000E+00  0.00000000000E+00 -0.49405030990E+02  0.18918559620E+04  0.18912107560E+04 0.  0.
        5    1    3    3  502    0  0.33286099837E+03  0.78790364207E+03 -0.42802593866E+03  0.95646060431E+03  0.46999998093E+01 0. -1.
       -5    1    3    3    0  502 -0.33286099837E+03 -0.78790364207E+03  0.37862090767E+03  0.93539535767E+03  0.46999998093E+01 0.  1.
</event>
<event>
 5   0  0.2608744E-04  0.1945662E+04  0.7818609E-02  0.8632455E-01
        2   -1    0    0  501    0  0.00000000000E+00  0.00000000000E+00  0.11008288879E+04  0.11008288879E+04  0.25500000920E-02 0.  1.
       -2   -1    0    0    0  501  0.00000000000E+00  0.00000000000E+00 -0.85971614772E+03  0.85971614773E+03  0.25500000920E-02 0. -1.
    10030    2    1    2    0    0  0.00000000000E+00  0.00000000000E+00  0.24111274022E+03  0.19605450357E+04  0.19456622223E+04 0.  0.
        2    1    3    3  502    0  0.41691499307E+03 -0.58650671529E+03  0.78023356931E+03  0.10614012725E+04  0.25500000920E-02 0.  1.
       -2    1    3    3    0  502 -0.41691499307E+03  0.58650671529E+03 -0.53912082909E+03  0.89914376320E+03  0.25500000920E-02 0. -1.
</event>
<event>
 5   0  0.1317527E-04  0.1866686E+04  0.7818609E-02  0.8671619E-01
       -1   -1    0    0    0  501  0.00000000000E+00  0.00000000000E+00  0.68591044774E+03  0.68591044776E+03  0.50400001928E-02 0. -1.
        1   -1    0    0  501    0  0.00000000000E+00  0.00000000000E+00 -0.12700332584E+04  0.12700332584E+04  0.50400001928E-02 0.  1.
    10030    2    1    2    0    0  0.00000000000E+00  0.00000000000E+00 -0.58412281064E+03  0.19559437061E+04  0.18666859199E+04 0.  0.
        1    1    3    3  502    0 -0.10128868407E+03 -0.43628521182E+03 -0.11500718087E+04  0.12342079844E+04  0.50400001928E-02 0.  1.
       -1    1    3    3    0  502  0.10128868407E+03  0.43628521182E+03  0.56594899807E+03  0.72173572173E+03  0.50400001928E-02 0. -1.
</event>
<event>
 5   0  0.1317527E-04  0.1924614E+04  0.7818609E-02  0.8642701E-01
       -1   -1    0    0    0  501  0.00000000000E+00  0.00000000000E+00  0.53417655589E+03  0.53417655591E+03  0.50400001928E-02 0. -1.
        1   -1    0    0  501    0  0.00000000000E+00  0.00000000000E+00 -0.17335740857E+04  0.17335740857E+04  0.50400001928E-02 0.  1.
    10030    2    1    2    0    0  0.00000000000E+00  0.00000000000E+00 -0.11993975298E+04  0.22677506416E+04  0.19246138673E+04 0.  0.
        1    1    3    3  502    0 -0.72846270662E+02  0.79925575771E+03 -0.12253226393E+04  0.14647634333E+04  0.50400001928E-02 0.  1.
       -1    1    3    3    0  502  0.72846270662E+02 -0.79925575771E+03  0.25925109417E+02  0.80298720830E+03  0.50400001928E-02 0. -1.
</event>
<event>
 5   0  0.1317527E-04  0.1898798E+04  0.7818609E-02  0.8655455E-01
        1   -1    0    0  501    0  0.00000000000E+00  0.00000000000E+00  0.73727433400E+03  0.73727433402E+03  0.50400001928E-02 0.  1.
       -1   -1    0    0    0  501  0.00000000000E+00  0.00000000000E+00 -0.12225553464E+04  0.12225553464E+04  0.50400001928E-02 0. -1.
    10030    2    1    2    0    0  0.00000000000E+00  0.00000000000E+00 -0.48528101235E+03  0.19598296804E+04  0.18987982292E+04 0.  0.
        1    1    3    3  502    0 -0.19725226473E+03 -0.45777929912E+03 -0.10766269041E+04  0.11864214400E+04  0.50400001928E-02 0. -1.
       -1    1    3    3    0  502  0.19725226473E+03  0.45777929912E+03  0.59134589172E+03  0.77340824040E+03  0.50400001928E-02 0.  1.
</event>
<event>
 5   0  0.2562925E-04  0.1924745E+04  0.7818609E-02  0.8642636E-01
        2   -1    0    0  501    0  0.00000000000E+00  0.00000000000E+00  0.95476030562E+03  0.95476030562E+03  0.25500000920E-02 0.  1.
       -2   -1    0    0    0  501  0.00000000000E+00  0.00000000000E+00 -0.97004532167E+03  0.97004532168E+03  0.25500000920E-02 0. -1.
    10030    2    1    2    0    0  0.00000000000E+00  0.00000000000E+00 -0.15285016056E+02  0.19248056273E+04  0.19247449367E+04 0.  0.
        4    1    3    3  502    0 -0.24300227546E+02  0.79313988130E+03 -0.55217577701E+03  0.96672699041E+03  0.12699999809E+01 0. -1.
       -4    1    3    3    0  502  0.24300227546E+02 -0.79313988130E+03  0.53689076096E+03  0.95807863689E+03  0.12699999809E+01 0.  1.
</event>
<event>
 5   0  0.1239615E-04  0.1888464E+04  0.7818609E-02  0.8660620E-01
       -1   -1    0    0    0  501  0.00000000000E+00  0.00000000000E+00  0.41950538557E+03  0.41950538560E+03  0.50400001928E-02 0. -1.
        1   -1    0    0  501    0  0.00000000000E+00  0.00000000000E+00 -0.21252985086E+04  0.21252985086E+04  0.50400001928E-02 0.  1.
    10030    2    1    2    0    0  0.00000000000E+00  0.00000000000E+00 -0.17057931230E+04  0.25448038942E+04  0.18884641065E+04 0.  0.
        3    1    3    3  502    0  0.63104124870E+03  0.64982566683E+03 -0.12121846620E+04  0.15132343241E+04  0.10100000352E+00 0.  1.
       -3    1    3    3    0  502 -0.63104124870E+03 -0.64982566683E+03 -0.49360846105E+03  0.10315695701E+04  0.10100000352E+00 0. -1.
</event>
<event>
 5   0  0.2562925E-04  0.1889498E+04  0.7818609E-02  0.8660102E-01
        2   -1    0    0  501    0  0.00000000000E+00  0.00000000000E+00  0.89065905164E+03  0.89065905164E+03  0.25500000920E-02 0.  1.
       -2   -1    0    0    0  501  0.00000000000E+00  0.00000000000E+00 -0.10021240253E+04  0.10021240253E+04  0.25500000920E-02 0. -1.
    10030    2    1    2    0    0  0.00000000000E+00  0.00000000000E+00 -0.11146497365E+03  0.18927830769E+04  0.18894981704E+04 0.  0.
        4    1    3    3  502    0 -0.28467949803E+03 -0.46348411040E+03  0.71806708981E+03  0.90082289911E+03  0.12699999809E+01 0.  1.
       -4    1    3    3    0  502  0.28467949803E+03  0.46348411040E+03 -0.82953206345E+03  0.99196017783E+03  0.12699999809E+01 0. -1.
</event>
<event>
 5   0  0.2651828E-04  0.1778537E+04  0.7818609E-02  0.8717797E-01
        2   -1    0    0  501    0  0.00000000000E+00  0.00000000000E+00  0.71226382807E+03  0.71226382808E+03  0.25500000920E-02 0. -1.
       -2   -1    0    0    0  501  0.00000000000E+00  0.00000000000E+00 -0.11102600007E+04  0.11102600007E+04  0.25500000920E-02 0.  1.
    10030    2    1    2    0    0  0.00000000000E+00  0.00000000000E+00 -0.39799617258E+03  0.18225238287E+04  0.17785365200E+04 0.  0.
        3    1    3    3  502    0 -0.24847055073E+03 -0.85173266528E+03 -0.13741278010E+03  0.89781313759E+03  0.10100000352E+00 0.  1.
       -3    1    3    3    0  502  0.24847055073E+03  0.85173266528E+03 -0.26058339248E+03  0.92471069115E+03  0.10100000352E+00 0. -1.
</event>
<event>
 5   0  0.2595012E-04  0.1898547E+04  0.7818609E-02  0.8655580E-01
        2   -1    0    0  501    0  0.00000000000E+00  0.00000000000E+00  0.77008144305E+03  0.77008144306E+03  0.25500000920E-02 0. -1.
       -2   -1    0    0    0  501  0.00000000000E+00  0.00000000000E+00 -0.11701625722E+04  0.11701625722E+04  0.25500000920E-02 0.  1.
    10030    2    1    2    0    0  0.00000000000E+00  0.00000000000E+00 -0.40008112911E+03  0.19402440152E+04  0.18985473206E+04 0.  0.
        1    1    3    3  502    0  0.40550985689E+03  0.33087697259E+03 -0.10093952300E+04  0.11370121131E+04  0.50400001928E-02 0.  1.
       -1    1    3    3    0  502 -0.40550985689E+03 -0.33087697259E+03  0.60931410087E+03  0.80323190211E+03  0.50400001928E-02 0. -1.
</event>
<event>
 5   0  0.2562925E-04  0.1908092E+04  0.7818609E-02  0.8650839E-01
       -2   -1    0    0    0  501  0.00000000000E+00  0.00000000000E+00  0.78460783390E+03  0.78460783391E+03  0.25500000920E-02 0.  1.
        2   -1    0    0  501    0  0.00000000000E+00  0.00000000000E+00 -0.11600748860E+04  0.11600748860E+04  0.25500000920E-02 0. -1.
    10030    2    1    2    0    0  0.00000000000E+00  0.00000000000E+00 -0.37546705210E+03  0.19446827199E+04  0.19080920769E+04 0.  0.
        4    1    3    3  502    0  0.93486577733E+02 -0.75094119026E+03  0.40439824887E+03  0.85801629823E+03  0.12699999809E+01 0.  1.
       -4    1    3    3    0  502 -0.93486577733E+02  0.75094119026E+03 -0.77986530097E+03  0.10866664217E+04  0.12699999809E+01 0. -1.
</event>
<event>
 5   0  0.1239615E-04  0.1894960E+04  0.7818609E-02  0.8657369E-01
       -1   -1    0    0    0  501  0.00000000000E+00  0.00000000000E+00  0.50419989018E+03  0.50419989020E+03  0.50400001928E-02 0.  1.
        1   -1    0    0  501    0  0.00000000000E+00  0.00000000000E+00 -0.17804815879E+04  0.17804815879E+04  0.50400001928E-02 0. -1.
    10030    2    1    2    0    0  0.00000000000E+00  0.00000000000E+00 -0.12762816977E+04  0.22846814781E+04  0.18949602857E+04 0.  0.
        3    1    3    3  502    0 -0.11539307511E+03  0.77063680669E+03 -0.12879937050E+04  0.15053652195E+04  0.10100000352E+00 0. -1.
       -3    1    3    3    0  502  0.11539307511E+03 -0.77063680669E+03  0.11712007334E+02  0.77931625860E+03  0.10100000352E+00 0.  1.
</event>
<event>
 5   0  0.2651828E-04  0.1901044E+04  0.7818609E-02  0.8654337E-01
        2   -1    0    0  501    0  0.00000000000E+00  0.00000000000E+00  0.75556439804E+03  0.75556439804E+03  0.25500000920E-02 0. -1.
       -2   -1    0    0    0  501  0.00000000000E+00  0.00000000000E+00 -0.11957845671E+04  0.11957845671E+04  0.25500000920E-02 0.  1.
    10030    2    1    2    0    0  0.00000000000E+00  0.00000000000E+00 -0.44022016904E+03  0.19513489651E+04  0.19010441832E+04 0.  0.
        3    1    3    3  502    0 -0.66324981358E+03 -0.26632837358E+03  0.42309827705E+03  0.83056804660E+03  0.10100000352E+00 0. -1.
       -3    1    3    3    0  502  0.66324981358E+03  0.26632837358E+03 -0.86331844609E+03  0.11207809185E+04  0.10100000352E+00 0.  1.
</event>
<event>
 5   0  0.1239615E-04  0.1850458E+04  0.7818609E-02  0.8679917E-01
        1   -1    0    0  501    0  0.00000000000E+00  0.00000000000E+00  0.83915349741E+03  0.83915349742E+03  0.50400001928E-02 0.  1.
       -1   -1    0    0    0  501  0.00000000000E+00  0.00000000000E+00 -0.10201337759E+04  0.10201337759E+04  0.50400001928E-02 0. -1.
    10030    2    1    2    0    0  0.00000000000E+00  0.00000000000E+00 -0.18098027851E+03  0.18592872734E+04  0.18504581335E+04 0.  0.
        3    1    3    3  502    0  0.37710682132E+03  0.69242657378E+03 -0.57693303284E+03  0.97699326986E+03  0.10100000352E+00 0. -1.
       -3    1    3    3    0  502 -0.37710682132E+03 -0.69242657378E+03  0.39595275432E+03  0.88229400350E+03  0.10100000352E+00 0.  1.
</event>
<event>
 5   0  0.2562925E-04  0.1889812E+04  0.7818609E-02  0.8659944E-01
       -2   -1    0    0    0  501  0.00000000000E+00  0.00000000000E+00  0.79856364563E+03  0.79856364563E+03  0.25500000920E-02 0. -1.
        2   -1    0    0  501    0  0.00000000000E+00  0.00000000000E+00 -0.11180667055E+04  0.11180667055E+04  0.25500000920E-02 0.  1.
    10030    2    1    2    0    0  0.00000000000E+00  0.00000000000E+00 -0.31950305985E+03  0.19166303511E+04  0.18898120800E+04 0.  0.
        4    1    3    3  502    0  0.69737109222E+03  0.49501496408E+03 -0.56729929374E+03  0.10262535537E+04  0.12699999809E+01 0. -1.
       -4    1    3    3    0  502 -0.69737109222E+03 -0.49501496408E+03  0.24779623389E+03  0.89037679741E+03  0.12699999809E+01 0.  1.
</event>
<event>
 5   0  0.2608744E-04  0.1973452E+04  0.7818609E-02  0.8619134E-01
       -2   -1    0    0    0  501  0.00000000000E+00  0.00000000000E+00  0.12304156906E+04  0.12304156906E+04  0.25500000920E-02 0.  1.
        2   -1    0    0  501    0  0.00000000000E+00  0.00000000000E+00 -0.79130032664E+03  0.79130032665E+03  0.25500000920E-02 0. -1.
    10030    2    1    2    0    0  0.00000000000E+00  0.00000000000E+00  0.43911536395E+03  0.20217160172E+04  0.19734521407E+04 0.  0.
        2    1    3    3  502    0  0.30778948563E+03 -0.29029784100E+03  0.11327738862E+04  0.12092079561E+04  0.25500000920E-02 0.  1.
       -2    1    3    3    0  502 -0.30778948563E+03  0.29029784100E+03 -0.69365852221E+03  0.81250806113E+03  0.25500000920E-02 0. -1.
</event>
<event>
 5   0  0.2595012E-04  0.1895703E+04  0.7818609E-02  0.8656998E-01
       -2   -1    0    0    0  501  0.00000000000E+00  0.00000000000E+00  0.86897959465E+03  0.86897959466E+03  0.25500000920E-02 0.  1.
        2   -1    0    0  501    0  0.00000000000E+00  0.00000000000E+00 -0.10338823362E+04  0.10338823362E+04  0.25500000920E-02 0. -1.
    10030    2    1    2    0    0  0.00000000000E+00  0.00000000000E+00 -0.16490274159E+03  0.19028619309E+04  0.18957031977E+04 0.  0.
        1    1    3    3  502    0 -0.34780780701E+02 -0.11764117033E+03  0.86097740749E+03  0.86967306725E+03  0.50400001928E-02 0.  1.
       -1    1    3    3    0  502  0.34780780701E+02  0.11764117033E+03 -0.10258801491E+04  0.10331888637E+04  0.50400001928E-02 0. -1.
</event>
<event>
 5   0  0.2651828E-04  0.1918561E+04  0.7818609E-02  0.8645672E-01
        2   -1    0    0  501    0  0.00000000000E+00  0.00000000000E+00  0.93561505951E+03  0.93561505951E+03  0.25500000920E-02 0.  1.
       -2   -1    0    0    0  501  0.00000000000E+00  0.00000000000E+00 -0.98354421652E+03  0.98354421653E+03  0.25500000920E-02 0. -1.
    10030    2    1    2    0    0  0.00000000000E+00  0.00000000000E+00 -0.47929157016E+02  0.19191592760E+04  0.19185606904E+04 0.  0.
        3    1    3    3  502    0 -0.87669850938E+02  0.40450145880E+03  0.84170205882E+03  0.93796044638E+03  0.10100000352E+00 0.  1.
       -3    1    3    3    0  502  0.87669850938E+02 -0.40450145880E+03 -0.88963121584E+03  0.98119882966E+03  0.10100000352E+00 0. -1.
</event>
<event>
 5   0  0.2608744E-04  0.1830496E+04  0.7818609E-02  0.8690248E-01
       -2   -1    0    0    0  501  0.00000000000E+00  0.00000000000E+00  0.11094482327E+04  0.11094482327E+04  0.25500000920E-02 0. -1.
        2   -1    0    0  501    0  0.00000000000E+00  0.00000000000E+00 -0.75504131501E+03  0.75504131501E+03  0.25500000920E-02 0.  1.
    10030    2    1    2    0    0  0.00000000000E+00  0.00000000000E+00  0.35440691766E+03  0.18644895477E+04  0.18304963835E+04 0.  0.
        2    1    3    3  502    0  0.49722200641E+03 -0.64523363528E+03  0.60223313497E+03  0.10130354962E+04  0.25500000920E-02 0. -1.
       -2    1    3    3    0  502 -0.49722200641E+03  0.64523363528E+03 -0.24782621731E+03  0.85145405146E+03  0.25500000920E-02 0.  1.
</event>
<event>
 5   0  0.1255141E-04  0.1899668E+04  0.7818609E-02  0.8655022E-01
       -1   -1    0    0    0  501  0.00000000000E+00  0.00000000000E+00  0.12186013479E+04  0.12186013479E+04  0.50400001928E-02 0.  1.
        1   -1    0    0  501    0  0.00000000000E+00  0.00000000000E+00 -0.74034405485E+03  0.74034405487E+03  0.50400001928E-02 0. -1.
    10030    2    1    2    0    0  0.00000000000E+00  0.00000000000E+00  0.47825729308E+03  0.19589454028E+04  0.18996676164E+04 0.  0.
        2    1    3    3  502    0  0.65687511598E+03 -0.27464511881E+03 -0.40919417898E+03  0.82119104683E+03  0.25500000920E-02 0. -1.
       -2    1    3    3    0  502 -0.65687511598E+03  0.27464511881E+03  0.88745147206E+03  0.11377543560E+04  0.25500000920E-02 0.  1.
</event>
<event>
 5   0  0.1255141E-04  0.1901395E+04  0.7818609E-02  0.8654163E-01
       -1   -1    0    0    0  501  0.00000000000E+00  0.00000000000E+00  0.95019859535E+03  0.95019859536E+03  0.50400001928E-02 0.  1.
        1   -1    0    0  501    0  0.00000000000E+00  0.00000000000E+00 -0.95119620402E+03  0.95119620403E+03  0.50400001928E-02 0. -1.
    10030    2    1    2    0    0  0.00000000000E+00  0.00000000000E+00 -0.99760866588E+00  0.19013947994E+04  0.19013945377E+04 0.  0.
        2    1    3    3  502    0 -0.51741836374E+03  0.36757815695E+03 -0.70830525407E+03  0.95106876594E+03  0.25500000920E-02 0. -1.
       -2    1    3    3    0  502  0.51741836374E+03 -0.36757815695E+03  0.70730764540E+03  0.95032603345E+03  0.25500000920E-02 0.  1.
</event>
<event>
 5   0  0.1277709E-04  0.1906512E+04  0.7818609E-02  0.8651622E-01
        1   -1    0    0  501    0  0.00000000000E+00  0.00000000000E+00  0.16278382890E+04  0.16278382890E+04  0.50400001928E-02 0.  1.
       -1   -1    0    0    0  501  0.00000000000E+00  0.00000000000E+00 -0.55822335080E+03  0.55822335082E+03  0.50400001928E-02 0. -1.
    10030    2    1    2    0    0  0.00000000000E+00  0.00000000000E+00  0.10696149382E+04  0.21860616398E+04  0.19065123596E+04 0.  0.
        4    1    3    3  502    0  0.64745882158E+03 -0.65240454343E+03  0.24504573285E+03  0.95125371905E+03  0.12699999809E+01 0.  1.
       -4    1    3    3    0  502 -0.64745882158E+03  0.65240454343E+03  0.82456920537E+03  0.12348079208E+04  0.12699999809E+01 0. -1.
</event>
<event>
 5   0  0.1324058E-04  0.1846576E+04  0.7818609E-02  0.8681916E-01
        1   -1    0    0  501    0  0.00000000000E+00  0.00000000000E+00  0.54355946388E+03  0.54355946390E+03  0.50400001928E-02 0. -1.
       -1   -1    0    0    0  501  0.00000000000E+00  0.00000000000E+00 -0.15682927316E+04  0.15682927316E+04  0.50400001928E-02 0.  1.
    10030    2    1    2    0    0  0.00000000000E+00  0.00000000000E+00 -0.10247332677E+04  0.21118521955E+04  0.18465755944E+04 0.  0.
        5    1    3    3  502    0 -0.70140438517E+03  0.45066187532E+03 -0.96606055461E+03  0.12760718328E+04  0.46999998093E+01 0.  1.
       -5    1    3    3    0  502  0.70140438517E+03 -0.45066187532E+03 -0.58672713132E+02  0.83578036269E+03  0.46999998093E+01 0. -1.
</event>
<event>
 5   0  0.1324058E-04  0.1946279E+04  0.7818609E-02  0.8632157E-01
       -1   -1    0    0    0  501  0.00000000000E+00  0.00000000000E+00  0.98501166747E+03  0.98501166748E+03  0.50400001928E-02 0. -1.
        1   -1    0    0  501    0  0.00000000000E+00  0.00000000000E+00 -0.96140995704E+03  0.96140995705E+03  0.50400001928E-02 0.  1.
    10030    2    1    2    0    0  0.00000000000E+00  0.00000000000E+00  0.23601710432E+02  0.19464216245E+04  0.19462785257E+04 0.  0.
        5    1    3    3  502    0  0.40927999345E+03  0.42653493733E+03 -0.76126035787E+03  0.96383690958E+03  0.46999998093E+01 0.  1.
       -5    1    3    3    0  502 -0.40927999345E+03 -0.42653493733E+03  0.78486206830E+03  0.98258471495E+03  0.46999998093E+01 0. -1.
</event>
<event>
 5   0  0.2651828E-04  0.2149547E+04  0.7818609E-02  0.8539726E-01
        2   -1    0    0  501    0  0.00000000000E+00  0.00000000000E+00  0.21841999151E+04  0.21841999151E+04  0.25500000920E-02 0. -1.
       -2   -1    0    0    0  501  0.00000000000E+00  0.00000000000E+00 -0.52886082861E+03  0.52886082861E+03  0.25500000920E-02 0.  1.
    10030    2    1    2    0    0  0.00000000000E+00  0.00000000000E+00  0.16553390865E+04  0.27130607438E+04  0.21495467215E+04 0.  0.
        3    1    3    3  502    0 -0.27587742771E+03 -0.25867073012E+03  0.20974492680E+04  0.21312701246E+04  0.10100000352E+00 0. -1.
       -3    1    3    3    0  502  0.27587742771E+03  0.25867073012E+03 -0.44211018152E+03  0.58179061916E+03  0.10100000352E+00 0.  1.
</event>
<event>
 5   0  0.2651828E-04  0.1887260E+04  0.7818609E-02  0.8661224E-01
        2   -1    0    0  501    0  0.00000000000E+00  0.00000000000E+00  0.10098427504E+04  0.10098427504E+04  0.25500000920E-02 0. -1.
       -2   -1    0    0    0  501  0.00000000000E+00  0.00000000000E+00 -0.88175887983E+03  0.88175887984E+03  0.25500000920E-02 0.  1.
    10030    2    1    2    0    0  0.00000000000E+00  0.00000000000E+00  0.12808387054E+03  0.18916016302E+04  0.18872602496E+04 0.  0.
        3    1    3    3  502    0  0.59200970473E+03 -0.51609752186E+03  0.58831847610E+03  0.98130055645E+03  0.10100000352E+00 0. -1.
       -3    1    3    3    0  502 -0.59200970473E+03  0.51609752186E+03 -0.46023460555E+03  0.91030107377E+03  0.10100000352E+00 0.  1.
</event>
<event>
 5   0  0.9266125E-05  0.1895427E+04  0.7818609E-02  0.8657136E-01
        3   -1    0    0  501    0  0.00000000000E+00  0.00000000000E+00  0.86582475098E+03  0.86582475687E+03  0.10100000352E+00 0.  1.
       -3   -1    0    0    0  501  0.00000000000E+00  0.00000000000E+00 -0.10373469508E+04  0.10373469557E+04  0.10100000352E+00 0. -1.
    10030    2    1    2    0    0  0.00000000000E+00  0.00000000000E+00 -0.17152219984E+03  0.19031717126E+04  0.18954267864E+04 0.  0.
        4    1    3    3  502    0  0.12372116882E+03 -0.52536206283E+03  0.69642574382E+03  0.88109173996E+03  0.12699999809E+01 0.  1.
       -4    1    3    3    0  502 -0.12372116882E+03  0.52536206283E+03 -0.86794794366E+03  0.10220799726E+04  0.12699999809E+01 0. -1.
</event>
<event>
 5   0  0.2595012E-04  0.1902479E+04  0.7818609E-02  0.8653623E-01
       -2   -1    0    0    0  501  0.00000000000E+00  0.00000000000E+00  0.56554326365E+03  0.56554326366E+03  0.25500000920E-02 0.  1.
        2   -1    0    0  501    0  0.00000000000E+00  0.00000000000E+00 -0.15999780326E+04  0.15999780326E+04  0.25500000920E-02 0. -1.
    10030    2    1    2    0    0  0.00000000000E+00  0.00000000000E+00 -0.10344347690E+04  0.21655212963E+04  0.19024792228E+04 0.  0.
        1    1    3    3  502    0 -0.13241326151E+03 -0.11570076345E+03 -0.15813176829E+04  0.15910642830E+04  0.50400001928E-02 0. -1.
       -1    1    3    3    0  502  0.13241326151E+03  0.11570076345E+03  0.54688291393E+03  0.57445701324E+03  0.50400001928E-02 0.  1.
</event>
<event>
 5   0  0.1255141E-04  0.1887810E+04  0.7818609E-02  0.8660948E-01
       -1   -1    0    0    0  501  0.00000000000E+00  0.00000000000E+00  0.82934680856E+03  0.82934680858E+03  0.50400001928E-02 0. -1.
        1   -1    0    0  501    0  0.00000000000E+00  0.00000000000E+00 -0.10742875439E+04  0.10742875439E+04  0.50400001928E-02 0.  1.
    10030    2    1    2    0    0  0.00000000000E+00  0.00000000000E+00 -0.24494073536E+03  0.19036343525E+04  0.18878103147E+04 0.  0.
        2    1    3    3  502    0 -0.11143219203E+03 -0.64863389283E+03 -0.80476139365E+03  0.10396075996E+04  0.25500000920E-02 0.  1.
       -2    1    3    3    0  502  0.11143219203E+03  0.64863389283E+03  0.55982065829E+03  0.86402675295E+03  0.25500000920E-02 0. -1.
</event>
<event>
 5   0  0.2651828E-04  0.1675516E+04  0.7818609E-02  0.8775453E-01
        2   -1    0    0  501    0  0.00000000000E+00  0.00000000000E+00  0.40565531294E+03  0.40565531295E+03  0.25500000920E-02 0. -1.
       -2   -1    0    0    0  501  0.00000000000E+00  0.00000000000E+00 -0.17301358961E+04  0.17301358961E+04  0.25500000920E-02 0.  1.
    10030    2    1    2    0    0  0.00000000000E+00  0.00000000000E+00 -0.13244805831E+04  0.21357912090E+04  0.16755164199E+04 0.  0.
        3    1    3    3  502    0 -0.50786290135E+03  0.43150402270E+03 -0.15123326089E+02  0.66659520953E+03  0.10100000352E+00 0. -1.
       -3    1    3    3    0  502  0.50786290135E+03 -0.43150402270E+03 -0.13093572570E+04  0.14691959995E+04  0.10100000352E+00 0.  1.
</event>
<event>
 5   0  0.2562925E-04  0.1876878E+04  0.7818609E-02  0.8666452E-01
        2   -1    0    0  501    0  0.00000000000E+00  0.00000000000E+00  0.15573576858E+04  0.15573576858E+04  0.25500000920E-02 0. -1.
       -2   -1    0    0    0  501  0.00000000000E+00  0.00000000000E+00 -0.56548815337E+03  0.56548815337E+03  0.25500000920E-02 0.  1.
    10030    2    1    2    0    0  0.00000000000E+00  0.00000000000E+00  0.99186953246E+03  0.21228458392E+04  0.18768775367E+04 0.  0.
        4    1    3    3  502    0  0.93584466282E+03 -0.64303564890E+02  0.46546918319E+03  0.10471883091E+04  0.12699999809E+01 0.  1.
       -4    1    3    3    0  502 -0.93584466282E+03  0.64303564890E+02  0.52640034927E+03  0.10756575301E+04  0.12699999809E+01 0. -1.
</event>
<event>
 5   0  0.2541124E-04  0.1906430E+04  0.7818609E-02  0.8651663E-01
       -2   -1    0    0    0  501  0.00000000000E+00  0.00000000000E+00  0.16483795606E+04  0.16483795606E+04  0.25500000920E-02 0. -1.
        2   -1    0    0  501    0  0.00000000000E+00  0.00000000000E+00 -0.55121915703E+03  0.55121915704E+03  0.25500000920E-02 0.  1.
    10030    2    1    2    0    0  0.00000000000E+00  0.00000000000E+00  0.10971604035E+04  0.21995987176E+04  0.19064295338E+04 0.  0.
        5    1    3    3  502    0  0.64892166534E+02 -0.26217893604E+03  0.16032931149E+04  0.16258904299E+04  0.46999998093E+01 0. -1.
       -5    1    3    3    0  502 -0.64892166534E+02  0.26217893604E+03 -0.50613271141E+03  0.57370828766E+03  0.46999998093E+01 0.  1.
</event>
<event>
 5   0  0.1317527E-04  0.1944860E+04  0.7818609E-02  0.8632843E-01
        1   -1    0    0  501    0  0.00000000000E+00  0.00000000000E+00  0.13072672130E+04  0.13072672130E+04  0.50400001928E-02 0.  1.
       -1   -1    0    0    0  501  0.00000000000E+00  0.00000000000E+00 -0.72335627355E+03  0.72335627357E+03  0.50400001928E-02 0. -1.
    10030    2    1    2    0    0  0.00000000000E+00  0.00000000000E+00  0.58391093949E+03  0.20306234866E+04  0.19448598302E+04 0.  0.
        1    1    3    3  502    0 -0.45912042521E+03  0.74869954234E+03  0.72783010567E+03  0.11406486016E+04  0.50400001928E-02 0.  1.
       -1    1    3    3    0  502  0.45912042521E+03 -0.74869954234E+03 -0.14391916619E+03  0.88997488502E+03  0.50400001928E-02 0. -1.
</event>
<event>
 5   0  0.1239615E-04  0.1627423E+04  0.7818609E-02  0.8803876E-01
       -1   -1    0    0    0  501  0.00000000000E+00  0.00000000000E+00  0.13960350546E+04  0.13960350546E+04  0.50400001928E-02 0.  1.
        1   -1    0    0  501    0  0.00000000000E+00  0.00000000000E+00 -0.47429072309E+03  0.47429072312E+03  0.50400001928E-02 0. -1.
    10030    2    1    2    0    0  0.00000000000E+00  0.00000000000E+00  0.92174433148E+03  0.18703257777E+04  0.16274230864E+04 0.  0.
        3    1    3    3  502    0 -0.30128420289E+03  0.37054203314E+03  0.12180329565E+04  0.13083110726E+04  0.10100000352E+00 0.  1.
       -3    1    3    3    0  502  0.30128420289E+03 -0.37054203314E+03 -0.29628862505E+03  0.56201470512E+03  0.10100000352E+00 0. -1.
</event>
<event>
 5   0  0.1277709E-04  0.1850941E+04  0.7818609E-02  0.8679669E-01
        1   -1    0    0  501    0  0.00000000000E+00  0.00000000000E+00  0.11660089857E+04  0.11660089857E+04  0.50400001928E-02 0. -1.
       -1   -1    0    0    0  501  0.00000000000E+00  0.00000000000E+00 -0.73455323976E+03  0.73455323978E+03  0.50400001928E-02 0.  1.
    10030    2    1    2    0    0  0.00000000000E+00  0.00000000000E+00  0.43145574593E+03  0.19005622255E+04  0.18509410342E+04 0.  0.
        4    1    3    3  502    0 -0.44062563853E+03 -0.71263929731E+03  0.61931505843E+03  0.10419013753E+04  0.12699999809E+01 0. -1.
       -4    1    3    3    0  502  0.44062563853E+03  0.71263929731E+03 -0.18785931250E+03  0.85866085016E+03  0.12699999809E+01 0.  1.
</event>
<event>
 5   0  0.1324058E-04  0.1950760E+04  0.7818609E-02  0.8629995E-01
       -1   -1    0    0    0  501  0.00000000000E+00  0.00000000000E+00  0.52022955737E+03  0.52022955739E+03  0.50400001928E-02 0.  1.
        1   -1    0    0  501    0  0.00000000000E+00  0.00000000000E+00 -0.18287423044E+04  0.18287423044E+04  0.50400001928E-02 0. -1.
    10030    2    1    2    0    0  0.00000000000E+00  0.00000000000E+00 -0.13085127470E+04  0.23489718618E+04  0.19507596465E+04 0.  0.
        5    1    3    3  502    0 -0.16362340880E+03  0.65161568022E+03 -0.15056790185E+04  0.16487774293E+04  0.46999998093E+01 0. -1.
       -5    1    3    3    0  502  0.16362340880E+03 -0.65161568022E+03  0.19716627152E+03  0.70019443245E+03  0.46999998093E+01 0.  1.
</event>
<event>
 5   0  0.2651828E-04  0.1792936E+04  0.7818609E-02  0.8710065E-01
        2   -1    0    0  501    0  0.00000000000E+00  0.00000000000E+00  0.78699438741E+03  0.78699438742E+03  0.25500000920E-02 0.  1.
       -2   -1    0    0    0  501  0.00000000000E+00  0.00000000000E+00 -0.10211693415E+04  0.10211693415E+04  0.25500000920E-02 0. -1.
    10030    2    1    2    0    0  0.00000000000E+00  0.00000000000E+00 -0.23417495405E+03  0.18081637289E+04  0.17929356267E+04 0.  0.
        3    1    3    3  502    0 -0.77550902099E+03  0.33076494213E+03 -0.42436341743E+03  0.94387711532E+03  0.10100000352E+00 0.  1.
       -3    1    3    3    0  502  0.77550902099E+03 -0.33076494213E+03  0.19018846338E+03  0.86428661356E+03  0.10100000352E+00 0. -1.
</event>
<event>
 5   0  0.1255141E-04  0.1893682E+04  0.7818609E-02  0.8658008E-01
        1   -1    0    0  501    0  0.00000000000E+00  0.00000000000E+00  0.10780737791E+04  0.10780737791E+04  0.50400001928E-02 0. -1.
       -1   -1    0    0    0  501  0.00000000000E+00  0.00000000000E+00 -0.83158327341E+03  0.83158327342E+03  0.50400001928E-02 0.  1.
    10030    2    1    2    0    0  0.00000000000E+00  0.00000000000E+00  0.24649050570E+03  0.19096570525E+04  0.18936822566E+04 0.  0.
        2    1    3    3  502    0  0.53441078448E+03  0.27810459450E+03  0.85986678299E+03  0.10499085372E+04  0.25500000920E-02 0. -1.
       -2    1    3    3    0  502 -0.53441078448E+03 -0.27810459450E+03 -0.61337627729E+03  0.85974851532E+03  0.25500000920E-02 0.  1.
</event>
<event>
 5   0  0.1277709E-04  0.2102410E+04  0.7818609E-02  0.8560182E-01
        1   -1    0    0  501    0  0.00000000000E+00  0.00000000000E+00  0.14109332561E+04  0.14109332561E+04  0.50400001928E-02 0.  1.
       -1   -1    0    0    0  501  0.00000000000E+00  0.00000000000E+00 -0.78319256631E+03  0.78319256633E+03  0.50400001928E-02 0. -1.
    10030    2    1    2    0    0  0.00000000000E+00  0.00000000000E+00  0.62774068976E+03  0.21941258224E+04  0.21024104621E+04 0.  0.
        4    1    3    3  502    0 -0.69882627574E+03  0.42703754764E+03 -0.37390203512E+03  0.90029082830E+03  0.12699999809E+01 0. -1.
       -4    1    3    3    0  502  0.69882627574E+03 -0.42703754764E+03  0.10016427249E+04  0.12938349941E+04  0.12699999809E+01 0.  1.
</event>
<event>
 5   0  0.1239615E-04  0.1844746E+04  0.7818609E-02  0.8682859E-01
       -1   -1    0    0    0  501  0.00000000000E+00  0.00000000000E+00  0.61465692417E+03  0.61465692419E+03  0.50400001928E-02 0. -1.
        1   -1    0    0  501    0  0.00000000000E+00  0.00000000000E+00 -0.13841415788E+04  0.13841415788E+04  0.50400001928E-02 0.  1.
    10030    2    1    2    0    0  0.00000000000E+00  0.00000000000E+00 -0.76948465463E+03  0.19987985030E+04  0.18447462757E+04 0.  0.
        3    1    3    3  502    0  0.28598586956E+03  0.10481360399E+03  0.55859390129E+03  0.63623970791E+03  0.10100000352E+00 0. -1.
       -3    1    3    3    0  502 -0.28598586956E+03 -0.10481360399E+03 -0.13280785559E+04  0.13625587951E+04  0.10100000352E+00 0.  1.
</event>
<event>
 5   0  0.1277709E-04  0.1875792E+04  0.7818609E-02  0.8667001E-01
       -1   -1    0    0    0  501  0.00000000000E+00  0.00000000000E+00  0.54352663550E+03  0.54352663552E+03  0.50400001928E-02 0.  1.
        1   -1    0    0  501    0  0.00000000000E+00  0.00000000000E+00 -0.16184105689E+04  0.16184105689E+04  0.50400001928E-02 0. -1.
    10030    2    1    2    0    0  0.00000000000E+00  0.00000000000E+00 -0.10748839334E+04  0.21619372044E+04  0.18757923674E+04 0.  0.
        4    1    3    3  502    0 -0.81098938546E+03 -0.10317437137E+03 -0.10672358421E+04  0.13443744604E+04  0.12699999809E+01 0.  1.
       -4    1    3    3    0  502  0.81098938546E+03  0.10317437137E+03 -0.76480913015E+01  0.81756274403E+03  0.12699999809E+01 0. -1.
</event>
<event>
 5   0  0.2608744E-04  0.2217247E+04  0.7818609E-02  0.8511284E-01
       -2   -1    0    0    0  501  0.00000000000E+00  0.00000000000E+00  0.69281018282E+03  0.69281018283E+03  0.25500000920E-02 0. -1.
        2   -1    0    0  501    0  0.00000000000E+00  0.00000000000E+00 -0.17740016867E+04  0.17740016867E+04  0.25500000920E-02 0.  1.
    10030    2    1    2    0    0  0.00000000000E+00  0.00000000000E+00 -0.10811915039E+04  0.24668118695E+04  0.22172473321E+04 0.  0.
        2    1    3    3  502    0  0.10328065121E+04 -0.11583815447E+03 -0.96995973855E+03  0.14215940573E+04  0.25500000920E-02 0.  1.
       -2    1    3    3    0  502 -0.10328065121E+04  0.11583815447E+03 -0.11123176534E+03  0.10452178122E+04  0.25500000920E-02 0. -1.
</event>
<event>
 5   0  0.2541124E-04  0.1900838E+04  0.7818609E-02  0.8654440E-01
        2   -1    0    0  501    0  0.00000000000E+00  0.00000000000E+00  0.17891598254E+04  0.17891598255E+04  0.25500000920E-02 0. -1.
       -2   -1    0    0    0  501  0.00000000000E+00  0.00000000000E+00 -0.50487160305E+03  0.50487160306E+03  0.25500000920E-02 0.  1.
    10030    2    1    2    0    0  0.00000000000E+00  0.00000000000E+00  0.12842882224E+04  0.22940314285E+04  0.19008376987E+04 0.  0.
        5    1    3    3  502    0 -0.82535518767E+03  0.22551541819E+02  0.74084041069E+02  0.82899354219E+03  0.46999998093E+01 0.  1.
       -5    1    3    3    0  502  0.82535518767E+03 -0.22551541819E+02  0.12102041813E+04  0.14650378863E+04  0.46999998093E+01 0. -1.
</event>
<event>
 5   0  0.2651828E-04  0.1897300E+04  0.7818609E-02  0.8656202E-01
        2   -1    0    0  501    0  0.00000000000E+00  0.00000000000E+00  0.12354805579E+04  0.12354805579E+04  0.25500000920E-02 0.  1.
       -2   -1    0    0    0  501  0.00000000000E+00  0.00000000000E+00 -0.72841018712E+03  0.72841018713E+03  0.25500000920E-02 0. -1.
    10030    2    1    2    0    0  0.00000000000E+00  0.00000000000E+00  0.50707037081E+03  0.19638907451E+04  0.18972997912E+04 0.  0.
        3    1    3    3  502    0 -0.51710270346E+03 -0.72799586705E+03 -0.77960304400E+02  0.89635428689E+03  0.10100000352E+00 0.  1.
       -3    1    3    3    0  502  0.51710270346E+03  0.72799586705E+03  0.58503067521E+03  0.10675364582E+04  0.10100000352E+00 0. -1.
</event>
<event>
 5   0  0.2541124E-04  0.1874019E+04  0.7818609E-02  0.8667898E-01
       -2   -1    0    0    0  501  0.00000000000E+00  0.00000000000E+00  0.38547608747E+03  0.38547608748E+03  0.25500000920E-02 0.  1.
        2   -1    0    0  501    0  0.00000000000E+00  0.00000000000E+00 -0.22776685740E+04  0.22776685740E+04  0.25500000920E-02 0. -1.
    10030    2    1    2    0    0  0.00000000000E+00  0.00000000000E+00 -0.18921924865E+04  0.26631446615E+04  0.18740189652E+04 0.  0.
        5    1    3    3  502    0 -0.58859989722E+03 -0.66384132109E+03 -0.13743826967E+04  0.16358743918E+04  0.46999998093E+01 0. -1.
       -5    1    3    3    0  502  0.58859989722E+03  0.66384132109E+03 -0.51780978979E+03  0.10272702697E+04  0.46999998093E+01 0.  1.
</event>
<event>
 5   0  0.1277709E-04  0.1922440E+04  0.7818609E-02  0.8643767E-01
        1   -1    0    0  501    0  0.00000000000E+00  0.00000000000E+00  0.13935069528E+04  0.13935069528E+04  0.50400001928E-02 0. -1.
       -1   -1    0    0    0  501  0.00000000000E+00  0.00000000000E+00 -0.66303492074E+03  0.66303492076E+03  0.50400001928E-02 0.  1.
    10030    2    1    2    0    0  0.00000000000E+00  0.00000000000E+00  0.73047203207E+03  0.20565418736E+04  0.19224398789E+04 0.  0.
        4    1    3    3  502    0  0.61611553334E+03  0.66554264366E+03  0.70587700937E+03  0.11492646894E+04  0.12699999809E+01 0. -1.
       -4    1    3    3    0  502 -0.61611553334E+03 -0.66554264366E+03  0.24595022693E+02  0.90727718422E+03  0.12699999809E+01 0.  1.
</event>
<event>
 5   0  0.1324058E-04  0.2235392E+04  0.7818609E-02  0.8503840E-01
       -1   -1    0    0    0  501  0.00000000000E+00  0.00000000000E+00  0.11154065075E+04  0.11154065075E+04  0.50400001928E-02 0. -1.
        1   -1    0    0  501    0  0.00000000000E+00  0.00000000000E+00 -0.11199899634E+04  0.11199899634E+04  0.50400001928E-02 0.  1.
    10030    2    1    2    0    0  0.00000000000E+00  0.00000000000E+00 -0.45834558765E+01  0.22353964710E+04  0.22353917720E+04 0.  0.
        5    1    3    3  502    0  0.39418295646E+03  0.47110739192E+03  0.93146589120E+03  0.11157836593E+04  0.46999998093E+01 0. -1.
       -5    1    3    3    0  502 -0.39418295646E+03 -0.47110739192E+03 -0.93604934708E+03  0.11196128117E+04  0.46999998093E+01 0.  1.
</event>
<event>
 5   0  0.1239615E-04  0.1907771E+04  0.7818609E-02  0.8650998E-01
        1   -1    0    0  501    0  0.00000000000E+00  0.00000000000E+00  0.12303951348E+04  0.12303951348E+04  0.50400001928E-02 0.  1.
       -1   -1    0    0    0  501  0.00000000000E+00  0.00000000000E+00 -0.73951629024E+03  0.73951629025E+03  0.50400001928E-02 0. -1.
    10030    2    1    2    0    0  0.00000000000E+00  0.00000000000E+00  0.49087884454E+03  0.19699114250E+04  0.19077706839E+04 0.  0.
        3    1    3    3  502    0 -0.69341628916E+03  0.63190902660E+03  0.42357557828E+03  0.10293451553E+04  0.10100000352E+00 0.  1.
       -3    1    3    3    0  502  0.69341628916E+03 -0.63190902660E+03  0.67303266265E+02  0.94056626977E+03  0.10100000352E+00 0. -1.
</event>
<event>
 5   0  0.1324058E-04  0.1918176E+04  0.7818609E-02  0.8645862E-01
       -1   -1    0    0    0  501  0.00000000000E+00  0.00000000000E+00  0.92473560594E+03  0.92473560596E+03  0.50400001928E-02 0. -1.
        1   -1    0    0  501    0  0.00000000000E+00  0.00000000000E+00 -0.99471615861E+03  0.99471615862E+03  0.50400001928E-02 0.  1.
    10030    2    1    2    0    0  0.00000000000E+00  0.00000000000E+00 -0.69980552669E+02  0.19194517646E+04  0.19181756434E+04 0.  0.
        5    1    3    3  502    0 -0.30653820129E+02 -0.38976074288E+02 -0.99342106989E+03  0.99466894148E+03  0.46999998093E+01 0.  1.
       -5    1    3    3    0  502  0.30653820129E+02  0.38976074288E+02  0.92344051722E+03  0.92478282310E+03  0.46999998093E+01 0. -1.
</event>
<event>
 5   0  0.2608744E-04  0.1893882E+04  0.7818609E-02  0.8657908E-01
       -2   -1    0    0    0  501  0.00000000000E+00  0.00000000000E+00  0.54522900252E+03  0.54522900252E+03  0.25500000920E-02 0.  1.
        2   -1    0    0  501    0  0.00000000000E+00  0.00000000000E+00 -0.16446255629E+04  0.16446255629E+04  0.25500000920E-02 0. -1.
    10030    2    1    2    0    0  0.00000000000E+00  0.00000000000E+00 -0.10993965603E+04  0.21898545654E+04  0.18938823144E+04 0.  0.
        2    1    3    3  502    0 -0.66924092964E+03  0.52822615439E+03 -0.73245402811E+02  0.85572845058E+03  0.25500000920E-02 0. -1.
       -2    1    3    3    0  502  0.66924092964E+03 -0.52822615439E+03 -0.10261511575E+04  0.13341261148E+04  0.25500000920E-02 0.  1.
</event>
<event>
 5   0  0.2651828E-04  0.1895598E+04  0.7818609E-02  0.8657051E-01
       -2   -1    0    0    0  501  0.00000000000E+00  0.00000000000E+00  0.59438307661E+03  0.59438307662E+03  0.25500000920E-02 0. -1.
        2   -1    0    0  501    0  0.00000000000E+00  0.00000000000E+00 -0.15113537277E+04  0.15113537277E+04  0.25500000920E-02 0.  1.
    10030    2    1    2    0    0  0.00000000000E+00  0.00000000000E+00 -0.91697065113E+03  0.21057368044E+04  0.18955981415E+04 0.  0.
        3    1    3    3  502    0  0.83568601336E+03 -0.44293978351E+03 -0.39040240809E+03  0.10232208047E+04  0.10100000352E+00 0. -1.
       -3    1    3    3    0  502 -0.83568601336E+03  0.44293978351E+03 -0.52656824304E+03  0.10825159997E+04  0.10100000352E+00 0.  1.
</event>
<event>
 5   0  0.2651828E-04  0.1906979E+04  0.7818609E-02  0.8651390E-01
        2   -1    0    0  501    0  0.00000000000E+00  0.00000000000E+00  0.55387335703E+03  0.55387335703E+03  0.25500000920E-02 0.  1.
       -2   -1    0    0    0  501  0.00000000000E+00  0.00000000000E+00 -0.16414262918E+04  0.16414262918E+04  0.25500000920E-02 0. -1.
    10030    2    1    2    0    0  0.00000000000E+00  0.00000000000E+00 -0.10875529348E+04  0.21952996488E+04  0.19069790671E+04 0.  0.
        3    1    3    3  502    0 -0.31567421927E+03 -0.87046524069E+03 -0.28181423292E+03  0.96787355581E+03  0.10100000352E+00 0.  1.
       -3    1    3    3    0  502  0.31567421927E+03  0.87046524069E+03 -0.80573870185E+03  0.12274260930E+04  0.10100000352E+00 0. -1.
</event>
<event>
 5   0  0.1255141E-04  0.1957380E+04  0.7818609E-02  0.8626810E-01
       -1   -1    0    0    0  501  0.00000000000E+00  0.00000000000E+00  0.53131456431E+03  0.53131456433E+03  0.50400001928E-02 0. -1.
        1   -1    0    0  501    0  0.00000000000E+00  0.00000000000E+00 -0.18027636407E+04  0.18027636407E+04  0.50400001928E-02 0.  1.
    10030    2    1    2    0    0  0.00000000000E+00  0.00000000000E+00 -0.12714490764E+04  0.23340782051E+04  0.19573804723E+04 0.  0.
        2    1    3    3  502    0  0.40446801359E+02  0.97666919231E+03 -0.69311004869E+03  0.11982988753E+04  0.25500000920E-02 0. -1.
       -2    1    3    3    0  502 -0.40446801359E+02 -0.97666919231E+03 -0.57833902774E+03  0.11357793298E+04  0.25500000920E-02 0.  1.
</event>
<event>
 5   0  0.2562925E-04  0.1905084E+04  0.7818609E-02  0.8652330E-01
       -2   -1    0    0    0  501  0.00000000000E+00  0.00000000000E+00  0.64693907090E+03  0.64693907091E+03  0.25500000920E-02 0.  1.
        2   -1    0    0  501    0  0.00000000000E+00  0.00000000000E+00 -0.14025065169E+04  0.14025065169E+04  0.25500000920E-02 0. -1.
    10030    2    1    2    0    0  0.00000000000E+00  0.00000000000E+00 -0.75556744604E+03  0.20494455878E+04  0.19050840013E+04 0.  0.
        4    1    3    3  502    0 -0.45544029982E+03  0.15706902222E+02  0.52205862916E+03  0.69297864228E+03  0.12699999809E+01 0.  1.
       -4    1    3    3    0  502  0.45544029982E+03 -0.15706902222E+02 -0.12776260752E+04  0.13564669456E+04  0.12699999809E+01 0. -1.
</event>
<event>
 5   0  0.2651828E-04  0.1891900E+04  0.7818609E-02  0.8658899E-01
        2   -1    0    0  501    0  0.00000000000E+00  0.00000000000E+00  0.93606122462E+03  0.93606122463E+03  0.25500000920E-02 0.  1.
       -2   -1    0    0    0  501  0.00000000000E+00  0.00000000000E+00 -0.95594284098E+03  0.95594284099E+03  0.25500000920E-02 0. -1.
    10030    2    1    2    0    0  0.00000000000E+00  0.00000000000E+00 -0.19881616359E+02  0.18920040656E+04  0.18918996024E+04 0.  0.
        3    1    3    3  502    0 -0.37473801228E+03  0.53667937755E+03  0.67300808262E+03  0.93882544789E+03  0.10100000352E+00 0.  1.
       -3    1    3    3    0  502  0.37473801228E+03 -0.53667937755E+03 -0.69288969898E+03  0.95317861772E+03  0.10100000352E+00 0. -1.
</event>
<event>
 5   0  0.2651828E-04  0.1890318E+04  0.7818609E-02  0.8659691E-01
        2   -1    0    0  501    0  0.00000000000E+00  0.00000000000E+00  0.15651177289E+04  0.15651177289E+04  0.25500000920E-02 0.  1.
       -2   -1    0    0    0  501  0.00000000000E+00  0.00000000000E+00 -0.57077211016E+03  0.57077211017E+03  0.25500000920E-02 0. -1.
    10030    2    1    2    0    0  0.00000000000E+00  0.00000000000E+00  0.99434561878E+03  0.21358898391E+04  0.18903180143E+04 0.  0.
        3    1    3    3  502    0  0.20533154323E+03  0.62777369738E+03  0.12610662980E+04  0.14235691328E+04  0.10100000352E+00 0.  1.
       -3    1    3    3    0  502 -0.20533154323E+03 -0.62777369738E+03 -0.26672067918E+03  0.71232070633E+03  0.10100000352E+00 0. -1.
</event>
<event>
 5   0  0.2651828E-04  0.1869909E+04  0.7818609E-02  0.8669981E-01
        2   -1    0    0  501    0  0.00000000000E+00  0.00000000000E+00  0.70532324274E+03  0.70532324274E+03  0.25500000920E-02 0. -1.
       -2   -1    0    0    0  501  0.00000000000E+00  0.00000000000E+00 -0.12393463488E+04  0.12393463488E+04  0.25500000920E-02 0.  1.
    10030    2    1    2    0    0  0.00000000000E+00  0.00000000000E+00 -0.53402310602E+03  0.19446695915E+04  0.18699088594E+04 0.  0.
        3    1    3    3  502    0 -0.93184975615E+03  0.47843773349E+02 -0.20542588049E+03  0.95542283689E+03  0.10100000352E+00 0. -1.
       -3    1    3    3    0  502  0.93184975615E+03 -0.47843773349E+02 -0.32859722553E+03  0.98924675461E+03  0.10100000352E+00 0.  1.
</event>
<event>
 5   0  0.2541124E-04  0.1924064E+04  0.7818609E-02  0.8642970E-01
        2   -1    0    0  501    0  0.00000000000E+00  0.00000000000E+00  0.11296296603E+04  0.11296296603E+04  0.25500000920E-02 0.  1.
       -2   -1    0    0    0  501  0.00000000000E+00  0.00000000000E+00 -0.81930022096E+03  0.81930022096E+03  0.25500000920E-02 0. -1.
    10030    2    1    2    0    0  0.00000000000E+00  0.00000000000E+00  0.31032943933E+03  0.19489298813E+04  0.19240642716E+04 0.  0.
        5    1    3    3  502    0 -0.23438591524E+03 -0.38877070896E+03 -0.70397373745E+03  0.83766373589E+03  0.46999998093E+01 0. -1.
       -5    1    3    3    0  502  0.23438591524E+03  0.38877070896E+03  0.10143031768E+04  0.11112661454E+04  0.46999998093E+01 0.  1.
</event>
<event>
 5   0  0.1239615E-04  0.1898949E+04  0.7818609E-02  0.8655380E-01
       -1   -1    0    0    0  501  0.00000000000E+00  0.00000000000E+00  0.66617732583E+03  0.66617732585E+03  0.50400001928E-02 0. -1.
        1   -1    0    0  501    0  0.00000000000E+00  0.00000000000E+00 -0.13532455504E+04  0.13532455504E+04  0.50400001928E-02 0.  1.
    10030    2    1    2    0    0  0.00000000000E+00  0.00000000000E+00 -0.68706822457E+03  0.20194228763E+04  0.18989486586E+04 0.  0.
        3    1    3    3  502    0  0.62190780576E+03  0.55882077466E+03 -0.82202598319E+03  0.11725087225E+04  0.10100000352E+00 0.  1.
       -3    1    3    3    0  502 -0.62190780576E+03 -0.55882077466E+03  0.13495775862E+03  0.84691415377E+03  0.10100000352E+00 0. -1.
</event>
<event>
 5   0  0.1255141E-04  0.1970004E+04  0.7818609E-02  0.8620775E-01
       -1   -1    0    0    0  501  0.00000000000E+00  0.00000000000E+00  0.13585913802E+04  0.13585913802E+04  0.50400001928E-02 0. -1.
        1   -1    0    0  501    0  0.00000000000E+00  0.00000000000E+00 -0.71414329437E+03  0.71414329439E+03  0.50400001928E-02 0.  1.
    10030    2    1    2    0    0  0.00000000000E+00  0.00000000000E+00  0.64444808581E+03  0.20727346746E+04  0.19700039837E+04 0.  0.
        2    1    3    3  502    0 -0.71519289463E+03 -0.47139766263E+03  0.83390996196E+03  0.11954590991E+04  0.25500000920E-02 0. -1.
       -2    1    3    3    0  502  0.71519289463E+03  0.47139766263E+03 -0.18946187615E+03  0.87727557551E+03  0.25500000920E-02 0.  1.
</event>
<event>
 5   0  0.1277709E-04  0.1874004E+04  0.7818609E-02  0.8667906E-01
       -1   -1    0    0    0  501  0.00000000000E+00  0.00000000000E+00  0.24002126596E+04  0.24002126596E+04  0.50400001928E-02 0. -1.
        1   -1    0    0  501    0  0.00000000000E+00  0.00000000000E+00 -0.36578947538E+03  0.36578947542E+03  0.50400001928E-02 0.  1.
    10030    2    1    2    0    0  0.00000000000E+00  0.00000000000E+00  0.20344231842E+04  0.27660021350E+04  0.18740037669E+04 0.  0.
        4    1    3    3  502    0  0.78651448397E+03  0.12995168682E+03  0.17440177834E+04  0.19175745399E+04  0.12699999809E+01 0. -1.
       -4    1    3    3    0  502 -0.78651448397E+03 -0.12995168682E+03  0.29040540080E+03  0.84842759509E+03  0.12699999809E+01 0.  1.
</event>
<event>
 5   0  0.2651828E-04  0.1902207E+04  0.7818609E-02  0.8653759E-01
       -2   -1    0    0    0  501  0.00000000000E+00  0.00000000000E+00  0.72086167705E+03  0.72086167706E+03  0.25500000920E-02 0.  1.
        2   -1    0    0  501    0  0.00000000000E+00  0.00000000000E+00 -0.12548837581E+04  0.12548837581E+04  0.25500000920E-02 0. -1.
    10030    2    1    2    0    0  0.00000000000E+00  0.00000000000E+00 -0.53402208103E+03  0.19757454351E+04  0.19022067294E+04 0.  0.
        3    1    3    3  502    0 -0.14645270708E+03 -0.27710260641E+03  0.66568184442E+03  0.73577617390E+03  0.10100000352E+00 0.  1.
       -3    1    3    3    0  502  0.14645270708E+03  0.27710260641E+03 -0.11997039254E+04  0.12399692612E+04  0.10100000352E+00 0. -1.
</event>
<event>
 5   0  0.2651828E-04  0.1907098E+04  0.7818609E-02  0.8651331E-01
       -2   -1    0    0    0  501  0.00000000000E+00  0.00000000000E+00  0.10019541803E+04  0.10019541803E+04  0.25500000920E-02 0.  1.
        2   -1    0    0  501    0  0.00000000000E+00  0.00000000000E+00 -0.90748278461E+03  0.90748278462E+03  0.25500000920E-02 0. -1.
    10030    2    1    2    0    0  0.00000000000E+00  0.00000000000E+00  0.94471395715E+02  0.19094369649E+04  0.19070984973E+04 0.  0.
        3    1    3    3  502    0 -0.12404031582E+03 -0.93696835470E+03  0.17372532950E+03  0.96097668961E+03  0.10100000352E+00 0. -1.
       -3    1    3    3    0  502  0.12404031582E+03  0.93696835470E+03 -0.79253933790E+02  0.94846027533E+03  0.10100000352E+00 0.  1.
</event>
<event>
 5   0  0.2595012E-04  0.1864296E+04  0.7818609E-02  0.8672835E-01
        2   -1    0    0  501    0  0.00000000000E+00  0.00000000000E+00  0.18635663176E+04  0.18635663176E+04  0.25500000920E-02 0.  1.
       -2   -1    0    0    0  501  0.00000000000E+00  0.00000000000E+00 -0.46625672431E+03  0.46625672432E+03  0.25500000920E-02 0. -1.
    10030    2    1    2    0    0  0.00000000000E+00  0.00000000000E+00  0.13973095933E+04  0.23298230419E+04  0.18642964644E+04 0.  0.
        1    1    3    3  502    0  0.35179304230E+03 -0.24635308843E+03  0.17325570988E+04  0.17849936385E+04  0.50400001928E-02 0.  1.
       -1    1    3    3    0  502 -0.35179304230E+03  0.24635308843E+03 -0.33524750556E+03  0.54482940339E+03  0.50400001928E-02 0. -1.
</event>
<event>
 5   0  0.1317527E-04  0.1890187E+04  0.7818609E-02  0.8659756E-01
        1   -1    0    0  501    0  0.00000000000E+00  0.00000000000E+00  0.10165814619E+04  0.10165814619E+04  0.50400001928E-02 0. -1.
       -1   -1    0    0    0  501  0.00000000000E+00  0.00000000000E+00 -0.87863315315E+03  0.87863315316E+03  0.50400001928E-02 0.  1.
    10030    2    1    2    0    0  0.00000000000E+00  0.00000000000E+00  0.13794830879E+03  0.18952146151E+04  0.18901874778E+04 0.  0.
        1    1    3    3  502    0 -0.92847902208E+03  0.15490510204E+03 -0.15709279971E+02  0.94144339532E+03  0.50400001928E-02 0.  1.
       -1    1    3    3    0  502  0.92847902208E+03 -0.15490510204E+03  0.15365758876E+03  0.95377121979E+03  0.50400001928E-02 0. -1.
</event>
<event>
 5   0  0.2608744E-04  0.1956941E+04  0.7818609E-02  0.8627021E-01
       -2   -1    0    0    0  501  0.00000000000E+00  0.00000000000E+00  0.99338733360E+03  0.99338733361E+03  0.25500000920E-02 0. -1.
        2   -1    0    0  501    0  0.00000000000E+00  0.00000000000E+00 -0.96377761840E+03  0.96377761840E+03  0.25500000920E-02 0.  1.
    10030    2    1    2    0    0  0.00000000000E+00  0.00000000000E+00  0.29609715207E+02  0.19571649520E+04  0.19569409583E+04 0.  0.
        2    1    3    3  502    0  0.33843685308E+03  0.70208025925E+02 -0.90068825613E+03  0.96473208984E+03  0.25500000920E-02 0.  1.
       -2    1    3    3    0  502 -0.33843685308E+03 -0.70208025925E+02  0.93029797134E+03  0.99243286217E+03  0.25500000920E-02 0. -1.
</event>
<event>
 5   0  0.2651828E-04  0.1880431E+04  0.7818609E-02  0.8664659E-01
       -2   -1    0    0    0  501  0.00000000000E+00  0.00000000000E+00  0.48821946592E+03  0.48821946593E+03  0.25500000920E-02 0.  1.
        2   -1    0    0  501    0  0.00000000000E+00  0.00000000000E+00 -0.18106722014E+04  0.18106722014E+04  0.25500000920E-02 0. -1.
    10030    2    1    2    0    0  0.00000000000E+00  0.00000000000E+00 -0.13224527355E+04  0.22988916674E+04  0.18804312433E+04 0.  0.
        3    1    3    3  502    0  0.17916859845E+03 -0.34621854605E+03  0.38476351993E+03  0.54773318758E+03  0.10100000352E+00 0.  1.
       -3    1    3    3    0  502 -0.17916859845E+03  0.34621854605E+03 -0.17072162554E+04  0.17511584798E+04  0.10100000352E+00 0. -1.
</event>
<event>
 5   0  0.1317527E-04  0.1873851E+04  0.7818609E-02  0.8667983E-01
       -1   -1    0    0    0  501  0.00000000000E+00  0.00000000000E+00  0.11061987866E+04  0.11061987866E+04  0.50400001928E-02 0.  1.
        1   -1    0    0  501    0  0.00000000000E+00  0.00000000000E+00 -0.79355454866E+03  0.79355454868E+03  0.50400001928E-02 0. -1.
    10030    2    1    2    0    0  0.00000000000E+00  0.00000000000E+00  0.31264423791E+03  0.18997533353E+04  0.18738506652E+04 0.  0.
        1    1    3    3  502    0 -0.12669043129E+03  0.81530600247E+03 -0.29372260713E+03  0.87581237318E+03  0.50400001928E-02 0. -1.
       -1    1    3    3    0  502  0.12669043129E+03 -0.81530600247E+03  0.60636684504E+03  0.10239409621E+04  0.50400001928E-02 0.  1.
</event>
<event>
 5   0  0.2562925E-04  0.1893289E+04  0.7818609E-02  0.8658204E-01
        2   -1    0    0  501    0  0.00000000000E+00  0.00000000000E+00  0.11089851797E+04  0.11089851797E+04  0.25500000920E-02 0. -1.
       -2   -1    0    0    0  501  0.00000000000E+00  0.00000000000E+00 -0.80806821512E+03  0.80806821512E+03  0.25500000920E-02 0.  1.
    10030    2    1    2    0    0  0.00000000000E+00  0.00000000000E+00  0.30091696457E+03  0.19170533948E+04  0.18932888578E+04 0.  0.
        4    1    3    3  502    0  0.31182499752E+03  0.54953604581E+03 -0.56330762518E+03  0.84648791380E+03  0.12699999809E+01 0.  1.
       -4    1    3    3    0  502 -0.31182499752E+03 -0.54953604581E+03  0.86422458975E+03  0.10705654810E+04  0.12699999809E+01 0. -1.
</event>
<event>
 5   0  0.9266125E-05  0.1905051E+04  0.7818609E-02  0.8652346E-01
       -3   -1    0    0    0  501  0.00000000000E+00  0.00000000000E+00  0.12670525700E+04  0.12670525741E+04  0.10100000352E+00 0.  1.
        3   -1    0    0  501    0  0.00000000000E+00  0.00000000000E+00 -0.71607481822E+03  0.71607482534E+03  0.10100000352E+00 0. -1.
    10030    2    1    2    0    0  0.00000000000E+00  0.00000000000E+00  0.55097775181E+03  0.19831273994E+04  0.19050506028E+04 0.  0.
        1    1    3    3  502    0  0.81808541473E+03 -0.19903117604E+03  0.73919710682E+03  0.11203970357E+04  0.50400001928E-02 0.  1.
       -1    1    3    3    0  502 -0.81808541473E+03  0.19903117604E+03 -0.18821935501E+03  0.86273036370E+03  0.50400001928E-02 0. -1.
</event>
<event>
 5   0  0.2541124E-04  0.1761876E+04  0.7818609E-02  0.8726840E-01
        2   -1    0    0  501    0  0.00000000000E+00  0.00000000000E+00  0.12598697772E+04  0.12598697772E+04  0.25500000920E-02 0.  1.
       -2   -1    0    0    0  501  0.00000000000E+00  0.00000000000E+00 -0.61597778999E+03  0.61597778999E+03  0.25500000920E-02 0. -1.
    10030    2    1    2    0    0  0.00000000000E+00  0.00000000000E+00  0.64389198721E+03  0.18758475672E+04  0.17618760468E+04 0.  0.
        5    1    3    3  502    0  0.30606150416E+03 -0.29219873767E+03 -0.50067656716E+03  0.65555538403E+03  0.46999998093E+01 0. -1.
       -5    1    3    3    0  502 -0.30606150416E+03  0.29219873767E+03  0.11445685544E+04  0.12202921832E+04  0.46999998093E+01 0.  1.
</event>
<event>
 5   0  0.2562925E-04  0.1899775E+04  0.7818609E-02  0.8654968E-01
       -2   -1    0    0    0  501  0.00000000000E+00  0.00000000000E+00  0.98983742257E+03  0.98983742257E+03  0.25500000920E-02 0. -1.
        2   -1    0    0  501    0  0.00000000000E+00  0.00000000000E+00 -0.91155039848E+03  0.91155039848E+03  0.25500000920E-02 0.  1.
    10030    2    1    2    0    0  0.00000000000E+00  0.00000000000E+00  0.78287024095E+02  0.19013878211E+04  0.18997754572E+04 0.  0.
        4    1    3    3  502    0 -0.87768752069E+03 -0.28497245204E+03  0.26459099216E+03  0.95997639993E+03  0.12699999809E+01 0.  1.
       -4    1    3    3    0  502  0.87768752069E+03  0.28497245204E+03 -0.18630396807E+03  0.94141142112E+03  0.12699999809E+01 0. -1.
</event>
<event>
 5   0  0.2651828E-04  0.1821914E+04  0.7818609E-02  0.8694732E-01
       -2   -1    0    0    0  501  0.00000000000E+00  0.00000000000E+00  0.36326033822E+03  0.36326033823E+03  0.25500000920E-02 0.  1.
        2   -1    0    0  501    0  0.00000000000E+00  0.00000000000E+00 -0.22844284616E+04  0.22844284616E+04  0.25500000920E-02 0. -1.
    10030    2    1    2    0    0  0.00000000000E+00  0.00000000000E+00 -0.19211681234E+04  0.26476887998E+04  0.18219135606E+04 0.  0.
        3    1    3    3  502    0  0.88312139432E+02 -0.39031157203E+02 -0.22769714033E+04  0.22790176056E+04  0.10100000352E+00 0. -1.
       -3    1    3    3    0  502 -0.88312139432E+02  0.39031157203E+02  0.35580327993E+03  0.36867119417E+03  0.10100000352E+00 0.  1.
</event>
<event>
 5   0  0.2651828E-04  0.1885790E+04  0.7818609E-02  0.8661962E-01
       -2   -1    0    0    0  501  0.00000000000E+00  0.00000000000E+00  0.60469752732E+03  0.60469752732E+03  0.25500000920E-02 0. -1.
        2   -1    0    0  501    0  0.00000000000E+00  0.00000000000E+00 -0.14702402119E+04  0.14702402119E+04  0.25500000920E-02 0.  1.
    10030    2    1    2    0    0  0.00000000000E+00  0.00000000000E+00 -0.86554268455E+03  0.20749377392E+04  0.18857896178E+04 0.  0.
        3    1    3    3  502    0 -0.82645346468E+02  0.83877702011E+03  0.32323863198E+02  0.84345834817E+03  0.10100000352E+00 0. -1.
       -3    1    3    3    0  502  0.82645346468E+02 -0.83877702011E+03 -0.89786654775E+03  0.12314793910E+04  0.10100000352E+00 0.  1.
</event>
<event>
 5   0  0.2562925E-04  0.1851110E+04  0.7818609E-02  0.8679582E-01
       -2   -1    0    0    0  501  0.00000000000E+00  0.00000000000E+00  0.34054993165E+03  0.34054993166E+03  0.25500000920E-02 0. -1.
        2   -1    0    0  501    0  0.00000000000E+00  0.00000000000E+00 -0.25154952865E+04  0.25154952865E+04  0.25500000920E-02 0.  1.
    10030    2    1    2    0    0  0.00000000000E+00  0.00000000000E+00 -0.21749453549E+04  0.28560452182E+04  0.18511096649E+04 0.  0.
        4    1    3    3  502    0 -0.28614413577E+03  0.72845532446E+03 -0.18497949735E+04  0.20085488999E+04  0.12699999809E+01 0.  1.
       -4    1    3    3    0  502  0.28614413577E+03 -0.72845532446E+03 -0.32515038134E+03  0.84749631832E+03  0.12699999809E+01 0. -1.
</event>
<event>
 5   0  0.2651828E-04  0.1881530E+04  0.7818609E-02  0.8664105E-01
        2   -1    0    0  501    0  0.00000000000E+00  0.00000000000E+00  0.18571776851E+04  0.18571776851E+04  0.25500000920E-02 0.  1.
       -2   -1    0    0    0  501  0.00000000000E+00  0.00000000000E+00 -0.47655048524E+03  0.47655048525E+03  0.25500000920E-02 0. -1.
    10030    2    1    2    0    0  0.00000000000E+00  0.00000000000E+00  0.13806271998E+04  0.23337281703E+04  0.18815301507E+04 0.  0.
        3    1    3    3  502    0  0.38890126720E+01  0.44432262293E+03  0.17188209489E+04  0.17753262185E+04  0.10100000352E+00 0.  1.
       -3    1    3    3    0  502 -0.38890126720E+01 -0.44432262293E+03 -0.33819374905E+03  0.55840195179E+03  0.10100000352E+00 0. -1.
</event>
<event>
 5   0  0.1324058E-04  0.1929736E+04  0.7818609E-02  0.8640195E-01
       -1   -1    0    0    0  501  0.00000000000E+00  0.00000000000E+00  0.59094735202E+03  0.59094735204E+03  0.50400001928E-02 0. -1.
        1   -1    0    0  501    0  0.00000000000E+00  0.00000000000E+00 -0.15753859933E+04  0.15753859933E+04  0.50400001928E-02 0.  1.
    10030    2    1    2    0    0  0.00000000000E+00  0.00000000000E+00 -0.98443864126E+03  0.21663333453E+04  0.19297359210E+04 0.  0.
        5    1    3    3  502    0 -0.29507197396E+03 -0.14123014233E+03  0.52677975956E+03  0.62010678758E+03  0.46999998093E+01 0. -1.
       -5    1    3    3    0  502  0.29507197396E+03  0.14123014233E+03 -0.15112184008E+04  0.15462265577E+04  0.46999998093E+01 0.  1.
</event>
<event>
 5   0  0.2595012E-04  0.1919670E+04  0.7818609E-02  0.8645127E-01
       -2   -1    0    0    0  501  0.00000000000E+00  0.00000000000E+00  0.89494164083E+03  0.89494164083E+03  0.25500000920E-02 0.  1.
        2   -1    0    0  501    0  0.00000000000E+00  0.00000000000E+00 -0.10294333301E+04  0.10294333301E+04  0.25500000920E-02 0. -1.
    10030    2    1    2    0    0  0.00000000000E+00  0.00000000000E+00 -0.13449168930E+03  0.19243749710E+04  0.19196695066E+04 0.  0.
        1    1    3    3  502    0 -0.84943642555E+03  0.19850674143E+03  0.33415491984E+03  0.93413418625E+03  0.50400001928E-02 0.  1.
       -1    1    3    3    0  502  0.84943642555E+03 -0.19850674143E+03 -0.46864660914E+03  0.99024078472E+03  0.50400001928E-02 0. -1.
</event>
<event>
 5   0  0.1239615E-04  0.1888891E+04  0.7818609E-02  0.8660406E-01
        1   -1    0    0  501    0  0.00000000000E+00  0.00000000000E+00  0.16482417351E+04  0.16482417351E+04  0.50400001928E-02 0. -1.
       -1   -1    0    0    0  501  0.00000000000E+00  0.00000000000E+00 -0.54116888082E+03  0.54116888085E+03  0.50400001928E-02 0.  1.
    10030    2    1    2    0    0  0.00000000000E+00  0.00000000000E+00  0.11070728543E+04  0.21894106160E+04  0.18888908228E+04 0.  0.
        3    1    3    3  502    0 -0.43312275893E+03 -0.57662093029E+02  0.15240396724E+04  0.15854391110E+04  0.10100000352E+00 0. -1.
       -3    1    3    3    0  502  0.43312275893E+03  0.57662093029E+02 -0.41696681811E+03  0.60397150502E+03  0.10100000352E+00 0.  1.
</event>
<event>
 5   0  0.2562925E-04  0.1869410E+04  0.7818609E-02  0.8670235E-01
       -2   -1    0    0    0  501  0.00000000000E+00  0.00000000000E+00  0.77564070244E+03  0.77564070244E+03  0.25500000920E-02 0. -1.
        2   -1    0    0  501    0  0.00000000000E+00  0.00000000000E+00 -0.11263890025E+04  0.11263890025E+04  0.25500000920E-02 0.  1.
    10030    2    1    2    0    0  0.00000000000E+00  0.00000000000E+00 -0.35074830009E+03  0.19020297050E+04  0.18694097006E+04 0.  0.
        4    1    3    3  502    0 -0.55259029069E+03  0.75380901456E+03 -0.16585762853E+03  0.94925993576E+03  0.12699999809E+01 0.  1.
       -4    1    3    3    0  502  0.55259029069E+03 -0.75380901456E+03 -0.18489067155E+03  0.95276976921E+03  0.12699999809E+01 0. -1.
</event>
<event>
 5   0  0.2562925E-04  0.1899141E+04  0.7818609E-02  0.8655284E-01
       -2   -1    0    0    0  501  0.00000000000E+00  0.00000000000E+00  0.16177637120E+04  0.16177637121E+04  0.25500000920E-02 0. -1.
        2   -1    0    0  501    0  0.00000000000E+00  0.00000000000E+00 -0.55736457754E+03  0.55736457755E+03  0.25500000920E-02 0.  1.
    10030    2    1    2    0    0  0.00000000000E+00  0.00000000000E+00  0.10603991345E+04  0.21751282896E+04  0.18991410563E+04 0.  0.
        4    1    3    3  502    0 -0.42187077333E+03 -0.27434293029E+03  0.14524816091E+04  0.15371868561E+04  0.12699999809E+01 0. -1.
       -4    1    3    3    0  502  0.42187077333E+03  0.27434293029E+03 -0.39208247461E+03  0.63794143351E+03  0.12699999809E+01 0.  1.
</event>
<event>
 5   0  0.2562925E-04  0.1885699E+04  0.7818609E-02  0.8662008E-01
       -2   -1    0    0    0  501  0.00000000000E+00  0.00000000000E+00  0.11777123029E+04  0.11777123029E+04  0.25500000920E-02 0.  1.
        2   -1    0    0  501    0  0.00000000000E+00  0.00000000000E+00 -0.75482340288E+03  0.75482340289E+03  0.25500000920E-02 0. -1.
    10030    2    1    2    0    0  0.00000000000E+00  0.00000000000E+00  0.42288890006E+03  0.19325357058E+04  0.18856986060E+04 0.  0.
        4    1    3    3  502    0 -0.56584558571E+03  0.34696913803E+03  0.89769914680E+03  0.11164381670E+04  0.12699999809E+01 0.  1.
       -4    1    3    3    0  502  0.56584558571E+03 -0.34696913803E+03 -0.47481024674E+03  0.81609753886E+03  0.12699999809E+01 0. -1.
</event>
<event>
 5   0  0.2595012E-04  0.1908691E+04  0.7818609E-02  0.8650542E-01
        2   -1    0    0  501    0  0.00000000000E+00  0.00000000000E+00  0.26635906151E+04  0.26635906151E+04  0.25500000920E-02 0.  1.
       -2   -1    0    0    0  501  0.00000000000E+00  0.00000000000E+00 -0.34193524628E+03  0.34193524629E+03  0.25500000920E-02 0. -1.
    10030    2    1    2    0    0  0.00000000000E+00  0.00000000000E+00  0.23216553688E+04  0.30055258614E+04  0.19086911882E+04 0.  0.
        1    1    3    3  502    0  0.51560205691E+03 -0.34641201641E+03  0.23016945818E+04  0.23840395790E+04  0.50400001928E-02 0.  1.
       -1    1    3    3    0  502 -0.51560205691E+03  0.34641201641E+03  0.19960787032E+02  0.62148628243E+03  0.50400001928E-02 0. -1.
</event>
<event>
 5   0  0.1277709E-04  0.1878383E+04  0.7818609E-02  0.8665692E-01
       -1   -1    0    0    0  501  0.00000000000E+00  0.00000000000E+00  0.47370226892E+03  0.47370226894E+03  0.50400001928E-02 0. -1.
        1   -1    0    0  501    0  0.00000000000E+00  0.00000000000E+00 -0.18620991167E+04  0.18620991167E+04  0.50400001928E-02 0.  1.
    10030    2    1    2    0    0  0.00000000000E+00  0.00000000000E+00 -0.13883968478E+04  0.23358013856E+04  0.18783828966E+04 0.  0.
        4    1    3    3  502    0  0.10946082264E+03 -0.55782728355E+03 -0.16238687052E+04  0.17204953167E+04  0.12699999809E+01 0.  1.
       -4    1    3    3    0  502 -0.10946082264E+03  0.55782728355E+03  0.23547185745E+03  0.61530606897E+03  0.12699999809E+01 0. -1.
</event>
<event>
 5   0  0.1324058E-04  0.1924903E+04  0.7818609E-02  0.8642559E-01
       -1   -1    0    0    0  501  0.00000000000E+00  0.00000000000E+00  0.58232000607E+03  0.58232000610E+03  0.50400001928E-02 0.  1.
        1   -1    0    0  501    0  0.00000000000E+00  0.00000000000E+00 -0.15907274860E+04  0.15907274860E+04  0.50400001928E-02 0. -1.
    10030    2    1    2    0    0  0.00000000000E+00  0.00000000000E+00 -0.10084074800E+04  0.21730474921E+04  0.19249025319E+04 0.  0.
        5    1    3    3  502    0 -0.36846044738E+02 -0.46292579949E+02  0.58025203799E+03  0.58327965125E+03  0.46999998093E+01 0.  1.
       -5    1    3    3    0  502  0.36846044738E+02  0.46292579949E+02 -0.15886595179E+04  0.15897678409E+04  0.46999998093E+01 0. -1.
</event>
<event>
 5   0  0.2562925E-04  0.1904922E+04  0.7818609E-02  0.8652410E-01
       -2   -1    0    0    0  501  0.00000000000E+00  0.00000000000E+00  0.51172468620E+03  0.51172468621E+03  0.25500000920E-02 0. -1.
        2   -1    0    0  501    0  0.00000000000E+00  0.00000000000E+00 -0.17727938046E+04  0.17727938046E+04  0.25500000920E-02 0.  1.
    10030    2    1    2    0    0  0.00000000000E+00  0.00000000000E+00 -0.12610691184E+04  0.22845184909E+04  0.19049224167E+04 0.  0.
        4    1    3    3  502    0 -0.60429515929E+03 -0.31482670577E+03  0.16758218756E+03  0.70169359174E+03  0.12699999809E+01 0. -1.
       -4    1    3    3    0  502  0.60429515929E+03  0.31482670577E+03 -0.14286513060E+04  0.15828248991E+04  0.12699999809E+01 0.  1.
</event>
<event>
 5   0  0.2595012E-04  0.1922192E+04  0.7818609E-02  0.8643888E-01
       -2   -1    0    0    0  501  0.00000000000E+00  0.00000000000E+00  0.59221495856E+03  0.59221495857E+03  0.25500000920E-02 0. -1.
        2   -1    0    0  501    0  0.00000000000E+00  0.00000000000E+00 -0.15597473154E+04  0.15597473154E+04  0.25500000920E-02 0.  1.
    10030    2    1    2    0    0  0.00000000000E+00  0.00000000000E+00 -0.96753235685E+03  0.21519622740E+04  0.19221921775E+04 0.  0.
        1    1    3    3  502    0  0.77037447334E+03  0.44237747671E+03 -0.89439467275E+03  0.12606016388E+04  0.50400001928E-02 0.  1.
       -1    1    3    3    0  502 -0.77037447334E+03 -0.44237747671E+03 -0.73137684104E+02  0.89136063518E+03  0.50400001928E-02 0. -1.
</event>
<event>
 5   0  0.2608744E-04  0.1797030E+04  0.7818609E-02  0.8707880E-01
        2   -1    0    0  501    0  0.00000000000E+00  0.00000000000E+00  0.17332760568E+04  0.17332760568E+04  0.25500000920E-02 0. -1.
       -2   -1    0    0    0  501  0.00000000000E+00  0.00000000000E+00 -0.46578226309E+03  0.46578226310E+03  0.25500000920E-02 0.  1.
    10030    2    1    2    0    0  0.00000000000E+00  0.00000000000E+00  0.12674937937E+04  0.21990583199E+04  0.17970300435E+04 0.  0.
        2    1    3    3  502    0  0.48159853129E+03 -0.15162400699E+03  0.15432603606E+04  0.16237547615E+04  0.25500000920E-02 0. -1.
       -2    1    3    3    0  502 -0.48159853129E+03  0.15162400699E+03 -0.27576656693E+03  0.57530355837E+03  0.25500000920E-02 0.  1.
</event>
<event>
 5   0  0.2541124E-04  0.1882269E+04  0.7818609E-02  0.8663733E-01
       -2   -1    0    0    0  501  0.00000000000E+00  0.00000000000E+00  0.37461102725E+03  0.37461102726E+03  0.25500000920E-02 0.  1.
        2   -1    0    0  501    0  0.00000000000E+00  0.00000000000E+00 -0.23644105260E+04  0.23644105260E+04  0.25500000920E-02 0. -1.
    10030    2    1    2    0    0  0.00000000000E+00  0.00000000000E+00 -0.19897994987E+04  0.27390215532E+04  0.18822691157E+04 0.  0.
        5    1    3    3  502    0 -0.47218791554E+03 -0.81049891847E+03 -0.88367447418E+03  0.12887096611E+04  0.46999998093E+01 0.  1.
       -5    1    3    3    0  502  0.47218791554E+03  0.81049891847E+03 -0.11061250245E+04  0.14503118921E+04  0.46999998093E+01 0. -1.
</event>
<event>
 5   0  0.2608744E-04  0.1891987E+04  0.7818609E-02  0.8658855E-01
       -2   -1    0    0    0  501  0.00000000000E+00  0.00000000000E+00  0.38311331231E+03  0.38311331232E+03  0.25500000920E-02 0. -1.
        2   -1    0    0  501    0  0.00000000000E+00  0.00000000000E+00 -0.23358723356E+04  0.23358723356E+04  0.25500000920E-02 0.  1.
    10030    2    1    2    0    0  0.00000000000E+00  0.00000000000E+00 -0.19527590233E+04  0.27189856479E+04  0.18919870905E+04 0.  0.
        2    1    3    3  502    0 -0.74765739902E+03 -0.52868089892E+03 -0.13176995804E+04  0.16046268299E+04  0.25500000920E-02 0.  1.
       -2    1    3    3    0  502  0.74765739902E+03  0.52868089892E+03 -0.63505944291E+03  0.11143588180E+04  0.25500000920E-02 0. -1.
</event>
<event>
 5   0  0.1239615E-04  0.1929737E+04  0.7818609E-02  0.8640194E-01
        1   -1    0    0  501    0  0.00000000000E+00  0.00000000000E+00  0.16431319881E+04  0.16431319881E+04  0.50400001928E-02 0. -1.
       -1   -1    0    0    0  501  0.00000000000E+00  0.00000000000E+00 -0.56658322176E+03  0.56658322178E+03  0.50400001928E-02 0.  1.
    10030    2    1    2    0    0  0.00000000000E+00  0.00000000000E+00  0.10765487663E+04  0.22097152099E+04  0.19297367858E+04 0.  0.
        3    1    3    3  502    0  0.77456255163E+03  0.52201282295E+03  0.81529647281E+03  0.12398196976E+04  0.10100000352E+00 0. -1.
       -3    1    3    3    0  502 -0.77456255163E+03 -0.52201282295E+03  0.26125229352E+03  0.96989551231E+03  0.10100000352E+00 0.  1.
</event>
<event>
 5   0  0.2595012E-04  0.1876448E+04  0.7818609E-02  0.8666669E-01
       -2   -1    0    0    0  501  0.00000000000E+00  0.00000000000E+00  0.40211009467E+03  0.40211009468E+03  0.25500000920E-02 0. -1.
        2   -1    0    0  501    0  0.00000000000E+00  0.00000000000E+00 -0.21891129827E+04  0.21891129827E+04  0.25500000920E-02 0.  1.
    10030    2    1    2    0    0  0.00000000000E+00  0.00000000000E+00 -0.17870028880E+04  0.25912230774E+04  0.18764481647E+04 0.  0.
        1    1    3    3  502    0  0.48478809507E+03 -0.47515001266E+02 -0.20008119327E+04  0.20592536421E+04  0.50400001928E-02 0.  1.
       -1    1    3    3    0  502 -0.48478809507E+03  0.47515001266E+02  0.21380904467E+03  0.53196943528E+03  0.50400001928E-02 0. -1.
</event>
<event>
 5   0  0.1255141E-04  0.1704567E+04  0.7818609E-02  0.8758764E-01
       -1   -1    0    0    0  501  0.00000000000E+00  0.00000000000E+00  0.72630339299E+03  0.72630339301E+03  0.50400001928E-02 0. -1.
        1   -1    0    0  501    0  0.00000000000E+00  0.00000000000E+00 -0.10001153900E+04  0.10001153900E+04  0.50400001928E-02 0.  1.
    10030    2    1    2    0    0  0.00000000000E+00  0.00000000000E+00 -0.27381199700E+03  0.17264187830E+04  0.17045670432E+04 0.  0.
        2    1    3    3  502    0  0.76766595217E+03  0.33189457201E+03 -0.30308922155E+03  0.88956624109E+03  0.25500000920E-02 0.  1.
       -2    1    3    3    0  502 -0.76766595217E+03 -0.33189457201E+03  0.29277224552E+02  0.83685254193E+03  0.25500000920E-02 0. -1.
</event>
<event>
 5   0  0.1277709E-04  0.1895774E+04  0.7818609E-02  0.8656963E-01
       -1   -1    0    0    0  501  0.00000000000E+00  0.00000000000E+00  0.94342997233E+03  0.94342997234E+03  0.50400001928E-02 0. -1.
        1   -1    0    0  501    0  0.00000000000E+00  0.00000000000E+00 -0.95236535227E+03  0.95236535228E+03  0.50400001928E-02 0.  1.
    10030    2    1    2    0    0  0.00000000000E+00  0.00000000000E+00 -0.89353799416E+01  0.18957953246E+04  0.18957742671E+04 0.  0.
        4    1    3    3  502    0  0.55823098137E+01  0.53462795433E+03 -0.78718334914E+03  0.95158680624E+03  0.12699999809E+01 0.  1.
       -4    1    3    3    0  502 -0.55823098137E+01 -0.53462795433E+03  0.77824796920E+03  0.94420851839E+03  0.12699999809E+01 0. -1.
</event>
<event>
 5   0  0.2651828E-04  0.1875826E+04  0.7818609E-02  0.8666984E-01
       -2   -1    0    0    0  501  0.00000000000E+00  0.00000000000E+00  0.55395155013E+03  0.55395155013E+03  0.25500000920E-02 0. -1.
        2   -1    0    0  501    0  0.00000000000E+00  0.00000000000E+00 -0.15880095378E+04  0.15880095378E+04  0.25500000920E-02 0.  1.
    10030    2    1    2    0    0  0.00000000000E+00  0.00000000000E+00 -0.10340579877E+04  0.21419610879E+04  0.18758255197E+04 0.  0.
        3    1    3    3  502    0  0.17385723616E+03 -0.34774014605E+03 -0.14916664366E+04  0.15414987240E+04  0.10100000352E+00 0.  1.
       -3    1    3    3    0  502 -0.17385723616E+03  0.34774014605E+03  0.45760844895E+03  0.60046236393E+03  0.10100000352E+00 0. -1.
</event>
<event>
 5   0  0.2541124E-04  0.1891138E+04  0.7818609E-02  0.8659280E-01
       -2   -1    0    0    0  501  0.00000000000E+00  0.00000000000E+00  0.82745412770E+03  0.82745412771E+03  0.25500000920E-02 0.  1.
        2   -1    0    0  501    0  0.00000000000E+00  0.00000000000E+00 -0.10805441802E+04  0.10805441802E+04  0.25500000920E-02 0. -1.
    10030    2    1    2    0    0  0.00000000000E+00  0.00000000000E+00 -0.25309005249E+03  0.19079983079E+04  0.18911380088E+04 0.  0.
        5    1    3    3  502    0  0.51750180833E+03 -0.43861700180E+03  0.53802753832E+03  0.86584566631E+03  0.46999998093E+01 0.  1.
       -5    1    3    3    0  502 -0.51750180833E+03  0.43861700180E+03 -0.79111759081E+03  0.10421526416E+04  0.46999998093E+01 0. -1.
</event>
<event>
 5   0  0.2541124E-04  0.1919377E+04  0.7818609E-02  0.8645271E-01
        2   -1    0    0  501    0  0.00000000000E+00  0.00000000000E+00  0.14300617231E+04  0.14300617231E+04  0.25500000920E-02 0. -1.
       -2   -1    0    0    0  501  0.00000000000E+00  0.00000000000E+00 -0.64402987094E+03  0.64402987094E+03  0.25500000920E-02 0.  1.
    10030    2    1    2    0    0  0.00000000000E+00  0.00000000000E+00  0.78603185220E+03  0.20740915941E+04  0.19193774689E+04 0.  0.
        5    1    3    3  502    0  0.59292846430E+03  0.29290084840E+03  0.11445039223E+04  0.13218420439E+04  0.46999998093E+01 0.  1.
       -5    1    3    3    0  502 -0.59292846430E+03 -0.29290084840E+03 -0.35847207009E+03  0.75224955022E+03  0.46999998093E+01 0. -1.
</event>
<event>
 5   0  0.2595012E-04  0.1911597E+04  0.7818609E-02  0.8649105E-01
        2   -1    0    0  501    0  0.00000000000E+00  0.00000000000E+00  0.87325074822E+03  0.87325074823E+03  0.25500000920E-02 0. -1.
       -2   -1    0    0    0  501  0.00000000000E+00  0.00000000000E+00 -0.10461498440E+04  0.10461498440E+04  0.25500000920E-02 0.  1.
    10030    2    1    2    0    0  0.00000000000E+00  0.00000000000E+00 -0.17289909579E+03  0.19194005922E+04  0.19115973782E+04 0.  0.
        1    1    3    3  502    0  0.13526404831E+03 -0.41712839969E+03 -0.93918579029E+03  0.10365145504E+04  0.50400001928E-02 0.  1.
       -1    1    3    3    0  502 -0.13526404831E+03  0.41712839969E+03  0.76628669450E+03  0.88288604179E+03  0.50400001928E-02 0. -1.
</event>
<event>
 5   0  0.1277709E-04  0.1831649E+04  0.7818609E-02  0.8689648E-01
       -1   -1    0    0    0  501  0.00000000000E+00  0.00000000000E+00  0.75421197293E+03  0.75421197295E+03  0.50400001928E-02 0.  1.
        1   -1    0    0  501    0  0.00000000000E+00  0.00000000000E+00 -0.11120673992E+04  0.11120673992E+04  0.50400001928E-02 0. -1.
    10030    2    1    2    0    0  0.00000000000E+00  0.00000000000E+00 -0.35785542628E+03  0.18662793722E+04  0.18316490354E+04 0.  0.
        4    1    3    3  502    0 -0.69515443324E+03  0.29865188193E+03 -0.70472727938E+03  0.10339607264E+04  0.12699999809E+01 0.  1.
       -4    1    3    3    0  502  0.69515443324E+03 -0.29865188193E+03  0.34687185310E+03  0.83231864572E+03  0.12699999809E+01 0. -1.
</event>
<event>
 5   0  0.9266125E-05  0.1828010E+04  0.7818609E-02  0.8691544E-01
       -3   -1    0    0    0  501  0.00000000000E+00  0.00000000000E+00  0.65131785674E+03  0.65131786457E+03  0.10100000352E+00 0. -1.
        3   -1    0    0  501    0  0.00000000000E+00  0.00000000000E+00 -0.12826388407E+04  0.12826388446E+04  0.10100000352E+00 0.  1.
    10030    2    1    2    0    0  0.00000000000E+00  0.00000000000E+00 -0.63132098391E+03  0.19339567092E+04  0.18280104946E+04 0.  0.
        1    1    3    3  502    0  0.39408609595E+02  0.48955944121E+03  0.49984817201E+03  0.70076364066E+03  0.50400001928E-02 0. -1.
       -1    1    3    3    0  502 -0.39408609595E+02 -0.48955944121E+03 -0.11311691559E+04  0.12331930685E+04  0.50400001928E-02 0.  1.
</event>
<event>
 5   0  0.2541124E-04  0.1925675E+04  0.7818609E-02  0.8642181E-01
       -2   -1    0    0    0  501  0.00000000000E+00  0.00000000000E+00  0.65746531748E+03  0.65746531748E+03  0.25500000920E-02 0. -1.
        2   -1    0    0  501    0  0.00000000000E+00  0.00000000000E+00 -0.14100460455E+04  0.14100460455E+04  0.25500000920E-02 0.  1.
    10030    2    1    2    0    0  0.00000000000E+00  0.00000000000E+00 -0.75258072800E+03  0.20675113630E+04  0.19256753319E+04 0.  0.
        5    1    3    3  502    0  0.39611784855E+03  0.66750394018E+03  0.23537603538E+03  0.81110716192E+03  0.46999998093E+01 0. -1.
       -5    1    3    3    0  502 -0.39611784855E+03 -0.66750394018E+03 -0.98795676338E+03  0.12564042010E+04  0.46999998093E+01 0.  1.
</event>
<event>
 5   0  0.2608744E-04  0.1511078E+04  0.7818609E-02  0.8877120E-01
        2   -1    0    0  501    0  0.00000000000E+00  0.00000000000E+00  0.50484193198E+03  0.50484193199E+03  0.25500000920E-02 0.  1.
       -2   -1    0    0    0  501  0.00000000000E+00  0.00000000000E+00 -0.11307280345E+04  0.11307280345E+04  0.25500000920E-02 0. -1.
    10030    2    1    2    0    0  0.00000000000E+00  0.00000000000E+00 -0.62588610254E+03  0.16355699665E+04  0.15110776625E+04 0.  0.
        2    1    3    3  502    0 -0.58177058289E+03 -0.32281410562E+02 -0.83354710175E+03  0.10170053448E+04  0.25500000920E-02 0. -1.
       -2    1    3    3    0  502  0.58177058289E+03  0.32281410562E+02  0.20766099921E+03  0.61856462168E+03  0.25500000920E-02 0.  1.
</event>
<event>
 5   0  0.2651828E-04  0.1915016E+04  0.7818609E-02  0.8647418E-01
        2   -1    0    0  501    0  0.00000000000E+00  0.00000000000E+00  0.22667088344E+04  0.22667088344E+04  0.25500000920E-02 0.  1.
       -2   -1    0    0    0  501  0.00000000000E+00  0.00000000000E+00 -0.40447255416E+03  0.40447255417E+03  0.25500000920E-02 0. -1.
    10030    2    1    2    0    0  0.00000000000E+00  0.00000000000E+00  0.18622362803E+04  0.26711813886E+04  0.19150159392E+04 0.  0.
        3    1    3    3  502    0 -0.45034853197E+03 -0.45495770759E+03 -0.62098621892E+02  0.64316138331E+03  0.10100000352E+00 0. -1.
       -3    1    3    3    0  502  0.45034853197E+03  0.45495770759E+03  0.19243349021E+04  0.20280200053E+04  0.10100000352E+00 0.  1.
</event>
<event>
 5   0  0.1317527E-04  0.1881576E+04  0.7818609E-02  0.8664082E-01
       -1   -1    0    0    0  501  0.00000000000E+00  0.00000000000E+00  0.51361502425E+03  0.51361502427E+03  0.50400001928E-02 0.  1.
        1   -1    0    0  501    0  0.00000000000E+00  0.00000000000E+00 -0.17232402749E+04  0.17232402749E+04  0.50400001928E-02 0. -1.
    10030    2    1    2    0    0  0.00000000000E+00  0.00000000000E+00 -0.12096252507E+04  0.22368552992E+04  0.18815760369E+04 0.  0.
        1    1    3    3  502    0  0.80222979467E+03  0.32073050996E+03 -0.16216048077E+03  0.87905444941E+03  0.50400001928E-02 0. -1.
       -1    1    3    3    0  502 -0.80222979467E+03 -0.32073050996E+03 -0.10474647699E+04  0.13578008498E+04  0.50400001928E-02 0.  1.
</event>
<event>
 5   0  0.2651828E-04  0.1941285E+04  0.7818609E-02  0.8634575E-01
        2   -1    0    0  501    0  0.00000000000E+00  0.00000000000E+00  0.18552150143E+04  0.18552150143E+04  0.25500000920E-02 0.  1.
       -2   -1    0    0    0  501  0.00000000000E+00  0.00000000000E+00 -0.50783722923E+03  0.50783722924E+03  0.25500000920E-02 0. -1.
    10030    2    1    2    0    0  0.00000000000E+00  0.00000000000E+00  0.13473777851E+04  0.23630522436E+04  0.19412854015E+04 0.  0.
        3    1    3    3  502    0  0.64142178009E+03 -0.43509146755E+03 -0.37571942461E+02  0.77597560926E+03  0.10100000352E+00 0. -1.
       -3    1    3    3    0  502 -0.64142178009E+03  0.43509146755E+03  0.13849497276E+04  0.15870766343E+04  0.10100000352E+00 0.  1.
</event>
<event>
 5   0  0.2541124E-04  0.1911301E+04  0.7818609E-02  0.8649251E-01
       -2   -1    0    0    0  501  0.00000000000E+00  0.00000000000E+00  0.65162577066E+03  0.65162577067E+03  0.25500000920E-02 0. -1.
        2   -1    0    0  501    0  0.00000000000E+00  0.00000000000E+00 -0.14015222401E+04  0.14015222401E+04  0.25500000920E-02 0.  1.
    10030    2    1    2    0    0  0.00000000000E+00  0.00000000000E+00 -0.74989646940E+03  0.20531480107E+04  0.19113011377E+04 0.  0.
        5    1    3    3  502    0  0.14057785239E+03  0.28515879505E+03  0.59313822052E+03  0.67298789708E+03  0.46999998093E+01 0. -1.
       -5    1    3    3    0  502 -0.14057785239E+03 -0.28515879505E+03 -0.13430346899E+04  0.13801601136E+04  0.46999998093E+01 0.  1.
</event>
<event>
 5   0  0.1317527E-04  0.1896385E+04  0.7818609E-02  0.8656658E-01
       -1   -1    0    0    0  501  0.00000000000E+00  0.00000000000E+00  0.57051903666E+03  0.57051903668E+03  0.50400001928E-02 0.  1.
        1   -1    0    0  501    0  0.00000000000E+00  0.00000000000E+00 -0.15758787844E+04  0.15758787844E+04  0.50400001928E-02 0. -1.
    10030    2    1    2    0    0  0.00000000000E+00  0.00000000000E+00 -0.10053597478E+04  0.21463978211E+04  0.18963848196E+04 0.  0.
        1    1    3    3  502    0 -0.63130464097E+03  0.35259448387E+03  0.19153416216E+03  0.74803325799E+03  0.50400001928E-02 0.  1.
       -1    1    3    3    0  502  0.63130464097E+03 -0.35259448387E+03 -0.11968939099E+04  0.13983645631E+04  0.50400001928E-02 0. -1.
</event>
<event>
 5   0  0.1255141E-04  0.1970811E+04  0.7818609E-02  0.8620390E-01
        1   -1    0    0  501    0  0.00000000000E+00  0.00000000000E+00  0.10462913968E+04  0.10462913968E+04  0.50400001928E-02 0.  1.
       -1   -1    0    0    0  501  0.00000000000E+00  0.00000000000E+00 -0.92806298260E+03  0.92806298262E+03  0.50400001928E-02 0. -1.
    10030    2    1    2    0    0  0.00000000000E+00  0.00000000000E+00  0.11822841416E+03  0.19743543794E+04  0.19708113196E+04 0.  0.
        2    1    3    3  502    0 -0.69807594649E+02  0.11790770168E+03  0.10367009856E+04  0.10457171032E+04  0.25500000920E-02 0.  1.
       -2    1    3    3    0  502  0.69807594649E+02 -0.11790770168E+03 -0.91847257140E+03  0.92863727623E+03  0.25500000920E-02 0. -1.
</event>
<event>
 5   0  0.2562925E-04  0.1901280E+04  0.7818609E-02  0.8654220E-01
       -2   -1    0    0    0  501  0.00000000000E+00  0.00000000000E+00  0.10108253332E+04  0.10108253332E+04  0.25500000920E-02 0. -1.
        2   -1    0    0  501    0  0.00000000000E+00  0.00000000000E+00 -0.89403802231E+03  0.89403802232E+03  0.25500000920E-02 0.  1.
    10030    2    1    2    0    0  0.00000000000E+00  0.00000000000E+00  0.11678731091E+03  0.19048633555E+04  0.19012798656E+04 0.  0.
        4    1    3    3  502    0 -0.74265039409E+03 -0.24719885000E+03 -0.48213946798E+03  0.91929155265E+03  0.12699999809E+01 0.  1.
       -4    1    3    3    0  502  0.74265039409E+03  0.24719885000E+03  0.59892677889E+03  0.98557180290E+03  0.12699999809E+01 0. -1.
</event>
<event>
 5   0  0.2562925E-04  0.1940831E+04  0.7818609E-02  0.8634795E-01
        2   -1    0    0  501    0  0.00000000000E+00  0.00000000000E+00  0.82360247401E+03  0.82360247401E+03  0.25500000920E-02 0.  1.
       -2   -1    0    0    0  501  0.00000000000E+00  0.00000000000E+00 -0.11433987070E+04  0.11433987070E+04  0.25500000920E-02 0. -1.
    10030    2    1    2    0    0  0.00000000000E+00  0.00000000000E+00 -0.31979623295E+03  0.19670011810E+04  0.19408307539E+04 0.  0.
        4    1    3    3  502    0  0.58735027946E+03  0.19893501210E+03 -0.91638707662E+03  0.11064910198E+04  0.12699999809E+01 0. -1.
       -4    1    3    3    0  502 -0.58735027946E+03 -0.19893501210E+03  0.59659084367E+03  0.86051016117E+03  0.12699999809E+01 0.  1.
</event>
<event>
 5   0  0.2608744E-04  0.1893098E+04  0.7818609E-02  0.8658300E-01
        2   -1    0    0  501    0  0.00000000000E+00  0.00000000000E+00  0.77060520938E+03  0.77060520938E+03  0.25500000920E-02 0. -1.
       -2   -1    0    0    0  501  0.00000000000E+00  0.00000000000E+00 -0.11626641106E+04  0.11626641106E+04  0.25500000920E-02 0.  1.
    10030    2    1    2    0    0  0.00000000000E+00  0.00000000000E+00 -0.39205890125E+03  0.19332693200E+04  0.18930980116E+04 0.  0.
        2    1    3    3  502    0  0.24485175598E+01 -0.36808232274E+02  0.76987083314E+03  0.77075413780E+03  0.25500000920E-02 0. -1.
       -2    1    3    3    0  502 -0.24485175598E+01  0.36808232274E+02 -0.11619297344E+04  0.11625151822E+04  0.25500000920E-02 0.  1.
</event>
<event>
 5   0  0.2595012E-04  0.1895784E+04  0.7818609E-02  0.8656958E-01
        2   -1    0    0  501    0  0.00000000000E+00  0.00000000000E+00  0.11928366240E+04  0.11928366240E+04  0.25500000920E-02 0. -1.
       -2   -1    0    0    0  501  0.00000000000E+00  0.00000000000E+00 -0.75324574209E+03  0.75324574209E+03  0.25500000920E-02 0.  1.
    10030    2    1    2    0    0  0.00000000000E+00  0.00000000000E+00  0.43959088196E+03  0.19460823661E+04  0.18957838570E+04 0.  0.
        1    1    3    3  502    0 -0.54255155793E+03 -0.71548965818E+03 -0.91924693811E+02  0.90262826974E+03  0.50400001928E-02 0.  1.
       -1    1    3    3    0  502  0.54255155793E+03  0.71548965818E+03  0.53151557577E+03  0.10434540964E+04  0.50400001928E-02 0. -1.
</event>
<event>
 5   0  0.2562925E-04  0.1774582E+04  0.7818609E-02  0.8719935E-01
       -2   -1    0    0    0  501  0.00000000000E+00  0.00000000000E+00  0.41044182992E+03  0.41044182993E+03  0.25500000920E-02 0.  1.
        2   -1    0    0  501    0  0.00000000000E+00  0.00000000000E+00 -0.19181407107E+04  0.19181407107E+04  0.25500000920E-02 0. -1.
    10030    2    1    2    0    0  0.00000000000E+00  0.00000000000E+00 -0.15076988808E+04  0.23285825407E+04  0.17745818475E+04 0.  0.
        4    1    3    3  502    0  0.60788165769E+03  0.55034046165E+03 -0.30908043118E+03  0.87631447513E+03  0.12699999809E+01 0.  1.
       -4    1    3    3    0  502 -0.60788165769E+03 -0.55034046165E+03 -0.11986184496E+04  0.14522680655E+04  0.12699999809E+01 0. -1.
</event>
<event>
 5   0  0.2541124E-04  0.1768466E+04  0.7818609E-02  0.8723251E-01
       -2   -1    0    0    0  501  0.00000000000E+00  0.00000000000E+00  0.81977432160E+03  0.81977432160E+03  0.25500000920E-02 0. -1.
        2   -1    0    0  501    0  0.00000000000E+00  0.00000000000E+00 -0.95375955574E+03  0.95375955574E+03  0.25500000920E-02 0.  1.
    10030    2    1    2    0    0  0.00000000000E+00  0.00000000000E+00 -0.13398523414E+03  0.17735338773E+04  0.17684655414E+04 0.  0.
        5    1    3    3  502    0 -0.16878379272E+03  0.79778595190E+03 -0.40987175108E+03  0.91267044220E+03  0.46999998093E+01 0.  1.
       -5    1    3    3    0  502  0.16878379272E+03 -0.79778595190E+03  0.27588651694E+03  0.86086343514E+03  0.46999998093E+01 0. -1.
</event>
<event>
 5   0  0.1239615E-04  0.1880004E+04  0.7818609E-02  0.8664874E-01
        1   -1    0    0  501    0  0.00000000000E+00  0.00000000000E+00  0.12119179484E+04  0.12119179484E+04  0.50400001928E-02 0.  1.
       -1   -1    0    0    0  501  0.00000000000E+00  0.00000000000E+00 -0.72909540503E+03  0.72909540505E+03  0.50400001928E-02 0. -1.
    10030    2    1    2    0    0  0.00000000000E+00  0.00000000000E+00  0.48282254332E+03  0.19410133534E+04  0.18800040505E+04 0.  0.
        3    1    3    3  502    0 -0.14656852302E+03 -0.25081348408E+03  0.11644104117E+04  0.12001005595E+04  0.10100000352E+00 0.  1.
       -3    1    3    3    0  502  0.14656852302E+03  0.25081348408E+03 -0.68158786838E+03  0.74091279396E+03  0.10100000352E+00 0. -1.
</event>
<event>
 5   0  0.1239615E-04  0.1917184E+04  0.7818609E-02  0.8646350E-01
        1   -1    0    0  501    0  0.00000000000E+00  0.00000000000E+00  0.15195042389E+04  0.15195042389E+04  0.50400001928E-02 0.  1.
       -1   -1    0    0    0  501  0.00000000000E+00  0.00000000000E+00 -0.60473557230E+03  0.60473557232E+03  0.50400001928E-02 0. -1.
    10030    2    1    2    0    0  0.00000000000E+00  0.00000000000E+00  0.91476866656E+03  0.21242398112E+04  0.19171836276E+04 0.  0.
        3    1    3    3  502    0 -0.93045741539E+03 -0.18452560563E+03  0.30426546533E+03  0.99618180298E+03  0.10100000352E+00 0. -1.
       -3    1    3    3    0  502  0.93045741539E+03  0.18452560563E+03  0.61050320122E+03  0.11280580082E+04  0.10100000352E+00 0.  1.
</event>
<event>
 5   0  0.1277709E-04  0.1909589E+04  0.7818609E-02  0.8650098E-01
        1   -1    0    0  501    0  0.00000000000E+00  0.00000000000E+00  0.12810301687E+04  0.12810301687E+04  0.50400001928E-02 0.  1.
       -1   -1    0    0    0  501  0.00000000000E+00  0.00000000000E+00 -0.71164038529E+03  0.71164038531E+03  0.50400001928E-02 0. -1.
    10030    2    1    2    0    0  0.00000000000E+00  0.00000000000E+00  0.56938978339E+03  0.19926705540E+04  0.19095892782E+04 0.  0.
        4    1    3    3  502    0  0.40343020196E+03 -0.21482680157E+03  0.11594533436E+04  0.12462905566E+04  0.12699999809E+01 0.  1.
       -4    1    3    3    0  502 -0.40343020196E+03  0.21482680157E+03 -0.59006356022E+03  0.74637999741E+03  0.12699999809E+01 0. -1.
</event>
<event>
 5   0  0.1317527E-04  0.1892703E+04  0.7818609E-02  0.8658497E-01
        1   -1    0    0  501    0  0.00000000000E+00  0.00000000000E+00  0.13585300380E+04  0.13585300380E+04  0.50400001928E-02 0. -1.
       -1   -1    0    0    0  501  0.00000000000E+00  0.00000000000E+00 -0.65922819654E+03  0.65922819656E+03  0.50400001928E-02 0.  1.
    10030    2    1    2    0    0  0.00000000000E+00  0.00000000000E+00  0.69930184144E+03  0.20177582345E+04  0.18927031536E+04 0.  0.
        1    1    3    3  502    0  0.32850897953E+03  0.85368539135E+03  0.60834517684E+03  0.10985357305E+04  0.50400001928E-02 0. -1.
       -1    1    3    3    0  502 -0.32850897953E+03 -0.85368539135E+03  0.90956664602E+02  0.91922250402E+03  0.50400001928E-02 0.  1.
</event>
<event>
 5   0  0.2595012E-04  0.1942361E+04  0.7818609E-02  0.8634053E-01
        2   -1    0    0  501    0  0.00000000000E+00  0.00000000000E+00  0.31035075463E+04  0.31035075463E+04  0.25500000920E-02 0.  1.
       -2   -1    0    0    0  501  0.00000000000E+00  0.00000000000E+00 -0.30391156059E+03  0.30391156060E+03  0.25500000920E-02 0. -1.
    10030    2    1    2    0    0  0.00000000000E+00  0.00000000000E+00  0.27995959857E+04  0.34074191069E+04  0.19423612658E+04 0.  0.
        1    1    3    3  502    0 -0.14165411531E+03  0.35572138630E+03  0.29655121833E+04  0.29901281080E+04  0.50400001928E-02 0.  1.
       -1    1    3    3    0  502  0.14165411531E+03 -0.35572138630E+03 -0.16591619762E+03  0.41729099885E+03  0.50400001928E-02 0. -1.
</event>
<event>
 5   0  0.2562925E-04  0.1854625E+04  0.7818609E-02  0.8677778E-01
       -2   -1    0    0    0  501  0.00000000000E+00  0.00000000000E+00  0.11469717838E+04  0.11469717838E+04  0.25500000920E-02 0. -1.
        2   -1    0    0  501    0  0.00000000000E+00  0.00000000000E+00 -0.74972054063E+03  0.74972054064E+03  0.25500000920E-02 0.  1.
    10030    2    1    2    0    0  0.00000000000E+00  0.00000000000E+00  0.39725124318E+03  0.18966923245E+04  0.18546248201E+04 0.  0.
        4    1    3    3  502    0 -0.87262195637E+03  0.57463492414E+02 -0.11681110805E+03  0.88227976264E+03  0.12699999809E+01 0.  1.
       -4    1    3    3    0  502  0.87262195637E+03 -0.57463492414E+02  0.51406235123E+03  0.10144125618E+04  0.12699999809E+01 0. -1.
</event>
<event>
 5   0  0.2608744E-04  0.1919848E+04  0.7818609E-02  0.8645039E-01
       -2   -1    0    0    0  501  0.00000000000E+00  0.00000000000E+00  0.89117038983E+03  0.89117038984E+03  0.25500000920E-02 0. -1.
        2   -1    0    0  501    0  0.00000000000E+00  0.00000000000E+00 -0.10339819450E+04  0.10339819450E+04  0.25500000920E-02 0.  1.
    10030    2    1    2    0    0  0.00000000000E+00  0.00000000000E+00 -0.14281155519E+03  0.19251523349E+04  0.19198480076E+04 0.  0.
        2    1    3    3  502    0 -0.69590377308E+03 -0.13860120554E+03  0.57688003278E+03  0.91448506154E+03  0.25500000920E-02 0. -1.
       -2    1    3    3    0  502  0.69590377308E+03  0.13860120554E+03 -0.71969158796E+03  0.10106672733E+04  0.25500000920E-02 0.  1.
</event>
<event>
 5   0  0.9266125E-05  0.1882039E+04  0.7818609E-02  0.8663849E-01
       -3   -1    0    0    0  501  0.00000000000E+00  0.00000000000E+00  0.12225565197E+04  0.12225565239E+04  0.10100000352E+00 0.  1.
        3   -1    0    0  501    0  0.00000000000E+00  0.00000000000E+00 -0.72431656586E+03  0.72431657290E+03  0.10100000352E+00 0. -1.
    10030    2    1    2    0    0  0.00000000000E+00  0.00000000000E+00  0.49823995382E+03  0.19468730968E+04  0.18820392672E+04 0.  0.
        2    1    3    3  502    0 -0.19693767879E+03  0.87895092777E+03  0.53086014644E+03  0.10455389413E+04  0.25500000920E-02 0. -1.
       -2    1    3    3    0  502  0.19693767879E+03 -0.87895092777E+03 -0.32620192621E+02  0.90133415542E+03  0.25500000920E-02 0.  1.
</event>
<event>
 5   0  0.1239615E-04  0.1880294E+04  0.7818609E-02  0.8664728E-01
       -1   -1    0    0    0  501  0.00000000000E+00  0.00000000000E+00  0.97073804637E+03  0.97073804638E+03  0.50400001928E-02 0.  1.
        1   -1    0    0  501    0  0.00000000000E+00  0.00000000000E+00 -0.91052010053E+03  0.91052010054E+03  0.50400001928E-02 0. -1.
    10030    2    1    2    0    0  0.00000000000E+00  0.00000000000E+00  0.60217945841E+02  0.18812581469E+04  0.18802941297E+04 0.  0.
        3    1    3    3  502    0 -0.41478011485E+03  0.72873364511E+03 -0.39529277007E+03  0.92701221861E+03  0.10100000352E+00 0. -1.
       -3    1    3    3    0  502  0.41478011485E+03 -0.72873364511E+03  0.45551071591E+03  0.95424592831E+03  0.10100000352E+00 0.  1.
</event>
<event>
 5   0  0.2595012E-04  0.1916331E+04  0.7818609E-02  0.8646770E-01
       -2   -1    0    0    0  501  0.00000000000E+00  0.00000000000E+00  0.70090540995E+03  0.70090540996E+03  0.25500000920E-02 0. -1.
        2   -1    0    0  501    0  0.00000000000E+00  0.00000000000E+00 -0.13098502211E+04  0.13098502211E+04  0.25500000920E-02 0.  1.
    10030    2    1    2    0    0  0.00000000000E+00  0.00000000000E+00 -0.60894481116E+03  0.20107556311E+04  0.19163309800E+04 0.  0.
        1    1    3    3  502    0 -0.23385174035E+03  0.74385337936E+03  0.27981063885E+03  0.82843133698E+03  0.50400001928E-02 0. -1.
       -1    1    3    3    0  502  0.23385174035E+03 -0.74385337936E+03 -0.88875545000E+03  0.11823242941E+04  0.50400001928E-02 0.  1.
</event>
<event>
 5   0  0.1277709E-04  0.1717467E+04  0.7818609E-02  0.8751465E-01
        1   -1    0    0  501    0  0.00000000000E+00  0.00000000000E+00  0.13550710699E+04  0.13550710700E+04  0.50400001928E-02 0. -1.
       -1   -1    0    0    0  501  0.00000000000E+00  0.00000000000E+00 -0.54419512993E+03  0.54419512995E+03  0.50400001928E-02 0.  1.
    10030    2    1    2    0    0  0.00000000000E+00  0.00000000000E+00  0.81087594001E+03  0.18992661999E+04  0.17174668288E+04 0.  0.
        4    1    3    3  502    0  0.77877638969E+03 -0.35789364992E+03  0.34649553449E+03  0.92446811633E+03  0.12699999809E+01 0.  1.
       -4    1    3    3    0  502 -0.77877638969E+03  0.35789364992E+03  0.46438040553E+03  0.97479808357E+03  0.12699999809E+01 0. -1.
</event>
<event>
 5   0  0.1239615E-04  0.1892376E+04  0.7818609E-02  0.8658661E-01
        1   -1    0    0  501    0  0.00000000000E+00  0.00000000000E+00  0.19613923403E+04  0.19613923403E+04  0.50400001928E-02 0. -1.
       -1   -1    0    0    0  501  0.00000000000E+00  0.00000000000E+00 -0.45644693432E+03  0.45644693435E+03  0.50400001928E-02 0.  1.
    10030    2    1    2    0    0  0.00000000000E+00  0.00000000000E+00  0.15049454059E+04  0.24178392746E+04  0.18923757774E+04 0.  0.
        3    1    3    3  502    0 -0.26633990065E+03  0.48391509414E+03  0.17340063876E+04  0.18198595889E+04  0.10100000352E+00 0. -1.
       -3    1    3    3    0  502  0.26633990065E+03 -0.48391509414E+03 -0.22906098163E+03  0.59797968571E+03  0.10100000352E+00 0.  1.
</event>
<event>
 5   0  0.1317527E-04  0.1904591E+04  0.7818609E-02  0.8652575E-01
       -1   -1    0    0    0  501  0.00000000000E+00  0.00000000000E+00  0.91684476321E+03  0.91684476323E+03  0.50400001928E-02 0. -1.
        1   -1    0    0  501    0  0.00000000000E+00  0.00000000000E+00 -0.98911650734E+03  0.98911650735E+03  0.50400001928E-02 0.  1.
    10030    2    1    2    0    0  0.00000000000E+00  0.00000000000E+00 -0.72271744121E+02  0.19059612706E+04  0.19045905492E+04 0.  0.
        1    1    3    3  502    0  0.15397026914E+03  0.52198497415E+03 -0.81816558385E+03  0.98263425527E+03  0.50400001928E-02 0.  1.
       -1    1    3    3    0  502 -0.15397026914E+03 -0.52198497415E+03  0.74589383973E+03  0.92332701530E+03  0.50400001928E-02 0. -1.
</event>
<event>
 5   0  0.9266125E-05  0.1913249E+04  0.7818609E-02  0.8648289E-01
        3   -1    0    0  501    0  0.00000000000E+00  0.00000000000E+00  0.10072079411E+04  0.10072079462E+04  0.10100000352E+00 0. -1.
       -3   -1    0    0    0  501  0.00000000000E+00  0.00000000000E+00 -0.90858146709E+03  0.90858147271E+03  0.10100000352E+00 0.  1.
    10030    2    1    2    0    0  0.00000000000E+00  0.00000000000E+00  0.98626474027E+02  0.19157894189E+04  0.19132490471E+04 0.  0.
        2    1    3    3  502    0 -0.33959559698E+03 -0.36896956533E+03 -0.76642590326E+03  0.91589976243E+03  0.25500000920E-02 0.  1.
       -2    1    3    3    0  502  0.33959559698E+03  0.36896956533E+03  0.86505237729E+03  0.99988965646E+03  0.25500000920E-02 0. -1.
</event>
<event>
 5   0  0.1239615E-04  0.1900573E+04  0.7818609E-02  0.8654571E-01
        1   -1    0    0  501    0  0.00000000000E+00  0.00000000000E+00  0.14051258662E+04  0.14051258662E+04  0.50400001928E-02 0.  1.
       -1   -1    0    0    0  501  0.00000000000E+00  0.00000000000E+00 -0.64267844535E+03  0.64267844537E+03  0.50400001928E-02 0. -1.
    10030    2    1    2    0    0  0.00000000000E+00  0.00000000000E+00  0.76244742083E+03  0.20478043116E+04  0.19005726581E+04 0.  0.
        3    1    3    3  502    0 -0.36519369800E+03 -0.87604578208E+03  0.33044028184E+03  0.10049942485E+04  0.10100000352E+00 0. -1.
       -3    1    3    3    0  502  0.36519369800E+03  0.87604578208E+03  0.43200713900E+03  0.10428100631E+04  0.10100000352E+00 0.  1.
</event>
<event>
 5   0  0.2562925E-04  0.1960043E+04  0.7818609E-02  0.8625533E-01
        2   -1    0    0  501    0  0.00000000000E+00  0.00000000000E+00  0.16949061682E+04  0.16949061682E+04  0.25500000920E-02 0.  1.
       -2   -1    0    0    0  501  0.00000000000E+00  0.00000000000E+00 -0.56666373603E+03  0.56666373604E+03  0.25500000920E-02 0. -1.
    10030    2    1    2    0    0  0.00000000000E+00  0.00000000000E+00  0.11282424322E+04  0.22615699043E+04  0.19600427154E+04 0.  0.
        4    1    3    3  502    0 -0.42935575079E+03  0.70728612186E+03  0.11701221354E+04  0.14331041287E+04  0.12699999809E+01 0.  1.
       -4    1    3    3    0  502  0.42935575079E+03 -0.70728612186E+03 -0.41879703218E+02  0.82846577561E+03  0.12699999809E+01 0. -1.
</event>
<event>
 5   0  0.2595012E-04  0.1852297E+04  0.7818609E-02  0.8678973E-01
        2   -1    0    0  501    0  0.00000000000E+00  0.00000000000E+00  0.96718636638E+03  0.96718636639E+03  0.25500000920E-02 0. -1.
       -2   -1    0    0    0  501  0.00000000000E+00  0.00000000000E+00 -0.88685175881E+03  0.88685175881E+03  0.25500000920E-02 0.  1.
    10030    2    1    2    0    0  0.00000000000E+00  0.00000000000E+00  0.80334607575E+02  0.18540381252E+04  0.18522968770E+04 0.  0.
        1    1    3    3  502    0  0.41089168425E+03 -0.74877298644E+03 -0.31830057394E+03  0.91148681658E+03  0.50400001928E-02 0.  1.
       -1    1    3    3    0  502 -0.41089168425E+03  0.74877298644E+03  0.39863518152E+03  0.94255130862E+03  0.50400001928E-02 0. -1.
</event>
<event>
 5   0  0.1277709E-04  0.1940497E+04  0.7818609E-02  0.8634957E-01
        1   -1    0    0  501    0  0.00000000000E+00  0.00000000000E+00  0.10253831308E+04  0.10253831308E+04  0.50400001928E-02 0.  1.
       -1   -1    0    0    0  501  0.00000000000E+00  0.00000000000E+00 -0.91807854376E+03  0.91807854377E+03  0.50400001928E-02 0. -1.
    10030    2    1    2    0    0  0.00000000000E+00  0.00000000000E+00  0.10730458703E+03  0.19434616746E+04  0.19404971028E+04 0.  0.
        4    1    3    3  502    0 -0.58152235462E+03  0.57499589121E+03  0.57655347906E+03  0.10006018444E+04  0.12699999809E+01 0.  1.
       -4    1    3    3    0  502  0.58152235462E+03 -0.57499589121E+03 -0.46924889203E+03  0.94285983020E+03  0.12699999809E+01 0. -1.
</event>
<event>
 5   0  0.2541124E-04  0.1980461E+04  0.7818609E-02  0.8615810E-01
        2   -1    0    0  501    0  0.00000000000E+00  0.00000000000E+00  0.10751553311E+04  0.10751553311E+04  0.25500000920E-02 0. -1.
       -2   -1    0    0    0  501  0.00000000000E+00  0.00000000000E+00 -0.91201408404E+03  0.91201408404E+03  0.25500000920E-02 0.  1.
    10030    2    1    2    0    0  0.00000000000E+00  0.00000000000E+00  0.16314124704E+03  0.19871694151E+04  0.19804613649E+04 0.  0.
        5    1    3    3  502    0  0.28688759402E+03 -0.32503874006E+03 -0.81171446680E+03  0.92024841198E+03  0.46999998093E+01 0.  1.
       -5    1    3    3    0  502 -0.28688759402E+03  0.32503874006E+03  0.97485571384E+03  0.10669210031E+04  0.46999998093E+01 0. -1.
</event>
<event>
 5   0  0.1277709E-04  0.1925731E+04  0.7818609E-02  0.8642153E-01
       -1   -1    0    0    0  501  0.00000000000E+00  0.00000000000E+00  0.47393992556E+03  0.47393992558E+03  0.50400001928E-02 0. -1.
        1   -1    0    0  501    0  0.00000000000E+00  0.00000000000E+00 -0.19561769057E+04  0.19561769057E+04  0.50400001928E-02 0.  1.
    10030    2    1    2    0    0  0.00000000000E+00  0.00000000000E+00 -0.14822369802E+04  0.24301168313E+04  0.19257313801E+04 0.  0.
        4    1    3    3  502    0 -0.60516998219E+03 -0.21311415283E+03 -0.16471203487E+04  0.17676694843E+04  0.12699999809E+01 0.  1.
       -4    1    3    3    0  502  0.60516998219E+03  0.21311415283E+03  0.16488336857E+03  0.66244734705E+03  0.12699999809E+01 0. -1.
</event>
<event>
 5   0  0.1317527E-04  0.1643417E+04  0.7818609E-02  0.8794311E-01
       -1   -1    0    0    0  501  0.00000000000E+00  0.00000000000E+00  0.29481303498E+03  0.29481303502E+03  0.50400001928E-02 0. -1.
        1   -1    0    0  501    0  0.00000000000E+00  0.00000000000E+00 -0.22902805731E+04  0.22902805731E+04  0.50400001928E-02 0.  1.
    10030    2    1    2    0    0  0.00000000000E+00  0.00000000000E+00 -0.19954675381E+04  0.25850936081E+04  0.16434166444E+04 0.  0.
        1    1    3    3  502    0 -0.60501652820E+03  0.34180334239E+03 -0.30788775950E+03  0.76004565438E+03  0.50400001928E-02 0. -1.
       -1    1    3    3    0  502  0.60501652820E+03 -0.34180334239E+03 -0.16875797786E+04  0.18250479537E+04  0.50400001928E-02 0.  1.
</event>
<event>
 5   0  0.1317527E-04  0.1892846E+04  0.7818609E-02  0.8658426E-01
       -1   -1    0    0    0  501  0.00000000000E+00  0.00000000000E+00  0.22831570084E+04  0.22831570084E+04  0.50400001928E-02 0.  1.
        1   -1    0    0  501    0  0.00000000000E+00  0.00000000000E+00 -0.39231493439E+03  0.39231493442E+03  0.50400001928E-02 0. -1.
    10030    2    1    2    0    0  0.00000000000E+00  0.00000000000E+00  0.18908420740E+04  0.26754719428E+04  0.18928461026E+04 0.  0.
        1    1    3    3  502    0  0.24353350980E+03  0.68402665839E+03  0.18034718481E+04  0.19441480774E+04  0.50400001928E-02 0.  1.
       -1    1    3    3    0  502 -0.24353350980E+03 -0.68402665839E+03  0.87370225886E+02  0.73132386545E+03  0.50400001928E-02 0. -1.
</event>
<event>
 5   0  0.1239615E-04  0.1909184E+04  0.7818609E-02  0.8650299E-01
       -1   -1    0    0    0  501  0.00000000000E+00  0.00000000000E+00  0.77278966417E+03  0.77278966419E+03  0.50400001928E-02 0. -1.
        1   -1    0    0  501    0  0.00000000000E+00  0.00000000000E+00 -0.11791637280E+04  0.11791637280E+04  0.50400001928E-02 0.  1.
    10030    2    1    2    0    0  0.00000000000E+00  0.00000000000E+00 -0.40637406379E+03  0.19519533922E+04  0.19091836385E+04 0.  0.
        3    1    3    3  502    0  0.83239245778E+03  0.19575482140E+03 -0.63701380005E+03  0.10662943991E+04  0.10100000352E+00 0.  1.
       -3    1    3    3    0  502 -0.83239245778E+03 -0.19575482140E+03  0.23063973625E+03  0.88565899308E+03  0.10100000352E+00 0. -1.
</event>
<event>
 5   0  0.2541124E-04  0.1899136E+04  0.7818609E-02  0.8655287E-01
        2   -1    0    0  501    0  0.00000000000E+00  0.00000000000E+00  0.10751686674E+04  0.10751686674E+04  0.25500000920E-02 0. -1.
       -2   -1    0    0    0  501  0.00000000000E+00  0.00000000000E+00 -0.83863963655E+03  0.83863963655E+03  0.25500000920E-02 0.  1.
    10030    2    1    2    0    0  0.00000000000E+00  0.00000000000E+00  0.23652903088E+03  0.19138083040E+04  0.18991356565E+04 0.  0.
        5    1    3    3  502    0  0.28302154300E+03 -0.87792262171E+03 -0.10888247546E+03  0.92883088180E+03  0.46999998093E+01 0.  1.
       -5    1    3    3    0  502 -0.28302154300E+03  0.87792262171E+03  0.34541150635E+03  0.98497742219E+03  0.46999998093E+01 0. -1.
</event>
<event>
 5   0  0.2595012E-04  0.1895241E+04  0.7818609E-02  0.8657229E-01
        2   -1    0    0  501    0  0.00000000000E+00  0.00000000000E+00  0.12132112632E+04  0.12132112632E+04  0.25500000920E-02 0.  1.
       -2   -1    0    0    0  501  0.00000000000E+00  0.00000000000E+00 -0.74017182525E+03  0.74017182525E+03  0.25500000920E-02 0. -1.
    10030    2    1    2    0    0  0.00000000000E+00  0.00000000000E+00  0.47303943800E+03  0.19533830885E+04  0.18952411932E+04 0.  0.
        1    1    3    3  502    0 -0.85061637613E+03 -0.23281504995E+03 -0.12086509401E+03  0.89014573964E+03  0.50400001928E-02 0. -1.
       -1    1    3    3    0  502  0.85061637613E+03  0.23281504995E+03  0.59390453200E+03  0.10632373489E+04  0.50400001928E-02 0.  1.
</event>
<event>
 5   0  0.1277709E-04  0.1919712E+04  0.7818609E-02  0.8645106E-01
       -1   -1    0    0    0  501  0.00000000000E+00  0.00000000000E+00  0.77979542154E+03  0.77979542156E+03  0.50400001928E-02 0.  1.
        1   -1    0    0  501    0  0.00000000000E+00  0.00000000000E+00 -0.11814936903E+04  0.11814936903E+04  0.50400001928E-02 0. -1.
    10030    2    1    2    0    0  0.00000000000E+00  0.00000000000E+00 -0.40169826873E+03  0.19612891118E+04  0.19197118224E+04 0.  0.
        4    1    3    3  502    0 -0.37868963407E+03  0.47211719887E+03 -0.96198185235E+03  0.11365347269E+04  0.12699999809E+01 0. -1.
       -4    1    3    3    0  502  0.37868963407E+03 -0.47211719887E+03  0.56028358362E+03  0.82475438489E+03  0.12699999809E+01 0.  1.
</event>
<event>
 5   0  0.1239615E-04  0.1945558E+04  0.7818609E-02  0.8632506E-01
       -1   -1    0    0    0  501  0.00000000000E+00  0.00000000000E+00  0.56349537887E+03  0.56349537889E+03  0.50400001928E-02 0.  1.
        1   -1    0    0  501    0  0.00000000000E+00  0.00000000000E+00 -0.16793375137E+04  0.16793375137E+04  0.50400001928E-02 0. -1.
    10030    2    1    2    0    0  0.00000000000E+00  0.00000000000E+00 -0.11158421349E+04  0.22428328926E+04  0.19455579442E+04 0.  0.
        3    1    3    3  502    0  0.51469058344E+03 -0.98467700260E+02  0.38687773197E+03  0.65136523884E+03  0.10100000352E+00 0.  1.
       -3    1    3    3    0  502 -0.51469058344E+03  0.98467700260E+02 -0.15027198668E+04  0.15914676538E+04  0.10100000352E+00 0. -1.
</event>
<event>
 5   0  0.2541124E-04  0.1856833E+04  0.7818609E-02  0.8676647E-01
       -2   -1    0    0    0  501  0.00000000000E+00  0.00000000000E+00  0.60408534116E+03  0.60408534117E+03  0.25500000920E-02 0. -1.
        2   -1    0    0  501    0  0.00000000000E+00  0.00000000000E+00 -0.14268792305E+04  0.14268792305E+04  0.25500000920E-02 0.  1.
    10030    2    1    2    0    0  0.00000000000E+00  0.00000000000E+00 -0.82279388937E+03  0.20309645717E+04  0.18568326007E+04 0.  0.
        5    1    3    3  502    0 -0.12552903297E+03  0.57067341144E+03  0.37772430824E+03  0.69578978411E+03  0.46999998093E+01 0. -1.
       -5    1    3    3    0  502  0.12552903297E+03 -0.57067341144E+03 -0.12005181976E+04  0.13351747876E+04  0.46999998093E+01 0.  1.
</event>
<event>
 5   0  0.1239615E-04  0.2172972E+04  0.7818609E-02  0.8529763E-01
        1   -1    0    0  501    0  0.00000000000E+00  0.00000000000E+00  0.12807873381E+04  0.12807873381E+04  0.50400001928E-02 0. -1.
       -1   -1    0    0    0  501  0.00000000000E+00  0.00000000000E+00 -0.92166072322E+03  0.92166072323E+03  0.50400001928E-02 0.  1.
    10030    2    1    2    0    0  0.00000000000E+00  0.00000000000E+00  0.35912661490E+03  0.22024480614E+04  0.21729715915E+04 0.  0.
        3    1    3    3  502    0  0.58634629263E+03 -0.45219033477E+03 -0.62631543825E+03  0.96981911310E+03  0.10100000352E+00 0.  1.
       -3    1    3    3    0  502 -0.58634629263E+03  0.45219033477E+03  0.98544205315E+03  0.12326289483E+04  0.10100000352E+00 0. -1.
</event>
<event>
 5   0  0.1239615E-04  0.1938312E+04  0.7818609E-02  0.8636018E-01
        1   -1    0    0  501    0  0.00000000000E+00  0.00000000000E+00  0.84034149581E+03  0.84034149582E+03  0.50400001928E-02 0.  1.
       -1   -1    0    0    0  501  0.00000000000E+00  0.00000000000E+00 -0.11177164297E+04  0.11177164297E+04  0.50400001928E-02 0. -1.
    10030    2    1    2    0    0  0.00000000000E+00  0.00000000000E+00 -0.27737493388E+03  0.19580579255E+04  0.19383121487E+04 0.  0.
        3    1    3    3  502    0  0.56054690229E+03  0.82582995930E+02  0.65559889054E+03  0.86651179817E+03  0.10100000352E+00 0.  1.
       -3    1    3    3    0  502 -0.56054690229E+03 -0.82582995930E+02 -0.93297382442E+03  0.10915461274E+04  0.10100000352E+00 0. -1.
</event>
<event>
 5   0  0.2562925E-04  0.1877308E+04  0.7818609E-02  0.8666235E-01
       -2   -1    0    0    0  501  0.00000000000E+00  0.00000000000E+00  0.70775676164E+03  0.70775676165E+03  0.25500000920E-02 0. -1.
        2   -1    0    0  501    0  0.00000000000E+00  0.00000000000E+00 -0.12448792406E+04  0.12448792406E+04  0.25500000920E-02 0.  1.
    10030    2    1    2    0    0  0.00000000000E+00  0.00000000000E+00 -0.53712247894E+03  0.19526360022E+04  0.18773083923E+04 0.  0.
        4    1    3    3  502    0  0.21022319050E+03  0.44294350775E+03  0.56397923239E+03  0.74730644875E+03  0.12699999809E+01 0. -1.
       -4    1    3    3    0  502 -0.21022319050E+03 -0.44294350775E+03 -0.11011017113E+04  0.12053295535E+04  0.12699999809E+01 0.  1.
</event>
<event>
 5   0  0.2608744E-04  0.1888084E+04  0.7818609E-02  0.8660811E-01
        2   -1    0    0  501    0  0.00000000000E+00  0.00000000000E+00  0.11211792418E+04  0.11211792418E+04  0.25500000920E-02 0.  1.
       -2   -1    0    0    0  501  0.00000000000E+00  0.00000000000E+00 -0.79489099223E+03  0.79489099224E+03  0.25500000920E-02 0. -1.
    10030    2    1    2    0    0  0.00000000000E+00  0.00000000000E+00  0.32628824957E+03  0.19160702340E+04  0.18880839812E+04 0.  0.
        2    1    3    3  502    0  0.69962711699E+02  0.59510902166E+03  0.90345405889E+03  0.10841027466E+04  0.25500000920E-02 0.  1.
       -2    1    3    3    0  502 -0.69962711699E+02 -0.59510902166E+03 -0.57716580932E+03  0.83196748743E+03  0.25500000920E-02 0. -1.
</event>
<event>
 5   0  0.1255141E-04  0.1879820E+04  0.7818609E-02  0.8664967E-01
        1   -1    0    0  501    0  0.00000000000E+00  0.00000000000E+00  0.19297807428E+04  0.19297807428E+04  0.50400001928E-02 0.  1.
       -1   -1    0    0    0  501  0.00000000000E+00  0.00000000000E+00 -0.45778807125E+03  0.45778807128E+03  0.50400001928E-02 0. -1.
    10030    2    1    2    0    0  0.00000000000E+00  0.00000000000E+00  0.14719926716E+04  0.23875688141E+04  0.18798197831E+04 0.  0.
        2    1    3    3  502    0  0.17550929165E+03 -0.35153338293E+03  0.18204693461E+04  0.18623876801E+04  0.25500000920E-02 0.  1.
       -2    1    3    3    0  502 -0.17550929165E+03  0.35153338293E+03 -0.34847667457E+03  0.52518113399E+03  0.25500000920E-02 0. -1.
</event>
<event>
 5   0  0.2608744E-04  0.1827590E+04  0.7818609E-02  0.8691764E-01
        2   -1    0    0  501    0  0.00000000000E+00  0.00000000000E+00  0.62940940766E+03  0.62940940766E+03  0.25500000920E-02 0.  1.
       -2   -1    0    0    0  501  0.00000000000E+00  0.00000000000E+00 -0.13266740189E+04  0.13266740189E+04  0.25500000920E-02 0. -1.
    10030    2    1    2    0    0  0.00000000000E+00  0.00000000000E+00 -0.69726461124E+03  0.19560834266E+04  0.18275897881E+04 0.  0.
        2    1    3    3  502    0  0.28151019825E+03  0.11961016029E+03  0.57299307319E+03  0.64951954867E+03  0.25500000920E-02 0.  1.
       -2    1    3    3    0  502 -0.28151019825E+03 -0.11961016029E+03 -0.12702576844E+04  0.13065638779E+04  0.25500000920E-02 0. -1.
</event>
<event>
 5   0  0.1255141E-04  0.1863895E+04  0.7818609E-02  0.8673040E-01
       -1   -1    0    0    0  501  0.00000000000E+00  0.00000000000E+00  0.39678409344E+03  0.39678409347E+03  0.50400001928E-02 0.  1.
        1   -1    0    0  501    0  0.00000000000E+00  0.00000000000E+00 -0.21889140969E+04  0.21889140969E+04  0.50400001928E-02 0. -1.
    10030    2    1    2    0    0  0.00000000000E+00  0.00000000000E+00 -0.17921300035E+04  0.25856981904E+04  0.18638951640E+04 0.  0.
        2    1    3    3  502    0 -0.40826590588E+03 -0.19013092009E+03 -0.20279287585E+04  0.20773362430E+04  0.25500000920E-02 0. -1.
       -2    1    3    3    0  502  0.40826590588E+03  0.19013092009E+03  0.23579875506E+03  0.50836194741E+03  0.25500000920E-02 0.  1.
</event>
<event>
 5   0  0.1317527E-04  0.1773660E+04  0.7818609E-02  0.8720434E-01
       -1   -1    0    0    0  501  0.00000000000E+00  0.00000000000E+00  0.10380864319E+04  0.10380864319E+04  0.50400001928E-02 0.  1.
        1   -1    0    0  501    0  0.00000000000E+00  0.00000000000E+00 -0.75761247024E+03  0.75761247026E+03  0.50400001928E-02 0. -1.
    10030    2    1    2    0    0  0.00000000000E+00  0.00000000000E+00  0.28047396170E+03  0.17956989022E+04  0.17736597487E+04 0.  0.
        1    1    3    3  502    0 -0.70506887566E+02 -0.87713261296E+03  0.28712020858E+02  0.88043013469E+03  0.50400001928E-02 0. -1.
       -1    1    3    3    0  502  0.70506887566E+02  0.87713261296E+03  0.25176194084E+03  0.91526876751E+03  0.50400001928E-02 0.  1.
</event>
<event>
 5   0  0.2608744E-04  0.1778780E+04  0.7818609E-02  0.8717666E-01
       -2   -1    0    0    0  501  0.00000000000E+00  0.00000000000E+00  0.50666685154E+03  0.50666685155E+03  0.25500000920E-02 0.  1.
        2   -1    0    0  501    0  0.00000000000E+00  0.00000000000E+00 -0.15612128229E+04  0.15612128229E+04  0.25500000920E-02 0. -1.
    10030    2    1    2    0    0  0.00000000000E+00  0.00000000000E+00 -0.10545459714E+04  0.20678796745E+04  0.17787802400E+04 0.  0.
        2    1    3    3  502    0 -0.25789280525E+03 -0.18767306147E+03  0.43789376674E+03  0.54173870820E+03  0.25500000920E-02 0.  1.
       -2    1    3    3    0  502  0.25789280525E+03  0.18767306147E+03 -0.14924397381E+04  0.15261409663E+04  0.25500000920E-02 0. -1.
</event>
<event>
 5   0  0.2562925E-04  0.1895930E+04  0.7818609E-02  0.8656885E-01
        2   -1    0    0  501    0  0.00000000000E+00  0.00000000000E+00  0.86960278056E+03  0.86960278057E+03  0.25500000920E-02 0. -1.
       -2   -1    0    0    0  501  0.00000000000E+00  0.00000000000E+00 -0.10333883652E+04  0.10333883652E+04  0.25500000920E-02 0.  1.
    10030    2    1    2    0    0  0.00000000000E+00  0.00000000000E+00 -0.16378558461E+03  0.19029911457E+04  0.18959297411E+04 0.  0.
        4    1    3    3  502    0  0.92839807925E+03  0.12550413574E+03 -0.22721290287E+03  0.96400290340E+03  0.12699999809E+01 0.  1.
       -4    1    3    3    0  502 -0.92839807925E+03 -0.12550413574E+03  0.63427318265E+02  0.93898824233E+03  0.12699999809E+01 0. -1.
</event>
<event>
 5   0  0.2595012E-04  0.1899784E+04  0.7818609E-02  0.8654964E-01
        2   -1    0    0  501    0  0.00000000000E+00  0.00000000000E+00  0.55096542267E+03  0.55096542268E+03  0.25500000920E-02 0.  1.
       -2   -1    0    0    0  501  0.00000000000E+00  0.00000000000E+00 -0.16376618032E+04  0.16376618032E+04  0.25500000920E-02 0. -1.
    10030    2    1    2    0    0  0.00000000000E+00  0.00000000000E+00 -0.10866963805E+04  0.21886272259E+04  0.18997842273E+04 0.  0.
        1    1    3    3  502    0  0.55977105434E+03 -0.18172322335E+03 -0.14023158622E+04  0.15208079237E+04  0.50400001928E-02 0. -1.
       -1    1    3    3    0  502 -0.55977105434E+03  0.18172322335E+03  0.31561948169E+03  0.66781930223E+03  0.50400001928E-02 0.  1.
</event>
<event>
 5   0  0.2595012E-04  0.1950048E+04  0.7818609E-02  0.8630338E-01
       -2   -1    0    0    0  501  0.00000000000E+00  0.00000000000E+00  0.10104318229E+04  0.10104318229E+04  0.25500000920E-02 0.  1.
        2   -1    0    0  501    0  0.00000000000E+00  0.00000000000E+00 -0.94085704049E+03  0.94085704049E+03  0.25500000920E-02 0. -1.
    10030    2    1    2    0    0  0.00000000000E+00  0.00000000000E+00  0.69574782396E+02  0.19512888634E+04  0.19500480963E+04 0.  0.
        1    1    3    3  502    0  0.96791115860E+02 -0.40138149724E+03  0.91863659939E+03  0.10071587900E+04  0.50400001928E-02 0.  1.
       -1    1    3    3    0  502 -0.96791115860E+02  0.40138149724E+03 -0.84906181699E+03  0.94413007342E+03  0.50400001928E-02 0. -1.
</event>
<event>
 5   0  0.1255141E-04  0.1901776E+04  0.7818609E-02  0.8653973E-01
        1   -1    0    0  501    0  0.00000000000E+00  0.00000000000E+00  0.20576338232E+04  0.20576338232E+04  0.50400001928E-02 0.  1.
       -1   -1    0    0    0  501  0.00000000000E+00  0.00000000000E+00 -0.43943093387E+03  0.43943093390E+03  0.50400001928E-02 0. -1.
    10030    2    1    2    0    0  0.00000000000E+00  0.00000000000E+00  0.16182028893E+04  0.24970647571E+04  0.19017759621E+04 0.  0.
        2    1    3    3  502    0 -0.40898704985E+02 -0.43088181172E+03 -0.30259559170E+03  0.52810598545E+03  0.25500000920E-02 0. -1.
       -2    1    3    3    0  502  0.40898704985E+02  0.43088181172E+03  0.19207984810E+04  0.19689587717E+04  0.25500000920E-02 0.  1.
</event>
<event>
 5   0  0.1255141E-04  0.1906629E+04  0.7818609E-02  0.8651563E-01
       -1   -1    0    0    0  501  0.00000000000E+00  0.00000000000E+00  0.55647218844E+03  0.55647218846E+03  0.50400001928E-02 0. -1.
        1   -1    0    0  501    0  0.00000000000E+00  0.00000000000E+00 -0.16331615419E+04  0.16331615419E+04  0.50400001928E-02 0.  1.
    10030    2    1    2    0    0  0.00000000000E+00  0.00000000000E+00 -0.10766893535E+04  0.21896337304E+04  0.19066294630E+04 0.  0.
        2    1    3    3  502    0  0.83736578338E+03 -0.89270420539E+02 -0.25189310754E+02  0.84248748628E+03  0.25500000920E-02 0. -1.
       -2    1    3    3    0  502 -0.83736578338E+03  0.89270420539E+02 -0.10515000427E+04  0.13471462441E+04  0.25500000920E-02 0.  1.
</event>
<event>
 5   0  0.2595012E-04  0.1811816E+04  0.7818609E-02  0.8700041E-01
       -2   -1    0    0    0  501  0.00000000000E+00  0.00000000000E+00  0.44458179914E+03  0.44458179914E+03  0.25500000920E-02 0. -1.
        2   -1    0    0  501    0  0.00000000000E+00  0.00000000000E+00 -0.18459363065E+04  0.18459363065E+04  0.25500000920E-02 0.  1.
    10030    2    1    2    0    0  0.00000000000E+00  0.00000000000E+00 -0.14013545073E+04  0.22905181056E+04  0.18118164192E+04 0.  0.
        1    1    3    3  502    0  0.38333029074E+03  0.47221302655E+02 -0.17366344450E+04  0.17790646866E+04  0.50400001928E-02 0.  1.
       -1    1    3    3    0  502 -0.38333029074E+03 -0.47221302655E+02  0.33527993770E+03  0.51145341906E+03  0.50400001928E-02 0. -1.
</event>
<event>
 5   0  0.2541124E-04  0.1943730E+04  0.7818609E-02  0.8633390E-01
        2   -1    0    0  501    0  0.00000000000E+00  0.00000000000E+00  0.12874501186E+04  0.12874501186E+04  0.25500000920E-02 0.  1.
       -2   -1    0    0    0  501  0.00000000000E+00  0.00000000000E+00 -0.73363742104E+03  0.73363742105E+03  0.25500000920E-02 0. -1.
    10030    2    1    2    0    0  0.00000000000E+00  0.00000000000E+00  0.55381269757E+03  0.20210875397E+04  0.19437300067E+04 0.  0.
        5    1    3    3  502    0 -0.35814594157E+03 -0.10247357586E+03 -0.65644249038E+03  0.75479015785E+03  0.46999998093E+01 0. -1.
       -5    1    3    3    0  502  0.35814594157E+03  0.10247357586E+03  0.12102551880E+04  0.12662973818E+04  0.46999998093E+01 0.  1.
</event>
<event>
 5   0  0.2562925E-04  0.1847268E+04  0.7818609E-02  0.8681559E-01
       -2   -1    0    0    0  501  0.00000000000E+00  0.00000000000E+00  0.59422533861E+03  0.59422533862E+03  0.25500000920E-02 0. -1.
        2   -1    0    0  501    0  0.00000000000E+00  0.00000000000E+00 -0.14356502463E+04  0.14356502463E+04  0.25500000920E-02 0.  1.
    10030    2    1    2    0    0  0.00000000000E+00  0.00000000000E+00 -0.84142490769E+03  0.20298755849E+04  0.18472679868E+04 0.  0.
        4    1    3    3  502    0 -0.87873328326E+02  0.91439075057E+03 -0.31493696003E+03  0.97109168890E+03  0.12699999809E+01 0. -1.
       -4    1    3    3    0  502  0.87873328326E+02 -0.91439075057E+03 -0.52648794765E+03  0.10587838960E+04  0.12699999809E+01 0.  1.
</event>
<event>
 5   0  0.1317527E-04  0.1902549E+04  0.7818609E-02  0.8653589E-01
        1   -1    0    0  501    0  0.00000000000E+00  0.00000000000E+00  0.15079239504E+04  0.15079239504E+04  0.50400001928E-02 0. -1.
       -1   -1    0    0    0  501  0.00000000000E+00  0.00000000000E+00 -0.60011187932E+03  0.60011187934E+03  0.50400001928E-02 0.  1.
    10030    2    1    2    0    0  0.00000000000E+00  0.00000000000E+00  0.90781207104E+03  0.21080358297E+04  0.19025488963E+04 0.  0.
        1    1    3    3  502    0  0.11558578171E+02  0.87129229590E+03  0.31060919783E+02  0.87192238553E+03  0.50400001928E-02 0.  1.
       -1    1    3    3    0  502 -0.11558578171E+02 -0.87129229590E+03  0.87675115125E+03  0.12361134442E+04  0.50400001928E-02 0. -1.
</event>
<event>
 5   0  0.2651828E-04  0.1921288E+04  0.7818609E-02  0.8644332E-01
       -2   -1    0    0    0  501  0.00000000000E+00  0.00000000000E+00  0.85716323210E+03  0.85716323211E+03  0.25500000920E-02 0. -1.
        2   -1    0    0  501    0  0.00000000000E+00  0.00000000000E+00 -0.10766175802E+04  0.10766175802E+04  0.25500000920E-02 0.  1.
    10030    2    1    2    0    0  0.00000000000E+00  0.00000000000E+00 -0.21945434813E+03  0.19337808123E+04  0.19212881146E+04 0.  0.
        3    1    3    3  502    0  0.52181820063E+03  0.15672318381E+03  0.68660669807E+03  0.87651877269E+03  0.10100000352E+00 0. -1.
       -3    1    3    3    0  502 -0.52181820063E+03 -0.15672318381E+03 -0.90606104620E+03  0.10572620397E+04  0.10100000352E+00 0.  1.
</event>
<event>
 5   0  0.2595012E-04  0.1958460E+04  0.7818609E-02  0.8626292E-01
        2   -1    0    0  501    0  0.00000000000E+00  0.00000000000E+00  0.16983336241E+04  0.16983336241E+04  0.25500000920E-02 0.  1.
       -2   -1    0    0    0  501  0.00000000000E+00  0.00000000000E+00 -0.56460736781E+03  0.56460736781E+03  0.25500000920E-02 0. -1.
    10030    2    1    2    0    0  0.00000000000E+00  0.00000000000E+00  0.11337262563E+04  0.22629409919E+04  0.19584602903E+04 0.  0.
        1    1    3    3  502    0  0.72118597746E+03  0.60862309346E+03  0.86897009127E+03  0.12828251259E+04  0.50400001928E-02 0. -1.
       -1    1    3    3    0  502 -0.72118597746E+03 -0.60862309346E+03  0.26475616505E+03  0.98011586608E+03  0.50400001928E-02 0.  1.
</event>
<event>
 5   0  0.1277709E-04  0.1891158E+04  0.7818609E-02  0.8659270E-01
        1   -1    0    0  501    0  0.00000000000E+00  0.00000000000E+00  0.16643217070E+04  0.16643217070E+04  0.50400001928E-02 0.  1.
       -1   -1    0    0    0  501  0.00000000000E+00  0.00000000000E+00 -0.53722777198E+03  0.53722777200E+03  0.50400001928E-02 0. -1.
    10030    2    1    2    0    0  0.00000000000E+00  0.00000000000E+00  0.11270939350E+04  0.22015494790E+04  0.18911582086E+04 0.  0.
        4    1    3    3  502    0  0.56821738403E+03 -0.34156253796E+03  0.13484334206E+04  0.15026011665E+04  0.12699999809E+01 0.  1.
       -4    1    3    3    0  502 -0.56821738403E+03  0.34156253796E+03 -0.22133948555E+03  0.69894831254E+03  0.12699999809E+01 0. -1.
</event>
<event>
 5   0  0.2651828E-04  0.1645918E+04  0.7818609E-02  0.8792825E-01
       -2   -1    0    0    0  501  0.00000000000E+00  0.00000000000E+00  0.57791196218E+03  0.57791196218E+03  0.25500000920E-02 0. -1.
        2   -1    0    0  501    0  0.00000000000E+00  0.00000000000E+00 -0.11719119227E+04  0.11719119227E+04  0.25500000920E-02 0.  1.
    10030    2    1    2    0    0  0.00000000000E+00  0.00000000000E+00 -0.59399996052E+03  0.17498238849E+04  0.16459184898E+04 0.  0.
        3    1    3    3  502    0  0.51138330544E+03 -0.25165405377E+03 -0.92812563493E+03  0.10891555684E+04  0.10100000352E+00 0.  1.
       -3    1    3    3    0  502 -0.51138330544E+03  0.25165405377E+03  0.33412567440E+03  0.66066831645E+03  0.10100000352E+00 0. -1.
</event>
<event>
 5   0  0.2595012E-04  0.1897600E+04  0.7818609E-02  0.8656052E-01
       -2   -1    0    0    0  501  0.00000000000E+00  0.00000000000E+00  0.89517614599E+03  0.89517614600E+03  0.25500000920E-02 0. -1.
        2   -1    0    0  501    0  0.00000000000E+00  0.00000000000E+00 -0.10056358658E+04  0.10056358658E+04  0.25500000920E-02 0.  1.
    10030    2    1    2    0    0  0.00000000000E+00  0.00000000000E+00 -0.11045971981E+03  0.19008120118E+04  0.18975997878E+04 0.  0.
        1    1    3    3  502    0 -0.47363330978E+03 -0.68576591230E+03  0.39898876789E+03  0.92401051700E+03  0.50400001928E-02 0. -1.
       -1    1    3    3    0  502  0.47363330978E+03  0.68576591230E+03 -0.50944848770E+03  0.97680149480E+03  0.50400001928E-02 0.  1.
</event>
<event>
 5   0  0.1255141E-04  0.1893047E+04  0.7818609E-02  0.8658325E-01
        1   -1    0    0  501    0  0.00000000000E+00  0.00000000000E+00  0.23331287990E+04  0.23331287990E+04  0.50400001928E-02 0.  1.
       -1   -1    0    0    0  501  0.00000000000E+00  0.00000000000E+00 -0.38399383344E+03  0.38399383347E+03  0.50400001928E-02 0. -1.
    10030    2    1    2    0    0  0.00000000000E+00  0.00000000000E+00  0.19491349656E+04  0.27171226325E+04  0.18930473544E+04 0.  0.
        2    1    3    3  502    0 -0.51852641084E+03 -0.16837003554E+03 -0.13600878402E+03  0.56188655167E+03  0.25500000920E-02 0. -1.
       -2    1    3    3    0  502  0.51852641084E+03  0.16837003554E+03  0.20851437496E+04  0.21552360808E+04  0.25500000920E-02 0.  1.
</event>
<event>
 5   0  0.2541124E-04  0.1902703E+04  0.7818609E-02  0.8653512E-01
        2   -1    0    0  501    0  0.00000000000E+00  0.00000000000E+00  0.16513588354E+04  0.16513588354E+04  0.25500000920E-02 0.  1.
       -2   -1    0    0    0  501  0.00000000000E+00  0.00000000000E+00 -0.54807544095E+03  0.54807544096E+03  0.25500000920E-02 0. -1.
    10030    2    1    2    0    0  0.00000000000E+00  0.00000000000E+00  0.11032833945E+04  0.21994342764E+04  0.19027025221E+04 0.  0.
        5    1    3    3  502    0  0.92805574282E+03  0.23222136682E+02  0.31132469465E+03  0.97916897669E+03  0.46999998093E+01 0. -1.
       -5    1    3    3    0  502 -0.92805574282E+03 -0.23222136682E+02  0.79195869981E+03  0.12202652997E+04  0.46999998093E+01 0.  1.
</event>
<event>
 5   0  0.1317527E-04  0.1875006E+04  0.7818609E-02  0.8667398E-01
       -1   -1    0    0    0  501  0.00000000000E+00  0.00000000000E+00  0.10537562070E+04  0.10537562070E+04  0.50400001928E-02 0.  1.
        1   -1    0    0  501    0  0.00000000000E+00  0.00000000000E+00 -0.83407550129E+03  0.83407550130E+03  0.50400001928E-02 0. -1.
    10030    2    1    2    0    0  0.00000000000E+00  0.00000000000E+00  0.21968070571E+03  0.18878317083E+04  0.18750063857E+04 0.  0.
        1    1    3    3  502    0  0.33417751175E+03 -0.47466978181E+03  0.85103215861E+03  0.10301658828E+04  0.50400001928E-02 0.  1.
       -1    1    3    3    0  502 -0.33417751175E+03  0.47466978181E+03 -0.63135145290E+03  0.85766582549E+03  0.50400001928E-02 0. -1.
</event>
<event>
 5   0  0.2595012E-04  0.1898591E+04  0.7818609E-02  0.8655558E-01
       -2   -1    0    0    0  501  0.00000000000E+00  0.00000000000E+00  0.72893202939E+03  0.72893202939E+03  0.25500000920E-02 0.  1.
        2   -1    0    0  501    0  0.00000000000E+00  0.00000000000E+00 -0.12362774587E+04  0.12362774587E+04  0.25500000920E-02 0. -1.
    10030    2    1    2    0    0  0.00000000000E+00  0.00000000000E+00 -0.50734542931E+03  0.19652094881E+04  0.18985913061E+04 0.  0.
        1    1    3    3  502    0 -0.61659490360E+03 -0.72009313329E+03 -0.30479015697E+03  0.99580140368E+03  0.50400001928E-02 0. -1.
       -1    1    3    3    0  502  0.61659490360E+03  0.72009313329E+03 -0.20255527234E+03  0.96940808442E+03  0.50400001928E-02 0.  1.
</event>
<event>
 5   0  0.2608744E-04  0.1856710E+04  0.7818609E-02  0.8676710E-01
       -2   -1    0    0    0  501  0.00000000000E+00  0.00000000000E+00  0.90071112303E+03  0.90071112304E+03  0.25500000920E-02 0.  1.
        2   -1    0    0  501    0  0.00000000000E+00  0.00000000000E+00 -0.95684778447E+03  0.95684778447E+03  0.25500000920E-02 0. -1.
    10030    2    1    2    0    0  0.00000000000E+00  0.00000000000E+00 -0.56136661433E+02  0.18575589075E+04  0.18567104702E+04 0.  0.
        2    1    3    3  502    0 -0.57334805723E+03 -0.38675887542E+03 -0.64765175250E+03  0.94750367544E+03  0.25500000920E-02 0. -1.
       -2    1    3    3    0  502  0.57334805723E+03  0.38675887542E+03  0.59151509107E+03  0.91005523207E+03  0.25500000920E-02 0.  1.
</event>
<event>
 5   0  0.9266125E-05  0.1988116E+04  0.7818609E-02  0.8612197E-01
       -3   -1    0    0    0  501  0.00000000000E+00  0.00000000000E+00  0.13369905641E+04  0.13369905679E+04  0.10100000352E+00 0. -1.
        3   -1    0    0  501    0  0.00000000000E+00  0.00000000000E+00 -0.73908599725E+03  0.73908600415E+03  0.10100000352E+00 0.  1.
    10030    2    1    2    0    0  0.00000000000E+00  0.00000000000E+00  0.59790456681E+03  0.20760765720E+04  0.19881157064E+04 0.  0.
        2    1    3    3  502    0  0.83769378770E+03 -0.50959873570E+03  0.46967652650E+03  0.10872064169E+04  0.25500000920E-02 0. -1.
       -2    1    3    3    0  502 -0.83769378770E+03  0.50959873570E+03  0.12822804032E+03  0.98887015513E+03  0.25500000920E-02 0.  1.
</event>
<event>
 5   0  0.1239615E-04  0.1859530E+04  0.7818609E-02  0.8675267E-01
       -1   -1    0    0    0  501  0.00000000000E+00  0.00000000000E+00  0.19362548463E+04  0.19362548463E+04  0.50400001928E-02 0.  1.
        1   -1    0    0  501    0  0.00000000000E+00  0.00000000000E+00 -0.44646126768E+03  0.44646126771E+03  0.50400001928E-02 0. -1.
    10030    2    1    2    0    0  0.00000000000E+00  0.00000000000E+00  0.14897935786E+04  0.23827161140E+04  0.18595298258E+04 0.  0.
        3    1    3    3  502    0 -0.53062277831E+03  0.55797267989E+03  0.77154255248E+02  0.77385194557E+03  0.10100000352E+00 0. -1.
       -3    1    3    3    0  502  0.53062277831E+03 -0.55797267989E+03  0.14126393234E+04  0.16088641684E+04  0.10100000352E+00 0.  1.
</event>
<event>
 5   0  0.2651828E-04  0.1926326E+04  0.7818609E-02  0.8641862E-01
       -2   -1    0    0    0  501  0.00000000000E+00  0.00000000000E+00  0.16208593507E+04  0.16208593507E+04  0.25500000920E-02 0.  1.
        2   -1    0    0  501    0  0.00000000000E+00  0.00000000000E+00 -0.57234004548E+03  0.57234004549E+03  0.25500000920E-02 0. -1.
    10030    2    1    2    0    0  0.00000000000E+00  0.00000000000E+00  0.10485193052E+04  0.21931993961E+04  0.19263257404E+04 0.  0.
        3    1    3    3  502    0  0.43068755868E+03 -0.18091699992E+03 -0.43472650386E+03  0.63812998474E+03  0.10100000352E+00 0. -1.
       -3    1    3    3    0  502 -0.43068755868E+03  0.18091699992E+03  0.14832458090E+04  0.15550694114E+04  0.10100000352E+00 0.  1.
</event>
<event>
 5   0  0.2541124E-04  0.1907473E+04  0.7818609E-02  0.8651145E-01
       -2   -1    0    0    0  501  0.00000000000E+00  0.00000000000E+00  0.71207427333E+03  0.71207427334E+03  0.25500000920E-02 0.  1.
        2   -1    0    0  501    0  0.00000000000E+00  0.00000000000E+00 -0.12774140675E+04  0.12774140675E+04  0.25500000920E-02 0. -1.
    10030    2    1    2    0    0  0.00000000000E+00  0.00000000000E+00 -0.56533979415E+03  0.19894883408E+04  0.19074734010E+04 0.  0.
        5    1    3    3  502    0  0.40793616414E+03  0.23606853226E+03 -0.11474464154E+04  0.12404820161E+04  0.46999998093E+01 0. -1.
       -5    1    3    3    0  502 -0.40793616414E+03 -0.23606853226E+03  0.58210662129E+03  0.74900632473E+03  0.46999998093E+01 0.  1.
</event>
<event>
 5   0  0.9266125E-05  0.1893673E+04  0.7818609E-02  0.8658012E-01
        3   -1    0    0  501    0  0.00000000000E+00  0.00000000000E+00  0.76185551418E+03  0.76185552087E+03  0.10100000352E+00 0.  1.
       -3   -1    0    0    0  501  0.00000000000E+00  0.00000000000E+00 -0.11767308652E+04  0.11767308696E+04  0.10100000352E+00 0. -1.
    10030    2    1    2    0    0  0.00000000000E+00  0.00000000000E+00 -0.41487535107E+03  0.19385863904E+04  0.18936725262E+04 0.  0.
        2    1    3    3  502    0  0.57838614595E+03 -0.74747141856E+03 -0.26584213592E+03  0.98179228793E+03  0.25500000920E-02 0. -1.
       -2    1    3    3    0  502 -0.57838614595E+03  0.74747141856E+03 -0.14903321515E+03  0.95679410252E+03  0.25500000920E-02 0.  1.
</event>
<event>
 5   0  0.2595012E-04  0.1886571E+04  0.7818609E-02  0.8661570E-01
       -2   -1    0    0    0  501  0.00000000000E+00  0.00000000000E+00  0.12786026545E+04  0.12786026545E+04  0.25500000920E-02 0.  1.
        2   -1    0    0  501    0  0.00000000000E+00  0.00000000000E+00 -0.69590634187E+03  0.69590634187E+03  0.25500000920E-02 0. -1.
    10030    2    1    2    0    0  0.00000000000E+00  0.00000000000E+00  0.58269631260E+03  0.19745089963E+04  0.18865711712E+04 0.  0.
        1    1    3    3  502    0 -0.63588575297E+03 -0.59952956438E+03 -0.80164357992E+02  0.87761763525E+03  0.50400001928E-02 0. -1.
       -1    1    3    3    0  502  0.63588575297E+03  0.59952956438E+03  0.66286067059E+03  0.10968913611E+04  0.50400001928E-02 0.  1.
</event>
<event>
 5   0  0.1317527E-04  0.1586563E+04  0.7818609E-02  0.8828846E-01
       -1   -1    0    0    0  501  0.00000000000E+00  0.00000000000E+00  0.57731859704E+03  0.57731859707E+03  0.50400001928E-02 0.  1.
        1   -1    0    0  501    0  0.00000000000E+00  0.00000000000E+00 -0.10900319325E+04  0.10900319325E+04  0.50400001928E-02 0. -1.
    10030    2    1    2    0    0  0.00000000000E+00  0.00000000000E+00 -0.51271333546E+03  0.16673505296E+04  0.15865632115E+04 0.  0.
        1    1    3    3  502    0 -0.49918743213E+03 -0.57553424049E+03 -0.24039342055E+02  0.76223726251E+03  0.50400001928E-02 0. -1.
       -1    1    3    3    0  502  0.49918743213E+03  0.57553424049E+03 -0.48867399340E+03  0.90511326707E+03  0.50400001928E-02 0.  1.
</event>
<event>
 5   0  0.2651828E-04  0.1905539E+04  0.7818609E-02  0.8652104E-01
       -2   -1    0    0    0  501  0.00000000000E+00  0.00000000000E+00  0.96114949436E+03  0.96114949437E+03  0.25500000920E-02 0.  1.
        2   -1    0    0  501    0  0.00000000000E+00  0.00000000000E+00 -0.94446287604E+03  0.94446287605E+03  0.25500000920E-02 0. -1.
    10030    2    1    2    0    0  0.00000000000E+00  0.00000000000E+00  0.16686618318E+02  0.19056123704E+04  0.19055393103E+04 0.  0.
        3    1    3    3  502    0 -0.47138672155E+03 -0.36328394844E+03 -0.73572106183E+03  0.94629073728E+03  0.10100000352E+00 0. -1.
       -3    1    3    3    0  502  0.47138672155E+03  0.36328394844E+03  0.75240768015E+03  0.95932163313E+03  0.10100000352E+00 0.  1.
</event>
<event>
 5   0  0.2562925E-04  0.1899445E+04  0.7818609E-02  0.8655133E-01
       -2   -1    0    0    0  501  0.00000000000E+00  0.00000000000E+00  0.80770028926E+03  0.80770028926E+03  0.25500000920E-02 0.  1.
        2   -1    0    0  501    0  0.00000000000E+00  0.00000000000E+00 -0.11167170146E+04  0.11167170146E+04  0.25500000920E-02 0. -1.
    10030    2    1    2    0    0  0.00000000000E+00  0.00000000000E+00 -0.30901672536E+03  0.19244173039E+04  0.18994448197E+04 0.  0.
        4    1    3    3  502    0 -0.32619430559E+03 -0.57040500570E+03 -0.84923965618E+03  0.10737663629E+04  0.12699999809E+01 0. -1.
       -4    1    3    3    0  502  0.32619430559E+03  0.57040500570E+03  0.54022293082E+03  0.85065094100E+03  0.12699999809E+01 0.  1.
</event>
<event>
 5   0  0.2608744E-04  0.1879817E+04  0.7818609E-02  0.8664969E-01
        2   -1    0    0  501    0  0.00000000000E+00  0.00000000000E+00  0.17134593128E+04  0.17134593128E+04  0.25500000920E-02 0. -1.
       -2   -1    0    0    0  501  0.00000000000E+00  0.00000000000E+00 -0.51558131092E+03  0.51558131093E+03  0.25500000920E-02 0.  1.
    10030    2    1    2    0    0  0.00000000000E+00  0.00000000000E+00  0.11978780018E+04  0.22290406237E+04  0.18798165854E+04 0.  0.
        2    1    3    3  502    0 -0.13136367621E+03  0.47868691427E+03 -0.34747783275E+03  0.60591948440E+03  0.25500000920E-02 0.  1.
       -2    1    3    3    0  502  0.13136367621E+03 -0.47868691427E+03  0.15453558346E+04  0.16231211393E+04  0.25500000920E-02 0. -1.
</event>
<event>
 5   0  0.2608744E-04  0.1634987E+04  0.7818609E-02  0.8799338E-01
        2   -1    0    0  501    0  0.00000000000E+00  0.00000000000E+00  0.11150674780E+04  0.11150674780E+04  0.25500000920E-02 0. -1.
       -2   -1    0    0    0  501  0.00000000000E+00  0.00000000000E+00 -0.59933198427E+03  0.59933198427E+03  0.25500000920E-02 0.  1.
    10030    2    1    2    0    0  0.00000000000E+00  0.00000000000E+00  0.51573549370E+03  0.17143994622E+04  0.16349869775E+04 0.  0.
        2    1    3    3  502    0 -0.22451519696E+03  0.59773522587E+03  0.79315373019E+03  0.10182275353E+04  0.25500000920E-02 0. -1.
       -2    1    3    3    0  502  0.22451519696E+03 -0.59773522587E+03 -0.27741823650E+03  0.69617192694E+03  0.25500000920E-02 0.  1.
</event>
<event>
 5   0  0.2595012E-04  0.1942549E+04  0.7818609E-02  0.8633962E-01
        2   -1    0    0  501    0  0.00000000000E+00  0.00000000000E+00  0.16737171124E+04  0.16737171124E+04  0.25500000920E-02 0.  1.
       -2   -1    0    0    0  501  0.00000000000E+00  0.00000000000E+00 -0.56364040590E+03  0.56364040590E+03  0.25500000920E-02 0. -1.
    10030    2    1    2    0    0  0.00000000000E+00  0.00000000000E+00  0.11100767065E+04  0.22373575183E+04  0.19425494512E+04 0.  0.
        1    1    3    3  502    0 -0.76824791041E+03 -0.59290321733E+03  0.50845930050E+03  0.10955683170E+04  0.50400001928E-02 0. -1.
       -1    1    3    3    0  502  0.76824791041E+03  0.59290321733E+03  0.60161740602E+03  0.11417892013E+04  0.50400001928E-02 0.  1.
</event>
<event>
 5   0  0.9266125E-05  0.1878587E+04  0.7818609E-02  0.8665589E-01
       -3   -1    0    0    0  501  0.00000000000E+00  0.00000000000E+00  0.58157311384E+03  0.58157312261E+03  0.10100000352E+00 0. -1.
        3   -1    0    0  501    0  0.00000000000E+00  0.00000000000E+00 -0.15170441648E+04  0.15170441682E+04  0.10100000352E+00 0.  1.
    10030    2    1    2    0    0  0.00000000000E+00  0.00000000000E+00 -0.93547105098E+03  0.20986172908E+04  0.18785868215E+04 0.  0.
        2    1    3    3  502    0  0.86661236006E+03 -0.30589001802E+03 -0.25086803678E+03  0.95263868157E+03  0.25500000920E-02 0. -1.
       -2    1    3    3    0  502 -0.86661236006E+03  0.30589001802E+03 -0.68460301419E+03  0.11459786092E+04  0.25500000920E-02 0.  1.
</event>
<event>
 5   0  0.1317527E-04  0.1896736E+04  0.7818609E-02  0.8656483E-01
        1   -1    0    0  501    0  0.00000000000E+00  0.00000000000E+00  0.14277650840E+04  0.14277650840E+04  0.50400001928E-02 0.  1.
       -1   -1    0    0    0  501  0.00000000000E+00  0.00000000000E+00 -0.62993661571E+03  0.62993661573E+03  0.50400001928E-02 0. -1.
    10030    2    1    2    0    0  0.00000000000E+00  0.00000000000E+00  0.79782846828E+03  0.20577016997E+04  0.18967356221E+04 0.  0.
        1    1    3    3  502    0  0.42016979869E+03 -0.81038114037E+03  0.11990933869E+03  0.92067285283E+03  0.50400001928E-02 0. -1.
       -1    1    3    3    0  502 -0.42016979869E+03  0.81038114037E+03  0.67791912959E+03  0.11370288469E+04  0.50400001928E-02 0.  1.
</event>
<event>
 5   0  0.2595012E-04  0.1865347E+04  0.7818609E-02  0.8672300E-01
       -2   -1    0    0    0  501  0.00000000000E+00  0.00000000000E+00  0.57546506080E+03  0.57546506080E+03  0.25500000920E-02 0. -1.
        2   -1    0    0  501    0  0.00000000000E+00  0.00000000000E+00 -0.15116121713E+04  0.15116121713E+04  0.25500000920E-02 0.  1.
    10030    2    1    2    0    0  0.00000000000E+00  0.00000000000E+00 -0.93614711052E+03  0.20870772321E+04  0.18653471420E+04 0.  0.
        1    1    3    3  502    0 -0.19152170298E+03  0.52140071825E+03  0.37021227906E+03  0.66753007670E+03  0.50400001928E-02 0. -1.
       -1    1    3    3    0  502  0.19152170298E+03 -0.52140071825E+03 -0.13063593896E+04  0.14195471554E+04  0.50400001928E-02 0.  1.
</event>
<event>
 5   0  0.1255141E-04  0.1866528E+04  0.7818609E-02  0.8671699E-01
       -1   -1    0    0    0  501  0.00000000000E+00  0.00000000000E+00  0.63709105374E+03  0.63709105376E+03  0.50400001928E-02 0. -1.
        1   -1    0    0  501    0  0.00000000000E+00  0.00000000000E+00 -0.13671224596E+04  0.13671224596E+04  0.50400001928E-02 0.  1.
    10030    2    1    2    0    0  0.00000000000E+00  0.00000000000E+00 -0.73003140584E+03  0.20042135134E+04  0.18665277800E+04 0.  0.
        2    1    3    3  502    0 -0.59203507964E+03 -0.14292504681E+03 -0.11243194481E+04  0.12786818705E+04  0.25500000920E-02 0.  1.
       -2    1    3    3    0  502  0.59203507964E+03  0.14292504681E+03  0.39428804225E+03  0.72553164287E+03  0.25500000920E-02 0. -1.
</event>
<event>
 5   0  0.1239615E-04  0.1877936E+04  0.7818609E-02  0.8665918E-01
       -1   -1    0    0    0  501  0.00000000000E+00  0.00000000000E+00  0.63806822824E+03  0.63806822826E+03  0.50400001928E-02 0.  1.
        1   -1    0    0  501    0  0.00000000000E+00  0.00000000000E+00 -0.13817652069E+04  0.13817652069E+04  0.50400001928E-02 0. -1.
    10030    2    1    2    0    0  0.00000000000E+00  0.00000000000E+00 -0.74369697861E+03  0.20198334351E+04  0.18779355446E+04 0.  0.
        3    1    3    3  502    0  0.24583054145E+01  0.60032467042E+03 -0.11483888596E+04  0.12958366935E+04  0.10100000352E+00 0. -1.
       -3    1    3    3    0  502 -0.24583054145E+01 -0.60032467042E+03  0.40469188096E+03  0.72399674163E+03  0.10100000352E+00 0.  1.
</event>
<event>
 5   0  0.1277709E-04  0.1585445E+04  0.7818609E-02  0.8829540E-01
        1   -1    0    0  501    0  0.00000000000E+00  0.00000000000E+00  0.15238332471E+04  0.15238332471E+04  0.50400001928E-02 0.  1.
       -1   -1    0    0    0  501  0.00000000000E+00  0.00000000000E+00 -0.41238717061E+03  0.41238717064E+03  0.50400001928E-02 0. -1.
    10030    2    1    2    0    0  0.00000000000E+00  0.00000000000E+00  0.11114460765E+04  0.19362204178E+04  0.15854454028E+04 0.  0.
        4    1    3    3  502    0 -0.10482233298E+03 -0.38423501502E+03 -0.28132876805E+03  0.48761845422E+03  0.12699999809E+01 0. -1.
       -4    1    3    3    0  502  0.10482233298E+03  0.38423501502E+03  0.13927748446E+04  0.14486019636E+04  0.12699999809E+01 0.  1.
</event>
<event>
 5   0  0.2595012E-04  0.1891172E+04  0.7818609E-02  0.8659263E-01
       -2   -1    0    0    0  501  0.00000000000E+00  0.00000000000E+00  0.74605919206E+03  0.74605919207E+03  0.25500000920E-02 0. -1.
        2   -1    0    0  501    0  0.00000000000E+00  0.00000000000E+00 -0.11984749103E+04  0.11984749103E+04  0.25500000920E-02 0.  1.
    10030    2    1    2    0    0  0.00000000000E+00  0.00000000000E+00 -0.45241571825E+03  0.19445341024E+04  0.18911723595E+04 0.  0.
        1    1    3    3  502    0 -0.51245377714E+03 -0.78644937399E+03 -0.10887522412E+03  0.94496841535E+03  0.50400001928E-02 0. -1.
       -1    1    3    3    0  502  0.51245377714E+03  0.78644937399E+03 -0.34354049413E+03  0.99956568703E+03  0.50400001928E-02 0.  1.
</event>
<event>
 5   0  0.1255141E-04  0.1885602E+04  0.7818609E-02  0.8662056E-01
        1   -1    0    0  501    0  0.00000000000E+00  0.00000000000E+00  0.13779485662E+04  0.13779485662E+04  0.50400001928E-02 0.  1.
       -1   -1    0    0    0  501  0.00000000000E+00  0.00000000000E+00 -0.64507049863E+03  0.64507049865E+03  0.50400001928E-02 0. -1.
    10030    2    1    2    0    0  0.00000000000E+00  0.00000000000E+00  0.73287806760E+03  0.20230190649E+04  0.18856022579E+04 0.  0.
        2    1    3    3  502    0  0.60246732376E+03 -0.41327302695E+03  0.10057804880E+04  0.12431234295E+04  0.25500000920E-02 0.  1.
       -2    1    3    3    0  502 -0.60246732376E+03  0.41327302695E+03 -0.27290242039E+03  0.77989563537E+03  0.25500000920E-02 0. -1.
</event>
<event>
 5   0  0.1324058E-04  0.1881306E+04  0.7818609E-02  0.8664218E-01
        1   -1    0    0  501    0  0.00000000000E+00  0.00000000000E+00  0.11921964313E+04  0.11921964314E+04  0.50400001928E-02 0.  1.
       -1   -1    0    0    0  501  0.00000000000E+00  0.00000000000E+00 -0.74218278735E+03  0.74218278736E+03  0.50400001928E-02 0. -1.
    10030    2    1    2    0    0  0.00000000000E+00  0.00000000000E+00  0.45001364399E+03  0.19343792187E+04  0.18813055791E+04 0.  0.
        5    1    3    3  502    0 -0.65825824900E+03  0.40773128250E+03  0.77416862555E+03  0.10949465155E+04  0.46999998093E+01 0.  1.
       -5    1    3    3    0  502  0.65825824900E+03 -0.40773128250E+03 -0.32415498155E+03  0.83943270318E+03  0.46999998093E+01 0. -1.
</event>
<event>
 5   0  0.1324058E-04  0.1901027E+04  0.7818609E-02  0.8654345E-01
        1   -1    0    0  501    0  0.00000000000E+00  0.00000000000E+00  0.75080472402E+03  0.75080472404E+03  0.50400001928E-02 0.  1.
       -1   -1    0    0    0  501  0.00000000000E+00  0.00000000000E+00 -0.12033434864E+04  0.12033434864E+04  0.50400001928E-02 0. -1.
    10030    2    1    2    0    0  0.00000000000E+00  0.00000000000E+00 -0.45253876235E+03  0.19541482104E+04  0.19010270637E+04 0.  0.
        5    1    3    3  502    0 -0.52679519924E+03 -0.45969826408E+03 -0.88817091102E+03  0.11303562859E+04  0.46999998093E+01 0. -1.
       -5    1    3    3    0  502  0.52679519924E+03  0.45969826408E+03  0.43563214867E+03  0.82379192451E+03  0.46999998093E+01 0.  1.
</event>
<event>
 5   0  0.2595012E-04  0.1894233E+04  0.7818609E-02  0.8657732E-01
        2   -1    0    0  501    0  0.00000000000E+00  0.00000000000E+00  0.24419568809E+04  0.24419568809E+04  0.25500000920E-02 0. -1.
       -2   -1    0    0    0  501  0.00000000000E+00  0.00000000000E+00 -0.36734052484E+03  0.36734052485E+03  0.25500000920E-02 0.  1.
    10030    2    1    2    0    0  0.00000000000E+00  0.00000000000E+00  0.20746163560E+04  0.28092974057E+04  0.18942330609E+04 0.  0.
        1    1    3    3  502    0 -0.21712082805E+03 -0.75567318913E+03  0.18204614173E+04  0.19829934933E+04  0.50400001928E-02 0. -1.
       -1    1    3    3    0  502  0.21712082805E+03  0.75567318913E+03  0.25415493879E+03  0.82630391242E+03  0.50400001928E-02 0.  1.
</event>
<event>
 5   0  0.1324058E-04  0.1845273E+04  0.7818609E-02  0.8682587E-01
        1   -1    0    0  501    0  0.00000000000E+00  0.00000000000E+00  0.16907570488E+04  0.16907570488E+04  0.50400001928E-02 0. -1.
       -1   -1    0    0    0  501  0.00000000000E+00  0.00000000000E+00 -0.50347758320E+03  0.50347758322E+03  0.50400001928E-02 0.  1.
    10030    2    1    2    0    0  0.00000000000E+00  0.00000000000E+00  0.11872794656E+04  0.21942346321E+04  0.18452731752E+04 0.  0.
        5    1    3    3  502    0  0.69460832869E+03 -0.12417628648E+03 -0.11319219434E+03  0.71465729079E+03  0.46999998093E+01 0.  1.
       -5    1    3    3    0  502 -0.69460832869E+03  0.12417628648E+03  0.13004716600E+04  0.14795773413E+04  0.46999998093E+01 0. -1.
</event>
<event>
 5   0  0.2608744E-04  0.1877801E+04  0.7818609E-02  0.8665986E-01
       -2   -1    0    0    0  501  0.00000000000E+00  0.00000000000E+00  0.64255362578E+03  0.64255362579E+03  0.25500000920E-02 0. -1.
        2   -1    0    0  501    0  0.00000000000E+00  0.00000000000E+00 -0.13719228274E+04  0.13719228274E+04  0.25500000920E-02 0.  1.
    10030    2    1    2    0    0  0.00000000000E+00  0.00000000000E+00 -0.72936920164E+03  0.20144764532E+04  0.18778008276E+04 0.  0.
        2    1    3    3  502    0  0.12940876757E+03  0.13574906528E+02  0.63283412768E+03  0.64607270518E+03  0.25500000920E-02 0. -1.
       -2    1    3    3    0  502 -0.12940876757E+03 -0.13574906528E+02 -0.13622033293E+04  0.13684037480E+04  0.25500000920E-02 0.  1.
</event>
<event>
 5   0  0.1255141E-04  0.1960543E+04  0.7818609E-02  0.8625293E-01
       -1   -1    0    0    0  501  0.00000000000E+00  0.00000000000E+00  0.34029093206E+03  0.34029093210E+03  0.50400001928E-02 0.  1.
        1   -1    0    0  501    0  0.00000000000E+00  0.00000000000E+00 -0.28238561568E+04  0.28238561568E+04  0.50400001928E-02 0. -1.
    10030    2    1    2    0    0  0.00000000000E+00  0.00000000000E+00 -0.24835652247E+04  0.31641470889E+04  0.19605434386E+04 0.  0.
        2    1    3    3  502    0  0.10503598846E+03  0.23151376135E+03 -0.27697259442E+04  0.27813689052E+04  0.25500000920E-02 0. -1.
       -2    1    3    3    0  502 -0.10503598846E+03 -0.23151376135E+03  0.28616071948E+03  0.38277818374E+03  0.25500000920E-02 0.  1.
</event>
<event>
 5   0  0.2541124E-04  0.1892185E+04  0.7818609E-02  0.8658756E-01
       -2   -1    0    0    0  501  0.00000000000E+00  0.00000000000E+00  0.16578750195E+04  0.16578750195E+04  0.25500000920E-02 0. -1.
        2   -1    0    0  501    0  0.00000000000E+00  0.00000000000E+00 -0.53990245924E+03  0.53990245924E+03  0.25500000920E-02 0.  1.
    10030    2    1    2    0    0  0.00000000000E+00  0.00000000000E+00  0.11179725603E+04  0.21977774788E+04  0.18921847692E+04 0.  0.
        5    1    3    3  502    0 -0.25652293804E+03 -0.39559454595E+03  0.15116801511E+04  0.15835081408E+04  0.46999998093E+01 0. -1.
       -5    1    3    3    0  502  0.25652293804E+03  0.39559454595E+03 -0.39370759085E+03  0.61426933801E+03  0.46999998093E+01 0.  1.
</event>
<event>
 5   0  0.2562925E-04  0.1845053E+04  0.7818609E-02  0.8682701E-01
        2   -1    0    0  501    0  0.00000000000E+00  0.00000000000E+00  0.17288941279E+04  0.17288941279E+04  0.25500000920E-02 0.  1.
       -2   -1    0    0    0  501  0.00000000000E+00  0.00000000000E+00 -0.49225389667E+03  0.49225389668E+03  0.25500000920E-02 0. -1.
    10030    2    1    2    0    0  0.00000000000E+00  0.00000000000E+00  0.12366402312E+04  0.22211480246E+04  0.18450527054E+04 0.  0.
        4    1    3    3  502    0  0.87818337616E+03  0.33224294232E+01  0.95846864213E+03  0.12999541652E+04  0.12699999809E+01 0.  1.
       -4    1    3    3    0  502 -0.87818337616E+03 -0.33224294232E+01  0.27817158909E+03  0.92119385939E+03  0.12699999809E+01 0. -1.
</event>
<event>
 5   0  0.2562925E-04  0.1909384E+04  0.7818609E-02  0.8650200E-01
        2   -1    0    0  501    0  0.00000000000E+00  0.00000000000E+00  0.12197694989E+04  0.12197694989E+04  0.25500000920E-02 0.  1.
       -2   -1    0    0    0  501  0.00000000000E+00  0.00000000000E+00 -0.74722016238E+03  0.74722016239E+03  0.25500000920E-02 0. -1.
    10030    2    1    2    0    0  0.00000000000E+00  0.00000000000E+00  0.47254933650E+03  0.19669896613E+04  0.19093835267E+04 0.  0.
        4    1    3    3  502    0  0.65825886409E+03  0.62594413040E+03 -0.66398966635E+02  0.91078055656E+03  0.12699999809E+01 0. -1.
       -4    1    3    3    0  502 -0.65825886409E+03 -0.62594413040E+03  0.53894830314E+03  0.10562091047E+04  0.12699999809E+01 0.  1.
</event>
<event>
 5   0  0.9266125E-05  0.1948330E+04  0.7818609E-02  0.8631167E-01
       -3   -1    0    0    0  501  0.00000000000E+00  0.00000000000E+00  0.15139321196E+04  0.15139321230E+04  0.10100000352E+00 0. -1.
        3   -1    0    0  501    0  0.00000000000E+00  0.00000000000E+00 -0.62684268488E+03  0.62684269302E+03  0.10100000352E+00 0.  1.
    10030    2    1    2    0    0  0.00000000000E+00  0.00000000000E+00  0.88708943472E+03  0.21407748160E+04  0.19483298354E+04 0.  0.
        2    1    3    3  502    0  0.91105204709E+03 -0.24460286821E+03  0.71077714215E+03  0.11811225768E+04  0.25500000920E-02 0. -1.
       -2    1    3    3    0  502 -0.91105204709E+03  0.24460286821E+03  0.17631229257E+03  0.95965223918E+03  0.25500000920E-02 0.  1.
</event>
<event>
 5   0  0.9266125E-05  0.1911064E+04  0.7818609E-02  0.8649369E-01
        3   -1    0    0  501    0  0.00000000000E+00  0.00000000000E+00  0.12078540569E+04  0.12078540611E+04  0.10100000352E+00 0. -1.
       -3   -1    0    0    0  501  0.00000000000E+00  0.00000000000E+00 -0.75592020702E+03  0.75592021377E+03  0.10100000352E+00 0.  1.
    10030    2    1    2    0    0  0.00000000000E+00  0.00000000000E+00  0.45193384988E+03  0.19637742749E+04  0.19110638917E+04 0.  0.
        3    1    3    3  502    0 -0.79349589991E+03 -0.11682884174E+02 -0.32094315473E+03  0.85602380325E+03  0.10100000352E+00 0.  1.
       -3    1    3    3    0  502  0.79349589991E+03  0.11682884174E+02  0.77287700461E+03  0.11077504716E+04  0.10100000352E+00 0. -1.
</event>
<event>
 5   0  0.1324058E-04  0.1903237E+04  0.7818609E-02  0.8653247E-01
        1   -1    0    0  501    0  0.00000000000E+00  0.00000000000E+00  0.15497376122E+04  0.15497376122E+04  0.50400001928E-02 0.  1.
       -1   -1    0    0    0  501  0.00000000000E+00  0.00000000000E+00 -0.58434289373E+03  0.58434289375E+03  0.50400001928E-02 0. -1.
    10030    2    1    2    0    0  0.00000000000E+00  0.00000000000E+00  0.96539471850E+03  0.21340805060E+04  0.19032374112E+04 0.  0.
        5    1    3    3  502    0  0.66633795143E+03  0.62310107518E+03  0.17913034490E+03  0.92971554030E+03  0.46999998093E+01 0. -1.
       -5    1    3    3    0  502 -0.66633795143E+03 -0.62310107518E+03  0.78626437359E+03  0.12043649657E+04  0.46999998093E+01 0.  1.
</event>
<event>
 5   0  0.2562925E-04  0.1885688E+04  0.7818609E-02  0.8662013E-01
        2   -1    0    0  501    0  0.00000000000E+00  0.00000000000E+00  0.10708332732E+04  0.10708332732E+04  0.25500000920E-02 0. -1.
       -2   -1    0    0    0  501  0.00000000000E+00  0.00000000000E+00 -0.83015258105E+03  0.83015258106E+03  0.25500000920E-02 0.  1.
    10030    2    1    2    0    0  0.00000000000E+00  0.00000000000E+00  0.24068069214E+03  0.19009858543E+04  0.18856882093E+04 0.  0.
        4    1    3    3  502    0  0.11704206320E+03 -0.30324241742E+03 -0.77188112556E+03  0.83753023419E+03  0.12699999809E+01 0.  1.
       -4    1    3    3    0  502 -0.11704206320E+03  0.30324241742E+03  0.10125618177E+04  0.10634556201E+04  0.12699999809E+01 0. -1.
</event>
<event>
 5   0  0.2541124E-04  0.1925792E+04  0.7818609E-02  0.8642123E-01
       -2   -1    0    0    0  501  0.00000000000E+00  0.00000000000E+00  0.41166421869E+03  0.41166421870E+03  0.25500000920E-02 0. -1.
        2   -1    0    0  501    0  0.00000000000E+00  0.00000000000E+00 -0.22522456132E+04  0.22522456132E+04  0.25500000920E-02 0.  1.
    10030    2    1    2    0    0  0.00000000000E+00  0.00000000000E+00 -0.18405813945E+04  0.26639098319E+04  0.19257922325E+04 0.  0.
        5    1    3    3  502    0  0.70682798121E+03 -0.64428309219E+03 -0.76600478836E+03  0.12253537953E+04  0.46999998093E+01 0.  1.
       -5    1    3    3    0  502 -0.70682798121E+03  0.64428309219E+03 -0.10745766061E+04  0.14385560365E+04  0.46999998093E+01 0. -1.
</event>
<event>
 5   0  0.1324058E-04  0.1997120E+04  0.7818609E-02  0.8607968E-01
       -1   -1    0    0    0  501  0.00000000000E+00  0.00000000000E+00  0.10587835352E+04  0.10587835353E+04  0.50400001928E-02 0. -1.
        1   -1    0    0  501    0  0.00000000000E+00  0.00000000000E+00 -0.94176212211E+03  0.94176212212E+03  0.50400001928E-02 0.  1.
    10030    2    1    2    0    0  0.00000000000E+00  0.00000000000E+00  0.11702141313E+03  0.20005456574E+04  0.19971201557E+04 0.  0.
        5    1    3    3  502    0 -0.17797170410E+03  0.97400206563E+03 -0.71118317220E+02  0.99269021167E+03  0.46999998093E+01 0.  1.
       -5    1    3    3    0  502  0.17797170410E+03 -0.97400206563E+03  0.18813973035E+03  0.10078554457E+04  0.46999998093E+01 0. -1.
</event>
<event>
 5   0  0.2562925E-04  0.1923199E+04  0.7818609E-02  0.8643394E-01
       -2   -1    0    0    0  501  0.00000000000E+00  0.00000000000E+00  0.79523060564E+03  0.79523060564E+03  0.25500000920E-02 0. -1.
        2   -1    0    0  501    0  0.00000000000E+00  0.00000000000E+00 -0.11627736655E+04  0.11627736655E+04  0.25500000920E-02 0.  1.
    10030    2    1    2    0    0  0.00000000000E+00  0.00000000000E+00 -0.36754305986E+03  0.19580042711E+04  0.19231985922E+04 0.  0.
        4    1    3    3  502    0 -0.39347278805E+03  0.61009693952E+03 -0.82576473264E+03  0.10995126726E+04  0.12699999809E+01 0.  1.
       -4    1    3    3    0  502  0.39347278805E+03 -0.61009693952E+03  0.45822167277E+03  0.85849159859E+03  0.12699999809E+01 0. -1.
</event>
<event>
 5   0  0.2595012E-04  0.1912898E+04  0.7818609E-02  0.8648463E-01
        2   -1    0    0  501    0  0.00000000000E+00  0.00000000000E+00  0.15535349701E+04  0.15535349701E+04  0.25500000920E-02 0. -1.
       -2   -1    0    0    0  501  0.00000000000E+00  0.00000000000E+00 -0.58884709456E+03  0.58884709456E+03  0.25500000920E-02 0.  1.
    10030    2    1    2    0    0  0.00000000000E+00  0.00000000000E+00  0.96468787559E+03  0.21423820647E+04  0.19128978577E+04 0.  0.
        1    1    3    3  502    0 -0.56363313464E+03 -0.28738916642E+03  0.12856964409E+04  0.14329306270E+04  0.50400001928E-02 0. -1.
       -1    1    3    3    0  502  0.56363313464E+03  0.28738916642E+03 -0.32100856536E+03  0.70945143773E+03  0.50400001928E-02 0.  1.
</event>
<event>
 5   0  0.1239615E-04  0.1879347E+04  0.7818609E-02  0.8665206E-01
        1   -1    0    0  501    0  0.00000000000E+00  0.00000000000E+00  0.12298923935E+04  0.12298923935E+04  0.50400001928E-02 0.  1.
       -1   -1    0    0    0  501  0.00000000000E+00  0.00000000000E+00 -0.71793783233E+03  0.71793783234E+03  0.50400001928E-02 0. -1.
    10030    2    1    2    0    0  0.00000000000E+00  0.00000000000E+00  0.51195456114E+03  0.19478302258E+04  0.18793469919E+04 0.  0.
        3    1    3    3  502    0  0.76180260606E+03  0.39343454564E+03 -0.14255012713E+03  0.86916885658E+03  0.10100000352E+00 0. -1.
       -3    1    3    3    0  502 -0.76180260606E+03 -0.39343454564E+03  0.65450468827E+03  0.10786613692E+04  0.10100000352E+00 0.  1.
</event>
<event>
 5   0  0.2651828E-04  0.1885608E+04  0.7818609E-02  0.8662054E-01
        2   -1    0    0  501    0  0.00000000000E+00  0.00000000000E+00  0.89653572065E+03  0.89653572065E+03  0.25500000920E-02 0.  1.
       -2   -1    0    0    0  501  0.00000000000E+00  0.00000000000E+00 -0.99145988026E+03  0.99145988026E+03  0.25500000920E-02 0. -1.
    10030    2    1    2    0    0  0.00000000000E+00  0.00000000000E+00 -0.94924159612E+02  0.18879956009E+04  0.18856078047E+04 0.  0.
        3    1    3    3  502    0 -0.20071860432E+03 -0.91661460989E+03  0.44354025307E+02  0.93938149383E+03  0.10100000352E+00 0. -1.
       -3    1    3    3    0  502  0.20071860432E+03  0.91661460989E+03 -0.13927818492E+03  0.94861410709E+03  0.10100000352E+00 0.  1.
</event>
<event>
 5   0  0.1239615E-04  0.1754708E+04  0.7818609E-02  0.8730763E-01
       -1   -1    0    0    0  501  0.00000000000E+00  0.00000000000E+00  0.66613873772E+03  0.66613873774E+03  0.50400001928E-02 0. -1.
        1   -1    0    0  501    0  0.00000000000E+00  0.00000000000E+00 -0.11555406164E+04  0.11555406164E+04  0.50400001928E-02 0.  1.
    10030    2    1    2    0    0  0.00000000000E+00  0.00000000000E+00 -0.48940187870E+03  0.18216793542E+04  0.17547083719E+04 0.  0.
        3    1    3    3  502    0 -0.30926056881E+03  0.19395323731E+03 -0.10729537473E+04  0.11333533041E+04  0.10100000352E+00 0.  1.
       -3    1    3    3    0  502  0.30926056881E+03 -0.19395323731E+03  0.58355186864E+03  0.68832605012E+03  0.10100000352E+00 0. -1.
</event>
<event>
 5   0  0.1324058E-04  0.1917448E+04  0.7818609E-02  0.8646220E-01
       -1   -1    0    0    0  501  0.00000000000E+00  0.00000000000E+00  0.11219005113E+04  0.11219005113E+04  0.50400001928E-02 0.  1.
        1   -1    0    0  501    0  0.00000000000E+00  0.00000000000E+00 -0.81928101585E+03  0.81928101586E+03  0.50400001928E-02 0. -1.
    10030    2    1    2    0    0  0.00000000000E+00  0.00000000000E+00  0.30261949548E+03  0.19411815272E+04  0.19174480860E+04 0.  0.
        5    1    3    3  502    0  0.56125201413E+03  0.77725402398E+03  0.14985689680E+03  0.97036427215E+03  0.46999998093E+01 0. -1.
       -5    1    3    3    0  502 -0.56125201413E+03 -0.77725402398E+03  0.15276259868E+03  0.97081725505E+03  0.46999998093E+01 0.  1.
</event>
<event>
 5   0  0.1317527E-04  0.1893344E+04  0.7818609E-02  0.8658176E-01
        1   -1    0    0  501    0  0.00000000000E+00  0.00000000000E+00  0.12737917230E+04  0.12737917230E+04  0.50400001928E-02 0.  1.
       -1   -1    0    0    0  501  0.00000000000E+00  0.00000000000E+00 -0.70355944561E+03  0.70355944563E+03  0.50400001928E-02 0. -1.
    10030    2    1    2    0    0  0.00000000000E+00  0.00000000000E+00  0.57023227741E+03  0.19773511687E+04  0.18933443411E+04 0.  0.
        1    1    3    3  502    0 -0.25797493377E+03  0.11182224323E+03 -0.65894593769E+03  0.71642517359E+03  0.50400001928E-02 0. -1.
       -1    1    3    3    0  502  0.25797493377E+03 -0.11182224323E+03  0.12291782151E+04  0.12609259951E+04  0.50400001928E-02 0.  1.
</event>
<event>
 5   0  0.1317527E-04  0.1900158E+04  0.7818609E-02  0.8654778E-01
       -1   -1    0    0    0  501  0.00000000000E+00  0.00000000000E+00  0.92051169894E+03  0.92051169896E+03  0.50400001928E-02 0.  1.
        1   -1    0    0  501    0  0.00000000000E+00  0.00000000000E+00 -0.98059620038E+03  0.98059620039E+03  0.50400001928E-02 0. -1.
    10030    2    1    2    0    0  0.00000000000E+00  0.00000000000E+00 -0.60084501437E+02  0.19011078994E+04  0.19001581770E+04 0.  0.
        1    1    3    3  502    0 -0.10726626816E+03  0.90095297151E+03 -0.31201278679E+03  0.95946562643E+03  0.50400001928E-02 0. -1.
       -1    1    3    3    0  502  0.10726626816E+03 -0.90095297151E+03  0.25192828535E+03  0.94164227292E+03  0.50400001928E-02 0.  1.
</event>
<event>
 5   0  0.2651828E-04  0.1486214E+04  0.7818609E-02  0.8893672E-01
        2   -1    0    0  501    0  0.00000000000E+00  0.00000000000E+00  0.71267613255E+03  0.71267613256E+03  0.25500000920E-02 0.  1.
       -2   -1    0    0    0  501  0.00000000000E+00  0.00000000000E+00 -0.77483761255E+03  0.77483761256E+03  0.25500000920E-02 0. -1.
    10030    2    1    2    0    0  0.00000000000E+00  0.00000000000E+00 -0.62161480001E+02  0.14875137451E+04  0.14862143494E+04 0.  0.
        3    1    3    3  502    0 -0.36594434198E+02  0.14499820006E+03 -0.75962142008E+03  0.77420174546E+03  0.10100000352E+00 0. -1.
       -3    1    3    3    0  502  0.36594434198E+02 -0.14499820006E+03  0.69745994008E+03  0.71331199965E+03  0.10100000352E+00 0.  1.
</event>
<event>
 5   0  0.1317527E-04  0.1934113E+04  0.7818609E-02  0.8638060E-01
       -1   -1    0    0    0  501  0.00000000000E+00  0.00000000000E+00  0.46176997379E+03  0.46176997381E+03  0.50400001928E-02 0.  1.
        1   -1    0    0  501    0  0.00000000000E+00  0.00000000000E+00 -0.20252469074E+04  0.20252469074E+04  0.50400001928E-02 0. -1.
    10030    2    1    2    0    0  0.00000000000E+00  0.00000000000E+00 -0.15634769336E+04  0.24870168812E+04  0.19341129350E+04 0.  0.
        1    1    3    3  502    0  0.43579297612E+03  0.85146178074E+03 -0.96492649764E+03  0.13586706106E+04  0.50400001928E-02 0. -1.
       -1    1    3    3    0  502 -0.43579297612E+03 -0.85146178074E+03 -0.59855043597E+03  0.11283462707E+04  0.50400001928E-02 0.  1.
</event>
<event>
 5   0  0.1255141E-04  0.1928440E+04  0.7818609E-02  0.8640828E-01
       -1   -1    0    0    0  501  0.00000000000E+00  0.00000000000E+00  0.11760275068E+04  0.11760275068E+04  0.50400001928E-02 0. -1.
        1   -1    0    0  501    0  0.00000000000E+00  0.00000000000E+00 -0.79055975232E+03  0.79055975233E+03  0.50400001928E-02 0.  1.
    10030    2    1    2    0    0  0.00000000000E+00  0.00000000000E+00  0.38546775444E+03  0.19665872591E+04  0.19284397989E+04 0.  0.
        2    1    3    3  502    0 -0.37825201277E+03  0.83738333894E+03 -0.10534003100E+03  0.92486861966E+03  0.25500000920E-02 0.  1.
       -2    1    3    3    0  502  0.37825201277E+03 -0.83738333894E+03  0.49080778545E+03  0.10417186394E+04  0.25500000920E-02 0. -1.
</event>
<event>
 5   0  0.1324058E-04  0.1921469E+04  0.7818609E-02  0.8644243E-01
       -1   -1    0    0    0  501  0.00000000000E+00  0.00000000000E+00  0.65562223577E+03  0.65562223579E+03  0.50400001928E-02 0. -1.
        1   -1    0    0  501    0  0.00000000000E+00  0.00000000000E+00 -0.14078399009E+04  0.14078399009E+04  0.50400001928E-02 0.  1.
    10030    2    1    2    0    0  0.00000000000E+00  0.00000000000E+00 -0.75221766516E+03  0.20634621367E+04  0.19214693789E+04 0.  0.
        5    1    3    3  502    0 -0.43981560113E+03  0.76187847274E+03 -0.79076765557E+03  0.11828914343E+04  0.46999998093E+01 0.  1.
       -5    1    3    3    0  502  0.43981560113E+03 -0.76187847274E+03  0.38549990410E+02  0.88057070243E+03  0.46999998093E+01 0. -1.
</event>
<event>
 5   0  0.2595012E-04  0.1792176E+04  0.7818609E-02  0.8710471E-01
        2   -1    0    0  501    0  0.00000000000E+00  0.00000000000E+00  0.10079909283E+04  0.10079909283E+04  0.25500000920E-02 0. -1.
       -2   -1    0    0    0  501  0.00000000000E+00  0.00000000000E+00 -0.79660802256E+03  0.79660802256E+03  0.25500000920E-02 0.  1.
    10030    2    1    2    0    0  0.00000000000E+00  0.00000000000E+00  0.21138290574E+03  0.18045989509E+04  0.17921759513E+04 0.  0.
        1    1    3    3  502    0 -0.32997212141E+03  0.68420139654E+02 -0.73037169075E+03  0.80436665961E+03  0.50400001928E-02 0.  1.
       -1    1    3    3    0  502  0.32997212141E+03 -0.68420139654E+02  0.94175459649E+03  0.10002322912E+04  0.50400001928E-02 0. -1.
</event>
<event>
 5   0  0.2651828E-04  0.1897840E+04  0.7818609E-02  0.8655932E-01
        2   -1    0    0  501    0  0.00000000000E+00  0.00000000000E+00  0.14358765854E+04  0.14358765854E+04  0.25500000920E-02 0.  1.
       -2   -1    0    0    0  501  0.00000000000E+00  0.00000000000E+00 -0.62710752457E+03  0.62710752458E+03  0.25500000920E-02 0. -1.
    10030    2    1    2    0    0  0.00000000000E+00  0.00000000000E+00  0.80876906088E+03  0.20629841100E+04  0.18978398363E+04 0.  0.
        3    1    3    3  502    0 -0.52176624398E+03 -0.54148703627E+03  0.10335418184E+04  0.12781458932E+04  0.10100000352E+00 0.  1.
       -3    1    3    3    0  502  0.52176624398E+03  0.54148703627E+03 -0.22477275752E+03  0.78483821679E+03  0.10100000352E+00 0. -1.
</event>
<event>
 5   0  0.1317527E-04  0.1691782E+04  0.7818609E-02  0.8766065E-01
        1   -1    0    0  501    0  0.00000000000E+00  0.00000000000E+00  0.57265391341E+03  0.57265391343E+03  0.50400001928E-02 0. -1.
       -1   -1    0    0    0  501  0.00000000000E+00  0.00000000000E+00 -0.12495014870E+04  0.12495014870E+04  0.50400001928E-02 0.  1.
    10030    2    1    2    0    0  0.00000000000E+00  0.00000000000E+00 -0.67684757360E+03  0.18221554005E+04  0.16917823931E+04 0.  0.
        1    1    3    3  502    0 -0.21532203698E+03 -0.70072170305E+03  0.11619029426E+03  0.74220931633E+03  0.50400001928E-02 0.  1.
       -1    1    3    3    0  502  0.21532203698E+03  0.70072170305E+03 -0.79303786786E+03  0.10799460841E+04  0.50400001928E-02 0. -1.
</event>
<event>
 5   0  0.1255141E-04  0.1864300E+04  0.7818609E-02  0.8672834E-01
       -1   -1    0    0    0  501  0.00000000000E+00  0.00000000000E+00  0.55300278801E+03  0.55300278804E+03  0.50400001928E-02 0. -1.
        1   -1    0    0  501    0  0.00000000000E+00  0.00000000000E+00 -0.15712458801E+04  0.15712458801E+04  0.50400001928E-02 0.  1.
    10030    2    1    2    0    0  0.00000000000E+00  0.00000000000E+00 -0.10182430920E+04  0.21242486681E+04  0.18642997102E+04 0.  0.
        2    1    3    3  502    0  0.29459809723E+02 -0.88775238885E+02 -0.15658851261E+04  0.15686762418E+04  0.25500000920E-02 0.  1.
       -2    1    3    3    0  502 -0.29459809723E+02  0.88775238885E+02  0.54764203404E+03  0.55557242632E+03  0.25500000920E-02 0. -1.
</event>
<event>
 5   0  0.1277709E-04  0.1798902E+04  0.7818609E-02  0.8706883E-01
       -1   -1    0    0    0  501  0.00000000000E+00  0.00000000000E+00  0.11944137590E+04  0.11944137590E+04  0.50400001928E-02 0.  1.
        1   -1    0    0  501    0  0.00000000000E+00  0.00000000000E+00 -0.67733018998E+03  0.67733018999E+03  0.50400001928E-02 0. -1.
    10030    2    1    2    0    0  0.00000000000E+00  0.00000000000E+00  0.51708356903E+03  0.18717439490E+04  0.17989024413E+04 0.  0.
        4    1    3    3  502    0  0.56623088051E+03 -0.39391848503E+03  0.85916963503E+03  0.11018000080E+04  0.12699999809E+01 0.  1.
       -4    1    3    3    0  502 -0.56623088051E+03  0.39391848503E+03 -0.34208606601E+03  0.76994394104E+03  0.12699999809E+01 0. -1.
</event>
<event>
 5   0  0.1239615E-04  0.1924530E+04  0.7818609E-02  0.8642741E-01
        1   -1    0    0  501    0  0.00000000000E+00  0.00000000000E+00  0.10919905180E+04  0.10919905180E+04  0.50400001928E-02 0.  1.
       -1   -1    0    0    0  501  0.00000000000E+00  0.00000000000E+00 -0.84795092679E+03  0.84795092680E+03  0.50400001928E-02 0. -1.
    10030    2    1    2    0    0  0.00000000000E+00  0.00000000000E+00  0.24403959119E+03  0.19399414448E+04  0.19245304589E+04 0.  0.
        3    1    3    3  502    0 -0.30586733653E+03 -0.32369194733E+03  0.98185863557E+03  0.10781362135E+04  0.10100000352E+00 0.  1.
       -3    1    3    3    0  502  0.30586733653E+03  0.32369194733E+03 -0.73781904437E+03  0.86180523134E+03  0.10100000352E+00 0. -1.
</event>
<event>
 5   0  0.1317527E-04  0.1894181E+04  0.7818609E-02  0.8657758E-01
        1   -1    0    0  501    0  0.00000000000E+00  0.00000000000E+00  0.15467846414E+04  0.15467846414E+04  0.50400001928E-02 0. -1.
       -1   -1    0    0    0  501  0.00000000000E+00  0.00000000000E+00 -0.57989978280E+03  0.57989978282E+03  0.50400001928E-02 0.  1.
    10030    2    1    2    0    0  0.00000000000E+00  0.00000000000E+00  0.96688485864E+03  0.21266844243E+04  0.18941806436E+04 0.  0.
        1    1    3    3  502    0 -0.89009023421E+02 -0.93674627423E+03  0.60417754832E+03  0.11182337405E+04  0.50400001928E-02 0. -1.
       -1    1    3    3    0  502  0.89009023421E+02  0.93674627423E+03  0.36270731031E+03  0.10084506837E+04  0.50400001928E-02 0.  1.
</event>
<event>
 5   0  0.2562925E-04  0.1882874E+04  0.7818609E-02  0.8663428E-01
       -2   -1    0    0    0  501  0.00000000000E+00  0.00000000000E+00  0.61889359831E+03  0.61889359831E+03  0.25500000920E-02 0.  1.
        2   -1    0    0  501    0  0.00000000000E+00  0.00000000000E+00 -0.14320777568E+04  0.14320777569E+04  0.25500000920E-02 0. -1.
    10030    2    1    2    0    0  0.00000000000E+00  0.00000000000E+00 -0.81318415854E+03  0.20509713552E+04  0.18828741392E+04 0.  0.
        4    1    3    3  502    0 -0.60716735239E+03  0.56868961167E+03  0.73483880186E+02  0.83514164175E+03  0.12699999809E+01 0.  1.
       -4    1    3    3    0  502  0.60716735239E+03 -0.56868961167E+03 -0.88666803873E+03  0.12158297134E+04  0.12699999809E+01 0. -1.
</event>
<event>
 5   0  0.2562925E-04  0.1867833E+04  0.7818609E-02  0.8671036E-01
       -2   -1    0    0    0  501  0.00000000000E+00  0.00000000000E+00  0.13808922721E+04  0.13808922721E+04  0.25500000920E-02 0. -1.
        2   -1    0    0  501    0  0.00000000000E+00  0.00000000000E+00 -0.63162048351E+03  0.63162048352E+03  0.25500000920E-02 0.  1.
    10030    2    1    2    0    0  0.00000000000E+00  0.00000000000E+00  0.74927178854E+03  0.20125127556E+04  0.18678328025E+04 0.  0.
        4    1    3    3  502    0  0.72390333894E+03 -0.64667773182E+02 -0.25729182789E+03  0.77098551389E+03  0.12699999809E+01 0.  1.
       -4    1    3    3    0  502 -0.72390333894E+03  0.64667773182E+02  0.10065636164E+04  0.12415272417E+04  0.12699999809E+01 0. -1.
</event>
<event>
 5   0  0.1317527E-04  0.1907383E+04  0.7818609E-02  0.8651190E-01
       -1   -1    0    0    0  501  0.00000000000E+00  0.00000000000E+00  0.15329342956E+04  0.15329342956E+04  0.50400001928E-02 0.  1.
        1   -1    0    0  501    0  0.00000000000E+00  0.00000000000E+00 -0.59332472188E+03  0.59332472190E+03  0.50400001928E-02 0. -1.
    10030    2    1    2    0    0  0.00000000000E+00  0.00000000000E+00  0.93960957374E+03  0.21262590175E+04  0.19073833538E+04 0.  0.
        1    1    3    3  502    0 -0.73190610948E+03 -0.40962282819E+03  0.97582155844E+03  0.12867420598E+04  0.50400001928E-02 0.  1.
       -1    1    3    3    0  502  0.73190610948E+03  0.40962282819E+03 -0.36211984704E+02  0.83951695774E+03  0.50400001928E-02 0. -1.
</event>
<event>
 5   0  0.1277709E-04  0.1906483E+04  0.7818609E-02  0.8651636E-01
       -1   -1    0    0    0  501  0.00000000000E+00  0.00000000000E+00  0.65803968153E+03  0.65803968155E+03  0.50400001928E-02 0. -1.
        1   -1    0    0  501    0  0.00000000000E+00  0.00000000000E+00 -0.13808729967E+04  0.13808729967E+04  0.50400001928E-02 0.  1.
    10030    2    1    2    0    0  0.00000000000E+00  0.00000000000E+00 -0.72283331518E+03  0.20389126783E+04  0.19064828633E+04 0.  0.
        4    1    3    3  502    0 -0.91021057767E+03 -0.56818415818E+02 -0.65809573791E+03  0.11246347146E+04  0.12699999809E+01 0.  1.
       -4    1    3    3    0  502  0.91021057767E+03  0.56818415818E+02 -0.64737577270E+02  0.91427796369E+03  0.12699999809E+01 0. -1.
</event>
<event>
 5   0  0.2562925E-04  0.1901951E+04  0.7818609E-02  0.8653886E-01
       -2   -1    0    0    0  501  0.00000000000E+00  0.00000000000E+00  0.93554864978E+03  0.93554864978E+03  0.25500000920E-02 0. -1.
        2   -1    0    0  501    0  0.00000000000E+00  0.00000000000E+00 -0.96665694797E+03  0.96665694798E+03  0.25500000920E-02 0.  1.
    10030    2    1    2    0    0  0.00000000000E+00  0.00000000000E+00 -0.31108298198E+02  0.19022055978E+04  0.19019512112E+04 0.  0.
        4    1    3    3  502    0  0.94258334077E+03  0.43073633031E+02 -0.13403643404E+03  0.95304043499E+03  0.12699999809E+01 0.  1.
       -4    1    3    3    0  502 -0.94258334077E+03 -0.43073633031E+02  0.10292813584E+03  0.94916516277E+03  0.12699999809E+01 0. -1.
</event>
<event>
 5   0  0.2562925E-04  0.1896717E+04  0.7818609E-02  0.8656492E-01
       -2   -1    0    0    0  501  0.00000000000E+00  0.00000000000E+00  0.85400797787E+03  0.85400797788E+03  0.25500000920E-02 0.  1.
        2   -1    0    0  501    0  0.00000000000E+00  0.00000000000E+00 -0.10531327896E+04  0.10531327896E+04  0.25500000920E-02 0. -1.
    10030    2    1    2    0    0  0.00000000000E+00  0.00000000000E+00 -0.19912481174E+03  0.19071407675E+04  0.18967169574E+04 0.  0.
        4    1    3    3  502    0  0.14846551077E+03  0.10469749679E+03 -0.10354724012E+04  0.10512888662E+04  0.12699999809E+01 0. -1.
       -4    1    3    3    0  502 -0.14846551077E+03 -0.10469749679E+03  0.83634758942E+03  0.85585190130E+03  0.12699999809E+01 0.  1.
</event>
<event>
 5   0  0.2541124E-04  0.1791294E+04  0.7818609E-02  0.8710943E-01
        2   -1    0    0  501    0  0.00000000000E+00  0.00000000000E+00  0.21638808826E+04  0.21638808826E+04  0.25500000920E-02 0.  1.
       -2   -1    0    0    0  501  0.00000000000E+00  0.00000000000E+00 -0.37071509651E+03  0.37071509652E+03  0.25500000920E-02 0. -1.
    10030    2    1    2    0    0  0.00000000000E+00  0.00000000000E+00  0.17931657861E+04  0.25345959792E+04  0.17912937339E+04 0.  0.
        5    1    3    3  502    0 -0.42821687258E+03 -0.54293295911E+03  0.91158616832E+02  0.69747965667E+03  0.46999998093E+01 0. -1.
       -5    1    3    3    0  502  0.42821687258E+03  0.54293295911E+03  0.17020071693E+04  0.18371163225E+04  0.46999998093E+01 0.  1.
</event>
<event>
 5   0  0.2595012E-04  0.1910723E+04  0.7818609E-02  0.8649537E-01
        2   -1    0    0  501    0  0.00000000000E+00  0.00000000000E+00  0.16258907266E+04  0.16258907266E+04  0.25500000920E-02 0. -1.
       -2   -1    0    0    0  501  0.00000000000E+00  0.00000000000E+00 -0.56136336277E+03  0.56136336277E+03  0.25500000920E-02 0.  1.
    10030    2    1    2    0    0  0.00000000000E+00  0.00000000000E+00  0.10645273638E+04  0.21872540894E+04  0.19107228850E+04 0.  0.
        1    1    3    3  502    0  0.55785909081E+03  0.50084630935E+03 -0.14560519694E+03  0.76371111304E+03  0.50400001928E-02 0.  1.
       -1    1    3    3    0  502 -0.55785909081E+03 -0.50084630935E+03  0.12101325608E+04  0.14235429763E+04  0.50400001928E-02 0. -1.
</event>
<event>
 5   0  0.9266125E-05  0.1880126E+04  0.7818609E-02  0.8664812E-01
       -3   -1    0    0    0  501  0.00000000000E+00  0.00000000000E+00  0.11579427509E+04  0.11579427553E+04  0.10100000352E+00 0. -1.
        3   -1    0    0  501    0  0.00000000000E+00  0.00000000000E+00 -0.76318003266E+03  0.76318003935E+03  0.10100000352E+00 0.  1.
    10030    2    1    2    0    0  0.00000000000E+00  0.00000000000E+00  0.39476271824E+03  0.19211227947E+04  0.18801263757E+04 0.  0.
        2    1    3    3  502    0  0.22748474933E+03  0.81875440844E+02  0.11256315191E+04  0.11513032684E+04  0.25500000920E-02 0. -1.
       -2    1    3    3    0  502 -0.22748474933E+03 -0.81875440844E+02 -0.73086880085E+03  0.76981952628E+03  0.25500000920E-02 0.  1.
</event>
<event>
 5   0  0.2541124E-04  0.1868956E+04  0.7818609E-02  0.8670465E-01
       -2   -1    0    0    0  501  0.00000000000E+00  0.00000000000E+00  0.37258115996E+03  0.37258115997E+03  0.25500000920E-02 0.  1.
        2   -1    0    0  501    0  0.00000000000E+00  0.00000000000E+00 -0.23437827473E+04  0.23437827473E+04  0.25500000920E-02 0. -1.
    10030    2    1    2    0    0  0.00000000000E+00  0.00000000000E+00 -0.19712015874E+04  0.27163639073E+04  0.18689561736E+04 0.  0.
        5    1    3    3  502    0 -0.38897935066E+03 -0.21293568743E+03  0.20989657440E+03  0.49063754867E+03  0.46999998093E+01 0.  1.
       -5    1    3    3    0  502  0.38897935066E+03  0.21293568743E+03 -0.21810981618E+04  0.22257263586E+04  0.46999998093E+01 0. -1.
</event>
<event>
 5   0  0.1255141E-04  0.1910596E+04  0.7818609E-02  0.8649600E-01
        1   -1    0    0  501    0  0.00000000000E+00  0.00000000000E+00  0.98875899040E+03  0.98875899042E+03  0.50400001928E-02 0. -1.
       -1   -1    0    0    0  501  0.00000000000E+00  0.00000000000E+00 -0.92296950388E+03  0.92296950389E+03  0.50400001928E-02 0.  1.
    10030    2    1    2    0    0  0.00000000000E+00  0.00000000000E+00  0.65789486524E+02  0.19117284943E+04  0.19105961319E+04 0.  0.
        2    1    3    3  502    0  0.23056457219E+03  0.55246265167E+03 -0.71200560572E+03  0.93022953406E+03  0.25500000920E-02 0.  1.
       -2    1    3    3    0  502 -0.23056457219E+03 -0.55246265167E+03  0.77779509225E+03  0.98149896025E+03  0.25500000920E-02 0. -1.
</event>
<event>
 5   0  0.2541124E-04  0.1945512E+04  0.7818609E-02  0.8632528E-01
        2   -1    0    0  501    0  0.00000000000E+00  0.00000000000E+00  0.15168166836E+04  0.15168166836E+04  0.25500000920E-02 0.  1.
       -2   -1    0    0    0  501  0.00000000000E+00  0.00000000000E+00 -0.62384222592E+03  0.62384222592E+03  0.25500000920E-02 0. -1.
    10030    2    1    2    0    0  0.00000000000E+00  0.00000000000E+00  0.89297445771E+03  0.21406589096E+04  0.19455120624E+04 0.  0.
        5    1    3    3  502    0  0.35902638379E+03 -0.38148626928E+03  0.13483359682E+04  0.14465350639E+04  0.46999998093E+01 0.  1.
       -5    1    3    3    0  502 -0.35902638379E+03  0.38148626928E+03 -0.45536151049E+03  0.69412384567E+03  0.46999998093E+01 0. -1.
</event>
<event>
 5   0  0.1239615E-04  0.1867601E+04  0.7818609E-02  0.8671154E-01
        1   -1    0    0  501    0  0.00000000000E+00  0.00000000000E+00  0.15982517513E+04  0.15982517513E+04  0.50400001928E-02 0. -1.
       -1   -1    0    0    0  501  0.00000000000E+00  0.00000000000E+00 -0.54558581941E+03  0.54558581944E+03  0.50400001928E-02 0.  1.
    10030    2    1    2    0    0  0.00000000000E+00  0.00000000000E+00  0.10526659319E+04  0.21438375707E+04  0.18676011259E+04 0.  0.
        3    1    3    3  502    0  0.43794692531E+03 -0.67372972029E+03 -0.19708097746E+02  0.80380200591E+03  0.10100000352E+00 0.  1.
       -3    1    3    3    0  502 -0.43794692531E+03  0.67372972029E+03  0.10723740296E+04  0.13400355648E+04  0.10100000352E+00 0. -1.
</event>
<event>
 5   0  0.1277709E-04  0.1876489E+04  0.7818609E-02  0.8666649E-01
       -1   -1    0    0    0  501  0.00000000000E+00  0.00000000000E+00  0.77743674117E+03  0.77743674118E+03  0.50400001928E-02 0. -1.
        1   -1    0    0  501    0  0.00000000000E+00  0.00000000000E+00 -0.11323142206E+04  0.11323142207E+04  0.50400001928E-02 0.  1.
    10030    2    1    2    0    0  0.00000000000E+00  0.00000000000E+00 -0.35487747948E+03  0.19097509618E+04  0.18764889317E+04 0.  0.
        4    1    3    3  502    0 -0.49147618337E+03  0.19227190519E+03 -0.96693659586E+03  0.11015830961E+04  0.12699999809E+01 0.  1.
       -4    1    3    3    0  502  0.49147618337E+03 -0.19227190519E+03  0.61205911638E+03  0.80816786572E+03  0.12699999809E+01 0. -1.
</event>
<event>
 5   0  0.1239615E-04  0.1838475E+04  0.7818609E-02  0.8686102E-01
        1   -1    0    0  501    0  0.00000000000E+00  0.00000000000E+00  0.99132616949E+03  0.99132616950E+03  0.50400001928E-02 0.  1.
       -1   -1    0    0    0  501  0.00000000000E+00  0.00000000000E+00 -0.85239140096E+03  0.85239140098E+03  0.50400001928E-02 0. -1.
    10030    2    1    2    0    0  0.00000000000E+00  0.00000000000E+00  0.13893476852E+03  0.18437175705E+04  0.18384753492E+04 0.  0.
        3    1    3    3  502    0  0.43882833956E+03 -0.75437683404E+03  0.35898273669E+03  0.94367543933E+03  0.10100000352E+00 0.  1.
       -3    1    3    3    0  502 -0.43882833956E+03  0.75437683404E+03 -0.22004796817E+03  0.90004213115E+03  0.10100000352E+00 0. -1.
</event>
<event>
 5   0  0.1239615E-04  0.1888383E+04  0.7818609E-02  0.8660661E-01
       -1   -1    0    0    0  501  0.00000000000E+00  0.00000000000E+00  0.13423325492E+04  0.13423325492E+04  0.50400001928E-02 0. -1.
        1   -1    0    0  501    0  0.00000000000E+00  0.00000000000E+00 -0.66414034474E+03  0.66414034476E+03  0.50400001928E-02 0.  1.
    10030    2    1    2    0    0  0.00000000000E+00  0.00000000000E+00  0.67819220445E+03  0.20064728940E+04  0.18883825905E+04 0.  0.
        3    1    3    3  502    0  0.67207125176E+02 -0.34164106677E+03  0.12716253941E+04  0.13184333769E+04  0.10100000352E+00 0. -1.
       -3    1    3    3    0  502 -0.67207125176E+02  0.34164106677E+03 -0.59343318969E+03  0.68803951704E+03  0.10100000352E+00 0.  1.
</event>
<event>
 5   0  0.2608744E-04  0.1968625E+04  0.7818609E-02  0.8621432E-01
        2   -1    0    0  501    0  0.00000000000E+00  0.00000000000E+00  0.70853396832E+03  0.70853396832E+03  0.25500000920E-02 0.  1.
       -2   -1    0    0    0  501  0.00000000000E+00  0.00000000000E+00 -0.13674300054E+04  0.13674300054E+04  0.25500000920E-02 0. -1.
    10030    2    1    2    0    0  0.00000000000E+00  0.00000000000E+00 -0.65889603712E+03  0.20759639738E+04  0.19686245027E+04 0.  0.
        2    1    3    3  502    0 -0.11841163161E+03 -0.60215987775E+03 -0.11409890422E+04  0.12955592720E+04  0.25500000920E-02 0. -1.
       -2    1    3    3    0  502  0.11841163161E+03  0.60215987775E+03  0.48209300512E+03  0.78040470172E+03  0.25500000920E-02 0.  1.
</event>
<event>
 5   0  0.1324058E-04  0.1682416E+04  0.7818609E-02  0.8771457E-01
       -1   -1    0    0    0  501  0.00000000000E+00  0.00000000000E+00  0.10214131640E+04  0.10214131640E+04  0.50400001928E-02 0. -1.
        1   -1    0    0  501    0  0.00000000000E+00  0.00000000000E+00 -0.69279629710E+03  0.69279629711E+03  0.50400001928E-02 0.  1.
    10030    2    1    2    0    0  0.00000000000E+00  0.00000000000E+00  0.32861686688E+03  0.17142094611E+04  0.16824164263E+04 0.  0.
        5    1    3    3  502    0  0.34888114684E+03  0.24756959156E+03  0.90228861817E+03  0.99857678612E+03  0.46999998093E+01 0. -1.
       -5    1    3    3    0  502 -0.34888114684E+03 -0.24756959156E+03 -0.57367175129E+03  0.71563267499E+03  0.46999998093E+01 0.  1.
</event>
<event>
 5   0  0.1255141E-04  0.1909019E+04  0.7818609E-02  0.8650380E-01
       -1   -1    0    0    0  501  0.00000000000E+00  0.00000000000E+00  0.62200121269E+03  0.62200121271E+03  0.50400001928E-02 0. -1.
        1   -1    0    0  501    0  0.00000000000E+00  0.00000000000E+00 -0.14647699152E+04  0.14647699152E+04  0.50400001928E-02 0.  1.
    10030    2    1    2    0    0  0.00000000000E+00  0.00000000000E+00 -0.84276870252E+03  0.20867711279E+04  0.19090192913E+04 0.  0.
        2    1    3    3  502    0  0.44429638468E+03  0.34479224740E+03 -0.12644332984E+04  0.13838614589E+04  0.25500000920E-02 0.  1.
       -2    1    3    3    0  502 -0.44429638468E+03 -0.34479224740E+03  0.42166459592E+03  0.70290966900E+03  0.25500000920E-02 0. -1.
</event>
<event>
 5   0  0.1239615E-04  0.1848072E+04  0.7818609E-02  0.8681145E-01
        1   -1    0    0  501    0  0.00000000000E+00  0.00000000000E+00  0.56226333414E+03  0.56226333416E+03  0.50400001928E-02 0.  1.
       -1   -1    0    0    0  501  0.00000000000E+00  0.00000000000E+00 -0.15185806527E+04  0.15185806528E+04  0.50400001928E-02 0. -1.
    10030    2    1    2    0    0  0.00000000000E+00  0.00000000000E+00 -0.95631731861E+03  0.20808439869E+04  0.18480716664E+04 0.  0.
        3    1    3    3  502    0 -0.32464052163E+03 -0.85660385363E+03 -0.34173417367E+03  0.97772382910E+03  0.10100000352E+00 0.  1.
       -3    1    3    3    0  502  0.32464052163E+03  0.85660385363E+03 -0.61458314494E+03  0.11031201578E+04  0.10100000352E+00 0. -1.
</event>
<event>
 5   0  0.2595012E-04  0.1913896E+04  0.7818609E-02  0.8647970E-01
        2   -1    0    0  501    0  0.00000000000E+00  0.00000000000E+00  0.10391514837E+04  0.10391514837E+04  0.25500000920E-02 0.  1.
       -2   -1    0    0    0  501  0.00000000000E+00  0.00000000000E+00 -0.88124750593E+03  0.88124750593E+03  0.25500000920E-02 0. -1.
    10030    2    1    2    0    0  0.00000000000E+00  0.00000000000E+00  0.15790397777E+03  0.19203989896E+04  0.19138961866E+04 0.  0.
        1    1    3    3  502    0 -0.40824152742E+03 -0.60117072033E+03 -0.54580491436E+03  0.90882912820E+03  0.50400001928E-02 0. -1.
       -1    1    3    3    0  502  0.40824152742E+03  0.60117072033E+03  0.70370889213E+03  0.10115698614E+04  0.50400001928E-02 0.  1.
</event>
<event>
 5   0  0.2608744E-04  0.1893714E+04  0.7818609E-02  0.8657991E-01
        2   -1    0    0  501    0  0.00000000000E+00  0.00000000000E+00  0.12879521889E+04  0.12879521890E+04  0.25500000920E-02 0. -1.
       -2   -1    0    0    0  501  0.00000000000E+00  0.00000000000E+00 -0.69609613099E+03  0.69609613099E+03  0.25500000920E-02 0.  1.
    10030    2    1    2    0    0  0.00000000000E+00  0.00000000000E+00  0.59185605796E+03  0.19840483199E+04  0.18937143772E+04 0.  0.
        2    1    3    3  502    0  0.69887278459E+03  0.63551142231E+03  0.36415425614E+03  0.10123765402E+04  0.25500000920E-02 0. -1.
       -2    1    3    3    0  502 -0.69887278459E+03 -0.63551142231E+03  0.22770180182E+03  0.97167177971E+03  0.25500000920E-02 0.  1.
</event>
<event>
 5   0  0.1239615E-04  0.1885172E+04  0.7818609E-02  0.8662272E-01
       -1   -1    0    0    0  501  0.00000000000E+00  0.00000000000E+00  0.74410143171E+03  0.74410143172E+03  0.50400001928E-02 0.  1.
        1   -1    0    0  501    0  0.00000000000E+00  0.00000000000E+00 -0.11940157575E+04  0.11940157575E+04  0.50400001928E-02 0. -1.
    10030    2    1    2    0    0  0.00000000000E+00  0.00000000000E+00 -0.44991432578E+03  0.19381171892E+04  0.18851724957E+04 0.  0.
        3    1    3    3  502    0 -0.87178333435E+03 -0.10242898913E+03  0.12815808143E+03  0.88708645796E+03  0.10100000352E+00 0.  1.
       -3    1    3    3    0  502  0.87178333435E+03  0.10242898913E+03 -0.57807240721E+03  0.10510307313E+04  0.10100000352E+00 0. -1.
</event>
<event>
 5   0  0.2595012E-04  0.1997549E+04  0.7818609E-02  0.8607767E-01
        2   -1    0    0  501    0  0.00000000000E+00  0.00000000000E+00  0.14480386458E+04  0.14480386458E+04  0.25500000920E-02 0.  1.
       -2   -1    0    0    0  501  0.00000000000E+00  0.00000000000E+00 -0.68889771199E+03  0.68889771200E+03  0.25500000920E-02 0. -1.
    10030    2    1    2    0    0  0.00000000000E+00  0.00000000000E+00  0.75914093382E+03  0.21369363578E+04  0.19975490081E+04 0.  0.
        1    1    3    3  502    0  0.38128692462E+03 -0.60128067849E+03 -0.36975799578E+03  0.80227124383E+03  0.50400001928E-02 0. -1.
       -1    1    3    3    0  502 -0.38128692462E+03  0.60128067849E+03  0.11288989296E+04  0.13346651140E+04  0.50400001928E-02 0.  1.
</event>
<event>
 5   0  0.1317527E-04  0.1881750E+04  0.7818609E-02  0.8663994E-01
       -1   -1    0    0    0  501  0.00000000000E+00  0.00000000000E+00  0.48271360404E+03  0.48271360407E+03  0.50400001928E-02 0.  1.
        1   -1    0    0  501    0  0.00000000000E+00  0.00000000000E+00 -0.18338952140E+04  0.18338952141E+04  0.50400001928E-02 0. -1.
    10030    2    1    2    0    0  0.00000000000E+00  0.00000000000E+00 -0.13511816100E+04  0.23166088181E+04  0.18817504279E+04 0.  0.
        1    1    3    3  502    0  0.95937963290E+02 -0.17386117515E+03  0.45662238663E+03  0.49793152644E+03  0.50400001928E-02 0.  1.
       -1    1    3    3    0  502 -0.95937963290E+02  0.17386117515E+03 -0.18078039966E+04  0.18186772917E+04  0.50400001928E-02 0. -1.
</event>
<event>
 5   0  0.1239615E-04  0.1900609E+04  0.7818609E-02  0.8654553E-01
       -1   -1    0    0    0  501  0.00000000000E+00  0.00000000000E+00  0.81053229831E+03  0.81053229833E+03  0.50400001928E-02 0. -1.
        1   -1    0    0  501    0  0.00000000000E+00  0.00000000000E+00 -0.11141792447E+04  0.11141792447E+04  0.50400001928E-02 0.  1.
    10030    2    1    2    0    0  0.00000000000E+00  0.00000000000E+00 -0.30364694636E+03  0.19247115430E+04  0.19006086014E+04 0.  0.
        3    1    3    3  502    0  0.80265651040E+03 -0.50030068733E+03 -0.58349045031E+02  0.94760902944E+03  0.10100000352E+00 0.  1.
       -3    1    3    3    0  502 -0.80265651040E+03  0.50030068733E+03 -0.24529790133E+03  0.97710251357E+03  0.10100000352E+00 0. -1.
</event>
<event>
 5   0  0.2562925E-04  0.1880236E+04  0.7818609E-02  0.8664757E-01
        2   -1    0    0  501    0  0.00000000000E+00  0.00000000000E+00  0.96683697896E+03  0.96683697896E+03  0.25500000920E-02 0.  1.
       -2   -1    0    0    0  501  0.00000000000E+00  0.00000000000E+00 -0.91413776271E+03  0.91413776271E+03  0.25500000920E-02 0. -1.
    10030    2    1    2    0    0  0.00000000000E+00  0.00000000000E+00  0.52699216245E+02  0.18809747417E+04  0.18802363605E+04 0.  0.
        4    1    3    3  502    0  0.58794051740E+03  0.38283483890E+03 -0.59966287554E+03  0.92294839675E+03  0.12699999809E+01 0. -1.
       -4    1    3    3    0  502 -0.58794051740E+03 -0.38283483890E+03  0.65236209178E+03  0.95802634492E+03  0.12699999809E+01 0.  1.
</event>
<event>
 5   0  0.9266125E-05  0.1897784E+04  0.7818609E-02  0.8655960E-01
        4   -1    0    0  501    0  0.00000000000E+00  0.00000000000E+00  0.90614060736E+03  0.90614149734E+03  0.12699999809E+01 0.  1.
       -4   -1    0    0    0  501  0.00000000000E+00  0.00000000000E+00 -0.99365897617E+03  0.99365978777E+03  0.12699999809E+01 0. -1.
    10030    2    1    2    0    0  0.00000000000E+00  0.00000000000E+00 -0.87518368812E+02  0.18998012851E+04  0.18977843550E+04 0.  0.
        1    1    3    3  502    0 -0.92486380489E+03 -0.95402758029E+01  0.16843847625E+03  0.94012530801E+03  0.50400001928E-02 0.  1.
       -1    1    3    3    0  502  0.92486380489E+03  0.95402758029E+01 -0.25595684507E+03  0.95967597710E+03  0.50400001928E-02 0. -1.
</event>
<event>
 5   0  0.2595012E-04  0.1904915E+04  0.7818609E-02  0.8652414E-01
        2   -1    0    0  501    0  0.00000000000E+00  0.00000000000E+00  0.19129766547E+04  0.19129766547E+04  0.25500000920E-02 0.  1.
       -2   -1    0    0    0  501  0.00000000000E+00  0.00000000000E+00 -0.47422181779E+03  0.47422181780E+03  0.25500000920E-02 0. -1.
    10030    2    1    2    0    0  0.00000000000E+00  0.00000000000E+00  0.14387548369E+04  0.23871984725E+04  0.19049149762E+04 0.  0.
        1    1    3    3  502    0 -0.82700772988E+03  0.42512689660E+03  0.97772861550E+03  0.13493064548E+04  0.50400001928E-02 0.  1.
       -1    1    3    3    0  502  0.82700772988E+03 -0.42512689660E+03  0.46102622143E+03  0.10378920177E+04  0.50400001928E-02 0. -1.
</event>
<event>
 5   0  0.2541124E-04  0.1886148E+04  0.7818609E-02  0.8661782E-01
        2   -1    0    0  501    0  0.00000000000E+00  0.00000000000E+00  0.18086943754E+04  0.18086943754E+04  0.25500000920E-02 0. -1.
       -2   -1    0    0    0  501  0.00000000000E+00  0.00000000000E+00 -0.49172953972E+03  0.49172953973E+03  0.25500000920E-02 0.  1.
    10030    2    1    2    0    0  0.00000000000E+00  0.00000000000E+00  0.13169648357E+04  0.23004239152E+04  0.18861478762E+04 0.  0.
        5    1    3    3  502    0  0.49138128511E+03  0.72400775994E+03  0.10874834499E+04  0.13958098537E+04  0.46999998093E+01 0. -1.
       -5    1    3    3    0  502 -0.49138128511E+03 -0.72400775994E+03  0.22948138580E+03  0.90461406148E+03  0.46999998093E+01 0.  1.
</event>
<event>
 5   0  0.2562925E-04  0.1914773E+04  0.7818609E-02  0.8647538E-01
       -2   -1    0    0    0  501  0.00000000000E+00  0.00000000000E+00  0.84656753237E+03  0.84656753238E+03  0.25500000920E-02 0. -1.
        2   -1    0    0  501    0  0.00000000000E+00  0.00000000000E+00 -0.10827119551E+04  0.10827119551E+04  0.25500000920E-02 0.  1.
    10030    2    1    2    0    0  0.00000000000E+00  0.00000000000E+00 -0.23614442271E+03  0.19292794875E+04  0.19147728723E+04 0.  0.
        4    1    3    3  502    0  0.74365396664E+03  0.48850624874E+03 -0.47420099454E+03  0.10082300200E+04  0.12699999809E+01 0.  1.
       -4    1    3    3    0  502 -0.74365396664E+03 -0.48850624874E+03  0.23805657183E+03  0.92104946743E+03  0.12699999809E+01 0. -1.
</event>
<event>
 5   0  0.1239615E-04  0.1895421E+04  0.7818609E-02  0.8657139E-01
        1   -1    0    0  501    0  0.00000000000E+00  0.00000000000E+00  0.16130728872E+04  0.16130728872E+04  0.50400001928E-02 0. -1.
       -1   -1    0    0    0  501  0.00000000000E+00  0.00000000000E+00 -0.55679741550E+03  0.55679741552E+03  0.50400001928E-02 0.  1.
    10030    2    1    2    0    0  0.00000000000E+00  0.00000000000E+00  0.10562754717E+04  0.21698703027E+04  0.18954206020E+04 0.  0.
        3    1    3    3  502    0 -0.10243930504E+03 -0.39632690665E+03 -0.45036905722E+03  0.60860588730E+03  0.10100000352E+00 0.  1.
       -3    1    3    3    0  502  0.10243930504E+03  0.39632690665E+03  0.15066445289E+04  0.15612644154E+04  0.10100000352E+00 0. -1.
</event>
<event>
 5   0  0.1239615E-04  0.1849671E+04  0.7818609E-02  0.8680322E-01
       -1   -1    0    0    0  501  0.00000000000E+00  0.00000000000E+00  0.90038632282E+03  0.90038632283E+03  0.50400001928E-02 0.  1.
        1   -1    0    0  501    0  0.00000000000E+00  0.00000000000E+00 -0.94994823722E+03  0.94994823723E+03  0.50400001928E-02 0. -1.
    10030    2    1    2    0    0  0.00000000000E+00  0.00000000000E+00 -0.49561914397E+02  0.18503345601E+04  0.18496706736E+04 0.  0.
        3    1    3    3  502    0  0.84115869304E+03 -0.36405414888E+03 -0.14826358574E+03  0.92847480916E+03  0.10100000352E+00 0.  1.
       -3    1    3    3    0  502 -0.84115869304E+03  0.36405414888E+03  0.98701671347E+02  0.92185975090E+03  0.10100000352E+00 0. -1.
</event>
<event>
 5   0  0.2651828E-04  0.1871816E+04  0.7818609E-02  0.8669014E-01
       -2   -1    0    0    0  501  0.00000000000E+00  0.00000000000E+00  0.33910075361E+03  0.33910075362E+03  0.25500000920E-02 0.  1.
        2   -1    0    0  501    0  0.00000000000E+00  0.00000000000E+00 -0.25830783364E+04  0.25830783364E+04  0.25500000920E-02 0. -1.
    10030    2    1    2    0    0  0.00000000000E+00  0.00000000000E+00 -0.22439775828E+04  0.29221790900E+04  0.18718160278E+04 0.  0.
        3    1    3    3  502    0 -0.70306325218E+02 -0.55432079992E+03 -0.22941065775E+04  0.23611733370E+04  0.10100000352E+00 0. -1.
       -3    1    3    3    0  502  0.70306325218E+02  0.55432079992E+03  0.50128994652E+02  0.56100575300E+03  0.10100000352E+00 0.  1.
</event>
<event>
 5   0  0.2562925E-04  0.1868694E+04  0.7818609E-02  0.8670598E-01
        2   -1    0    0  501    0  0.00000000000E+00  0.00000000000E+00  0.13139789943E+04  0.13139789943E+04  0.25500000920E-02 0. -1.
       -2   -1    0    0    0  501  0.00000000000E+00  0.00000000000E+00 -0.66439754701E+03  0.66439754701E+03  0.25500000920E-02 0.  1.
    10030    2    1    2    0    0  0.00000000000E+00  0.00000000000E+00  0.64958144730E+03  0.19783765413E+04  0.18686941116E+04 0.  0.
        4    1    3    3  502    0 -0.63686223060E+02 -0.14661123157E+03  0.12993949629E+04  0.13091904639E+04  0.12699999809E+01 0. -1.
       -4    1    3    3    0  502  0.63686223060E+02  0.14661123157E+03 -0.64981351561E+03  0.66918607741E+03  0.12699999809E+01 0.  1.
</event>
<event>
 5   0  0.1255141E-04  0.1815031E+04  0.7818609E-02  0.8698347E-01
        1   -1    0    0  501    0  0.00000000000E+00  0.00000000000E+00  0.15084148771E+04  0.15084148771E+04  0.50400001928E-02 0. -1.
       -1   -1    0    0    0  501  0.00000000000E+00  0.00000000000E+00 -0.54599343440E+03  0.54599343443E+03  0.50400001928E-02 0.  1.
    10030    2    1    2    0    0  0.00000000000E+00  0.00000000000E+00  0.96242144269E+03  0.20544083115E+04  0.18150312606E+04 0.  0.
        2    1    3    3  502    0 -0.78100000496E+03 -0.12543396998E+03  0.98472814365E+03  0.12630851933E+04  0.25500000920E-02 0. -1.
       -2    1    3    3    0  502  0.78100000496E+03  0.12543396998E+03 -0.22306700958E+02  0.79132311826E+03  0.25500000920E-02 0.  1.
</event>
<event>
 5   0  0.1317527E-04  0.1902054E+04  0.7818609E-02  0.8653835E-01
        1   -1    0    0  501    0  0.00000000000E+00  0.00000000000E+00  0.14568396372E+04  0.14568396372E+04  0.50400001928E-02 0.  1.
       -1   -1    0    0    0  501  0.00000000000E+00  0.00000000000E+00 -0.62083164018E+03  0.62083164020E+03  0.50400001928E-02 0. -1.
    10030    2    1    2    0    0  0.00000000000E+00  0.00000000000E+00  0.83600799702E+03  0.20776712774E+04  0.19020537758E+04 0.  0.
        1    1    3    3  502    0  0.14031269282E+03 -0.19176374708E+03  0.14238921806E+04  0.14435823248E+04  0.50400001928E-02 0.  1.
       -1    1    3    3    0  502 -0.14031269282E+03  0.19176374708E+03 -0.58788418360E+03  0.63408895260E+03  0.50400001928E-02 0. -1.
</event>
<event>
 5   0  0.1255141E-04  0.1928059E+04  0.7818609E-02  0.8641014E-01
       -1   -1    0    0    0  501  0.00000000000E+00  0.00000000000E+00  0.11675383447E+04  0.11675383447E+04  0.50400001928E-02 0. -1.
        1   -1    0    0  501    0  0.00000000000E+00  0.00000000000E+00 -0.79599335557E+03  0.79599335559E+03  0.50400001928E-02 0.  1.
    10030    2    1    2    0    0  0.00000000000E+00  0.00000000000E+00  0.37154498909E+03  0.19635317003E+04  0.19280588837E+04 0.  0.
        2    1    3    3  502    0  0.83257389265E+03  0.48110584260E+03  0.25566938724E+03  0.99499193669E+03  0.25500000920E-02 0. -1.
       -2    1    3    3    0  502 -0.83257389265E+03 -0.48110584260E+03  0.11587560186E+03  0.96853976357E+03  0.25500000920E-02 0.  1.
</event>
<event>
 5   0  0.2562925E-04  0.1889817E+04  0.7818609E-02  0.8659942E-01
        2   -1    0    0  501    0  0.00000000000E+00  0.00000000000E+00  0.15756660260E+04  0.15756660260E+04  0.25500000920E-02 0.  1.
       -2   -1    0    0    0  501  0.00000000000E+00  0.00000000000E+00 -0.56665087781E+03  0.56665087781E+03  0.25500000920E-02 0. -1.
    10030    2    1    2    0    0  0.00000000000E+00  0.00000000000E+00  0.10090151482E+04  0.21423169038E+04  0.18898174904E+04 0.  0.
        4    1    3    3  502    0 -0.87977852540E+02  0.10989451014E+02  0.15709392719E+04  0.15734397604E+04  0.12699999809E+01 0.  1.
       -4    1    3    3    0  502  0.87977852540E+02 -0.10989451014E+02 -0.56192412374E+03  0.56887714342E+03  0.12699999809E+01 0. -1.
</event>
<event>
 5   0  0.2562925E-04  0.1969795E+04  0.7818609E-02  0.8620874E-01
        2   -1    0    0  501    0  0.00000000000E+00  0.00000000000E+00  0.76190857553E+03  0.76190857553E+03  0.25500000920E-02 0. -1.
       -2   -1    0    0    0  501  0.00000000000E+00  0.00000000000E+00 -0.12731489796E+04  0.12731489796E+04  0.25500000920E-02 0.  1.
    10030    2    1    2    0    0  0.00000000000E+00  0.00000000000E+00 -0.51124040403E+03  0.20350575551E+04  0.19697950406E+04 0.  0.
        4    1    3    3  502    0  0.13359151946E+03  0.19773960307E+03  0.73158767830E+03  0.76952569069E+03  0.12699999809E+01 0. -1.
       -4    1    3    3    0  502 -0.13359151946E+03 -0.19773960307E+03 -0.12428280823E+04  0.12655318644E+04  0.12699999809E+01 0.  1.
</event>
<event>
 5   0  0.2541124E-04  0.1910177E+04  0.7818609E-02  0.8649807E-01
       -2   -1    0    0    0  501  0.00000000000E+00  0.00000000000E+00  0.27976714579E+03  0.27976714580E+03  0.25500000920E-02 0.  1.
        2   -1    0    0  501    0  0.00000000000E+00  0.00000000000E+00 -0.32605475820E+04  0.32605475820E+04  0.25500000920E-02 0. -1.
    10030    2    1    2    0    0  0.00000000000E+00  0.00000000000E+00 -0.29807804362E+04  0.35403147278E+04  0.19101770502E+04 0.  0.
        5    1    3    3  502    0 -0.12059197640E+03 -0.56195900197E+03 -0.76658759576E+02  0.57986119036E+03  0.46999998093E+01 0.  1.
       -5    1    3    3    0  502  0.12059197640E+03  0.56195900197E+03 -0.29041216767E+04  0.29604535375E+04  0.46999998093E+01 0. -1.
</event>
<event>
 5   0  0.1239615E-04  0.1887283E+04  0.7818609E-02  0.8661213E-01
        1   -1    0    0  501    0  0.00000000000E+00  0.00000000000E+00  0.87444602597E+03  0.87444602598E+03  0.50400001928E-02 0. -1.
       -1   -1    0    0    0  501  0.00000000000E+00  0.00000000000E+00 -0.10183120667E+04  0.10183120667E+04  0.50400001928E-02 0.  1.
    10030    2    1    2    0    0  0.00000000000E+00  0.00000000000E+00 -0.14386604068E+03  0.18927580926E+04  0.18872826390E+04 0.  0.
        3    1    3    3  502    0 -0.19474952487E+03  0.91819228614E+03 -0.16944925931E+03  0.95379112674E+03  0.10100000352E+00 0.  1.
       -3    1    3    3    0  502  0.19474952487E+03 -0.91819228614E+03  0.25583218630E+02  0.93896696590E+03  0.10100000352E+00 0. -1.
</event>
<event>
 5   0  0.1255141E-04  0.1887863E+04  0.7818609E-02  0.8660922E-01
       -1   -1    0    0    0  501  0.00000000000E+00  0.00000000000E+00  0.11509674369E+04  0.11509674369E+04  0.50400001928E-02 0.  1.
        1   -1    0    0  501    0  0.00000000000E+00  0.00000000000E+00 -0.77413696147E+03  0.77413696149E+03  0.50400001928E-02 0. -1.
    10030    2    1    2    0    0  0.00000000000E+00  0.00000000000E+00  0.37683047540E+03  0.19251043984E+04  0.18878627433E+04 0.  0.
        2    1    3    3  502    0  0.68212722410E+03  0.30105221572E+03 -0.40186170867E+03  0.84700815778E+03  0.25500000920E-02 0. -1.
       -2    1    3    3    0  502 -0.68212722410E+03 -0.30105221572E+03  0.77869218406E+03  0.10780962406E+04  0.25500000920E-02 0.  1.
</event>
<event>
 5   0  0.2595012E-04  0.1907695E+04  0.7818609E-02  0.8651035E-01
       -2   -1    0    0    0  501  0.00000000000E+00  0.00000000000E+00  0.86963022417E+03  0.86963022417E+03  0.25500000920E-02 0. -1.
        2   -1    0    0  501    0  0.00000000000E+00  0.00000000000E+00 -0.10462208794E+04  0.10462208794E+04  0.25500000920E-02 0.  1.
    10030    2    1    2    0    0  0.00000000000E+00  0.00000000000E+00 -0.17659065524E+03  0.19158511036E+04  0.19076952565E+04 0.  0.
        1    1    3    3  502    0 -0.31273131825E+03  0.64957402845E+03 -0.71552772684E+03  0.10157397421E+04  0.50400001928E-02 0.  1.
       -1    1    3    3    0  502  0.31273131825E+03 -0.64957402845E+03  0.53893707160E+03  0.90011136145E+03  0.50400001928E-02 0. -1.
</event>
<event>
 5   0  0.1277709E-04  0.1891443E+04  0.7818609E-02  0.8659127E-01
        1   -1    0    0  501    0  0.00000000000E+00  0.00000000000E+00  0.97347797216E+03  0.97347797217E+03  0.50400001928E-02 0.  1.
       -1   -1    0    0    0  501  0.00000000000E+00  0.00000000000E+00 -0.91875686559E+03  0.91875686560E+03  0.50400001928E-02 0. -1.
    10030    2    1    2    0    0  0.00000000000E+00  0.00000000000E+00  0.54721106569E+02  0.18922348378E+04  0.18914434387E+04 0.  0.
        4    1    3    3  502    0  0.46338501464E+03  0.63744188922E+03 -0.49566803068E+03  0.93099207487E+03  0.12699999809E+01 0. -1.
       -4    1    3    3    0  502 -0.46338501464E+03 -0.63744188922E+03  0.55038913725E+03  0.96124276290E+03  0.12699999809E+01 0.  1.
</event>
<event>
 5   0  0.2595012E-04  0.1946445E+04  0.7818609E-02  0.8632077E-01
        2   -1    0    0  501    0  0.00000000000E+00  0.00000000000E+00  0.16927147145E+04  0.16927147145E+04  0.25500000920E-02 0. -1.
       -2   -1    0    0    0  501  0.00000000000E+00  0.00000000000E+00 -0.55955197434E+03  0.55955197434E+03  0.25500000920E-02 0.  1.
    10030    2    1    2    0    0  0.00000000000E+00  0.00000000000E+00  0.11331627402E+04  0.22522666889E+04  0.19464448212E+04 0.  0.
        1    1    3    3  502    0  0.22321156036E+03 -0.54438421973E+03 -0.33045339263E+03  0.67481628914E+03  0.50400001928E-02 0.  1.
       -1    1    3    3    0  502 -0.22321156036E+03  0.54438421973E+03  0.14636161328E+04  0.15774503998E+04  0.50400001928E-02 0. -1.
</event>
<event>
 5   0  0.2608744E-04  0.1879080E+04  0.7818609E-02  0.8665340E-01
        2   -1    0    0  501    0  0.00000000000E+00  0.00000000000E+00  0.76414704236E+03  0.76414704237E+03  0.25500000920E-02 0. -1.
       -2   -1    0    0    0  501  0.00000000000E+00  0.00000000000E+00 -0.11551906284E+04  0.11551906284E+04  0.25500000920E-02 0.  1.
    10030    2    1    2    0    0  0.00000000000E+00  0.00000000000E+00 -0.39104358603E+03  0.19193376708E+04  0.18790800963E+04 0.  0.
        2    1    3    3  502    0 -0.60037894973E+03  0.25805369098E+03  0.49398781966E+03  0.81918896274E+03  0.25500000920E-02 0. -1.
       -2    1    3    3    0  502  0.60037894973E+03 -0.25805369098E+03 -0.88503140569E+03  0.11001487080E+04  0.25500000920E-02 0.  1.
</event>
<event>
 5   0  0.1277709E-04  0.1907848E+04  0.7818609E-02  0.8650960E-01
       -1   -1    0    0    0  501  0.00000000000E+00  0.00000000000E+00  0.48864836157E+03  0.48864836160E+03  0.50400001928E-02 0. -1.
        1   -1    0    0  501    0  0.00000000000E+00  0.00000000000E+00 -0.18622209244E+04  0.18622209244E+04  0.50400001928E-02 0.  1.
    10030    2    1    2    0    0  0.00000000000E+00  0.00000000000E+00 -0.13735725628E+04  0.23508692860E+04  0.19078482158E+04 0.  0.
        4    1    3    3  502    0 -0.60488761420E+03  0.72267841906E+03 -0.86878858206E+03  0.12817754626E+04  0.12699999809E+01 0.  1.
       -4    1    3    3    0  502  0.60488761420E+03 -0.72267841906E+03 -0.50478398077E+03  0.10690938234E+04  0.12699999809E+01 0. -1.
</event>
<event>
 5   0  0.2562925E-04  0.1730962E+04  0.7818609E-02  0.8743900E-01
        2   -1    0    0  501    0  0.00000000000E+00  0.00000000000E+00  0.99793803409E+03  0.99793803409E+03  0.25500000920E-02 0.  1.
       -2   -1    0    0    0  501  0.00000000000E+00  0.00000000000E+00 -0.75060521852E+03  0.75060521852E+03  0.25500000920E-02 0. -1.
    10030    2    1    2    0    0  0.00000000000E+00  0.00000000000E+00  0.24733281557E+03  0.17485432526E+04  0.17309621557E+04 0.  0.
        4    1    3    3  502    0 -0.20823991862E+03 -0.75163981843E+03 -0.25528326621E+03  0.82066889747E+03  0.12699999809E+01 0. -1.
       -4    1    3    3    0  502  0.20823991862E+03  0.75163981843E+03  0.50261608179E+03  0.92787435514E+03  0.12699999809E+01 0.  1.
</event>
<event>
 5   0  0.1239615E-04  0.1909024E+04  0.7818609E-02  0.8650378E-01
       -1   -1    0    0    0  501  0.00000000000E+00  0.00000000000E+00  0.11552061873E+04  0.11552061874E+04  0.50400001928E-02 0. -1.
        1   -1    0    0  501    0  0.00000000000E+00  0.00000000000E+00 -0.78868414189E+03  0.78868414191E+03  0.50400001928E-02 0.  1.
    10030    2    1    2    0    0  0.00000000000E+00  0.00000000000E+00  0.36652204545E+03  0.19438903293E+04  0.19090236254E+04 0.  0.
        3    1    3    3  502    0 -0.69737195376E+03  0.11274368143E+03 -0.47037733322E+03  0.84870114021E+03  0.10100000352E+00 0.  1.
       -3    1    3    3    0  502  0.69737195376E+03 -0.11274368143E+03  0.83689937867E+03  0.10951891891E+04  0.10100000352E+00 0. -1.
</event>
<event>
 5   0  0.2541124E-04  0.1885781E+04  0.7818609E-02  0.8661967E-01
        2   -1    0    0  501    0  0.00000000000E+00  0.00000000000E+00  0.11796385782E+04  0.11796385782E+04  0.25500000920E-02 0.  1.
       -2   -1    0    0    0  501  0.00000000000E+00  0.00000000000E+00 -0.75365657972E+03  0.75365657973E+03  0.25500000920E-02 0. -1.
    10030    2    1    2    0    0  0.00000000000E+00  0.00000000000E+00  0.42598199852E+03  0.19332951580E+04  0.18857808740E+04 0.  0.
        5    1    3    3  502    0  0.10375529691E+03  0.50874468252E+03  0.10198626311E+04  0.11444335673E+04  0.46999998093E+01 0.  1.
       -5    1    3    3    0  502 -0.10375529691E+03 -0.50874468252E+03 -0.59388063253E+03  0.78886159073E+03  0.46999998093E+01 0. -1.
</event>
<event>
 5   0  0.2541124E-04  0.1746016E+04  0.7818609E-02  0.8735547E-01
       -2   -1    0    0    0  501  0.00000000000E+00  0.00000000000E+00  0.62343094486E+03  0.62343094487E+03  0.25500000920E-02 0.  1.
        2   -1    0    0  501    0  0.00000000000E+00  0.00000000000E+00 -0.12224971994E+04  0.12224971994E+04  0.25500000920E-02 0. -1.
    10030    2    1    2    0    0  0.00000000000E+00  0.00000000000E+00 -0.59906625451E+03  0.18459281442E+04  0.17460155602E+04 0.  0.
        5    1    3    3  502    0 -0.51082060233E+03  0.27599128312E+03 -0.98876774543E+03  0.11466440688E+04  0.46999998093E+01 0. -1.
       -5    1    3    3    0  502  0.51082060233E+03 -0.27599128312E+03  0.38970149093E+03  0.69928407543E+03  0.46999998093E+01 0.  1.
</event>
<event>
 5   0  0.2595012E-04  0.2031372E+04  0.7818609E-02  0.8592092E-01
        2   -1    0    0  501    0  0.00000000000E+00  0.00000000000E+00  0.11314993638E+04  0.11314993638E+04  0.25500000920E-02 0. -1.
       -2   -1    0    0    0  501  0.00000000000E+00  0.00000000000E+00 -0.91172636264E+03  0.91172636264E+03  0.25500000920E-02 0.  1.
    10030    2    1    2    0    0  0.00000000000E+00  0.00000000000E+00  0.21977300119E+03  0.20432257265E+04  0.20313717526E+04 0.  0.
        1    1    3    3  502    0  0.95036337589E+03 -0.30074462229E+03  0.30590812864E+03  0.10426972990E+04  0.50400001928E-02 0.  1.
       -1    1    3    3    0  502 -0.95036337589E+03  0.30074462229E+03 -0.86135127454E+02  0.10005284275E+04  0.50400001928E-02 0. -1.
</event>
<event>
 5   0  0.1277709E-04  0.1905211E+04  0.7818609E-02  0.8652267E-01
        1   -1    0    0  501    0  0.00000000000E+00  0.00000000000E+00  0.54462849825E+03  0.54462849827E+03  0.50400001928E-02 0. -1.
       -1   -1    0    0    0  501  0.00000000000E+00  0.00000000000E+00 -0.16661940602E+04  0.16661940602E+04  0.50400001928E-02 0.  1.
    10030    2    1    2    0    0  0.00000000000E+00  0.00000000000E+00 -0.11215655619E+04  0.22108225585E+04  0.19052105068E+04 0.  0.
        4    1    3    3  502    0 -0.45875197067E+03  0.69614656900E+03 -0.10955558233E+04  0.13767053392E+04  0.12699999809E+01 0.  1.
       -4    1    3    3    0  502  0.45875197067E+03 -0.69614656900E+03 -0.26009738668E+02  0.83411721929E+03  0.12699999809E+01 0. -1.
</event>
<event>
 5   0  0.1239615E-04  0.1800983E+04  0.7818609E-02  0.8705777E-01
        1   -1    0    0  501    0  0.00000000000E+00  0.00000000000E+00  0.83527181528E+03  0.83527181530E+03  0.50400001928E-02 0. -1.
       -1   -1    0    0    0  501  0.00000000000E+00  0.00000000000E+00 -0.97080315003E+03  0.97080315004E+03  0.50400001928E-02 0.  1.
    10030    2    1    2    0    0  0.00000000000E+00  0.00000000000E+00 -0.13553133475E+03  0.18060749653E+04  0.18009825201E+04 0.  0.
        3    1    3    3  502    0 -0.28893652252E+02 -0.39425032799E+03  0.74360573076E+03  0.84215061437E+03  0.10100000352E+00 0. -1.
       -3    1    3    3    0  502  0.28893652252E+02  0.39425032799E+03 -0.87913706550E+03  0.96392435098E+03  0.10100000352E+00 0.  1.
</event>
<event>
 5   0  0.1239615E-04  0.1896260E+04  0.7818609E-02  0.8656720E-01
        1   -1    0    0  501    0  0.00000000000E+00  0.00000000000E+00  0.72439069856E+03  0.72439069858E+03  0.50400001928E-02 0. -1.
       -1   -1    0    0    0  501  0.00000000000E+00  0.00000000000E+00 -0.12409751623E+04  0.12409751623E+04  0.50400001928E-02 0.  1.
    10030    2    1    2    0    0  0.00000000000E+00  0.00000000000E+00 -0.51658446375E+03  0.19653658609E+04  0.18962603880E+04 0.  0.
        3    1    3    3  502    0 -0.52936229285E+03 -0.72618044405E+03 -0.57161425692E+03  0.10650377192E+04  0.10100000352E+00 0. -1.
       -3    1    3    3    0  502  0.52936229285E+03  0.72618044405E+03  0.55029793169E+02  0.90032814170E+03  0.10100000352E+00 0.  1.
</event>
<event>
 5   0  0.2562925E-04  0.1866392E+04  0.7818609E-02  0.8671768E-01
        2   -1    0    0  501    0  0.00000000000E+00  0.00000000000E+00  0.86195083436E+03  0.86195083437E+03  0.25500000920E-02 0.  1.
       -2   -1    0    0    0  501  0.00000000000E+00  0.00000000000E+00 -0.10103303132E+04  0.10103303132E+04  0.25500000920E-02 0. -1.
    10030    2    1    2    0    0  0.00000000000E+00  0.00000000000E+00 -0.14837947879E+03  0.18722811475E+04  0.18663923022E+04 0.  0.
        4    1    3    3  502    0 -0.23355931829E+01  0.69333296989E+03 -0.70077029293E+03  0.98579748350E+03  0.12699999809E+01 0. -1.
       -4    1    3    3    0  502  0.23355931829E+01 -0.69333296989E+03  0.55239081414E+03  0.88648366402E+03  0.12699999809E+01 0.  1.
</event>
<event>
 5   0  0.1324058E-04  0.1873442E+04  0.7818609E-02  0.8668190E-01
        1   -1    0    0  501    0  0.00000000000E+00  0.00000000000E+00  0.77725181964E+03  0.77725181966E+03  0.50400001928E-02 0.  1.
       -1   -1    0    0    0  501  0.00000000000E+00  0.00000000000E+00 -0.11289079876E+04  0.11289079876E+04  0.50400001928E-02 0. -1.
    10030    2    1    2    0    0  0.00000000000E+00  0.00000000000E+00 -0.35165616796E+03  0.19061598073E+04  0.18734415258E+04 0.  0.
        5    1    3    3  502    0 -0.37097197378E+03  0.70822305455E+03  0.32077744988E+03  0.86146408089E+03  0.46999998093E+01 0.  1.
       -5    1    3    3    0  502  0.37097197378E+03 -0.70822305455E+03 -0.67243361785E+03  0.10446957264E+04  0.46999998093E+01 0. -1.
</event>
<event>
 5   0  0.1277709E-04  0.1929539E+04  0.7818609E-02  0.8640291E-01
        1   -1    0    0  501    0  0.00000000000E+00  0.00000000000E+00  0.10828597512E+04  0.10828597512E+04  0.50400001928E-02 0. -1.
       -1   -1    0    0    0  501  0.00000000000E+00  0.00000000000E+00 -0.85955743340E+03  0.85955743341E+03  0.50400001928E-02 0.  1.
    10030    2    1    2    0    0  0.00000000000E+00  0.00000000000E+00  0.22330231776E+03  0.19424171846E+04  0.19295389589E+04 0.  0.
        4    1    3    3  502    0  0.40675506307E+03  0.20620297879E+03  0.96750733978E+03  0.10695987169E+04  0.12699999809E+01 0. -1.
       -4    1    3    3    0  502 -0.40675506307E+03 -0.20620297879E+03 -0.74420502202E+03  0.87281846766E+03  0.12699999809E+01 0.  1.
</event>
<event>
 5   0  0.1255141E-04  0.1884220E+04  0.7818609E-02  0.8662751E-01
        1   -1    0    0  501    0  0.00000000000E+00  0.00000000000E+00  0.13516998442E+04  0.13516998442E+04  0.50400001928E-02 0.  1.
       -1   -1    0    0    0  501  0.00000000000E+00  0.00000000000E+00 -0.65663372986E+03  0.65663372988E+03  0.50400001928E-02 0. -1.
    10030    2    1    2    0    0  0.00000000000E+00  0.00000000000E+00  0.69506611434E+03  0.20083335741E+04  0.18842204864E+04 0.  0.
        2    1    3    3  502    0 -0.23804513825E+03  0.52206818160E+03 -0.44891561113E+03  0.72852309504E+03  0.25500000920E-02 0. -1.
       -2    1    3    3    0  502  0.23804513825E+03 -0.52206818160E+03  0.11439817255E+04  0.12798104791E+04  0.25500000920E-02 0.  1.
</event>
<event>
 5   0  0.2651828E-04  0.1866096E+04  0.7818609E-02  0.8671919E-01
        2   -1    0    0  501    0  0.00000000000E+00  0.00000000000E+00  0.14701906515E+04  0.14701906515E+04  0.25500000920E-02 0. -1.
       -2   -1    0    0    0  501  0.00000000000E+00  0.00000000000E+00 -0.59215368685E+03  0.59215368686E+03  0.25500000920E-02 0.  1.
    10030    2    1    2    0    0  0.00000000000E+00  0.00000000000E+00  0.87803696461E+03  0.20623443383E+04  0.18660962619E+04 0.  0.
        3    1    3    3  502    0  0.32326378883E+03 -0.10326302541E+03 -0.52153211619E+03  0.62222061040E+03  0.10100000352E+00 0.  1.
       -3    1    3    3    0  502 -0.32326378883E+03  0.10326302541E+03  0.13995690808E+04  0.14401237279E+04  0.10100000352E+00 0. -1.
</event>
<event>
 5   0  0.2562925E-04  0.1902557E+04  0.7818609E-02  0.8653584E-01
       -2   -1    0    0    0  501  0.00000000000E+00  0.00000000000E+00  0.52313994848E+03  0.52313994848E+03  0.25500000920E-02 0. -1.
        2   -1    0    0  501    0  0.00000000000E+00  0.00000000000E+00 -0.17298071455E+04  0.17298071455E+04  0.25500000920E-02 0.  1.
    10030    2    1    2    0    0  0.00000000000E+00  0.00000000000E+00 -0.12066671970E+04  0.22529470940E+04  0.19025574588E+04 0.  0.
        4    1    3    3  502    0  0.44193635696E+03  0.83911793339E+03 -0.69117744097E+03  0.11735222697E+04  0.12699999809E+01 0. -1.
       -4    1    3    3    0  502 -0.44193635696E+03 -0.83911793339E+03 -0.51548975607E+03  0.10794248243E+04  0.12699999809E+01 0.  1.
</event>
<event>
 5   0  0.2595012E-04  0.1871727E+04  0.7818609E-02  0.8669059E-01
       -2   -1    0    0    0  501  0.00000000000E+00  0.00000000000E+00  0.93732978105E+03  0.93732978106E+03  0.25500000920E-02 0. -1.
        2   -1    0    0  501    0  0.00000000000E+00  0.00000000000E+00 -0.93439926514E+03  0.93439926514E+03  0.25500000920E-02 0.  1.
    10030    2    1    2    0    0  0.00000000000E+00  0.00000000000E+00  0.29305159162E+01  0.18717290462E+04  0.18717267521E+04 0.  0.
        1    1    3    3  502    0  0.68914863982E+03  0.12212897708E+03  0.62275413601E+03  0.93683725841E+03  0.50400001928E-02 0. -1.
       -1    1    3    3    0  502 -0.68914863982E+03 -0.12212897708E+03 -0.61982362010E+03  0.93489178778E+03  0.50400001928E-02 0.  1.
</event>
<event>
 5   0  0.2651828E-04  0.1889359E+04  0.7818609E-02  0.8660171E-01
        2   -1    0    0  501    0  0.00000000000E+00  0.00000000000E+00  0.15956284893E+04  0.15956284893E+04  0.25500000920E-02 0.  1.
       -2   -1    0    0    0  501  0.00000000000E+00  0.00000000000E+00 -0.55928996827E+03  0.55928996827E+03  0.25500000920E-02 0. -1.
    10030    2    1    2    0    0  0.00000000000E+00  0.00000000000E+00  0.10363385210E+04  0.21549184575E+04  0.18893586289E+04 0.  0.
        3    1    3    3  502    0 -0.23122387158E+03  0.90626416981E+03  0.66965192360E+03  0.11503099292E+04  0.10100000352E+00 0.  1.
       -3    1    3    3    0  502  0.23122387158E+03 -0.90626416981E+03  0.36668659740E+03  0.10046085283E+04  0.10100000352E+00 0. -1.
</event>
<event>
 5   0  0.1324058E-04  0.1897186E+04  0.7818609E-02  0.8656258E-01
        1   -1    0    0  501    0  0.00000000000E+00  0.00000000000E+00  0.21161026632E+04  0.21161026632E+04  0.50400001928E-02 0. -1.
       -1   -1    0    0    0  501  0.00000000000E+00  0.00000000000E+00 -0.42522911141E+03  0.42522911144E+03  0.50400001928E-02 0.  1.
    10030    2    1    2    0    0  0.00000000000E+00  0.00000000000E+00  0.16908735518E+04  0.25413317747E+04  0.18971857634E+04 0.  0.
        5    1    3    3  502    0  0.10954087587E+03  0.58438564588E+03  0.18355100554E+04  0.19294105422E+04  0.46999998093E+01 0. -1.
       -5    1    3    3    0  502 -0.10954087587E+03 -0.58438564588E+03 -0.14463650363E+03  0.61192123250E+03  0.46999998093E+01 0.  1.
</event>
<event>
 5   0  0.1277709E-04  0.1933713E+04  0.7818609E-02  0.8638255E-01
       -1   -1    0    0    0  501  0.00000000000E+00  0.00000000000E+00  0.65722039535E+03  0.65722039537E+03  0.50400001928E-02 0. -1.
        1   -1    0    0  501    0  0.00000000000E+00  0.00000000000E+00 -0.14223721177E+04  0.14223721177E+04  0.50400001928E-02 0.  1.
    10030    2    1    2    0    0  0.00000000000E+00  0.00000000000E+00 -0.76515172239E+03  0.20795925131E+04  0.19337134902E+04 0.  0.
        4    1    3    3  502    0  0.95318134990E+03 -0.64860217620E+02 -0.22288546999E+03  0.98104081427E+03  0.12699999809E+01 0. -1.
       -4    1    3    3    0  502 -0.95318134990E+03  0.64860217620E+02 -0.54226625240E+03  0.10985516988E+04  0.12699999809E+01 0.  1.
</event>
<event>
 5   0  0.1324058E-04  0.1947387E+04  0.7818609E-02  0.8631622E-01
       -1   -1    0    0    0  501  0.00000000000E+00  0.00000000000E+00  0.14050978117E+04  0.14050978117E+04  0.50400001928E-02 0. -1.
        1   -1    0    0  501    0  0.00000000000E+00  0.00000000000E+00 -0.67474244688E+03  0.67474244690E+03  0.50400001928E-02 0.  1.
    10030    2    1    2    0    0  0.00000000000E+00  0.00000000000E+00  0.73035536485E+03  0.20798402586E+04  0.19473871065E+04 0.  0.
        5    1    3    3  502    0  0.32360282039E+03  0.98571250630E+02 -0.60995175183E+03  0.69749430562E+03  0.46999998093E+01 0.  1.
       -5    1    3    3    0  502 -0.32360282039E+03 -0.98571250630E+02  0.13403071167E+04  0.13823459530E+04  0.46999998093E+01 0. -1.
</event>
<event>
 5   0  0.1317527E-04  0.1946140E+04  0.7818609E-02  0.8632225E-01
       -1   -1    0    0    0  501  0.00000000000E+00  0.00000000000E+00  0.13373628597E+04  0.13373628597E+04  0.50400001928E-02 0. -1.
        1   -1    0    0  501    0  0.00000000000E+00  0.00000000000E+00 -0.70800891634E+03  0.70800891636E+03  0.50400001928E-02 0.  1.
    10030    2    1    2    0    0  0.00000000000E+00  0.00000000000E+00  0.62935394332E+03  0.20453717760E+04  0.19461395932E+04 0.  0.
        1    1    3    3  502    0  0.31759340267E+03 -0.84924853477E+03  0.68592497236E+03  0.11369176360E+04  0.50400001928E-02 0. -1.
       -1    1    3    3    0  502 -0.31759340267E+03  0.84924853477E+03 -0.56571029045E+02  0.90845414006E+03  0.50400001928E-02 0.  1.
</event>
<event>
 5   0  0.2562925E-04  0.1918603E+04  0.7818609E-02  0.8645651E-01
        2   -1    0    0  501    0  0.00000000000E+00  0.00000000000E+00  0.44589142942E+03  0.44589142943E+03  0.25500000920E-02 0.  1.
       -2   -1    0    0    0  501  0.00000000000E+00  0.00000000000E+00 -0.20638651289E+04  0.20638651289E+04  0.25500000920E-02 0. -1.
    10030    2    1    2    0    0  0.00000000000E+00  0.00000000000E+00 -0.16179736995E+04  0.25097565583E+04  0.19186034217E+04 0.  0.
        4    1    3    3  502    0  0.65720721359E+03 -0.67763854595E+03 -0.58567472088E+03  0.11109148537E+04  0.12699999809E+01 0.  1.
       -4    1    3    3    0  502 -0.65720721359E+03  0.67763854595E+03 -0.10322989786E+04  0.13988417047E+04  0.12699999809E+01 0. -1.
</event>
<event>
 5   0  0.2595012E-04  0.1859830E+04  0.7818609E-02  0.8675114E-01
       -2   -1    0    0    0  501  0.00000000000E+00  0.00000000000E+00  0.44573282000E+03  0.44573282000E+03  0.25500000920E-02 0. -1.
        2   -1    0    0  501    0  0.00000000000E+00  0.00000000000E+00 -0.19400461678E+04  0.19400461678E+04  0.25500000920E-02 0.  1.
    10030    2    1    2    0    0  0.00000000000E+00  0.00000000000E+00 -0.14943133478E+04  0.23857789878E+04  0.18598303679E+04 0.  0.
        1    1    3    3  502    0 -0.45909341131E+03 -0.34453106221E+03  0.19136624474E+03  0.60505326443E+03  0.50400001928E-02 0. -1.
       -1    1    3    3    0  502  0.45909341131E+03  0.34453106221E+03 -0.16856795925E+04  0.17807257234E+04  0.50400001928E-02 0.  1.
</event>
<event>
 5   0  0.2608744E-04  0.1909554E+04  0.7818609E-02  0.8650115E-01
        2   -1    0    0  501    0  0.00000000000E+00  0.00000000000E+00  0.52331314335E+03  0.52331314336E+03  0.25500000920E-02 0. -1.
       -2   -1    0    0    0  501  0.00000000000E+00  0.00000000000E+00 -0.17419761835E+04  0.17419761835E+04  0.25500000920E-02 0.  1.
    10030    2    1    2    0    0  0.00000000000E+00  0.00000000000E+00 -0.12186630401E+04  0.22652893268E+04  0.19095539083E+04 0.  0.
        2    1    3    3  502    0 -0.66898416707E+03 -0.43448254772E+03 -0.12317498081E+04  0.14674884973E+04  0.25500000920E-02 0.  1.
       -2    1    3    3    0  502  0.66898416707E+03  0.43448254772E+03  0.13086767951E+02  0.79780082951E+03  0.25500000920E-02 0. -1.
</event>
<event>
 5   0  0.1239615E-04  0.1531948E+04  0.7818609E-02  0.8863481E-01
        1   -1    0    0  501    0  0.00000000000E+00  0.00000000000E+00  0.12217134536E+04  0.12217134536E+04  0.50400001928E-02 0. -1.
       -1   -1    0    0    0  501  0.00000000000E+00  0.00000000000E+00 -0.48024044680E+03  0.48024044683E+03  0.50400001928E-02 0.  1.
    10030    2    1    2    0    0  0.00000000000E+00  0.00000000000E+00  0.74147300677E+03  0.17019539004E+04  0.15319480603E+04 0.  0.
        3    1    3    3  502    0 -0.49348050065E+03  0.53575037433E+03  0.10744574567E+03  0.73627173420E+03  0.10100000352E+00 0.  1.
       -3    1    3    3    0  502  0.49348050065E+03 -0.53575037433E+03  0.63402726111E+03  0.96568216621E+03  0.10100000352E+00 0. -1.
</event>
<event>
 5   0  0.2651828E-04  0.1914532E+04  0.7818609E-02  0.8647656E-01
       -2   -1    0    0    0  501  0.00000000000E+00  0.00000000000E+00  0.14946669810E+04  0.14946669810E+04  0.25500000920E-02 0. -1.
        2   -1    0    0  501    0  0.00000000000E+00  0.00000000000E+00 -0.61308542300E+03  0.61308542301E+03  0.25500000920E-02 0.  1.
    10030    2    1    2    0    0  0.00000000000E+00  0.00000000000E+00  0.88158155804E+03  0.21077524040E+04  0.19145323589E+04 0.  0.
        3    1    3    3  502    0  0.43326659968E+03 -0.49364733750E+03 -0.32587444072E+03  0.73321333972E+03  0.10100000352E+00 0.  1.
       -3    1    3    3    0  502 -0.43326659968E+03  0.49364733750E+03  0.12074559988E+04  0.13745390643E+04  0.10100000352E+00 0. -1.
</event>
<event>
 5   0  0.2541124E-04  0.1899368E+04  0.7818609E-02  0.8655171E-01
        2   -1    0    0  501    0  0.00000000000E+00  0.00000000000E+00  0.11321988364E+04  0.11321988365E+04  0.25500000920E-02 0.  1.
       -2   -1    0    0    0  501  0.00000000000E+00  0.00000000000E+00 -0.79659159400E+03  0.79659159400E+03  0.25500000920E-02 0. -1.
    10030    2    1    2    0    0  0.00000000000E+00  0.00000000000E+00  0.33560724245E+03  0.19287904305E+04  0.18993683959E+04 0.  0.
        5    1    3    3  502    0  0.58315526270E+03 -0.32328575365E+03  0.85451414681E+03  0.10838820305E+04  0.46999998093E+01 0.  1.
       -5    1    3    3    0  502 -0.58315526270E+03  0.32328575365E+03 -0.51890690436E+03  0.84490839996E+03  0.46999998093E+01 0. -1.
</event>
<event>
 5   0  0.2595012E-04  0.1911078E+04  0.7818609E-02  0.8649362E-01
       -2   -1    0    0    0  501  0.00000000000E+00  0.00000000000E+00  0.86170650583E+03  0.86170650583E+03  0.25500000920E-02 0. -1.
        2   -1    0    0  501    0  0.00000000000E+00  0.00000000000E+00 -0.10595894808E+04  0.10595894808E+04  0.25500000920E-02 0.  1.
    10030    2    1    2    0    0  0.00000000000E+00  0.00000000000E+00 -0.19788297496E+03  0.19212959866E+04  0.19110783857E+04 0.  0.
        1    1    3    3  502    0 -0.12106703185E+03 -0.87208858028E+03 -0.47222088095E+03  0.99909372858E+03  0.50400001928E-02 0.  1.
       -1    1    3    3    0  502  0.12106703185E+03  0.87208858028E+03  0.27433790599E+03  0.92220225805E+03  0.50400001928E-02 0. -1.
</event>
<event>
 5   0  0.1239615E-04  0.1833702E+04  0.7818609E-02  0.8688580E-01
       -1   -1    0    0    0  501  0.00000000000E+00  0.00000000000E+00  0.11381584021E+04  0.11381584021E+04  0.50400001928E-02 0.  1.
        1   -1    0    0  501    0  0.00000000000E+00  0.00000000000E+00 -0.73857498718E+03  0.73857498719E+03  0.50400001928E-02 0. -1.
    10030    2    1    2    0    0  0.00000000000E+00  0.00000000000E+00  0.39958341488E+03  0.18767333893E+04  0.18337015321E+04 0.  0.
        3    1    3    3  502    0  0.30513384481E+03 -0.28829304428E+03  0.10340247041E+04  0.11159868465E+04  0.10100000352E+00 0.  1.
       -3    1    3    3    0  502 -0.30513384481E+03  0.28829304428E+03 -0.63444128924E+03  0.76074654276E+03  0.10100000352E+00 0. -1.
</event>
<event>
 5   0  0.1277709E-04  0.1911487E+04  0.7818609E-02  0.8649160E-01
        1   -1    0    0  501    0  0.00000000000E+00  0.00000000000E+00  0.13496027618E+04  0.13496027619E+04  0.50400001928E-02 0. -1.
       -1   -1    0    0    0  501  0.00000000000E+00  0.00000000000E+00 -0.67682539970E+03  0.67682539972E+03  0.50400001928E-02 0.  1.
    10030    2    1    2    0    0  0.00000000000E+00  0.00000000000E+00  0.67277736215E+03  0.20264281616E+04  0.19114867813E+04 0.  0.
        4    1    3    3  502    0 -0.13830995201E+03  0.25668230778E+03 -0.62852262184E+03  0.69286199854E+03  0.12699999809E+01 0.  1.
       -4    1    3    3    0  502  0.13830995201E+03 -0.25668230778E+03  0.13012999840E+04  0.13335661630E+04  0.12699999809E+01 0. -1.
</event>
<event>
 5   0  0.1239615E-04  0.1855469E+04  0.7818609E-02  0.8677345E-01
       -1   -1    0    0    0  501  0.00000000000E+00  0.00000000000E+00  0.86074774037E+03  0.86074774039E+03  0.50400001928E-02 0. -1.
        1   -1    0    0  501    0  0.00000000000E+00  0.00000000000E+00 -0.99993482818E+03  0.99993482819E+03  0.50400001928E-02 0.  1.
    10030    2    1    2    0    0  0.00000000000E+00  0.00000000000E+00 -0.13918708780E+03  0.18606825686E+04  0.18554693680E+04 0.  0.
        3    1    3    3  502    0  0.60607567776E+03  0.61058166229E+03  0.27859077246E+03  0.90429559448E+03  0.10100000352E+00 0. -1.
       -3    1    3    3    0  502 -0.60607567776E+03 -0.61058166229E+03 -0.41777786027E+03  0.95638697410E+03  0.10100000352E+00 0.  1.
</event>
<event>
 5   0  0.2562925E-04  0.1923125E+04  0.7818609E-02  0.8643431E-01
       -2   -1    0    0    0  501  0.00000000000E+00  0.00000000000E+00  0.62620742594E+03  0.62620742594E+03  0.25500000920E-02 0. -1.
        2   -1    0    0  501    0  0.00000000000E+00  0.00000000000E+00 -0.14765110555E+04  0.14765110555E+04  0.25500000920E-02 0.  1.
    10030    2    1    2    0    0  0.00000000000E+00  0.00000000000E+00 -0.85030362952E+03  0.21027184814E+04  0.19231247359E+04 0.  0.
        4    1    3    3  502    0 -0.90968556331E+03 -0.51648561871E+02 -0.89204184359E+02  0.91550772659E+03  0.12699999809E+01 0. -1.
       -4    1    3    3    0  502  0.90968556331E+03  0.51648561871E+02 -0.76109944516E+03  0.11872107548E+04  0.12699999809E+01 0.  1.
</event>
<event>
 5   0  0.2541124E-04  0.2070518E+04  0.7818609E-02  0.8574343E-01
       -2   -1    0    0    0  501  0.00000000000E+00  0.00000000000E+00  0.70759709203E+03  0.70759709203E+03  0.25500000920E-02 0. -1.
        2   -1    0    0  501    0  0.00000000000E+00  0.00000000000E+00 -0.15146485377E+04  0.15146485378E+04  0.25500000920E-02 0.  1.
    10030    2    1    2    0    0  0.00000000000E+00  0.00000000000E+00 -0.80705144572E+03  0.22222456298E+04  0.20705177138E+04 0.  0.
        5    1    3    3  502    0 -0.25332016216E+03  0.87429695459E+01  0.67376707285E+03  0.71988311727E+03  0.46999998093E+01 0. -1.
       -5    1    3    3    0  502  0.25332016216E+03 -0.87429695459E+01 -0.14808185186E+04  0.15023625125E+04  0.46999998093E+01 0.  1.
</event>
<event>
 5   0  0.2608744E-04  0.1879620E+04  0.7818609E-02  0.8665068E-01
       -2   -1    0    0    0  501  0.00000000000E+00  0.00000000000E+00  0.18558657446E+04  0.18558657446E+04  0.25500000920E-02 0.  1.
        2   -1    0    0  501    0  0.00000000000E+00  0.00000000000E+00 -0.47591941267E+03  0.47591941268E+03  0.25500000920E-02 0. -1.
    10030    2    1    2    0    0  0.00000000000E+00  0.00000000000E+00  0.13799463319E+04  0.23317851573E+04  0.18796196798E+04 0.  0.
        2    1    3    3  502    0 -0.57688929459E+03 -0.53356236256E+03  0.13294977073E+04  0.15443620711E+04  0.25500000920E-02 0.  1.
       -2    1    3    3    0  502  0.57688929459E+03  0.53356236256E+03  0.50448624657E+02  0.78742308620E+03  0.25500000920E-02 0. -1.
</event>
<event>
 5   0  0.2651828E-04  0.1814743E+04  0.7818609E-02  0.8698498E-01
        2   -1    0    0  501    0  0.00000000000E+00  0.00000000000E+00  0.94223566313E+03  0.94223566313E+03  0.25500000920E-02 0.  1.
       -2   -1    0    0    0  501  0.00000000000E+00  0.00000000000E+00 -0.87379771920E+03  0.87379771921E+03  0.25500000920E-02 0. -1.
    10030    2    1    2    0    0  0.00000000000E+00  0.00000000000E+00  0.68437943929E+02  0.18160333823E+04  0.18147433685E+04 0.  0.
        3    1    3    3  502    0 -0.68626120662E+03 -0.54032684774E+03 -0.21175204468E+03  0.89874717509E+03  0.10100000352E+00 0. -1.
       -3    1    3    3    0  502  0.68626120662E+03  0.54032684774E+03  0.28018998860E+03  0.91728620725E+03  0.10100000352E+00 0.  1.
</event>
<event>
 5   0  0.2608744E-04  0.1930279E+04  0.7818609E-02  0.8639930E-01
       -2   -1    0    0    0  501  0.00000000000E+00  0.00000000000E+00  0.10361249654E+04  0.10361249654E+04  0.25500000920E-02 0. -1.
        2   -1    0    0  501    0  0.00000000000E+00  0.00000000000E+00 -0.89901718971E+03  0.89901718971E+03  0.25500000920E-02 0.  1.
    10030    2    1    2    0    0  0.00000000000E+00  0.00000000000E+00  0.13710777567E+03  0.19351421551E+04  0.19302788965E+04 0.  0.
        2    1    3    3  502    0 -0.55351054039E+03 -0.82722649839E+02 -0.71973322497E+03  0.91171973229E+03  0.25500000920E-02 0.  1.
       -2    1    3    3    0  502  0.55351054039E+03  0.82722649839E+02  0.85684100064E+03  0.10234224228E+04  0.25500000920E-02 0. -1.
</event>
<event>
 5   0  0.2651828E-04  0.1929317E+04  0.7818609E-02  0.8640399E-01
       -2   -1    0    0    0  501  0.00000000000E+00  0.00000000000E+00  0.83341666318E+03  0.83341666319E+03  0.25500000920E-02 0. -1.
        2   -1    0    0  501    0  0.00000000000E+00  0.00000000000E+00 -0.11165680594E+04  0.11165680594E+04  0.25500000920E-02 0.  1.
    10030    2    1    2    0    0  0.00000000000E+00  0.00000000000E+00 -0.28315139625E+03  0.19499847226E+04  0.19293174195E+04 0.  0.
        3    1    3    3  502    0 -0.30487526713E+03  0.85948768173E+03 -0.45942567466E+03  0.10211463971E+04  0.10100000352E+00 0.  1.
       -3    1    3    3    0  502  0.30487526713E+03 -0.85948768173E+03  0.17627427841E+03  0.92883832554E+03  0.10100000352E+00 0. -1.
</event>
<event>
 5   0  0.2651828E-04  0.1844804E+04  0.7818609E-02  0.8682829E-01
        2   -1    0    0  501    0  0.00000000000E+00  0.00000000000E+00  0.12888397674E+04  0.12888397674E+04  0.25500000920E-02 0.  1.
       -2   -1    0    0    0  501  0.00000000000E+00  0.00000000000E+00 -0.66014861121E+03  0.66014861122E+03  0.25500000920E-02 0. -1.
    10030    2    1    2    0    0  0.00000000000E+00  0.00000000000E+00  0.62869115618E+03  0.19489883786E+04  0.18448043609E+04 0.  0.
        3    1    3    3  502    0  0.15881713753E+03  0.45689370591E+03 -0.51540789765E+03  0.70683806691E+03  0.10100000352E+00 0. -1.
       -3    1    3    3    0  502 -0.15881713753E+03 -0.45689370591E+03  0.11440990538E+04  0.12421503117E+04  0.10100000352E+00 0.  1.
</event>
<event>
 5   0  0.2562925E-04  0.1928638E+04  0.7818609E-02  0.8640732E-01
        2   -1    0    0  501    0  0.00000000000E+00  0.00000000000E+00  0.70777248807E+03  0.70777248807E+03  0.25500000920E-02 0.  1.
       -2   -1    0    0    0  501  0.00000000000E+00  0.00000000000E+00 -0.13138554004E+04  0.13138554004E+04  0.25500000920E-02 0. -1.
    10030    2    1    2    0    0  0.00000000000E+00  0.00000000000E+00 -0.60608291234E+03  0.20216278885E+04  0.19286375561E+04 0.  0.
        4    1    3    3  502    0 -0.79989876801E+03 -0.24051072827E+03 -0.80817439375E+03  0.11622525169E+04  0.12699999809E+01 0. -1.
       -4    1    3    3    0  502  0.79989876801E+03  0.24051072827E+03  0.20209148141E+03  0.85937537156E+03  0.12699999809E+01 0.  1.
</event>
<event>
 5   0  0.1324058E-04  0.1936204E+04  0.7818609E-02  0.8637042E-01
       -1   -1    0    0    0  501  0.00000000000E+00  0.00000000000E+00  0.11721369289E+04  0.11721369289E+04  0.50400001928E-02 0.  1.
        1   -1    0    0  501    0  0.00000000000E+00  0.00000000000E+00 -0.79958389151E+03  0.79958389153E+03  0.50400001928E-02 0. -1.
    10030    2    1    2    0    0  0.00000000000E+00  0.00000000000E+00  0.37255303737E+03  0.19717208204E+04  0.19362043353E+04 0.  0.
        5    1    3    3  502    0 -0.26746817073E+03  0.67053641951E+02  0.11312883460E+04  0.11644186640E+04  0.46999998093E+01 0.  1.
       -5    1    3    3    0  502  0.26746817073E+03 -0.67053641951E+02 -0.75873530862E+03  0.80730215644E+03  0.46999998093E+01 0. -1.
</event>
<event>
 5   0  0.1255141E-04  0.1916570E+04  0.7818609E-02  0.8646652E-01
       -1   -1    0    0    0  501  0.00000000000E+00  0.00000000000E+00  0.12191859015E+04  0.12191859015E+04  0.50400001928E-02 0.  1.
        1   -1    0    0  501    0  0.00000000000E+00  0.00000000000E+00 -0.75321602514E+03  0.75321602516E+03  0.50400001928E-02 0. -1.
    10030    2    1    2    0    0  0.00000000000E+00  0.00000000000E+00  0.46596987633E+03  0.19724019266E+04  0.19165702269E+04 0.  0.
        2    1    3    3  502    0 -0.15760761658E+03  0.91725274337E+03  0.46792814695E+03  0.10417050959E+04  0.25500000920E-02 0.  1.
       -2    1    3    3    0  502  0.15760761658E+03 -0.91725274337E+03 -0.19582706146E+01  0.93069683079E+03  0.25500000920E-02 0. -1.
</event>
<event>
 5   0  0.1255141E-04  0.1867722E+04  0.7818609E-02  0.8671092E-01
        1   -1    0    0  501    0  0.00000000000E+00  0.00000000000E+00  0.14148574668E+04  0.14148574668E+04  0.50400001928E-02 0.  1.
       -1   -1    0    0    0  501  0.00000000000E+00  0.00000000000E+00 -0.61638491006E+03  0.61638491008E+03  0.50400001928E-02 0. -1.
    10030    2    1    2    0    0  0.00000000000E+00  0.00000000000E+00  0.79847255677E+03  0.20312423769E+04  0.18677224553E+04 0.  0.
        2    1    3    3  502    0  0.20552732740E+03  0.51447093843E+03 -0.41836368951E+03  0.69422619189E+03  0.25500000920E-02 0. -1.
       -2    1    3    3    0  502 -0.20552732740E+03 -0.51447093843E+03  0.12168362463E+04  0.13370161850E+04  0.25500000920E-02 0.  1.
</event>
<event>
 5   0  0.1239615E-04  0.1894721E+04  0.7818609E-02  0.8657489E-01
        1   -1    0    0  501    0  0.00000000000E+00  0.00000000000E+00  0.11877383947E+04  0.11877383947E+04  0.50400001928E-02 0.  1.
       -1   -1    0    0    0  501  0.00000000000E+00  0.00000000000E+00 -0.75563065095E+03  0.75563065096E+03  0.50400001928E-02 0. -1.
    10030    2    1    2    0    0  0.00000000000E+00  0.00000000000E+00  0.43210774373E+03  0.19433690456E+04  0.18947205982E+04 0.  0.
        3    1    3    3  502    0  0.80841685759E+03  0.49134094419E+03  0.26772378060E+03  0.98317331736E+03  0.10100000352E+00 0.  1.
       -3    1    3    3    0  502 -0.80841685759E+03 -0.49134094419E+03  0.16438396313E+03  0.96019572828E+03  0.10100000352E+00 0. -1.
</event>
<event>
 5   0  0.2595012E-04  0.1893601E+04  0.7818609E-02  0.8658048E-01
        2   -1    0    0  501    0  0.00000000000E+00  0.00000000000E+00  0.11668471474E+04  0.11668471474E+04  0.25500000920E-02 0.  1.
       -2   -1    0    0    0  501  0.00000000000E+00  0.00000000000E+00 -0.76825089613E+03  0.76825089613E+03  0.25500000920E-02 0. -1.
    10030    2    1    2    0    0  0.00000000000E+00  0.00000000000E+00  0.39859625124E+03  0.19350980435E+04  0.18936011899E+04 0.  0.
        1    1    3    3  502    0  0.43776687926E+03  0.68524888460E+02  0.10543514750E+04  0.11436750123E+04  0.50400001928E-02 0.  1.
       -1    1    3    3    0  502 -0.43776687926E+03 -0.68524888460E+02 -0.65575522372E+03  0.79142303124E+03  0.50400001928E-02 0. -1.
</event>
<event>
 5   0  0.1239615E-04  0.1898568E+04  0.7818609E-02  0.8655569E-01
       -1   -1    0    0    0  501  0.00000000000E+00  0.00000000000E+00  0.64577946932E+03  0.64577946934E+03  0.50400001928E-02 0.  1.
        1   -1    0    0  501    0  0.00000000000E+00  0.00000000000E+00 -0.13954307426E+04  0.13954307426E+04  0.50400001928E-02 0. -1.
    10030    2    1    2    0    0  0.00000000000E+00  0.00000000000E+00 -0.74965127325E+03  0.20412102119E+04  0.18985684338E+04 0.  0.
        3    1    3    3  502    0  0.18072461511E+03 -0.12950213324E+03  0.61739195514E+03  0.65620501788E+03  0.10100000352E+00 0.  1.
       -3    1    3    3    0  502 -0.18072461511E+03  0.12950213324E+03 -0.13670432284E+04  0.13850051940E+04  0.10100000352E+00 0. -1.
</event>
<event>
 5   0  0.2651828E-04  0.1891031E+04  0.7818609E-02  0.8659334E-01
        2   -1    0    0  501    0  0.00000000000E+00  0.00000000000E+00  0.10774457906E+04  0.10774457906E+04  0.25500000920E-02 0.  1.
       -2   -1    0    0    0  501  0.00000000000E+00  0.00000000000E+00 -0.82973951455E+03  0.82973951455E+03  0.25500000920E-02 0. -1.
    10030    2    1    2    0    0  0.00000000000E+00  0.00000000000E+00  0.24770627602E+03  0.19071853051E+04  0.18910307742E+04 0.  0.
        3    1    3    3  502    0  0.27746076003E+02  0.83344792016E+03  0.57329903380E+03  0.10119669326E+04  0.10100000352E+00 0. -1.
       -3    1    3    3    0  502 -0.27746076003E+02 -0.83344792016E+03 -0.32559275778E+03  0.89521837251E+03  0.10100000352E+00 0.  1.
</event>
<event>
 5   0  0.1317527E-04  0.1902146E+04  0.7818609E-02  0.8653789E-01
        1   -1    0    0  501    0  0.00000000000E+00  0.00000000000E+00  0.15315489630E+04  0.15315489630E+04  0.50400001928E-02 0.  1.
       -1   -1    0    0    0  501  0.00000000000E+00  0.00000000000E+00 -0.59060448186E+03  0.59060448189E+03  0.50400001928E-02 0. -1.
    10030    2    1    2    0    0  0.00000000000E+00  0.00000000000E+00  0.94094448114E+03  0.21221534449E+04  0.19021458217E+04 0.  0.
        1    1    3    3  502    0  0.59313576153E+03 -0.29256428378E+02 -0.35833364939E+03  0.69359135989E+03  0.50400001928E-02 0. -1.
       -1    1    3    3    0  502 -0.59313576153E+03  0.29256428378E+02  0.12992781305E+04  0.14285620850E+04  0.50400001928E-02 0.  1.
</event>
<event>
 5   0  0.2562925E-04  0.1562227E+04  0.7818609E-02  0.8844095E-01
        2   -1    0    0  501    0  0.00000000000E+00  0.00000000000E+00  0.90263663015E+03  0.90263663015E+03  0.25500000920E-02 0. -1.
       -2   -1    0    0    0  501  0.00000000000E+00  0.00000000000E+00 -0.67595126440E+03  0.67595126440E+03  0.25500000920E-02 0.  1.
    10030    2    1    2    0    0  0.00000000000E+00  0.00000000000E+00  0.22668536575E+03  0.15785878946E+04  0.15622270916E+04 0.  0.
        4    1    3    3  502    0 -0.92797993783E+02  0.34366891204E+03 -0.58922076166E+03  0.68840577251E+03  0.12699999809E+01 0.  1.
       -4    1    3    3    0  502  0.92797993783E+02 -0.34366891204E+03  0.81590612741E+03  0.89018212204E+03  0.12699999809E+01 0. -1.
</event>
<event>
 5   0  0.2562925E-04  0.1891302E+04  0.7818609E-02  0.8659198E-01
       -2   -1    0    0    0  501  0.00000000000E+00  0.00000000000E+00  0.70845196211E+03  0.70845196211E+03  0.25500000920E-02 0.  1.
        2   -1    0    0  501    0  0.00000000000E+00  0.00000000000E+00 -0.12622680312E+04  0.12622680312E+04  0.25500000920E-02 0. -1.
    10030    2    1    2    0    0  0.00000000000E+00  0.00000000000E+00 -0.55381606906E+03  0.19707199933E+04  0.18913024754E+04 0.  0.
        4    1    3    3  502    0  0.17362246750E+03  0.54129201238E+03  0.51054542668E+03  0.76406809218E+03  0.12699999809E+01 0.  1.
       -4    1    3    3    0  502 -0.17362246750E+03 -0.54129201238E+03 -0.10643614957E+04  0.12066519011E+04  0.12699999809E+01 0. -1.
</event>
<event>
 5   0  0.1324058E-04  0.1384528E+04  0.7818609E-02  0.8965094E-01
        1   -1    0    0  501    0  0.00000000000E+00  0.00000000000E+00  0.91986391984E+03  0.91986391985E+03  0.50400001928E-02 0. -1.
       -1   -1    0    0    0  501  0.00000000000E+00  0.00000000000E+00 -0.52097897624E+03  0.52097897627E+03  0.50400001928E-02 0.  1.
    10030    2    1    2    0    0  0.00000000000E+00  0.00000000000E+00  0.39888494360E+03  0.14408428961E+04  0.13845284587E+04 0.  0.
        5    1    3    3  502    0 -0.58818852675E+03  0.25876766962E+03  0.46736547376E+03  0.79459362312E+03  0.46999998093E+01 0.  1.
       -5    1    3    3    0  502  0.58818852675E+03 -0.25876766962E+03 -0.68480530164E+02  0.64624927300E+03  0.46999998093E+01 0. -1.
</event>
<event>
 5   0  0.1239615E-04  0.1872071E+04  0.7818609E-02  0.8668884E-01
        1   -1    0    0  501    0  0.00000000000E+00  0.00000000000E+00  0.89376424674E+03  0.89376424676E+03  0.50400001928E-02 0. -1.
       -1   -1    0    0    0  501  0.00000000000E+00  0.00000000000E+00 -0.98030643345E+03  0.98030643346E+03  0.50400001928E-02 0.  1.
    10030    2    1    2    0    0  0.00000000000E+00  0.00000000000E+00 -0.86542186707E+02  0.18740706802E+04  0.18720714101E+04 0.  0.
        3    1    3    3  502    0 -0.21665093548E+03 -0.35906321785E+03 -0.88100337111E+03  0.97572074507E+03  0.10100000352E+00 0.  1.
       -3    1    3    3    0  502  0.21665093548E+03  0.35906321785E+03  0.79446118440E+03  0.89834993515E+03  0.10100000352E+00 0. -1.
</event>
<event>
 5   0  0.1255141E-04  0.1835143E+04  0.7818609E-02  0.8687831E-01
       -1   -1    0    0    0  501  0.00000000000E+00  0.00000000000E+00  0.87696379933E+03  0.87696379934E+03  0.50400001928E-02 0. -1.
        1   -1    0    0  501    0  0.00000000000E+00  0.00000000000E+00 -0.96005967585E+03  0.96005967586E+03  0.50400001928E-02 0.  1.
    10030    2    1    2    0    0  0.00000000000E+00  0.00000000000E+00 -0.83095876518E+02  0.18370234752E+04  0.18351431344E+04 0.  0.
        2    1    3    3  502    0 -0.19338894455E+03 -0.17753323047E+03 -0.92166450927E+03  0.95832290980E+03  0.25500000920E-02 0.  1.
       -2    1    3    3    0  502  0.19338894455E+03  0.17753323047E+03  0.83856863275E+03  0.87870056540E+03  0.25500000920E-02 0. -1.
</event>
<event>
 5   0  0.2562925E-04  0.1369648E+04  0.7818609E-02  0.8976087E-01
        2   -1    0    0  501    0  0.00000000000E+00  0.00000000000E+00  0.11342631178E+04  0.11342631178E+04  0.25500000920E-02 0.  1.
       -2   -1    0    0    0  501  0.00000000000E+00  0.00000000000E+00 -0.41346988966E+03  0.41346988966E+03  0.25500000920E-02 0. -1.
    10030    2    1    2    0    0  0.00000000000E+00  0.00000000000E+00  0.72079322817E+03  0.15477330075E+04  0.13696476133E+04 0.  0.
        4    1    3    3  502    0  0.62127323184E+03 -0.28000821553E+03  0.28377970345E+03  0.73818531708E+03  0.12699999809E+01 0.  1.
       -4    1    3    3    0  502 -0.62127323184E+03  0.28000821553E+03  0.43701352472E+03  0.80954769041E+03  0.12699999809E+01 0. -1.
</event>
<event>
 5   0  0.1239615E-04  0.1913679E+04  0.7818609E-02  0.8648077E-01
        1   -1    0    0  501    0  0.00000000000E+00  0.00000000000E+00  0.15992317061E+04  0.15992317061E+04  0.50400001928E-02 0.  1.
       -1   -1    0    0    0  501  0.00000000000E+00  0.00000000000E+00 -0.57248874313E+03  0.57248874315E+03  0.50400001928E-02 0. -1.
    10030    2    1    2    0    0  0.00000000000E+00  0.00000000000E+00  0.10267429630E+04  0.21717204493E+04  0.19136793352E+04 0.  0.
        3    1    3    3  502    0  0.74070547193E+03 -0.60278037704E+03  0.58101938897E+03  0.11178427079E+04  0.10100000352E+00 0. -1.
       -3    1    3    3    0  502 -0.74070547193E+03  0.60278037704E+03  0.44572357402E+03  0.10538777414E+04  0.10100000352E+00 0.  1.
</event>
<event>
 5   0  0.2608744E-04  0.1877401E+04  0.7818609E-02  0.8666188E-01
       -2   -1    0    0    0  501  0.00000000000E+00  0.00000000000E+00  0.10379492391E+04  0.10379492391E+04  0.25500000920E-02 0. -1.
        2   -1    0    0  501    0  0.00000000000E+00  0.00000000000E+00 -0.84894172564E+03  0.84894172565E+03  0.25500000920E-02 0.  1.
    10030    2    1    2    0    0  0.00000000000E+00  0.00000000000E+00  0.18900751348E+03  0.18868909648E+04  0.18774007758E+04 0.  0.
        2    1    3    3  502    0 -0.50420105134E+02 -0.49110076759E+03 -0.70792816391E+03  0.86306687817E+03  0.25500000920E-02 0.  1.
       -2    1    3    3    0  502  0.50420105134E+02  0.49110076759E+03  0.89693567739E+03  0.10238240866E+04  0.25500000920E-02 0. -1.
</event>
<event>
 5   0  0.2562925E-04  0.1909547E+04  0.7818609E-02  0.8650119E-01
        2   -1    0    0  501    0  0.00000000000E+00  0.00000000000E+00  0.12224085961E+04  0.12224085961E+04  0.25500000920E-02 0. -1.
       -2   -1    0    0    0  501  0.00000000000E+00  0.00000000000E+00 -0.74573480133E+03  0.74573480133E+03  0.25500000920E-02 0.  1.
    10030    2    1    2    0    0  0.00000000000E+00  0.00000000000E+00  0.47667379475E+03  0.19681433974E+04  0.19095472045E+04 0.  0.
        4    1    3    3  502    0 -0.99300845877E+02  0.81462370443E+03 -0.26461098238E+03  0.86226041467E+03  0.12699999809E+01 0.  1.
       -4    1    3    3    0  502  0.99300845877E+02 -0.81462370443E+03  0.74128477712E+03  0.11058829827E+04  0.12699999809E+01 0. -1.
</event>
<event>
 5   0  0.1324058E-04  0.1849285E+04  0.7818609E-02  0.8680521E-01
        1   -1    0    0  501    0  0.00000000000E+00  0.00000000000E+00  0.16592201774E+04  0.16592201774E+04  0.50400001928E-02 0. -1.
       -1   -1    0    0    0  501  0.00000000000E+00  0.00000000000E+00 -0.51528040947E+03  0.51528040949E+03  0.50400001928E-02 0.  1.
    10030    2    1    2    0    0  0.00000000000E+00  0.00000000000E+00  0.11439397679E+04  0.21745005869E+04  0.18492848914E+04 0.  0.
        5    1    3    3  502    0  0.15837286183E+03  0.89243498913E+03  0.78692855176E+03  0.12003336239E+04  0.46999998093E+01 0. -1.
       -5    1    3    3    0  502 -0.15837286183E+03 -0.89243498913E+03  0.35701121612E+03  0.97416696291E+03  0.46999998093E+01 0.  1.
</event>
<event>
 5   0  0.1255141E-04  0.1873604E+04  0.7818609E-02  0.8668108E-01
       -1   -1    0    0    0  501  0.00000000000E+00  0.00000000000E+00  0.95028665507E+03  0.95028665508E+03  0.50400001928E-02 0. -1.
        1   -1    0    0  501    0  0.00000000000E+00  0.00000000000E+00 -0.92350912199E+03  0.92350912200E+03  0.50400001928E-02 0.  1.
    10030    2    1    2    0    0  0.00000000000E+00  0.00000000000E+00  0.26777533078E+02  0.18737957771E+04  0.18736044348E+04 0.  0.
        2    1    3    3  502    0 -0.68752187346E+03 -0.46561703547E+03  0.44715283648E+03  0.94309660661E+03  0.25500000920E-02 0. -1.
       -2    1    3    3    0  502  0.68752187346E+03  0.46561703547E+03 -0.42037530340E+03  0.93069917048E+03  0.25500000920E-02 0.  1.
</event>
<event>
 5   0  0.2608744E-04  0.1856700E+04  0.7818609E-02  0.8676715E-01
        2   -1    0    0  501    0  0.00000000000E+00  0.00000000000E+00  0.13703809497E+04  0.13703809497E+04  0.25500000920E-02 0. -1.
       -2   -1    0    0    0  501  0.00000000000E+00  0.00000000000E+00 -0.62890089402E+03  0.62890089402E+03  0.25500000920E-02 0.  1.
    10030    2    1    2    0    0  0.00000000000E+00  0.00000000000E+00  0.74148005565E+03  0.19992818437E+04  0.18567000882E+04 0.  0.
        2    1    3    3  502    0  0.18163611205E+03 -0.73455322199E+03 -0.20840420060E+03  0.78485184842E+03  0.25500000920E-02 0.  1.
       -2    1    3    3    0  502 -0.18163611205E+03  0.73455322199E+03  0.94988425625E+03  0.12144299953E+04  0.25500000920E-02 0. -1.
</event>
<event>
 5   0  0.2651828E-04  0.1891634E+04  0.7818609E-02  0.8659032E-01
       -2   -1    0    0    0  501  0.00000000000E+00  0.00000000000E+00  0.75261621822E+03  0.75261621822E+03  0.25500000920E-02 0.  1.
        2   -1    0    0  501    0  0.00000000000E+00  0.00000000000E+00 -0.11886129041E+04  0.11886129041E+04  0.25500000920E-02 0. -1.
    10030    2    1    2    0    0  0.00000000000E+00  0.00000000000E+00 -0.43599668586E+03  0.19412291223E+04  0.18916335256E+04 0.  0.
        3    1    3    3  502    0 -0.46975385512E+03 -0.56115886778E+03  0.39687809911E+03  0.83251438129E+03  0.10100000352E+00 0.  1.
       -3    1    3    3    0  502  0.46975385512E+03  0.56115886778E+03 -0.83287478497E+03  0.11087147410E+04  0.10100000352E+00 0. -1.
</event>
<event>
 5   0  0.2541124E-04  0.1895567E+04  0.7818609E-02  0.8657066E-01
        2   -1    0    0  501    0  0.00000000000E+00  0.00000000000E+00  0.12559581617E+04  0.12559581617E+04  0.25500000920E-02 0. -1.
       -2   -1    0    0    0  501  0.00000000000E+00  0.00000000000E+00 -0.71522584867E+03  0.71522584867E+03  0.25500000920E-02 0.  1.
    10030    2    1    2    0    0  0.00000000000E+00  0.00000000000E+00  0.54073231308E+03  0.19711840104E+04  0.18955671891E+04 0.  0.
        5    1    3    3  502    0  0.78576591791E+03 -0.24399074158E+02 -0.28013653533E+03  0.83457891239E+03  0.46999998093E+01 0.  1.
       -5    1    3    3    0  502 -0.78576591791E+03  0.24399074158E+02  0.82086884841E+03  0.11366050980E+04  0.46999998093E+01 0. -1.
</event>
<event>
 5   0  0.1255141E-04  0.1903771E+04  0.7818609E-02  0.8652982E-01
       -1   -1    0    0    0  501  0.00000000000E+00  0.00000000000E+00  0.83343303000E+03  0.83343303001E+03  0.50400001928E-02 0. -1.
        1   -1    0    0  501    0  0.00000000000E+00  0.00000000000E+00 -0.10871731189E+04  0.10871731189E+04  0.50400001928E-02 0.  1.
    10030    2    1    2    0    0  0.00000000000E+00  0.00000000000E+00 -0.25374008891E+03  0.19206061489E+04  0.19037709806E+04 0.  0.
        2    1    3    3  502    0  0.61838132162E+03  0.72366412605E+03 -0.12774975222E+03  0.96041929669E+03  0.25500000920E-02 0. -1.
       -2    1    3    3    0  502 -0.61838132162E+03 -0.72366412605E+03 -0.12599033669E+03  0.96018685224E+03  0.25500000920E-02 0.  1.
</event>
<event>
 5   0  0.2608744E-04  0.1852012E+04  0.7818609E-02  0.8679119E-01
       -2   -1    0    0    0  501  0.00000000000E+00  0.00000000000E+00  0.75850936604E+03  0.75850936604E+03  0.25500000920E-02 0. -1.
        2   -1    0    0  501    0  0.00000000000E+00  0.00000000000E+00 -0.11304901680E+04  0.11304901680E+04  0.25500000920E-02 0.  1.
    10030    2    1    2    0    0  0.00000000000E+00  0.00000000000E+00 -0.37198080192E+03  0.18889995340E+04  0.18520122900E+04 0.  0.
        2    1    3    3  502    0  0.90574097058E+03 -0.91000221944E+02 -0.35920434949E+03  0.97860896730E+03  0.25500000920E-02 0.  1.
       -2    1    3    3    0  502 -0.90574097058E+03  0.91000221944E+02 -0.12776452426E+02  0.91039056670E+03  0.25500000920E-02 0. -1.
</event>
<event>
 5   0  0.1255141E-04  0.1892474E+04  0.7818609E-02  0.8658612E-01
       -1   -1    0    0    0  501  0.00000000000E+00  0.00000000000E+00  0.46670941122E+03  0.46670941125E+03  0.50400001928E-02 0.  1.
        1   -1    0    0  501    0  0.00000000000E+00  0.00000000000E+00 -0.19184617350E+04  0.19184617350E+04  0.50400001928E-02 0. -1.
    10030    2    1    2    0    0  0.00000000000E+00  0.00000000000E+00 -0.14517523238E+04  0.23851711463E+04  0.18924736689E+04 0.  0.
        2    1    3    3  502    0 -0.55132593625E+02 -0.83789310956E+03 -0.17612888934E+03  0.85797776871E+03  0.25500000920E-02 0. -1.
       -2    1    3    3    0  502  0.55132593625E+02  0.83789310956E+03 -0.12756234345E+04  0.15271933776E+04  0.25500000920E-02 0.  1.
</event>
<event>
 5   0  0.2541124E-04  0.1769634E+04  0.7818609E-02  0.8722617E-01
        2   -1    0    0  501    0  0.00000000000E+00  0.00000000000E+00  0.11406492030E+04  0.11406492030E+04  0.25500000920E-02 0. -1.
       -2   -1    0    0    0  501  0.00000000000E+00  0.00000000000E+00 -0.68636412727E+03  0.68636412728E+03  0.25500000920E-02 0.  1.
    10030    2    1    2    0    0  0.00000000000E+00  0.00000000000E+00  0.45428507570E+03  0.18270133302E+04  0.17696335154E+04 0.  0.
        5    1    3    3  502    0 -0.81321163163E+02  0.74446308175E+03  0.71363283102E+03  0.10344720002E+04  0.46999998093E+01 0. -1.
       -5    1    3    3    0  502  0.81321163163E+02 -0.74446308175E+03 -0.25934775532E+03  0.79254133006E+03  0.46999998093E+01 0.  1.
</event>
<event>
 5   0  0.1317527E-04  0.1900297E+04  0.7818609E-02  0.8654709E-01
       -1   -1    0    0    0  501  0.00000000000E+00  0.00000000000E+00  0.59527430598E+03  0.59527430600E+03  0.50400001928E-02 0. -1.
        1   -1    0    0  501    0  0.00000000000E+00  0.00000000000E+00 -0.15165814222E+04  0.15165814222E+04  0.50400001928E-02 0.  1.
    10030    2    1    2    0    0  0.00000000000E+00  0.00000000000E+00 -0.92130711617E+03  0.21118557282E+04  0.19002967700E+04 0.  0.
        1    1    3    3  502    0  0.24652569429E+03  0.13756790728E+03 -0.14688946555E+04  0.14957778432E+04  0.50400001928E-02 0.  1.
       -1    1    3    3    0  502 -0.24652569429E+03 -0.13756790728E+03  0.54758753936E+03  0.61607788497E+03  0.50400001928E-02 0. -1.
</event>
<event>
 5   0  0.1255141E-04  0.1885452E+04  0.7818609E-02  0.8662132E-01
       -1   -1    0    0    0  501  0.00000000000E+00  0.00000000000E+00  0.69205389007E+03  0.69205389009E+03  0.50400001928E-02 0.  1.
        1   -1    0    0  501    0  0.00000000000E+00  0.00000000000E+00 -0.12841949479E+04  0.12841949479E+04  0.50400001928E-02 0. -1.
    10030    2    1    2    0    0  0.00000000000E+00  0.00000000000E+00 -0.59214105783E+03  0.19762488380E+04  0.18854517860E+04 0.  0.
        2    1    3    3  502    0  0.88632440444E+03 -0.12299386991E+03  0.14922456572E+02  0.89494196552E+03  0.25500000920E-02 0.  1.
       -2    1    3    3    0  502 -0.88632440444E+03  0.12299386991E+03 -0.60706351441E+03  0.10813068725E+04  0.25500000920E-02 0. -1.
</event>
<event>
 5   0  0.1317527E-04  0.1864357E+04  0.7818609E-02  0.8672804E-01
       -1   -1    0    0    0  501  0.00000000000E+00  0.00000000000E+00  0.64685510471E+03  0.64685510473E+03  0.50400001928E-02 0.  1.
        1   -1    0    0  501    0  0.00000000000E+00  0.00000000000E+00 -0.13433562819E+04  0.13433562819E+04  0.50400001928E-02 0. -1.
    10030    2    1    2    0    0  0.00000000000E+00  0.00000000000E+00 -0.69650117718E+03  0.19902113866E+04  0.18643571207E+04 0.  0.
        1    1    3    3  502    0  0.66099157577E+03 -0.61969440572E+03 -0.58219227964E+03  0.10769767269E+04  0.50400001928E-02 0. -1.
       -1    1    3    3    0  502 -0.66099157577E+03  0.61969440572E+03 -0.11430889754E+03  0.91323465977E+03  0.50400001928E-02 0.  1.
</event>
<event>
 5   0  0.2541124E-04  0.1867437E+04  0.7818609E-02  0.8671237E-01
       -2   -1    0    0    0  501  0.00000000000E+00  0.00000000000E+00  0.11701662984E+04  0.11701662984E+04  0.25500000920E-02 0.  1.
        2   -1    0    0  501    0  0.00000000000E+00  0.00000000000E+00 -0.74504793353E+03  0.74504793353E+03  0.25500000920E-02 0. -1.
    10030    2    1    2    0    0  0.00000000000E+00  0.00000000000E+00  0.42511836489E+03  0.19152142320E+04  0.18674367272E+04 0.  0.
        5    1    3    3  502    0  0.11478421999E+03  0.85486052274E+03  0.57926261244E+03  0.10390039435E+04  0.46999998093E+01 0.  1.
       -5    1    3    3    0  502 -0.11478421999E+03 -0.85486052274E+03 -0.15414424755E+03  0.87621028843E+03  0.46999998093E+01 0. -1.
</event>
<event>
 5   0  0.1324058E-04  0.1948745E+04  0.7818609E-02  0.8630966E-01
       -1   -1    0    0    0  501  0.00000000000E+00  0.00000000000E+00  0.58842912981E+03  0.58842912984E+03  0.50400001928E-02 0. -1.
        1   -1    0    0  501    0  0.00000000000E+00  0.00000000000E+00 -0.16134512004E+04  0.16134512004E+04  0.50400001928E-02 0.  1.
    10030    2    1    2    0    0  0.00000000000E+00  0.00000000000E+00 -0.10250220706E+04  0.22018803302E+04  0.19487449149E+04 0.  0.
        5    1    3    3  502    0 -0.39030946155E+02 -0.75174975380E+02  0.58424844504E+03  0.59037532741E+03  0.46999998093E+01 0. -1.
       -5    1    3    3    0  502  0.39030946155E+02  0.75174975380E+02 -0.16092705156E+04  0.16115050028E+04  0.46999998093E+01 0.  1.
</event>
<event>
 5   0  0.1239615E-04  0.1850651E+04  0.7818609E-02  0.8679818E-01
       -1   -1    0    0    0  501  0.00000000000E+00  0.00000000000E+00  0.79186531118E+03  0.79186531120E+03  0.50400001928E-02 0.  1.
        1   -1    0    0  501    0  0.00000000000E+00  0.00000000000E+00 -0.10812790440E+04  0.10812790440E+04  0.50400001928E-02 0. -1.
    10030    2    1    2    0    0  0.00000000000E+00  0.00000000000E+00 -0.28941373286E+03  0.18731443552E+04  0.18506510927E+04 0.  0.
        3    1    3    3  502    0 -0.53385451173E+02  0.65402015625E+03  0.51562971772E+03  0.83454561719E+03  0.10100000352E+00 0.  1.
       -3    1    3    3    0  502  0.53385451173E+02 -0.65402015625E+03 -0.80504345058E+03  0.10385987381E+04  0.10100000352E+00 0. -1.
</event>
<event>
 5   0  0.2595012E-04  0.1944913E+04  0.7818609E-02  0.8632818E-01
       -2   -1    0    0    0  501  0.00000000000E+00  0.00000000000E+00  0.13339425786E+04  0.13339425786E+04  0.25500000920E-02 0. -1.
        2   -1    0    0  501    0  0.00000000000E+00  0.00000000000E+00 -0.70892971515E+03  0.70892971515E+03  0.25500000920E-02 0.  1.
    10030    2    1    2    0    0  0.00000000000E+00  0.00000000000E+00  0.62501286350E+03  0.20428722938E+04  0.19449128847E+04 0.  0.
        1    1    3    3  502    0  0.71862577714E+03 -0.62880096696E+03  0.11923357189E+03  0.96230468580E+03  0.50400001928E-02 0.  1.
       -1    1    3    3    0  502 -0.71862577714E+03  0.62880096696E+03  0.50577929160E+03  0.10805676080E+04  0.50400001928E-02 0. -1.
</event>
<event>
 5   0  0.1239615E-04  0.1887596E+04  0.7818609E-02  0.8661055E-01
       -1   -1    0    0    0  501  0.00000000000E+00  0.00000000000E+00  0.94178636318E+03  0.94178636320E+03  0.50400001928E-02 0.  1.
        1   -1    0    0  501    0  0.00000000000E+00  0.00000000000E+00 -0.94581442377E+03  0.94581442379E+03  0.50400001928E-02 0. -1.
    10030    2    1    2    0    0  0.00000000000E+00  0.00000000000E+00 -0.40280605908E+01  0.18876007870E+04  0.18875964891E+04 0.  0.
        3    1    3    3  502    0  0.92006972870E+03  0.12341654982E+03  0.16826602675E+03  0.94343702302E+03  0.10100000352E+00 0.  1.
       -3    1    3    3    0  502 -0.92006972870E+03 -0.12341654982E+03 -0.17229408734E+03  0.94416376396E+03  0.10100000352E+00 0. -1.
</event>
<event>
 5   0  0.2651828E-04  0.1914860E+04  0.7818609E-02  0.8647495E-01
        2   -1    0    0  501    0  0.00000000000E+00  0.00000000000E+00  0.11623404919E+04  0.11623404919E+04  0.25500000920E-02 0. -1.
       -2   -1    0    0    0  501  0.00000000000E+00  0.00000000000E+00 -0.78864313358E+03  0.78864313358E+03  0.25500000920E-02 0.  1.
    10030    2    1    2    0    0  0.00000000000E+00  0.00000000000E+00  0.37369735834E+03  0.19509836255E+04  0.19148596271E+04 0.  0.
        3    1    3    3  502    0 -0.40396095520E+03  0.10435069959E+03  0.10648469524E+04  0.11436662818E+04  0.10100000352E+00 0. -1.
       -3    1    3    3    0  502  0.40396095520E+03 -0.10435069959E+03 -0.69114959409E+03  0.80731734370E+03  0.10100000352E+00 0.  1.
</event>
<event>
 5   0  0.1317527E-04  0.1890751E+04  0.7818609E-02  0.8659474E-01
       -1   -1    0    0    0  501  0.00000000000E+00  0.00000000000E+00  0.82426061590E+03  0.82426061591E+03  0.50400001928E-02 0.  1.
        1   -1    0    0  501    0  0.00000000000E+00  0.00000000000E+00 -0.10842868430E+04  0.10842868431E+04  0.50400001928E-02 0. -1.
    10030    2    1    2    0    0  0.00000000000E+00  0.00000000000E+00 -0.26002622715E+03  0.19085474590E+04  0.18907511112E+04 0.  0.
        1    1    3    3  502    0  0.15641340036E+03 -0.90231890628E+03 -0.36693571143E+03  0.98655277445E+03  0.50400001928E-02 0. -1.
       -1    1    3    3    0  502 -0.15641340036E+03  0.90231890628E+03  0.10690948427E+03  0.92199468452E+03  0.50400001928E-02 0.  1.
</event>
<event>
 5   0  0.1317527E-04  0.1884743E+04  0.7818609E-02  0.8662488E-01
       -1   -1    0    0    0  501  0.00000000000E+00  0.00000000000E+00  0.99894851801E+03  0.99894851802E+03  0.50400001928E-02 0.  1.
        1   -1    0    0  501    0  0.00000000000E+00  0.00000000000E+00 -0.88899892732E+03  0.88899892733E+03  0.50400001928E-02 0. -1.
    10030    2    1    2    0    0  0.00000000000E+00  0.00000000000E+00  0.10994959069E+03  0.18879474454E+04  0.18847431241E+04 0.  0.
        1    1    3    3  502    0 -0.23184298393E+03 -0.81109471734E+03 -0.36578499354E+03  0.91946966846E+03  0.50400001928E-02 0. -1.
       -1    1    3    3    0  502  0.23184298393E+03  0.81109471734E+03  0.47573458423E+03  0.96847777690E+03  0.50400001928E-02 0.  1.
</event>
<event>
 5   0  0.2595012E-04  0.1888409E+04  0.7818609E-02  0.8660648E-01
       -2   -1    0    0    0  501  0.00000000000E+00  0.00000000000E+00  0.48753689916E+03  0.48753689917E+03  0.25500000920E-02 0. -1.
        2   -1    0    0  501    0  0.00000000000E+00  0.00000000000E+00 -0.18286243522E+04  0.18286243522E+04  0.25500000920E-02 0.  1.
    10030    2    1    2    0    0  0.00000000000E+00  0.00000000000E+00 -0.13410874531E+04  0.23161612514E+04  0.18884086914E+04 0.  0.
        1    1    3    3  502    0  0.69945936695E+02 -0.31360856710E+03  0.41841846487E+03  0.52755737052E+03  0.50400001928E-02 0. -1.
       -1    1    3    3    0  502 -0.69945936695E+02  0.31360856710E+03 -0.17595059179E+04  0.17886038809E+04  0.50400001928E-02 0.  1.
</event>
<event>
 5   0  0.1239615E-04  0.1993845E+04  0.7818609E-02  0.8609504E-01
        1   -1    0    0  501    0  0.00000000000E+00  0.00000000000E+00  0.13447343479E+04  0.13447343479E+04  0.50400001928E-02 0. -1.
       -1   -1    0    0    0  501  0.00000000000E+00  0.00000000000E+00 -0.73907111595E+03  0.73907111597E+03  0.50400001928E-02 0.  1.
    10030    2    1    2    0    0  0.00000000000E+00  0.00000000000E+00  0.60566323198E+03  0.20838054639E+04  0.19938448437E+04 0.  0.
        3    1    3    3  502    0  0.34457612137E+03 -0.66207538381E+03 -0.38787892694E+03  0.84114599769E+03  0.10100000352E+00 0.  1.
       -3    1    3    3    0  502 -0.34457612137E+03  0.66207538381E+03  0.99354215892E+03  0.12426594662E+04  0.10100000352E+00 0. -1.
</event>
<event>
 5   0  0.1317527E-04  0.1834736E+04  0.7818609E-02  0.8688042E-01
        1   -1    0    0  501    0  0.00000000000E+00  0.00000000000E+00  0.91228165158E+03  0.91228165159E+03  0.50400001928E-02 0. -1.
       -1   -1    0    0    0  501  0.00000000000E+00  0.00000000000E+00 -0.92248245701E+03  0.92248245703E+03  0.50400001928E-02 0.  1.
    10030    2    1    2    0    0  0.00000000000E+00  0.00000000000E+00 -0.10200805439E+02  0.18347641086E+04  0.18347357515E+04 0.  0.
        1    1    3    3  502    0  0.59638400920E+03 -0.25900433939E+03  0.64206235206E+03  0.91378399976E+03  0.50400001928E-02 0. -1.
       -1    1    3    3    0  502 -0.59638400920E+03  0.25900433939E+03 -0.65226315750E+03  0.92098010886E+03  0.50400001928E-02 0.  1.
</event>
<event>
 5   0  0.2651828E-04  0.1895062E+04  0.7818609E-02  0.8657318E-01
       -2   -1    0    0    0  501  0.00000000000E+00  0.00000000000E+00  0.84443500152E+03  0.84443500153E+03  0.25500000920E-02 0. -1.
        2   -1    0    0  501    0  0.00000000000E+00  0.00000000000E+00 -0.10632141420E+04  0.10632141420E+04  0.25500000920E-02 0.  1.
    10030    2    1    2    0    0  0.00000000000E+00  0.00000000000E+00 -0.21877914046E+03  0.19076491435E+04  0.18950622529E+04 0.  0.
        3    1    3    3  502    0 -0.13474855095E+03  0.14142443560E+03  0.82394568043E+03  0.84678482360E+03  0.10100000352E+00 0. -1.
       -3    1    3    3    0  502  0.13474855095E+03 -0.14142443560E+03 -0.10427248209E+04  0.10608643199E+04  0.10100000352E+00 0.  1.
</event>
<event>
 5   0  0.2541124E-04  0.1912099E+04  0.7818609E-02  0.8648857E-01
        2   -1    0    0  501    0  0.00000000000E+00  0.00000000000E+00  0.13630149610E+04  0.13630149610E+04  0.25500000920E-02 0.  1.
       -2   -1    0    0    0  501  0.00000000000E+00  0.00000000000E+00 -0.67059462916E+03  0.67059462917E+03  0.25500000920E-02 0. -1.
    10030    2    1    2    0    0  0.00000000000E+00  0.00000000000E+00  0.69242033183E+03  0.20336095902E+04  0.19120988597E+04 0.  0.
        5    1    3    3  502    0 -0.79425583691E+03 -0.49763260849E+03  0.14574364480E+03  0.94854828422E+03  0.46999998093E+01 0.  1.
       -5    1    3    3    0  502  0.79425583691E+03  0.49763260849E+03  0.54667668703E+03  0.10850613059E+04  0.46999998093E+01 0. -1.
</event>
<event>
 5   0  0.2608744E-04  0.1904684E+04  0.7818609E-02  0.8652529E-01
       -2   -1    0    0    0  501  0.00000000000E+00  0.00000000000E+00  0.66858004922E+03  0.66858004922E+03  0.25500000920E-02 0.  1.
        2   -1    0    0  501    0  0.00000000000E+00  0.00000000000E+00 -0.13565389593E+04  0.13565389593E+04  0.25500000920E-02 0. -1.
    10030    2    1    2    0    0  0.00000000000E+00  0.00000000000E+00 -0.68795891007E+03  0.20251190085E+04  0.19046835792E+04 0.  0.
        2    1    3    3  502    0  0.24423594714E+03  0.39722366061E+03  0.53889757376E+03  0.71263485000E+03  0.25500000920E-02 0.  1.
       -2    1    3    3    0  502 -0.24423594714E+03 -0.39722366061E+03 -0.12268564838E+04  0.13124841585E+04  0.25500000920E-02 0. -1.
</event>
<event>
 5   0  0.2608744E-04  0.1857048E+04  0.7818609E-02  0.8676537E-01
       -2   -1    0    0    0  501  0.00000000000E+00  0.00000000000E+00  0.10829156025E+04  0.10829156025E+04  0.25500000920E-02 0. -1.
        2   -1    0    0  501    0  0.00000000000E+00  0.00000000000E+00 -0.79614388581E+03  0.79614388582E+03  0.25500000920E-02 0.  1.
    10030    2    1    2    0    0  0.00000000000E+00  0.00000000000E+00  0.28677171666E+03  0.18790594883E+04  0.18570478031E+04 0.  0.
        2    1    3    3  502    0  0.24197004730E+03 -0.29941669604E+03 -0.71158912122E+03  0.80904816860E+03  0.25500000920E-02 0.  1.
       -2    1    3    3    0  502 -0.24197004730E+03  0.29941669604E+03  0.99836083788E+03  0.10700113197E+04  0.25500000920E-02 0. -1.
</event>
<event>
 5   0  0.2651828E-04  0.1902483E+04  0.7818609E-02  0.8653621E-01
       -2   -1    0    0    0  501  0.00000000000E+00  0.00000000000E+00  0.60091584701E+03  0.60091584701E+03  0.25500000920E-02 0. -1.
        2   -1    0    0  501    0  0.00000000000E+00  0.00000000000E+00 -0.15058028851E+04  0.15058028851E+04  0.25500000920E-02 0.  1.
    10030    2    1    2    0    0  0.00000000000E+00  0.00000000000E+00 -0.90488703813E+03  0.21067187322E+04  0.19024834466E+04 0.  0.
        3    1    3    3  502    0  0.37151161743E+03  0.81951828071E+03 -0.79416470496E+03  0.12001369435E+04  0.10100000352E+00 0.  1.
       -3    1    3    3    0  502 -0.37151161743E+03 -0.81951828071E+03 -0.11072233317E+03  0.90658178868E+03  0.10100000352E+00 0. -1.
</event>
<event>
 5   0  0.1255141E-04  0.1894850E+04  0.7818609E-02  0.8657424E-01
        1   -1    0    0  501    0  0.00000000000E+00  0.00000000000E+00  0.12028870039E+04  0.12028870039E+04  0.50400001928E-02 0. -1.
       -1   -1    0    0    0  501  0.00000000000E+00  0.00000000000E+00 -0.74621657190E+03  0.74621657192E+03  0.50400001928E-02 0.  1.
    10030    2    1    2    0    0  0.00000000000E+00  0.00000000000E+00  0.45667043201E+03  0.19491035758E+04  0.18948500906E+04 0.  0.
        2    1    3    3  502    0  0.64933332618E+03 -0.28448795260E+03 -0.41818852089E+03  0.82307278091E+03  0.25500000920E-02 0.  1.
       -2    1    3    3    0  502 -0.64933332618E+03  0.28448795260E+03  0.87485895289E+03  0.11260307949E+04  0.25500000920E-02 0. -1.
</event>
<event>
 5   0  0.2595012E-04  0.2104434E+04  0.7818609E-02  0.8559293E-01
        2   -1    0    0  501    0  0.00000000000E+00  0.00000000000E+00  0.16590591264E+04  0.16590591264E+04  0.25500000920E-02 0.  1.
       -2   -1    0    0    0  501  0.00000000000E+00  0.00000000000E+00 -0.66734246401E+03  0.66734246401E+03  0.25500000920E-02 0. -1.
    10030    2    1    2    0    0  0.00000000000E+00  0.00000000000E+00  0.99171666243E+03  0.23264015905E+04  0.21044339908E+04 0.  0.
        1    1    3    3  502    0  0.42322217186E+03  0.92489986340E+03  0.79372998563E+03  0.12901798534E+04  0.50400001928E-02 0. -1.
       -1    1    3    3    0  502 -0.42322217186E+03 -0.92489986340E+03  0.19798667679E+03  0.10362217370E+04  0.50400001928E-02 0.  1.
</event>
<event>
 5   0  0.1239615E-04  0.1906897E+04  0.7818609E-02  0.8651431E-01
       -1   -1    0    0    0  501  0.00000000000E+00  0.00000000000E+00  0.19313163484E+04  0.19313163484E+04  0.50400001928E-02 0. -1.
        1   -1    0    0  501    0  0.00000000000E+00  0.00000000000E+00 -0.47069676604E+03  0.47069676607E+03  0.50400001928E-02 0.  1.
    10030    2    1    2    0    0  0.00000000000E+00  0.00000000000E+00  0.14606195823E+04  0.24020131144E+04  0.19068973328E+04 0.  0.
        3    1    3    3  502    0  0.18935897650E+03 -0.52030348585E+03 -0.24743078045E+03  0.60646066705E+03  0.10100000352E+00 0.  1.
       -3    1    3    3    0  502 -0.18935897650E+03  0.52030348585E+03  0.17080503628E+04  0.17955524474E+04  0.10100000352E+00 0. -1.
</event>
<event>
 5   0  0.1239615E-04  0.1885457E+04  0.7818609E-02  0.8662130E-01
       -1   -1    0    0    0  501  0.00000000000E+00  0.00000000000E+00  0.15899354981E+04  0.15899354981E+04  0.50400001928E-02 0.  1.
        1   -1    0    0  501    0  0.00000000000E+00  0.00000000000E+00 -0.55897660892E+03  0.55897660895E+03  0.50400001928E-02 0. -1.
    10030    2    1    2    0    0  0.00000000000E+00  0.00000000000E+00  0.10309588892E+04  0.21489121071E+04  0.18854567120E+04 0.  0.
        3    1    3    3  502    0 -0.38055668735E+03  0.68214238505E+03  0.11170531388E+04  0.13630661579E+04  0.10100000352E+00 0.  1.
       -3    1    3    3    0  502  0.38055668735E+03 -0.68214238505E+03 -0.86094249604E+02  0.78584594915E+03  0.10100000352E+00 0. -1.
</event>
<event>
 5   0  0.1277709E-04  0.1924649E+04  0.7818609E-02  0.8642683E-01
       -1   -1    0    0    0  501  0.00000000000E+00  0.00000000000E+00  0.14749005283E+04  0.14749005283E+04  0.50400001928E-02 0. -1.
        1   -1    0    0  501    0  0.00000000000E+00  0.00000000000E+00 -0.62788535992E+03  0.62788535994E+03  0.50400001928E-02 0.  1.
    10030    2    1    2    0    0  0.00000000000E+00  0.00000000000E+00  0.84701516833E+03  0.21027858882E+04  0.19246490060E+04 0.  0.
        4    1    3    3  502    0 -0.35478582312E+03  0.47755968967E+03  0.12499090935E+04  0.13842725861E+04  0.12699999809E+01 0. -1.
       -4    1    3    3    0  502  0.35478582312E+03 -0.47755968967E+03 -0.40289392521E+03  0.71851330214E+03  0.12699999809E+01 0.  1.
</event>
<event>
 5   0  0.2562925E-04  0.1887107E+04  0.7818609E-02  0.8661301E-01
        2   -1    0    0  501    0  0.00000000000E+00  0.00000000000E+00  0.15478708410E+04  0.15478708410E+04  0.25500000920E-02 0. -1.
       -2   -1    0    0    0  501  0.00000000000E+00  0.00000000000E+00 -0.57517261830E+03  0.57517261830E+03  0.25500000920E-02 0.  1.
    10030    2    1    2    0    0  0.00000000000E+00  0.00000000000E+00  0.97269822271E+03  0.21230434593E+04  0.18871067001E+04 0.  0.
        4    1    3    3  502    0  0.81767804510E+03 -0.45622043190E+02  0.10135680596E+04  0.13030735131E+04  0.12699999809E+01 0. -1.
       -4    1    3    3    0  502 -0.81767804510E+03  0.45622043190E+02 -0.40869836843E+02  0.81996994623E+03  0.12699999809E+01 0.  1.
</event>
<event>
 5   0  0.1239615E-04  0.1912900E+04  0.7818609E-02  0.8648462E-01
        1   -1    0    0  501    0  0.00000000000E+00  0.00000000000E+00  0.46062835409E+03  0.46062835412E+03  0.50400001928E-02 0. -1.
       -1   -1    0    0    0  501  0.00000000000E+00  0.00000000000E+00 -0.19859755638E+04  0.19859755639E+04  0.50400001928E-02 0.  1.
    10030    2    1    2    0    0  0.00000000000E+00  0.00000000000E+00 -0.15253472098E+04  0.24466039180E+04  0.19129000552E+04 0.  0.
        3    1    3    3  502    0 -0.81701610554E+03  0.49431587090E+03 -0.69340468977E+03  0.11801159142E+04  0.10100000352E+00 0. -1.
       -3    1    3    3    0  502  0.81701610554E+03 -0.49431587090E+03 -0.83194251998E+03  0.12664880038E+04  0.10100000352E+00 0.  1.
</event>
<event>
 5   0  0.2541124E-04  0.1916491E+04  0.7818609E-02  0.8646691E-01
        2   -1    0    0  501    0  0.00000000000E+00  0.00000000000E+00  0.15522879194E+04  0.15522879194E+04  0.25500000920E-02 0. -1.
       -2   -1    0    0    0  501  0.00000000000E+00  0.00000000000E+00 -0.59153606413E+03  0.59153606414E+03  0.25500000920E-02 0.  1.
    10030    2    1    2    0    0  0.00000000000E+00  0.00000000000E+00  0.96075185530E+03  0.21438239836E+04  0.19164908414E+04 0.  0.
        5    1    3    3  502    0 -0.54393862833E+03 -0.61372145639E+03 -0.74090403091E+02  0.82342864612E+03  0.46999998093E+01 0.  1.
       -5    1    3    3    0  502  0.54393862833E+03  0.61372145639E+03  0.10348422584E+04  0.13203953375E+04  0.46999998093E+01 0. -1.
</event>
<event>
 5   0  0.1239615E-04  0.1885624E+04  0.7818609E-02  0.8662046E-01
        1   -1    0    0  501    0  0.00000000000E+00  0.00000000000E+00  0.16135764140E+04  0.16135764140E+04  0.50400001928E-02 0. -1.
       -1   -1    0    0    0  501  0.00000000000E+00  0.00000000000E+00 -0.55088442695E+03  0.55088442697E+03  0.50400001928E-02 0.  1.
    10030    2    1    2    0    0  0.00000000000E+00  0.00000000000E+00  0.10626919870E+04  0.21644608410E+04  0.18856236297E+04 0.  0.
        3    1    3    3  502    0 -0.33121613457E+03 -0.46682986782E+03 -0.32861095680E+03  0.66001471530E+03  0.10100000352E+00 0.  1.
       -3    1    3    3    0  502  0.33121613457E+03  0.46682986782E+03  0.13913029438E+04  0.15044461257E+04  0.10100000352E+00 0. -1.
</event>
<event>
 5   0  0.2595012E-04  0.1902437E+04  0.7818609E-02  0.8653644E-01
       -2   -1    0    0    0  501  0.00000000000E+00  0.00000000000E+00  0.68275553334E+03  0.68275553335E+03  0.25500000920E-02 0. -1.
        2   -1    0    0  501    0  0.00000000000E+00  0.00000000000E+00 -0.13252424751E+04  0.13252424751E+04  0.25500000920E-02 0.  1.
    10030    2    1    2    0    0  0.00000000000E+00  0.00000000000E+00 -0.64248694173E+03  0.20079980084E+04  0.19024369980E+04 0.  0.
        1    1    3    3  502    0 -0.62098695176E+03  0.38491046760E+03  0.32168237470E+03  0.79828592155E+03  0.50400001928E-02 0. -1.
       -1    1    3    3    0  502  0.62098695176E+03 -0.38491046760E+03 -0.96416931643E+03  0.12097120869E+04  0.50400001928E-02 0.  1.
</event>
<event>
 5   0  0.1239615E-04  0.1892977E+04  0.7818609E-02  0.8658360E-01
       -1   -1    0    0    0  501  0.00000000000E+00  0.00000000000E+00  0.11155127355E+04  0.11155127355E+04  0.50400001928E-02 0. -1.
        1   -1    0    0  501    0  0.00000000000E+00  0.00000000000E+00 -0.80307495084E+03  0.80307495085E+03  0.50400001928E-02 0.  1.
    10030    2    1    2    0    0  0.00000000000E+00  0.00000000000E+00  0.31243778470E+03  0.19185876864E+04  0.18929768464E+04 0.  0.
        3    1    3    3  502    0  0.92549662930E+03  0.17034473130E+02  0.35639066893E+03  0.99189137673E+03  0.10100000352E+00 0.  1.
       -3    1    3    3    0  502 -0.92549662930E+03 -0.17034473130E+02 -0.43952884234E+02  0.92669630967E+03  0.10100000352E+00 0. -1.
</event>
<event>
 5   0  0.2541124E-04  0.1864621E+04  0.7818609E-02  0.8672670E-01
        2   -1    0    0  501    0  0.00000000000E+00  0.00000000000E+00  0.11271820454E+04  0.11271820454E+04  0.25500000920E-02 0. -1.
       -2   -1    0    0    0  501  0.00000000000E+00  0.00000000000E+00 -0.77112942546E+03  0.77112942547E+03  0.25500000920E-02 0.  1.
    10030    2    1    2    0    0  0.00000000000E+00  0.00000000000E+00  0.35605261989E+03  0.18983114708E+04  0.18646214018E+04 0.  0.
        5    1    3    3  502    0 -0.33634784888E+03  0.13315729576E+03 -0.69675449539E+03  0.78507939580E+03  0.46999998093E+01 0.  1.
       -5    1    3    3    0  502  0.33634784888E+03 -0.13315729576E+03  0.10528071153E+04  0.11132320750E+04  0.46999998093E+01 0. -1.
</event>
<event>
 5   0  0.2651828E-04  0.1885747E+04  0.7818609E-02  0.8661984E-01
        2   -1    0    0  501    0  0.00000000000E+00  0.00000000000E+00  0.11167676396E+04  0.11167676396E+04  0.25500000920E-02 0.  1.
       -2   -1    0    0    0  501  0.00000000000E+00  0.00000000000E+00 -0.79605646416E+03  0.79605646417E+03  0.25500000920E-02 0. -1.
    10030    2    1    2    0    0  0.00000000000E+00  0.00000000000E+00  0.32071117545E+03  0.19128241038E+04  0.18857466410E+04 0.  0.
        3    1    3    3  502    0  0.19804884420E+03 -0.25895648322E+03  0.10577786097E+04  0.11068773203E+04  0.10100000352E+00 0.  1.
       -3    1    3    3    0  502 -0.19804884420E+03  0.25895648322E+03 -0.73706743427E+03  0.80594678345E+03  0.10100000352E+00 0. -1.
</event>
<event>
 5   0  0.2651828E-04  0.1930109E+04  0.7818609E-02  0.8640013E-01
        2   -1    0    0  501    0  0.00000000000E+00  0.00000000000E+00  0.12088882449E+04  0.12088882449E+04  0.25500000920E-02 0.  1.
       -2   -1    0    0    0  501  0.00000000000E+00  0.00000000000E+00 -0.77040246694E+03  0.77040246694E+03  0.25500000920E-02 0. -1.
    10030    2    1    2    0    0  0.00000000000E+00  0.00000000000E+00  0.43848577800E+03  0.19792907119E+04  0.19301093090E+04 0.  0.
        3    1    3    3  502    0 -0.60269825192E+03  0.63895780153E+03  0.62920226865E+03  0.10804664549E+04  0.10100000352E+00 0.  1.
       -3    1    3    3    0  502  0.60269825192E+03 -0.63895780153E+03 -0.19071649065E+03  0.89882425702E+03  0.10100000352E+00 0. -1.
</event>
<event>
 5   0  0.1317527E-04  0.1908277E+04  0.7818609E-02  0.8650747E-01
        1   -1    0    0  501    0  0.00000000000E+00  0.00000000000E+00  0.11344575185E+04  0.11344575185E+04  0.50400001928E-02 0. -1.
       -1   -1    0    0    0  501  0.00000000000E+00  0.00000000000E+00 -0.80248064495E+03  0.80248064496E+03  0.50400001928E-02 0.  1.
    10030    2    1    2    0    0  0.00000000000E+00  0.00000000000E+00  0.33197687358E+03  0.19369381635E+04  0.19082769203E+04 0.  0.
        1    1    3    3  502    0 -0.10585962799E+02  0.90661172263E+03  0.46764449953E+03  0.10201706995E+04  0.50400001928E-02 0. -1.
       -1    1    3    3    0  502  0.10585962799E+02 -0.90661172263E+03 -0.13566762595E+03  0.91676746396E+03  0.50400001928E-02 0.  1.
</event>
<event>
 5   0  0.1277709E-04  0.1864291E+04  0.7818609E-02  0.8672838E-01
        1   -1    0    0  501    0  0.00000000000E+00  0.00000000000E+00  0.78066765336E+03  0.78066765337E+03  0.50400001928E-02 0. -1.
       -1   -1    0    0    0  501  0.00000000000E+00  0.00000000000E+00 -0.11130153509E+04  0.11130153509E+04  0.50400001928E-02 0.  1.
    10030    2    1    2    0    0  0.00000000000E+00  0.00000000000E+00 -0.33234769752E+03  0.18936830043E+04  0.18642908380E+04 0.  0.
        4    1    3    3  502    0 -0.80269598844E+03  0.37360543833E+03 -0.46230330426E+03  0.99881321148E+03  0.12699999809E+01 0.  1.
       -4    1    3    3    0  502  0.80269598844E+03 -0.37360543833E+03  0.12995560674E+03  0.89486979278E+03  0.12699999809E+01 0. -1.
</event>
<event>
 5   0  0.1317527E-04  0.1962395E+04  0.7818609E-02  0.8624407E-01
       -1   -1    0    0    0  501  0.00000000000E+00  0.00000000000E+00  0.68979192089E+03  0.68979192091E+03  0.50400001928E-02 0. -1.
        1   -1    0    0  501    0  0.00000000000E+00  0.00000000000E+00 -0.13957088400E+04  0.13957088400E+04  0.50400001928E-02 0.  1.
    10030    2    1    2    0    0  0.00000000000E+00  0.00000000000E+00 -0.70591691906E+03  0.20855007609E+04  0.19623951506E+04 0.  0.
        1    1    3    3  502    0  0.54605680396E+03 -0.88632006707E+02 -0.12141750034E+04  0.13342618201E+04  0.50400001928E-02 0.  1.
       -1    1    3    3    0  502 -0.54605680396E+03  0.88632006707E+02  0.50825808434E+03  0.75123894074E+03  0.50400001928E-02 0. -1.
</event>
<event>
 5   0  0.9266125E-05  0.1899446E+04  0.7818609E-02  0.8655132E-01
       -3   -1    0    0    0  501  0.00000000000E+00  0.00000000000E+00  0.11083186909E+04  0.11083186955E+04  0.10100000352E+00 0.  1.
        3   -1    0    0  501    0  0.00000000000E+00  0.00000000000E+00 -0.81382204957E+03  0.81382205584E+03  0.10100000352E+00 0. -1.
    10030    2    1    2    0    0  0.00000000000E+00  0.00000000000E+00  0.29449664137E+03  0.19221407514E+04  0.18994464447E+04 0.  0.
        3    1    3    3  502    0  0.52104245934E+03  0.68171945756E+03 -0.26473692225E+03  0.89794894701E+03  0.10100000352E+00 0. -1.
       -3    1    3    3    0  502 -0.52104245934E+03 -0.68171945756E+03  0.55923356361E+03  0.10241918044E+04  0.10100000352E+00 0.  1.
</event>
<event>
 5   0  0.1324058E-04  0.1893692E+04  0.7818609E-02  0.8658003E-01
        1   -1    0    0  501    0  0.00000000000E+00  0.00000000000E+00  0.18860120604E+04  0.18860120604E+04  0.50400001928E-02 0. -1.
       -1   -1    0    0    0  501  0.00000000000E+00  0.00000000000E+00 -0.47535080068E+03  0.47535080071E+03  0.50400001928E-02 0.  1.
    10030    2    1    2    0    0  0.00000000000E+00  0.00000000000E+00  0.14106612597E+04  0.23613628611E+04  0.18936919951E+04 0.  0.
        5    1    3    3  502    0  0.17682788866E+03  0.52254498680E+03  0.16649036124E+04  0.17539234573E+04  0.46999998093E+01 0. -1.
       -5    1    3    3    0  502 -0.17682788866E+03 -0.52254498680E+03 -0.25424235267E+03  0.60743940383E+03  0.46999998093E+01 0.  1.
</event>
<event>
 5   0  0.1277709E-04  0.1883123E+04  0.7818609E-02  0.8663303E-01
        1   -1    0    0  501    0  0.00000000000E+00  0.00000000000E+00  0.13459257230E+04  0.13459257230E+04  0.50400001928E-02 0.  1.
       -1   -1    0    0    0  501  0.00000000000E+00  0.00000000000E+00 -0.65868284145E+03  0.65868284147E+03  0.50400001928E-02 0. -1.
    10030    2    1    2    0    0  0.00000000000E+00  0.00000000000E+00  0.68724288155E+03  0.20046085645E+04  0.18831231289E+04 0.  0.
        4    1    3    3  502    0  0.88140420180E+03 -0.61691694292E+02 -0.27254884084E+01  0.88356565873E+03  0.12699999809E+01 0. -1.
       -4    1    3    3    0  502 -0.88140420180E+03  0.61691694292E+02  0.68996836996E+03  0.11210429058E+04  0.12699999809E+01 0.  1.
</event>
<event>
 5   0  0.1255141E-04  0.1883359E+04  0.7818609E-02  0.8663185E-01
       -1   -1    0    0    0  501  0.00000000000E+00  0.00000000000E+00  0.10423232929E+04  0.10423232929E+04  0.50400001928E-02 0.  1.
        1   -1    0    0  501    0  0.00000000000E+00  0.00000000000E+00 -0.85075318509E+03  0.85075318510E+03  0.50400001928E-02 0. -1.
    10030    2    1    2    0    0  0.00000000000E+00  0.00000000000E+00  0.19157010776E+03  0.18930764780E+04  0.18833585546E+04 0.  0.
        2    1    3    3  502    0  0.32479028794E+02  0.93728068876E+03  0.18113422413E+03  0.95517515880E+03  0.25500000920E-02 0.  1.
       -2    1    3    3    0  502 -0.32479028794E+02 -0.93728068876E+03  0.10435883633E+02  0.93790131917E+03  0.25500000920E-02 0. -1.
</event>
<event>
 5   0  0.2608744E-04  0.1891852E+04  0.7818609E-02  0.8658923E-01
        2   -1    0    0  501    0  0.00000000000E+00  0.00000000000E+00  0.24183286607E+04  0.24183286607E+04  0.25500000920E-02 0. -1.
       -2   -1    0    0    0  501  0.00000000000E+00  0.00000000000E+00 -0.36999783140E+03  0.36999783141E+03  0.25500000920E-02 0.  1.
    10030    2    1    2    0    0  0.00000000000E+00  0.00000000000E+00  0.20483308293E+04  0.27883264921E+04  0.18918523833E+04 0.  0.
        2    1    3    3  502    0 -0.81777706978E+03 -0.47541155300E+03  0.10227832141E+04  0.13931478685E+04  0.25500000920E-02 0. -1.
       -2    1    3    3    0  502  0.81777706978E+03  0.47541155300E+03  0.10255476152E+04  0.13951786236E+04  0.25500000920E-02 0.  1.
</event>
<event>
 5   0  0.1324058E-04  0.1900792E+04  0.7818609E-02  0.8654462E-01
        1   -1    0    0  501    0  0.00000000000E+00  0.00000000000E+00  0.14323143930E+04  0.14323143930E+04  0.50400001928E-02 0.  1.
       -1   -1    0    0    0  501  0.00000000000E+00  0.00000000000E+00 -0.63062432096E+03  0.63062432098E+03  0.50400001928E-02 0. -1.
    10030    2    1    2    0    0  0.00000000000E+00  0.00000000000E+00  0.80169007206E+03  0.20629387140E+04  0.19007917209E+04 0.  0.
        5    1    3    3  502    0  0.15149524620E+03 -0.80572054875E+03 -0.12088510992E+03  0.82871690709E+03  0.46999998093E+01 0. -1.
       -5    1    3    3    0  502 -0.15149524620E+03  0.80572054875E+03  0.92257518198E+03  0.12342218069E+04  0.46999998093E+01 0.  1.
</event>
<event>
 5   0  0.1239615E-04  0.1943669E+04  0.7818609E-02  0.8633420E-01
       -1   -1    0    0    0  501  0.00000000000E+00  0.00000000000E+00  0.73870186810E+03  0.73870186811E+03  0.50400001928E-02 0.  1.
        1   -1    0    0  501    0  0.00000000000E+00  0.00000000000E+00 -0.12785432609E+04  0.12785432609E+04  0.50400001928E-02 0. -1.
    10030    2    1    2    0    0  0.00000000000E+00  0.00000000000E+00 -0.53984139279E+03  0.20172451290E+04  0.19436689999E+04 0.  0.
        3    1    3    3  502    0 -0.38584588012E+03 -0.34623401334E+03  0.58321017327E+03  0.78031349572E+03  0.10100000352E+00 0.  1.
       -3    1    3    3    0  502  0.38584588012E+03  0.34623401334E+03 -0.11230515661E+04  0.12369316333E+04  0.10100000352E+00 0. -1.
</event>
<event>
 5   0  0.2608744E-04  0.1898410E+04  0.7818609E-02  0.8655648E-01
       -2   -1    0    0    0  501  0.00000000000E+00  0.00000000000E+00  0.90634626179E+03  0.90634626179E+03  0.25500000920E-02 0. -1.
        2   -1    0    0  501    0  0.00000000000E+00  0.00000000000E+00 -0.99408993039E+03  0.99408993039E+03  0.25500000920E-02 0.  1.
    10030    2    1    2    0    0  0.00000000000E+00  0.00000000000E+00 -0.87743668602E+02  0.19004361922E+04  0.18984095367E+04 0.  0.
        2    1    3    3  502    0  0.17802684491E+02 -0.42026846170E+03  0.80794617530E+03  0.91088942121E+03  0.25500000920E-02 0. -1.
       -2    1    3    3    0  502 -0.17802684491E+02  0.42026846170E+03 -0.89568984390E+03  0.98954677098E+03  0.25500000920E-02 0.  1.
</event>
<event>
 5   0  0.1255141E-04  0.1839522E+04  0.7818609E-02  0.8685560E-01
        1   -1    0    0  501    0  0.00000000000E+00  0.00000000000E+00  0.11365882058E+04  0.11365882058E+04  0.50400001928E-02 0.  1.
       -1   -1    0    0    0  501  0.00000000000E+00  0.00000000000E+00 -0.74429757317E+03  0.74429757319E+03  0.50400001928E-02 0. -1.
    10030    2    1    2    0    0  0.00000000000E+00  0.00000000000E+00  0.39229063264E+03  0.18808857790E+04  0.18395215066E+04 0.  0.
        2    1    3    3  502    0  0.44727333055E+03 -0.30261819238E+03 -0.56512906001E+03  0.78166620565E+03  0.25500000920E-02 0. -1.
       -2    1    3    3    0  502 -0.44727333055E+03  0.30261819238E+03  0.95741969266E+03  0.10992195734E+04  0.25500000920E-02 0.  1.
</event>
<event>
 5   0  0.1324058E-04  0.1950294E+04  0.7818609E-02  0.8630219E-01
       -1   -1    0    0    0  501  0.00000000000E+00  0.00000000000E+00  0.44834654588E+03  0.44834654591E+03  0.50400001928E-02 0.  1.
        1   -1    0    0  501    0  0.00000000000E+00  0.00000000000E+00 -0.21209295019E+04  0.21209295019E+04  0.50400001928E-02 0. -1.
    10030    2    1    2    0    0  0.00000000000E+00  0.00000000000E+00 -0.16725829560E+04  0.25692760478E+04  0.19502937381E+04 0.  0.
        5    1    3    3  502    0  0.39032890728E+03 -0.22419787017E+03 -0.19758570603E+04  0.20264882318E+04  0.46999998093E+01 0. -1.
       -5    1    3    3    0  502 -0.39032890728E+03  0.22419787017E+03  0.30327410431E+03  0.54278781599E+03  0.46999998093E+01 0.  1.
</event>
<event>
 5   0  0.2595012E-04  0.1924515E+04  0.7818609E-02  0.8642749E-01
        2   -1    0    0  501    0  0.00000000000E+00  0.00000000000E+00  0.16001304900E+04  0.16001304900E+04  0.25500000920E-02 0.  1.
       -2   -1    0    0    0  501  0.00000000000E+00  0.00000000000E+00 -0.57866500181E+03  0.57866500181E+03  0.25500000920E-02 0. -1.
    10030    2    1    2    0    0  0.00000000000E+00  0.00000000000E+00  0.10214654882E+04  0.21787954918E+04  0.19245150172E+04 0.  0.
        1    1    3    3  502    0  0.41914223914E+03  0.86331575358E+03  0.59034636016E+03  0.11267222959E+04  0.50400001928E-02 0.  1.
       -1    1    3    3    0  502 -0.41914223914E+03 -0.86331575358E+03  0.43111912800E+03  0.10520731959E+04  0.50400001928E-02 0. -1.
</event>
<event>
 5   0  0.2608744E-04  0.1930601E+04  0.7818609E-02  0.8639772E-01
        2   -1    0    0  501    0  0.00000000000E+00  0.00000000000E+00  0.10049859738E+04  0.10049859738E+04  0.25500000920E-02 0.  1.
       -2   -1    0    0    0  501  0.00000000000E+00  0.00000000000E+00 -0.92718231865E+03  0.92718231865E+03  0.25500000920E-02 0. -1.
    10030    2    1    2    0    0  0.00000000000E+00  0.00000000000E+00  0.77803655138E+02  0.19321682924E+04  0.19306011762E+04 0.  0.
        2    1    3    3  502    0 -0.69045628432E+03  0.50403314224E+03  0.48762493167E+03  0.98415311970E+03  0.25500000920E-02 0.  1.
       -2    1    3    3    0  502  0.69045628432E+03 -0.50403314224E+03 -0.40982127653E+03  0.94801517273E+03  0.25500000920E-02 0. -1.
</event>
<event>
 5   0  0.2562925E-04  0.1875628E+04  0.7818609E-02  0.8667084E-01
       -2   -1    0    0    0  501  0.00000000000E+00  0.00000000000E+00  0.75845198983E+03  0.75845198984E+03  0.25500000920E-02 0. -1.
        2   -1    0    0  501    0  0.00000000000E+00  0.00000000000E+00 -0.11595919050E+04  0.11595919050E+04  0.25500000920E-02 0.  1.
    10030    2    1    2    0    0  0.00000000000E+00  0.00000000000E+00 -0.40113991513E+03  0.19180438948E+04  0.18756276685E+04 0.  0.
        4    1    3    3  502    0  0.57527842399E+03 -0.38744124514E+03  0.44492350204E+03  0.82402337291E+03  0.12699999809E+01 0. -1.
       -4    1    3    3    0  502 -0.57527842399E+03  0.38744124514E+03 -0.84606341717E+03  0.10940205219E+04  0.12699999809E+01 0.  1.
</event>
<event>
 5   0  0.2541124E-04  0.1901912E+04  0.7818609E-02  0.8653905E-01
        2   -1    0    0  501    0  0.00000000000E+00  0.00000000000E+00  0.10945402613E+04  0.10945402613E+04  0.25500000920E-02 0. -1.
       -2   -1    0    0    0  501  0.00000000000E+00  0.00000000000E+00 -0.82620769592E+03  0.82620769592E+03  0.25500000920E-02 0.  1.
    10030    2    1    2    0    0  0.00000000000E+00  0.00000000000E+00  0.26833256535E+03  0.19207479572E+04  0.19019122875E+04 0.  0.
        5    1    3    3  502    0  0.34126689340E+03  0.86469569343E+03  0.33648442765E+03  0.98863825276E+03  0.46999998093E+01 0. -1.
       -5    1    3    3    0  502 -0.34126689340E+03 -0.86469569343E+03 -0.68151862292E+02  0.93210970444E+03  0.46999998093E+01 0.  1.
</event>
<event>
 5   0  0.2562925E-04  0.1877650E+04  0.7818609E-02  0.8666062E-01
       -2   -1    0    0    0  501  0.00000000000E+00  0.00000000000E+00  0.95578633421E+03  0.95578633421E+03  0.25500000920E-02 0. -1.
        2   -1    0    0  501    0  0.00000000000E+00  0.00000000000E+00 -0.92216480116E+03  0.92216480116E+03  0.25500000920E-02 0.  1.
    10030    2    1    2    0    0  0.00000000000E+00  0.00000000000E+00  0.33621533054E+02  0.18779511354E+04  0.18776501430E+04 0.  0.
        4    1    3    3  502    0  0.40304837036E+02 -0.33648984282E+03 -0.85885285875E+03  0.92329829421E+03  0.12699999809E+01 0.  1.
       -4    1    3    3    0  502 -0.40304837036E+02  0.33648984282E+03  0.89247439180E+03  0.95465284116E+03  0.12699999809E+01 0. -1.
</event>
<event>
 5   0  0.2595012E-04  0.1910139E+04  0.7818609E-02  0.8649826E-01
       -2   -1    0    0    0  501  0.00000000000E+00  0.00000000000E+00  0.56885329674E+03  0.56885329674E+03  0.25500000920E-02 0. -1.
        2   -1    0    0  501    0  0.00000000000E+00  0.00000000000E+00 -0.16035034178E+04  0.16035034179E+04  0.25500000920E-02 0.  1.
    10030    2    1    2    0    0  0.00000000000E+00  0.00000000000E+00 -0.10346501211E+04  0.21723567146E+04  0.19101394772E+04 0.  0.
        1    1    3    3  502    0  0.94969846334E+03 -0.10114403317E+03 -0.51841521273E+03  0.10866975750E+04  0.50400001928E-02 0. -1.
       -1    1    3    3    0  502 -0.94969846334E+03  0.10114403317E+03 -0.51623490838E+03  0.10856591396E+04  0.50400001928E-02 0.  1.
</event>
<event>
 5   0  0.1277709E-04  0.1905293E+04  0.7818609E-02  0.8652226E-01
       -1   -1    0    0    0  501  0.00000000000E+00  0.00000000000E+00  0.58528156085E+03  0.58528156087E+03  0.50400001928E-02 0.  1.
        1   -1    0    0  501    0  0.00000000000E+00  0.00000000000E+00 -0.15505959046E+04  0.15505959046E+04  0.50400001928E-02 0. -1.
    10030    2    1    2    0    0  0.00000000000E+00  0.00000000000E+00 -0.96531434371E+03  0.21358774654E+04  0.19052928293E+04 0.  0.
        4    1    3    3  502    0  0.81678218252E+03 -0.47216578802E+03 -0.63078465466E+03  0.11348852623E+04  0.12699999809E+01 0. -1.
       -4    1    3    3    0  502 -0.81678218252E+03  0.47216578802E+03 -0.33452968905E+03  0.10009922032E+04  0.12699999809E+01 0.  1.
</event>
<event>
 5   0  0.2608744E-04  0.1894794E+04  0.7818609E-02  0.8657452E-01
        2   -1    0    0  501    0  0.00000000000E+00  0.00000000000E+00  0.99334114748E+03  0.99334114748E+03  0.25500000920E-02 0.  1.
       -2   -1    0    0    0  501  0.00000000000E+00  0.00000000000E+00 -0.90357812597E+03  0.90357812597E+03  0.25500000920E-02 0. -1.
    10030    2    1    2    0    0  0.00000000000E+00  0.00000000000E+00  0.89763021507E+02  0.18969192735E+04  0.18947942711E+04 0.  0.
        2    1    3    3  502    0 -0.78676066244E+03  0.36069004183E+03  0.43063388404E+03  0.96671360202E+03  0.25500000920E-02 0.  1.
       -2    1    3    3    0  502  0.78676066244E+03 -0.36069004183E+03 -0.34087086254E+03  0.93020567143E+03  0.25500000920E-02 0. -1.
</event>
<event>
 5   0  0.2651828E-04  0.1904988E+04  0.7818609E-02  0.8652378E-01
        2   -1    0    0  501    0  0.00000000000E+00  0.00000000000E+00  0.63345335020E+03  0.63345335021E+03  0.25500000920E-02 0.  1.
       -2   -1    0    0    0  501  0.00000000000E+00  0.00000000000E+00 -0.14322198391E+04  0.14322198391E+04  0.25500000920E-02 0. -1.
    10030    2    1    2    0    0  0.00000000000E+00  0.00000000000E+00 -0.79876648890E+03  0.20656731893E+04  0.19049876171E+04 0.  0.
        3    1    3    3  502    0  0.47958479110E+03 -0.20509080371E+03 -0.12635908430E+04  0.13670134009E+04  0.10100000352E+00 0. -1.
       -3    1    3    3    0  502 -0.47958479110E+03  0.20509080371E+03  0.46482435406E+03  0.69865978841E+03  0.10100000352E+00 0.  1.
</event>
<event>
 5   0  0.9266125E-05  0.1890969E+04  0.7818609E-02  0.8659365E-01
        4   -1    0    0  501    0  0.00000000000E+00  0.00000000000E+00  0.40358696563E+03  0.40358896383E+03  0.12699999809E+01 0.  1.
       -4   -1    0    0    0  501  0.00000000000E+00  0.00000000000E+00 -0.22149824973E+04  0.22149828614E+04  0.12699999809E+01 0. -1.
    10030    2    1    2    0    0  0.00000000000E+00  0.00000000000E+00 -0.18113955317E+04  0.26185718253E+04  0.18909692308E+04 0.  0.
        4    1    3    3  502    0  0.42488030148E+03 -0.41286824353E+03  0.11468327837E+03  0.60343792086E+03  0.12699999809E+01 0.  1.
       -4    1    3    3    0  502 -0.42488030148E+03  0.41286824353E+03 -0.19260788101E+04  0.20151339044E+04  0.12699999809E+01 0. -1.
</event>
<event>
 5   0  0.2595012E-04  0.2085278E+04  0.7818609E-02  0.8567757E-01
        2   -1    0    0  501    0  0.00000000000E+00  0.00000000000E+00  0.19151235983E+04  0.19151235983E+04  0.25500000920E-02 0.  1.
       -2   -1    0    0    0  501  0.00000000000E+00  0.00000000000E+00 -0.56763742419E+03  0.56763742420E+03  0.25500000920E-02 0. -1.
    10030    2    1    2    0    0  0.00000000000E+00  0.00000000000E+00  0.13474861742E+04  0.24827610225E+04  0.20852777526E+04 0.  0.
        1    1    3    3  502    0  0.79606401546E+03 -0.58841633693E+03  0.10634653254E+04  0.14528971748E+04  0.50400001928E-02 0.  1.
       -1    1    3    3    0  502 -0.79606401546E+03  0.58841633693E+03  0.28402084875E+03  0.10298638477E+04  0.50400001928E-02 0. -1.
</event>
<event>
 5   0  0.1317527E-04  0.1921530E+04  0.7818609E-02  0.8644213E-01
       -1   -1    0    0    0  501  0.00000000000E+00  0.00000000000E+00  0.58368256119E+03  0.58368256121E+03  0.50400001928E-02 0.  1.
        1   -1    0    0  501    0  0.00000000000E+00  0.00000000000E+00 -0.15814577530E+04  0.15814577530E+04  0.50400001928E-02 0. -1.
    10030    2    1    2    0    0  0.00000000000E+00  0.00000000000E+00 -0.99777519176E+03  0.21651403142E+04  0.19215299235E+04 0.  0.
        1    1    3    3  502    0  0.49567521060E+03  0.10226238247E+03 -0.14190723844E+04  0.15066246850E+04  0.50400001928E-02 0. -1.
       -1    1    3    3    0  502 -0.49567521060E+03 -0.10226238247E+03  0.42129719265E+03  0.65851562915E+03  0.50400001928E-02 0.  1.
</event>
<event>
 5   0  0.2608744E-04  0.1872771E+04  0.7818609E-02  0.8668530E-01
        2   -1    0    0  501    0  0.00000000000E+00  0.00000000000E+00  0.63103985707E+03  0.63103985708E+03  0.25500000920E-02 0.  1.
       -2   -1    0    0    0  501  0.00000000000E+00  0.00000000000E+00 -0.13894808363E+04  0.13894808363E+04  0.25500000920E-02 0. -1.
    10030    2    1    2    0    0  0.00000000000E+00  0.00000000000E+00 -0.75844097926E+03  0.20205206934E+04  0.18727709827E+04 0.  0.
        2    1    3    3  502    0 -0.34887324969E+03 -0.53006140838E+03 -0.11221232914E+04  0.12891230826E+04  0.25500000920E-02 0. -1.
       -2    1    3    3    0  502  0.34887324969E+03  0.53006140838E+03  0.36368231209E+03  0.73139761084E+03  0.25500000920E-02 0.  1.
</event>
<event>
 5   0  0.1324058E-04  0.1885473E+04  0.7818609E-02  0.8662122E-01
       -1   -1    0    0    0  501  0.00000000000E+00  0.00000000000E+00  0.42169431627E+03  0.42169431630E+03  0.50400001928E-02 0.  1.
        1   -1    0    0  501    0  0.00000000000E+00  0.00000000000E+00 -0.21075733824E+04  0.21075733824E+04  0.50400001928E-02 0. -1.
    10030    2    1    2    0    0  0.00000000000E+00  0.00000000000E+00 -0.16858790661E+04  0.25292676987E+04  0.18854725843E+04 0.  0.
        5    1    3    3  502    0  0.85872760894E+03 -0.28369555275E+02 -0.13633663770E+04  0.16115234736E+04  0.46999998093E+01 0. -1.
       -5    1    3    3    0  502 -0.85872760894E+03  0.28369555275E+02 -0.32251268907E+03  0.91774422506E+03  0.46999998093E+01 0.  1.
</event>
<event>
 5   0  0.2541124E-04  0.1905248E+04  0.7818609E-02  0.8652249E-01
        2   -1    0    0  501    0  0.00000000000E+00  0.00000000000E+00  0.20219898377E+04  0.20219898377E+04  0.25500000920E-02 0.  1.
       -2   -1    0    0    0  501  0.00000000000E+00  0.00000000000E+00 -0.44881146883E+03  0.44881146884E+03  0.25500000920E-02 0. -1.
    10030    2    1    2    0    0  0.00000000000E+00  0.00000000000E+00  0.15731783689E+04  0.24708013065E+04  0.19052477309E+04 0.  0.
        5    1    3    3  502    0  0.20147618049E+03 -0.57807061829E+03 -0.15993681384E+03  0.63274020376E+03  0.46999998093E+01 0. -1.
       -5    1    3    3    0  502 -0.20147618049E+03  0.57807061829E+03  0.17331151827E+04  0.18380611028E+04  0.46999998093E+01 0.  1.
</event>
<event>
 5   0  0.1277709E-04  0.1850704E+04  0.7818609E-02  0.8679791E-01
       -1   -1    0    0    0  501  0.00000000000E+00  0.00000000000E+00  0.61459777113E+03  0.61459777115E+03  0.50400001928E-02 0.  1.
        1   -1    0    0  501    0  0.00000000000E+00  0.00000000000E+00 -0.13932305988E+04  0.13932305988E+04  0.50400001928E-02 0. -1.
    10030    2    1    2    0    0  0.00000000000E+00  0.00000000000E+00 -0.77863282765E+03  0.20078283699E+04  0.18507041046E+04 0.  0.
        4    1    3    3  502    0  0.87354196217E+02 -0.83548734210E+03  0.31709886892E+02  0.84064081761E+03  0.12699999809E+01 0.  1.
       -4    1    3    3    0  502 -0.87354196217E+02  0.83548734210E+03 -0.81034271454E+03  0.11671875523E+04  0.12699999809E+01 0. -1.
</event>
<event>
 5   0  0.2562925E-04  0.1736239E+04  0.7818609E-02  0.8740962E-01
        2   -1    0    0  501    0  0.00000000000E+00  0.00000000000E+00  0.16775997035E+04  0.16775997035E+04  0.25500000920E-02 0. -1.
       -2   -1    0    0    0  501  0.00000000000E+00  0.00000000000E+00 -0.44923190447E+03  0.44923190448E+03  0.25500000920E-02 0.  1.
    10030    2    1    2    0    0  0.00000000000E+00  0.00000000000E+00  0.12283677990E+04  0.21268316079E+04  0.17362388197E+04 0.  0.
        4    1    3    3  502    0  0.22724537751E+02  0.68725812339E+03 -0.34919860889E+02  0.68852098179E+03  0.12699999809E+01 0.  1.
       -4    1    3    3    0  502 -0.22724537751E+02 -0.68725812339E+03  0.12632876599E+04  0.14383106261E+04  0.12699999809E+01 0. -1.
</event>
<event>
 5   0  0.1317527E-04  0.1757572E+04  0.7818609E-02  0.8729193E-01
        1   -1    0    0  501    0  0.00000000000E+00  0.00000000000E+00  0.12458727002E+04  0.12458727002E+04  0.50400001928E-02 0. -1.
       -1   -1    0    0    0  501  0.00000000000E+00  0.00000000000E+00 -0.61985874579E+03  0.61985874581E+03  0.50400001928E-02 0.  1.
    10030    2    1    2    0    0  0.00000000000E+00  0.00000000000E+00  0.62601395440E+03  0.18657314460E+04  0.17575722908E+04 0.  0.
        1    1    3    3  502    0 -0.28862737299E+03  0.29483381672E+03 -0.51064898865E+03  0.65650219311E+03  0.50400001928E-02 0.  1.
       -1    1    3    3    0  502  0.28862737299E+03 -0.29483381672E+03  0.11366629431E+04  0.12092292529E+04  0.50400001928E-02 0. -1.
</event>
<event>
 5   0  0.2595012E-04  0.1879939E+04  0.7818609E-02  0.8664907E-01
       -2   -1    0    0    0  501  0.00000000000E+00  0.00000000000E+00  0.13685348487E+04  0.13685348487E+04  0.25500000920E-02 0. -1.
        2   -1    0    0  501    0  0.00000000000E+00  0.00000000000E+00 -0.64561233465E+03  0.64561233465E+03  0.25500000920E-02 0.  1.
    10030    2    1    2    0    0  0.00000000000E+00  0.00000000000E+00  0.72292251400E+03  0.20141471833E+04  0.18799393381E+04 0.  0.
        1    1    3    3  502    0  0.59911778012E+02  0.48257659488E+03  0.12232962765E+04  0.13164054737E+04  0.50400001928E-02 0. -1.
       -1    1    3    3    0  502 -0.59911778012E+02 -0.48257659488E+03 -0.50037376251E+03  0.69774170959E+03  0.50400001928E-02 0.  1.
</event>
<event>
 5   0  0.1277709E-04  0.1547422E+04  0.7818609E-02  0.8853516E-01
        1   -1    0    0  501    0  0.00000000000E+00  0.00000000000E+00  0.17471213733E+04  0.17471213733E+04  0.50400001928E-02 0. -1.
       -1   -1    0    0    0  501  0.00000000000E+00  0.00000000000E+00 -0.34263715561E+03  0.34263715564E+03  0.50400001928E-02 0.  1.
    10030    2    1    2    0    0  0.00000000000E+00  0.00000000000E+00  0.14044842177E+04  0.20897585289E+04  0.15474219824E+04 0.  0.
        4    1    3    3  502    0  0.53481207671E+03  0.27303218063E+03  0.13611541096E+04  0.14877206229E+04  0.12699999809E+01 0. -1.
       -4    1    3    3    0  502 -0.53481207671E+03 -0.27303218063E+03  0.43330108096E+02  0.60203790597E+03  0.12699999809E+01 0.  1.
</event>
<event>
 5   0  0.2651828E-04  0.1964112E+04  0.7818609E-02  0.8623586E-01
       -2   -1    0    0    0  501  0.00000000000E+00  0.00000000000E+00  0.15667524969E+04  0.15667524969E+04  0.25500000920E-02 0. -1.
        2   -1    0    0  501    0  0.00000000000E+00  0.00000000000E+00 -0.61556267836E+03  0.61556267837E+03  0.25500000920E-02 0.  1.
    10030    2    1    2    0    0  0.00000000000E+00  0.00000000000E+00  0.95118981852E+03  0.21823151753E+04  0.19641123831E+04 0.  0.
        3    1    3    3  502    0 -0.40923018903E+03 -0.10686423569E+03 -0.50917934165E+03  0.66193120840E+03  0.10100000352E+00 0.  1.
       -3    1    3    3    0  502  0.40923018903E+03  0.10686423569E+03  0.14603691602E+04  0.15203839669E+04  0.10100000352E+00 0. -1.
</event>
<event>
 5   0  0.1239615E-04  0.1896712E+04  0.7818609E-02  0.8656495E-01
        1   -1    0    0  501    0  0.00000000000E+00  0.00000000000E+00  0.20608674524E+04  0.20608674524E+04  0.50400001928E-02 0. -1.
       -1   -1    0    0    0  501  0.00000000000E+00  0.00000000000E+00 -0.43640784419E+03  0.43640784422E+03  0.50400001928E-02 0.  1.
    10030    2    1    2    0    0  0.00000000000E+00  0.00000000000E+00  0.16244596082E+04  0.24972752966E+04  0.18967115987E+04 0.  0.
        3    1    3    3  502    0 -0.78014819908E+02  0.94184430828E+03  0.70837666924E+03  0.11810819315E+04  0.10100000352E+00 0.  1.
       -3    1    3    3    0  502  0.78014819908E+02 -0.94184430828E+03  0.91608293897E+03  0.13161933651E+04  0.10100000352E+00 0. -1.
</event>
<event>
 5   0  0.2595012E-04  0.1915543E+04  0.7818609E-02  0.8647158E-01
        2   -1    0    0  501    0  0.00000000000E+00  0.00000000000E+00  0.90559510804E+03  0.90559510804E+03  0.25500000920E-02 0. -1.
       -2   -1    0    0    0  501  0.00000000000E+00  0.00000000000E+00 -0.10129538626E+04  0.10129538626E+04  0.25500000920E-02 0.  1.
    10030    2    1    2    0    0  0.00000000000E+00  0.00000000000E+00 -0.10735875453E+03  0.19185489706E+04  0.19155428083E+04 0.  0.
        1    1    3    3  502    0  0.20856725684E+03 -0.76811170408E+03  0.47991384828E+03  0.92941551115E+03  0.50400001928E-02 0. -1.
       -1    1    3    3    0  502 -0.20856725684E+03  0.76811170408E+03 -0.58727260281E+03  0.98913345946E+03  0.50400001928E-02 0.  1.
</event>
<event>
 5   0  0.1277709E-04  0.1896204E+04  0.7818609E-02  0.8656748E-01
        1   -1    0    0  501    0  0.00000000000E+00  0.00000000000E+00  0.18345191905E+04  0.18345191905E+04  0.50400001928E-02 0. -1.
       -1   -1    0    0    0  501  0.00000000000E+00  0.00000000000E+00 -0.48999082057E+03  0.48999082060E+03  0.50400001928E-02 0.  1.
    10030    2    1    2    0    0  0.00000000000E+00  0.00000000000E+00  0.13445283699E+04  0.23245100111E+04  0.18962041700E+04 0.  0.
        4    1    3    3  502    0  0.43198215735E+03 -0.81994866064E+03  0.42717628291E+03  0.10204928123E+04  0.12699999809E+01 0.  1.
       -4    1    3    3    0  502 -0.43198215735E+03  0.81994866064E+03  0.91735208701E+03  0.13040171988E+04  0.12699999809E+01 0. -1.
</event>
<event>
 5   0  0.2651828E-04  0.2026523E+04  0.7818609E-02  0.8594320E-01
       -2   -1    0    0    0  501  0.00000000000E+00  0.00000000000E+00  0.10078028986E+04  0.10078028986E+04  0.25500000920E-02 0. -1.
        2   -1    0    0  501    0  0.00000000000E+00  0.00000000000E+00 -0.10187498312E+04  0.10187498312E+04  0.25500000920E-02 0.  1.
    10030    2    1    2    0    0  0.00000000000E+00  0.00000000000E+00 -0.10946932529E+02  0.20265527298E+04  0.20265231633E+04 0.  0.
        3    1    3    3  502    0 -0.57827631881E+03 -0.73454694540E+03 -0.39629409461E+03  0.10153874805E+04  0.10100000352E+00 0.  1.
       -3    1    3    3    0  502  0.57827631881E+03  0.73454694540E+03  0.38534716208E+03  0.10111652493E+04  0.10100000352E+00 0. -1.
</event>
<event>
 5   0  0.1277709E-04  0.1839816E+04  0.7818609E-02  0.8685408E-01
       -1   -1    0    0    0  501  0.00000000000E+00  0.00000000000E+00  0.73795174285E+03  0.73795174287E+03  0.50400001928E-02 0. -1.
        1   -1    0    0  501    0  0.00000000000E+00  0.00000000000E+00 -0.11467295487E+04  0.11467295487E+04  0.50400001928E-02 0.  1.
    10030    2    1    2    0    0  0.00000000000E+00  0.00000000000E+00 -0.40877780584E+03  0.18846812916E+04  0.18398163702E+04 0.  0.
        4    1    3    3  502    0  0.10522072524E+03  0.76209813387E+03  0.31225544376E+03  0.83028310938E+03  0.12699999809E+01 0. -1.
       -4    1    3    3    0  502 -0.10522072524E+03 -0.76209813387E+03 -0.72103324960E+03  0.10543981822E+04  0.12699999809E+01 0.  1.
</event>
<event>
 5   0  0.9266125E-05  0.1884832E+04  0.7818609E-02  0.8662443E-01
       -3   -1    0    0    0  501  0.00000000000E+00  0.00000000000E+00  0.12159146263E+04  0.12159146305E+04  0.10100000352E+00 0. -1.
        3   -1    0    0  501    0  0.00000000000E+00  0.00000000000E+00 -0.73043610514E+03  0.73043611212E+03  0.10100000352E+00 0.  1.
    10030    2    1    2    0    0  0.00000000000E+00  0.00000000000E+00  0.48547852115E+03  0.19463507426E+04  0.18848320399E+04 0.  0.
        3    1    3    3  502    0  0.28592468661E+03  0.75686074882E+03  0.74179003149E+03  0.10976536706E+04  0.10100000352E+00 0. -1.
       -3    1    3    3    0  502 -0.28592468661E+03 -0.75686074882E+03 -0.25631151035E+03  0.84869707202E+03  0.10100000352E+00 0.  1.
</event>
<event>
 5   0  0.1277709E-04  0.1899336E+04  0.7818609E-02  0.8655187E-01
        1   -1    0    0  501    0  0.00000000000E+00  0.00000000000E+00  0.28455245047E+04  0.28455245047E+04  0.50400001928E-02 0. -1.
       -1   -1    0    0    0  501  0.00000000000E+00  0.00000000000E+00 -0.31694299169E+03  0.31694299173E+03  0.50400001928E-02 0.  1.
    10030    2    1    2    0    0  0.00000000000E+00  0.00000000000E+00  0.25285815130E+04  0.31624674965E+04  0.18993357255E+04 0.  0.
        4    1    3    3  502    0 -0.89259855626E+03  0.20596561715E+03  0.84732098576E+03  0.12478415300E+04  0.12699999809E+01 0.  1.
       -4    1    3    3    0  502  0.89259855626E+03 -0.20596561715E+03  0.16812605273E+04  0.19146259665E+04  0.12699999809E+01 0. -1.
</event>
<event>
 5   0  0.1324058E-04  0.1877928E+04  0.7818609E-02  0.8665922E-01
        1   -1    0    0  501    0  0.00000000000E+00  0.00000000000E+00  0.12423552941E+04  0.12423552941E+04  0.50400001928E-02 0.  1.
       -1   -1    0    0    0  501  0.00000000000E+00  0.00000000000E+00 -0.70966270682E+03  0.70966270684E+03  0.50400001928E-02 0. -1.
    10030    2    1    2    0    0  0.00000000000E+00  0.00000000000E+00  0.53269258731E+03  0.19520180010E+04  0.18779278164E+04 0.  0.
        5    1    3    3  502    0  0.54637658751E+03  0.38662419049E+03 -0.41813616936E+03  0.78921833872E+03  0.46999998093E+01 0. -1.
       -5    1    3    3    0  502 -0.54637658751E+03 -0.38662419049E+03  0.95082875667E+03  0.11627996623E+04  0.46999998093E+01 0.  1.
</event>
<event>
 5   0  0.2608744E-04  0.1890215E+04  0.7818609E-02  0.8659743E-01
        2   -1    0    0  501    0  0.00000000000E+00  0.00000000000E+00  0.55562202804E+03  0.55562202804E+03  0.25500000920E-02 0.  1.
       -2   -1    0    0    0  501  0.00000000000E+00  0.00000000000E+00 -0.16076178419E+04  0.16076178419E+04  0.25500000920E-02 0. -1.
    10030    2    1    2    0    0  0.00000000000E+00  0.00000000000E+00 -0.10519958138E+04  0.21632398699E+04  0.18902146816E+04 0.  0.
        2    1    3    3  502    0  0.26682305962E+03 -0.24643859766E+03  0.47255676709E+03  0.59601713540E+03  0.25500000920E-02 0.  1.
       -2    1    3    3    0  502 -0.26682305962E+03  0.24643859766E+03 -0.15245525809E+04  0.15672227345E+04  0.25500000920E-02 0. -1.
</event>
<event>
 5   0  0.2562925E-04  0.1912752E+04  0.7818609E-02  0.8648535E-01
        2   -1    0    0  501    0  0.00000000000E+00  0.00000000000E+00  0.16570841574E+04  0.16570841574E+04  0.25500000920E-02 0. -1.
       -2   -1    0    0    0  501  0.00000000000E+00  0.00000000000E+00 -0.55196678386E+03  0.55196678387E+03  0.25500000920E-02 0.  1.
    10030    2    1    2    0    0  0.00000000000E+00  0.00000000000E+00  0.11051173736E+04  0.22090509413E+04  0.19127523760E+04 0.  0.
        4    1    3    3  502    0  0.17919148125E+03 -0.93703036986E+03  0.47492781421E+03  0.10656892336E+04  0.12699999809E+01 0. -1.
       -4    1    3    3    0  502 -0.17919148125E+03  0.93703036986E+03  0.63018955934E+03  0.11433617077E+04  0.12699999809E+01 0.  1.
</event>
<event>
 5   0  0.2541124E-04  0.1928387E+04  0.7818609E-02  0.8640854E-01
        2   -1    0    0  501    0  0.00000000000E+00  0.00000000000E+00  0.16101116057E+04  0.16101116057E+04  0.25500000920E-02 0.  1.
       -2   -1    0    0    0  501  0.00000000000E+00  0.00000000000E+00 -0.57739419459E+03  0.57739419459E+03  0.25500000920E-02 0. -1.
    10030    2    1    2    0    0  0.00000000000E+00  0.00000000000E+00  0.10327174111E+04  0.21875058003E+04  0.19283869879E+04 0.  0.
        5    1    3    3  502    0  0.85324166308E+03  0.30954338032E+03  0.14736799673E+03  0.91955307426E+03  0.46999998093E+01 0.  1.
       -5    1    3    3    0  502 -0.85324166308E+03 -0.30954338032E+03  0.88534941441E+03  0.12679527261E+04  0.46999998093E+01 0. -1.
</event>
<event>
 5   0  0.9266125E-05  0.1911068E+04  0.7818609E-02  0.8649367E-01
       -4   -1    0    0    0  501  0.00000000000E+00  0.00000000000E+00  0.10229952620E+04  0.10229960503E+04  0.12699999809E+01 0. -1.
        4   -1    0    0  501    0  0.00000000000E+00  0.00000000000E+00 -0.89251974497E+03  0.89252064853E+03  0.12699999809E+01 0.  1.
    10030    2    1    2    0    0  0.00000000000E+00  0.00000000000E+00  0.13047551702E+03  0.19155166988E+04  0.19110678593E+04 0.  0.
        2    1    3    3  502    0  0.63466434353E+03 -0.17601142605E+03 -0.62866442274E+03  0.91049316718E+03  0.25500000920E-02 0.  1.
       -2    1    3    3    0  502 -0.63466434353E+03  0.17601142605E+03  0.75913993976E+03  0.10050235317E+04  0.25500000920E-02 0. -1.
</event>
<event>
 5   0  0.1277709E-04  0.1876162E+04  0.7818609E-02  0.8666814E-01
        1   -1    0    0  501    0  0.00000000000E+00  0.00000000000E+00  0.56946712603E+03  0.56946712606E+03  0.50400001928E-02 0.  1.
       -1   -1    0    0    0  501  0.00000000000E+00  0.00000000000E+00 -0.15452975212E+04  0.15452975212E+04  0.50400001928E-02 0. -1.
    10030    2    1    2    0    0  0.00000000000E+00  0.00000000000E+00 -0.97583039513E+03  0.21147646472E+04  0.18761621873E+04 0.  0.
        4    1    3    3  502    0  0.61159429893E+03  0.49898035484E+03 -0.10593005591E+04  0.13210406006E+04  0.12699999809E+01 0. -1.
       -4    1    3    3    0  502 -0.61159429893E+03 -0.49898035484E+03  0.83470163993E+02  0.79372404662E+03  0.12699999809E+01 0.  1.
</event>
<event>
 5   0  0.1317527E-04  0.1897524E+04  0.7818609E-02  0.8656090E-01
        1   -1    0    0  501    0  0.00000000000E+00  0.00000000000E+00  0.14633169328E+04  0.14633169328E+04  0.50400001928E-02 0.  1.
       -1   -1    0    0    0  501  0.00000000000E+00  0.00000000000E+00 -0.61514287857E+03  0.61514287859E+03  0.50400001928E-02 0. -1.
    10030    2    1    2    0    0  0.00000000000E+00  0.00000000000E+00  0.84817405426E+03  0.20784598114E+04  0.18975236392E+04 0.  0.
        1    1    3    3  502    0  0.59099749274E+03 -0.15235265065E+02  0.12368948177E+04  0.13709190128E+04  0.50400001928E-02 0.  1.
       -1    1    3    3    0  502 -0.59099749274E+03  0.15235265065E+02 -0.38872076342E+03  0.70754079859E+03  0.50400001928E-02 0. -1.
</event>
<event>
 5   0  0.2651828E-04  0.1906879E+04  0.7818609E-02  0.8651440E-01
       -2   -1    0    0    0  501  0.00000000000E+00  0.00000000000E+00  0.71462040503E+03  0.71462040503E+03  0.25500000920E-02 0.  1.
        2   -1    0    0  501    0  0.00000000000E+00  0.00000000000E+00 -0.12720693955E+04  0.12720693955E+04  0.25500000920E-02 0. -1.
    10030    2    1    2    0    0  0.00000000000E+00  0.00000000000E+00 -0.55744899047E+03  0.19866898005E+04  0.19068788600E+04 0.  0.
        3    1    3    3  502    0 -0.50449800404E+03 -0.33459118099E+02  0.56344500688E+03  0.75703899150E+03  0.10100000352E+00 0.  1.
       -3    1    3    3    0  502  0.50449800404E+03  0.33459118099E+02 -0.11208939974E+04  0.12296508090E+04  0.10100000352E+00 0. -1.
</event>
<event>
 5   0  0.2595012E-04  0.1823270E+04  0.7818609E-02  0.8694021E-01
       -2   -1    0    0    0  501  0.00000000000E+00  0.00000000000E+00  0.32862527582E+03  0.32862527583E+03  0.25500000920E-02 0.  1.
        2   -1    0    0  501    0  0.00000000000E+00  0.00000000000E+00 -0.25289557689E+04  0.25289557689E+04  0.25500000920E-02 0. -1.
    10030    2    1    2    0    0  0.00000000000E+00  0.00000000000E+00 -0.22003304931E+04  0.28575810447E+04  0.18232704540E+04 0.  0.
        1    1    3    3  502    0  0.23328709104E+02  0.78412181491E+03 -0.37228490788E+03  0.86832442206E+03  0.50400001928E-02 0.  1.
       -1    1    3    3    0  502 -0.23328709104E+02 -0.78412181491E+03 -0.18280455852E+04  0.19892566227E+04  0.50400001928E-02 0. -1.
</event>
<event>
 5   0  0.2541124E-04  0.1914536E+04  0.7818609E-02  0.8647655E-01
        2   -1    0    0  501    0  0.00000000000E+00  0.00000000000E+00  0.66137887055E+03  0.66137887056E+03  0.25500000920E-02 0.  1.
       -2   -1    0    0    0  501  0.00000000000E+00  0.00000000000E+00 -0.13855323456E+04  0.13855323456E+04  0.25500000920E-02 0. -1.
    10030    2    1    2    0    0  0.00000000000E+00  0.00000000000E+00 -0.72415347507E+03  0.20469112162E+04  0.19145357848E+04 0.  0.
        5    1    3    3  502    0 -0.26215541955E+03 -0.88291381294E+03 -0.83119779686E+02  0.92476659372E+03  0.46999998093E+01 0.  1.
       -5    1    3    3    0  502  0.26215541955E+03  0.88291381294E+03 -0.64103369538E+03  0.11221446225E+04  0.46999998093E+01 0. -1.
</event>
<event>
 5   0  0.1239615E-04  0.1967731E+04  0.7818609E-02  0.8621858E-01
        1   -1    0    0  501    0  0.00000000000E+00  0.00000000000E+00  0.20771429050E+04  0.20771429051E+04  0.50400001928E-02 0. -1.
       -1   -1    0    0    0  501  0.00000000000E+00  0.00000000000E+00 -0.46602070086E+03  0.46602070089E+03  0.50400001928E-02 0.  1.
    10030    2    1    2    0    0  0.00000000000E+00  0.00000000000E+00  0.16111222042E+04  0.25431636059E+04  0.19677312748E+04 0.  0.
        3    1    3    3  502    0 -0.49862033914E+03  0.25328915329E+03 -0.24060363562E+03  0.60882489885E+03  0.10100000352E+00 0.  1.
       -3    1    3    3    0  502  0.49862033914E+03 -0.25328915329E+03  0.18517258398E+04  0.19343387071E+04  0.10100000352E+00 0. -1.
</event>
<event>
 5   0  0.2608744E-04  0.1891260E+04  0.7818609E-02  0.8659219E-01
        2   -1    0    0  501    0  0.00000000000E+00  0.00000000000E+00  0.10211366377E+04  0.10211366377E+04  0.25500000920E-02 0.  1.
       -2   -1    0    0    0  501  0.00000000000E+00  0.00000000000E+00 -0.87570618858E+03  0.87570618858E+03  0.25500000920E-02 0. -1.
    10030    2    1    2    0    0  0.00000000000E+00  0.00000000000E+00  0.14543044911E+03  0.18968428263E+04  0.18912595517E+04 0.  0.
        2    1    3    3  502    0 -0.58462257434E+03  0.73484881570E+03 -0.39100836009E+02  0.93984850468E+03  0.25500000920E-02 0. -1.
       -2    1    3    3    0  502  0.58462257434E+03 -0.73484881570E+03  0.18453128512E+03  0.95699432159E+03  0.25500000920E-02 0.  1.
</event>
<event>
 5   0  0.1317527E-04  0.1995726E+04  0.7818609E-02  0.8608622E-01
       -1   -1    0    0    0  501  0.00000000000E+00  0.00000000000E+00  0.61866787416E+03  0.61866787418E+03  0.50400001928E-02 0.  1.
        1   -1    0    0  501    0  0.00000000000E+00  0.00000000000E+00 -0.16094745945E+04  0.16094745945E+04  0.50400001928E-02 0. -1.
    10030    2    1    2    0    0  0.00000000000E+00  0.00000000000E+00 -0.99080672031E+03  0.22281424687E+04  0.19957256584E+04 0.  0.
        1    1    3    3  502    0  0.10948778041E+03 -0.58867291183E+03 -0.13866180472E+04  0.15103751124E+04  0.50400001928E-02 0. -1.
       -1    1    3    3    0  502 -0.10948778041E+03  0.58867291183E+03  0.39581132691E+03  0.71776735627E+03  0.50400001928E-02 0.  1.
</event>
<event>
 5   0  0.2651828E-04  0.1846303E+04  0.7818609E-02  0.8682056E-01
       -2   -1    0    0    0  501  0.00000000000E+00  0.00000000000E+00  0.54669114968E+03  0.54669114968E+03  0.25500000920E-02 0. -1.
        2   -1    0    0  501    0  0.00000000000E+00  0.00000000000E+00 -0.15588491374E+04  0.15588491374E+04  0.25500000920E-02 0.  1.
    10030    2    1    2    0    0  0.00000000000E+00  0.00000000000E+00 -0.10121579878E+04  0.21055402871E+04  0.18463033631E+04 0.  0.
        3    1    3    3  502    0 -0.78077581303E+03  0.34744763638E+03 -0.10795012959E+03  0.86138491450E+03  0.10100000352E+00 0. -1.
       -3    1    3    3    0  502  0.78077581303E+03 -0.34744763638E+03 -0.90420785816E+03  0.12441553726E+04  0.10100000352E+00 0.  1.
</event>
<event>
 5   0  0.2608744E-04  0.1880061E+04  0.7818609E-02  0.8664846E-01
       -2   -1    0    0    0  501  0.00000000000E+00  0.00000000000E+00  0.10813300442E+04  0.10813300442E+04  0.25500000920E-02 0. -1.
        2   -1    0    0  501    0  0.00000000000E+00  0.00000000000E+00 -0.81719467362E+03  0.81719467362E+03  0.25500000920E-02 0.  1.
    10030    2    1    2    0    0  0.00000000000E+00  0.00000000000E+00  0.26413537057E+03  0.18985247178E+04  0.18800607996E+04 0.  0.
        2    1    3    3  502    0 -0.67163574010E+03 -0.62298074395E+03  0.34498807887E+03  0.97888525848E+03  0.25500000920E-02 0. -1.
       -2    1    3    3    0  502  0.67163574010E+03  0.62298074395E+03 -0.80852708298E+02  0.91963945933E+03  0.25500000920E-02 0.  1.
</event>
<event>
 5   0  0.1317527E-04  0.1894173E+04  0.7818609E-02  0.8657762E-01
       -1   -1    0    0    0  501  0.00000000000E+00  0.00000000000E+00  0.74454076848E+03  0.74454076850E+03  0.50400001928E-02 0. -1.
        1   -1    0    0  501    0  0.00000000000E+00  0.00000000000E+00 -0.12047332890E+04  0.12047332890E+04  0.50400001928E-02 0.  1.
    10030    2    1    2    0    0  0.00000000000E+00  0.00000000000E+00 -0.46019252048E+03  0.19492740575E+04  0.18941732221E+04 0.  0.
        1    1    3    3  502    0 -0.69726406565E+03  0.91269159323E+02 -0.88295272279E+03  0.11287660286E+04  0.50400001928E-02 0.  1.
       -1    1    3    3    0  502  0.69726406565E+03 -0.91269159323E+02  0.42276020231E+03  0.82050802883E+03  0.50400001928E-02 0. -1.
</event>
<event>
 5   0  0.2541124E-04  0.1925735E+04  0.7818609E-02  0.8642152E-01
        2   -1    0    0  501    0  0.00000000000E+00  0.00000000000E+00  0.19800847122E+04  0.19800847122E+04  0.25500000920E-02 0.  1.
       -2   -1    0    0    0  501  0.00000000000E+00  0.00000000000E+00 -0.46821911845E+03  0.46821911845E+03  0.25500000920E-02 0. -1.
    10030    2    1    2    0    0  0.00000000000E+00  0.00000000000E+00  0.15118655938E+04  0.24483038307E+04  0.19257346841E+04 0.  0.
        5    1    3    3  502    0 -0.13831047125E+03 -0.28661204434E+03 -0.39940848074E+03  0.51071075464E+03  0.46999998093E+01 0. -1.
       -5    1    3    3    0  502  0.13831047125E+03  0.28661204434E+03  0.19112740745E+04  0.19375930760E+04  0.46999998093E+01 0.  1.
</event>
<event>
 5   0  0.2608744E-04  0.1919988E+04  0.7818609E-02  0.8644970E-01
       -2   -1    0    0    0  501  0.00000000000E+00  0.00000000000E+00  0.11176174167E+04  0.11176174167E+04  0.25500000920E-02 0.  1.
        2   -1    0    0  501    0  0.00000000000E+00  0.00000000000E+00 -0.82460143059E+03  0.82460143060E+03  0.25500000920E-02 0. -1.
    10030    2    1    2    0    0  0.00000000000E+00  0.00000000000E+00  0.29301598613E+03  0.19422188473E+04  0.19199884590E+04 0.  0.
        2    1    3    3  502    0 -0.65787153089E+03 -0.45743387135E+03 -0.38833697459E+03  0.89041917300E+03  0.25500000920E-02 0. -1.
       -2    1    3    3    0  502  0.65787153089E+03  0.45743387135E+03  0.68135296072E+03  0.10517996743E+04  0.25500000920E-02 0.  1.
</event>
<event>
 5   0  0.2541124E-04  0.1907953E+04  0.7818609E-02  0.8650908E-01
        2   -1    0    0  501    0  0.00000000000E+00  0.00000000000E+00  0.13695481771E+04  0.13695481771E+04  0.25500000920E-02 0.  1.
       -2   -1    0    0    0  501  0.00000000000E+00  0.00000000000E+00 -0.66450445713E+03  0.66450445714E+03  0.25500000920E-02 0. -1.
    10030    2    1    2    0    0  0.00000000000E+00  0.00000000000E+00  0.70504372000E+03  0.20340526343E+04  0.19079526912E+04 0.  0.
        5    1    3    3  502    0 -0.20055294444E+03 -0.45997882906E+03  0.12174677784E+04  0.13168340397E+04  0.46999998093E+01 0.  1.
       -5    1    3    3    0  502  0.20055294444E+03  0.45997882906E+03 -0.51242405842E+03  0.71721859454E+03  0.46999998093E+01 0. -1.
</event>
<event>
 5   0  0.1317527E-04  0.1836733E+04  0.7818609E-02  0.8687005E-01
       -1   -1    0    0    0  501  0.00000000000E+00  0.00000000000E+00  0.74200422340E+03  0.74200422341E+03  0.50400001928E-02 0.  1.
        1   -1    0    0  501    0  0.00000000000E+00  0.00000000000E+00 -0.11366474391E+04  0.11366474392E+04  0.50400001928E-02 0. -1.
    10030    2    1    2    0    0  0.00000000000E+00  0.00000000000E+00 -0.39464321575E+03  0.18786516626E+04  0.18367331874E+04 0.  0.
        1    1    3    3  502    0 -0.44023785304E+03 -0.58265887756E+03  0.37225034584E+03  0.81967740902E+03  0.50400001928E-02 0.  1.
       -1    1    3    3    0  502  0.44023785304E+03  0.58265887756E+03 -0.76689356159E+03  0.10589742535E+04  0.50400001928E-02 0. -1.
</event>
<event>
 5   0  0.2562925E-04  0.1896618E+04  0.7818609E-02  0.8656542E-01
        2   -1    0    0  501    0  0.00000000000E+00  0.00000000000E+00  0.79531321175E+03  0.79531321176E+03  0.25500000920E-02 0.  1.
       -2   -1    0    0    0  501  0.00000000000E+00  0.00000000000E+00 -0.11307369500E+04  0.11307369500E+04  0.25500000920E-02 0. -1.
    10030    2    1    2    0    0  0.00000000000E+00  0.00000000000E+00 -0.33542373824E+03  0.19260501618E+04  0.18966180800E+04 0.  0.
        4    1    3    3  502    0  0.47542542076E+03  0.32301735799E+03  0.59826010534E+03  0.82963022535E+03  0.12699999809E+01 0.  1.
       -4    1    3    3    0  502 -0.47542542076E+03 -0.32301735799E+03 -0.93368384358E+03  0.10964199364E+04  0.12699999809E+01 0. -1.
</event>
<event>
 5   0  0.2651828E-04  0.1897664E+04  0.7818609E-02  0.8656020E-01
        2   -1    0    0  501    0  0.00000000000E+00  0.00000000000E+00  0.15267926719E+04  0.15267926719E+04  0.25500000920E-02 0. -1.
       -2   -1    0    0    0  501  0.00000000000E+00  0.00000000000E+00 -0.58965608430E+03  0.58965608431E+03  0.25500000920E-02 0.  1.
    10030    2    1    2    0    0  0.00000000000E+00  0.00000000000E+00  0.93713658764E+03  0.21164487563E+04  0.18976644471E+04 0.  0.
        3    1    3    3  502    0 -0.69955224026E+03 -0.31510954846E+01 -0.24634939658E+03  0.74166791871E+03  0.10100000352E+00 0. -1.
       -3    1    3    3    0  502  0.69955224026E+03  0.31510954846E+01  0.11834859842E+04  0.13747808375E+04  0.10100000352E+00 0.  1.
</event>
<event>
 5   0  0.2541124E-04  0.2082332E+04  0.7818609E-02  0.8569066E-01
        2   -1    0    0  501    0  0.00000000000E+00  0.00000000000E+00  0.17635857162E+04  0.17635857162E+04  0.25500000920E-02 0. -1.
       -2   -1    0    0    0  501  0.00000000000E+00  0.00000000000E+00 -0.61467205099E+03  0.61467205100E+03  0.25500000920E-02 0.  1.
    10030    2    1    2    0    0  0.00000000000E+00  0.00000000000E+00  0.11489136652E+04  0.23782577672E+04  0.20823322014E+04 0.  0.
        5    1    3    3  502    0  0.92396233840E+03 -0.60305320196E+02  0.11182051268E+04  0.14518085032E+04  0.46999998093E+01 0. -1.
       -5    1    3    3    0  502 -0.92396233840E+03  0.60305320196E+02  0.30708538428E+02  0.92644926399E+03  0.46999998093E+01 0.  1.
</event>
<event>
 5   0  0.2651828E-04  0.1892352E+04  0.7818609E-02  0.8658673E-01
       -2   -1    0    0    0  501  0.00000000000E+00  0.00000000000E+00  0.66858445488E+03  0.66858445488E+03  0.25500000920E-02 0. -1.
        2   -1    0    0  501    0  0.00000000000E+00  0.00000000000E+00 -0.13390209557E+04  0.13390209557E+04  0.25500000920E-02 0.  1.
    10030    2    1    2    0    0  0.00000000000E+00  0.00000000000E+00 -0.67043650085E+03  0.20076054106E+04  0.18923515485E+04 0.  0.
        3    1    3    3  502    0  0.10956802972E+03 -0.20692022741E+03  0.63736470103E+03  0.67901023996E+03  0.10100000352E+00 0. -1.
       -3    1    3    3    0  502 -0.10956802972E+03  0.20692022741E+03 -0.13078012019E+04  0.13285951707E+04  0.10100000352E+00 0.  1.
</event>
<event>
 5   0  0.1239615E-04  0.1882867E+04  0.7818609E-02  0.8663432E-01
       -1   -1    0    0    0  501  0.00000000000E+00  0.00000000000E+00  0.64031827177E+03  0.64031827179E+03  0.50400001928E-02 0.  1.
        1   -1    0    0  501    0  0.00000000000E+00  0.00000000000E+00 -0.13841507711E+04  0.13841507711E+04  0.50400001928E-02 0. -1.
    10030    2    1    2    0    0  0.00000000000E+00  0.00000000000E+00 -0.74383249929E+03  0.20244690429E+04  0.18828669944E+04 0.  0.
        3    1    3    3  502    0 -0.17591598115E+03 -0.49414778112E+02 -0.13649014752E+04  0.13770781750E+04  0.10100000352E+00 0. -1.
       -3    1    3    3    0  502  0.17591598115E+03  0.49414778112E+02  0.62106897595E+03  0.64739086787E+03  0.10100000352E+00 0.  1.
</event>
<event>
 5   0  0.1239615E-04  0.1897066E+04  0.7818609E-02  0.8656318E-01
       -1   -1    0    0    0  501  0.00000000000E+00  0.00000000000E+00  0.66573610364E+03  0.66573610366E+03  0.50400001928E-02 0. -1.
        1   -1    0    0  501    0  0.00000000000E+00  0.00000000000E+00 -0.13514580311E+04  0.13514580311E+04  0.50400001928E-02 0.  1.
    10030    2    1    2    0    0  0.00000000000E+00  0.00000000000E+00 -0.68572192748E+03  0.20171941348E+04  0.18970655275E+04 0.  0.
        3    1    3    3  502    0 -0.88399990611E+03 -0.97442902919E+02 -0.69353760050E+03  0.11278055536E+04  0.10100000352E+00 0.  1.
       -3    1    3    3    0  502  0.88399990611E+03  0.97442902919E+02  0.78156730214E+01  0.88938858115E+03  0.10100000352E+00 0. -1.
</event>
<event>
 5   0  0.2562925E-04  0.1898766E+04  0.7818609E-02  0.8655471E-01
        2   -1    0    0  501    0  0.00000000000E+00  0.00000000000E+00  0.89584091489E+03  0.89584091489E+03  0.25500000920E-02 0. -1.
       -2   -1    0    0    0  501  0.00000000000E+00  0.00000000000E+00 -0.10061248762E+04  0.10061248762E+04  0.25500000920E-02 0.  1.
    10030    2    1    2    0    0  0.00000000000E+00  0.00000000000E+00 -0.11028396133E+03  0.19019657911E+04  0.18987657355E+04 0.  0.
        4    1    3    3  502    0 -0.34298182113E+03  0.16954504963E+03  0.81519759362E+03  0.90051695321E+03  0.12699999809E+01 0. -1.
       -4    1    3    3    0  502  0.34298182113E+03 -0.16954504963E+03 -0.92548155495E+03  0.10014488379E+04  0.12699999809E+01 0.  1.
</event>
<event>
 5   0  0.1324058E-04  0.1900899E+04  0.7818609E-02  0.8654409E-01
       -1   -1    0    0    0  501  0.00000000000E+00  0.00000000000E+00  0.50847729004E+03  0.50847729006E+03  0.50400001928E-02 0.  1.
        1   -1    0    0  501    0  0.00000000000E+00  0.00000000000E+00 -0.17765871393E+04  0.17765871394E+04  0.50400001928E-02 0. -1.
    10030    2    1    2    0    0  0.00000000000E+00  0.00000000000E+00 -0.12681098493E+04  0.22850644294E+04  0.19008989601E+04 0.  0.
        5    1    3    3  502    0 -0.73085799934E+03  0.95721184979E+02  0.87219306815E+02  0.74225686790E+03  0.46999998093E+01 0.  1.
       -5    1    3    3    0  502  0.73085799934E+03 -0.95721184979E+02 -0.13553291561E+04  0.15428075615E+04  0.46999998093E+01 0. -1.
</event>
<event>
 5   0  0.1324058E-04  0.1907673E+04  0.7818609E-02  0.8651046E-01
        1   -1    0    0  501    0  0.00000000000E+00  0.00000000000E+00  0.13158653126E+04  0.13158653126E+04  0.50400001928E-02 0.  1.
       -1   -1    0    0    0  501  0.00000000000E+00  0.00000000000E+00 -0.69141137031E+03  0.69141137032E+03  0.50400001928E-02 0. -1.
    10030    2    1    2    0    0  0.00000000000E+00  0.00000000000E+00  0.62445394226E+03  0.20072766829E+04  0.19076731784E+04 0.  0.
        5    1    3    3  502    0  0.14571107364E+03 -0.85675923876E+03 -0.10137941751E+03  0.87496742023E+03  0.46999998093E+01 0. -1.
       -5    1    3    3    0  502 -0.14571107364E+03  0.85675923876E+03  0.72583335977E+03  0.11323092627E+04  0.46999998093E+01 0.  1.
</event>
<event>
 5   0  0.9266125E-05  0.1855509E+04  0.7818609E-02  0.8677325E-01
        3   -1    0    0  501    0  0.00000000000E+00  0.00000000000E+00  0.98939787961E+03  0.98939788476E+03  0.10100000352E+00 0.  1.
       -3   -1    0    0    0  501  0.00000000000E+00  0.00000000000E+00 -0.86995167689E+03  0.86995168275E+03  0.10100000352E+00 0. -1.
    10030    2    1    2    0    0  0.00000000000E+00  0.00000000000E+00  0.11944620272E+03  0.18593495675E+04  0.18555089380E+04 0.  0.
        5    1    3    3  502    0 -0.99252222812E+02  0.84604825124E+02  0.98015428120E+03  0.98880406812E+03  0.46999998093E+01 0.  1.
       -5    1    3    3    0  502  0.99252222812E+02 -0.84604825124E+02 -0.86070807848E+03  0.87054549940E+03  0.46999998093E+01 0. -1.
</event>
<event>
 5   0  0.1239615E-04  0.1892434E+04  0.7818609E-02  0.8658632E-01
       -1   -1    0    0    0  501  0.00000000000E+00  0.00000000000E+00  0.70440684658E+03  0.70440684660E+03  0.50400001928E-02 0.  1.
        1   -1    0    0  501    0  0.00000000000E+00  0.00000000000E+00 -0.12710365073E+04  0.12710365073E+04  0.50400001928E-02 0. -1.
    10030    2    1    2    0    0  0.00000000000E+00  0.00000000000E+00 -0.56662966070E+03  0.19754433539E+04  0.18924342187E+04 0.  0.
        3    1    3    3  502    0 -0.58716691961E+03  0.18524132525E+03 -0.10333346770E+04  0.12028548978E+04  0.10100000352E+00 0. -1.
       -3    1    3    3    0  502  0.58716691961E+03 -0.18524132525E+03  0.46670501635E+03  0.77258845614E+03  0.10100000352E+00 0.  1.
</event>
<event>
 5   0  0.2595012E-04  0.1865329E+04  0.7818609E-02  0.8672310E-01
       -2   -1    0    0    0  501  0.00000000000E+00  0.00000000000E+00  0.36172642609E+03  0.36172642610E+03  0.25500000920E-02 0.  1.
        2   -1    0    0  501    0  0.00000000000E+00  0.00000000000E+00 -0.24047533260E+04  0.24047533260E+04  0.25500000920E-02 0. -1.
    10030    2    1    2    0    0  0.00000000000E+00  0.00000000000E+00 -0.20430268999E+04  0.27664797521E+04  0.18653287391E+04 0.  0.
        1    1    3    3  502    0  0.52123124752E+03 -0.66942906250E+03 -0.15960050254E+04  0.18074980842E+04  0.50400001928E-02 0. -1.
       -1    1    3    3    0  502 -0.52123124752E+03  0.66942906250E+03 -0.44702187448E+03  0.95898166791E+03  0.50400001928E-02 0.  1.
</event>
<event>
 5   0  0.1255141E-04  0.1896325E+04  0.7818609E-02  0.8656688E-01
       -1   -1    0    0    0  501  0.00000000000E+00  0.00000000000E+00  0.43989394548E+03  0.43989394551E+03  0.50400001928E-02 0. -1.
        1   -1    0    0  501    0  0.00000000000E+00  0.00000000000E+00 -0.20437026591E+04  0.20437026591E+04  0.50400001928E-02 0.  1.
    10030    2    1    2    0    0  0.00000000000E+00  0.00000000000E+00 -0.16038087136E+04  0.24835966046E+04  0.18963253161E+04 0.  0.
        2    1    3    3  502    0  0.74646156599E+03  0.55791675643E+03 -0.10307683570E+04  0.13895896453E+04  0.25500000920E-02 0.  1.
       -2    1    3    3    0  502 -0.74646156599E+03 -0.55791675643E+03 -0.57304035662E+03  0.10940069593E+04  0.25500000920E-02 0. -1.
</event>
<event>
 5   0  0.1239615E-04  0.1887587E+04  0.7818609E-02  0.8661060E-01
       -1   -1    0    0    0  501  0.00000000000E+00  0.00000000000E+00  0.44153682359E+03  0.44153682362E+03  0.50400001928E-02 0.  1.
        1   -1    0    0  501    0  0.00000000000E+00  0.00000000000E+00 -0.20173766993E+04  0.20173766993E+04  0.50400001928E-02 0. -1.
    10030    2    1    2    0    0  0.00000000000E+00  0.00000000000E+00 -0.15758398757E+04  0.24589135229E+04  0.18875869250E+04 0.  0.
        3    1    3    3  502    0 -0.55876021632E+03  0.31441699305E+03 -0.16901345704E+04  0.18076575730E+04  0.10100000352E+00 0. -1.
       -3    1    3    3    0  502  0.55876021632E+03 -0.31441699305E+03  0.11429469472E+03  0.65125594992E+03  0.10100000352E+00 0.  1.
</event>
<event>
 5   0  0.1255141E-04  0.1873476E+04  0.7818609E-02  0.8668173E-01
       -1   -1    0    0    0  501  0.00000000000E+00  0.00000000000E+00  0.10144566785E+04  0.10144566786E+04  0.50400001928E-02 0. -1.
        1   -1    0    0  501    0  0.00000000000E+00  0.00000000000E+00 -0.86497336819E+03  0.86497336820E+03  0.50400001928E-02 0.  1.
    10030    2    1    2    0    0  0.00000000000E+00  0.00000000000E+00  0.14948331036E+03  0.18794300468E+04  0.18734759247E+04 0.  0.
        2    1    3    3  502    0  0.65498063867E+03  0.57350955877E+03 -0.27213923278E+03  0.91212532749E+03  0.25500000920E-02 0.  1.
       -2    1    3    3    0  502 -0.65498063867E+03 -0.57350955877E+03  0.42162254314E+03  0.96730471927E+03  0.25500000920E-02 0. -1.
</event>
<event>
 5   0  0.1239615E-04  0.1923590E+04  0.7818609E-02  0.8643203E-01
        1   -1    0    0  501    0  0.00000000000E+00  0.00000000000E+00  0.25635493826E+04  0.25635493827E+04  0.50400001928E-02 0. -1.
       -1   -1    0    0    0  501  0.00000000000E+00  0.00000000000E+00 -0.36084708940E+03  0.36084708943E+03  0.50400001928E-02 0.  1.
    10030    2    1    2    0    0  0.00000000000E+00  0.00000000000E+00  0.22027022933E+04  0.29243964721E+04  0.19235896998E+04 0.  0.
        3    1    3    3  502    0 -0.17436486244E+03  0.59586657368E+02  0.25364637211E+04  0.25431480283E+04  0.10100000352E+00 0. -1.
       -3    1    3    3    0  502  0.17436486244E+03 -0.59586657368E+02 -0.33376142785E+03  0.38124844382E+03  0.10100000352E+00 0.  1.
</event>
<event>
 5   0  0.2541124E-04  0.1927515E+04  0.7818609E-02  0.8641280E-01
        2   -1    0    0  501    0  0.00000000000E+00  0.00000000000E+00  0.24086989620E+04  0.24086989620E+04  0.25500000920E-02 0. -1.
       -2   -1    0    0    0  501  0.00000000000E+00  0.00000000000E+00 -0.38561407643E+03  0.38561407644E+03  0.25500000920E-02 0.  1.
    10030    2    1    2    0    0  0.00000000000E+00  0.00000000000E+00  0.20230848855E+04  0.27943130384E+04  0.19275146958E+04 0.  0.
        5    1    3    3  502    0  0.21105615026E+03 -0.87829625698E+02 -0.34572384083E+03  0.41449463908E+03  0.46999998093E+01 0.  1.
       -5    1    3    3    0  502 -0.21105615026E+03  0.87829625698E+02  0.23688087264E+04  0.23798183993E+04  0.46999998093E+01 0. -1.
</event>
<event>
 5   0  0.2595012E-04  0.1880351E+04  0.7818609E-02  0.8664699E-01
       -2   -1    0    0    0  501  0.00000000000E+00  0.00000000000E+00  0.42342723709E+03  0.42342723710E+03  0.25500000920E-02 0. -1.
        2   -1    0    0  501    0  0.00000000000E+00  0.00000000000E+00 -0.20875595286E+04  0.20875595286E+04  0.25500000920E-02 0.  1.
    10030    2    1    2    0    0  0.00000000000E+00  0.00000000000E+00 -0.16641322915E+04  0.25109867657E+04  0.18803505668E+04 0.  0.
        1    1    3    3  502    0  0.34585451989E+03  0.57913782607E+03 -0.17066279448E+04  0.18351007908E+04  0.50400001928E-02 0.  1.
       -1    1    3    3    0  502 -0.34585451989E+03 -0.57913782607E+03  0.42495653254E+02  0.67588597491E+03  0.50400001928E-02 0. -1.
</event>
<event>
 5   0  0.1317527E-04  0.1897124E+04  0.7818609E-02  0.8656289E-01
       -1   -1    0    0    0  501  0.00000000000E+00  0.00000000000E+00  0.85627491131E+03  0.85627491132E+03  0.50400001928E-02 0.  1.
        1   -1    0    0  501    0  0.00000000000E+00  0.00000000000E+00 -0.10507954182E+04  0.10507954182E+04  0.50400001928E-02 0. -1.
    10030    2    1    2    0    0  0.00000000000E+00  0.00000000000E+00 -0.19452050693E+03  0.19070703296E+04  0.18971238795E+04 0.  0.
        1    1    3    3  502    0  0.33172616108E+03  0.16453530255E+03 -0.97514047069E+03  0.10430786400E+04  0.50400001928E-02 0. -1.
       -1    1    3    3    0  502 -0.33172616108E+03 -0.16453530255E+03  0.78061996376E+03  0.86399168953E+03  0.50400001928E-02 0.  1.
</event>
<event>
 5   0  0.2608744E-04  0.1961014E+04  0.7818609E-02  0.8625068E-01
        2   -1    0    0  501    0  0.00000000000E+00  0.00000000000E+00  0.10351411628E+04  0.10351411628E+04  0.25500000920E-02 0.  1.
       -2   -1    0    0    0  501  0.00000000000E+00  0.00000000000E+00 -0.92875618616E+03  0.92875618616E+03  0.25500000920E-02 0. -1.
    10030    2    1    2    0    0  0.00000000000E+00  0.00000000000E+00  0.10638497660E+03  0.19638973489E+04  0.19610137771E+04 0.  0.
        2    1    3    3  502    0  0.64788974452E+03  0.83918117911E+02 -0.67903952356E+03  0.94228342134E+03  0.25500000920E-02 0. -1.
       -2    1    3    3    0  502 -0.64788974452E+03 -0.83918117911E+02  0.78542450016E+03  0.10216139276E+04  0.25500000920E-02 0.  1.
</event>
<event>
 5   0  0.2541124E-04  0.1792604E+04  0.7818609E-02  0.8710242E-01
        2   -1    0    0  501    0  0.00000000000E+00  0.00000000000E+00  0.16323968111E+04  0.16323968111E+04  0.25500000920E-02 0.  1.
       -2   -1    0    0    0  501  0.00000000000E+00  0.00000000000E+00 -0.49213359498E+03  0.49213359499E+03  0.25500000920E-02 0. -1.
    10030    2    1    2    0    0  0.00000000000E+00  0.00000000000E+00  0.11402632161E+04  0.21245304061E+04  0.17926040400E+04 0.  0.
        5    1    3    3  502    0 -0.22508722426E+03 -0.52845235959E+03 -0.24531750667E+03  0.62460301309E+03  0.46999998093E+01 0. -1.
       -5    1    3    3    0  502  0.22508722426E+03  0.52845235959E+03  0.13855807228E+04  0.14999273930E+04  0.46999998093E+01 0.  1.
</event>
<event>
 5   0  0.1255141E-04  0.1909731E+04  0.7818609E-02  0.8650028E-01
       -1   -1    0    0    0  501  0.00000000000E+00  0.00000000000E+00  0.15480076686E+04  0.15480076686E+04  0.50400001928E-02 0. -1.
        1   -1    0    0  501    0  0.00000000000E+00  0.00000000000E+00 -0.58899453313E+03  0.58899453315E+03  0.50400001928E-02 0.  1.
    10030    2    1    2    0    0  0.00000000000E+00  0.00000000000E+00  0.95901313548E+03  0.21370022018E+04  0.19097309277E+04 0.  0.
        2    1    3    3  502    0  0.69495690013E+03  0.43941124626E+03 -0.63783374959E+02  0.82469124847E+03  0.25500000920E-02 0.  1.
       -2    1    3    3    0  502 -0.69495690013E+03 -0.43941124626E+03  0.10227965104E+04  0.13123109533E+04  0.25500000920E-02 0. -1.
</event>
<event>
 5   0  0.2608744E-04  0.1742759E+04  0.7818609E-02  0.8737346E-01
        2   -1    0    0  501    0  0.00000000000E+00  0.00000000000E+00  0.12663950505E+04  0.12663950505E+04  0.25500000920E-02 0. -1.
       -2   -1    0    0    0  501  0.00000000000E+00  0.00000000000E+00 -0.59957743895E+03  0.59957743896E+03  0.25500000920E-02 0.  1.
    10030    2    1    2    0    0  0.00000000000E+00  0.00000000000E+00  0.66681761155E+03  0.18659724895E+04  0.17427586191E+04 0.  0.
        2    1    3    3  502    0  0.11721669382E+03 -0.50588973594E+03  0.10826220258E+04  0.12007225446E+04  0.25500000920E-02 0. -1.
       -2    1    3    3    0  502 -0.11721669382E+03  0.50588973594E+03 -0.41580441427E+03  0.66524994489E+03  0.25500000920E-02 0.  1.
</event>
<event>
 5   0  0.2651828E-04  0.1901455E+04  0.7818609E-02  0.8654132E-01
       -2   -1    0    0    0  501  0.00000000000E+00  0.00000000000E+00  0.52774052117E+03  0.52774052117E+03  0.25500000920E-02 0. -1.
        2   -1    0    0  501    0  0.00000000000E+00  0.00000000000E+00 -0.17127410461E+04  0.17127410461E+04  0.25500000920E-02 0.  1.
    10030    2    1    2    0    0  0.00000000000E+00  0.00000000000E+00 -0.11850005250E+04  0.22404815673E+04  0.19014550768E+04 0.  0.
        3    1    3    3  502    0 -0.58118184944E+03 -0.16700344910E+03  0.27194074783E+03  0.66303414291E+03  0.10100000352E+00 0. -1.
       -3    1    3    3    0  502  0.58118184944E+03  0.16700344910E+03 -0.14569412728E+04  0.15774474244E+04  0.10100000352E+00 0.  1.
</event>
<event>
 5   0  0.9266125E-05  0.1748841E+04  0.7818609E-02  0.8733989E-01
        3   -1    0    0  501    0  0.00000000000E+00  0.00000000000E+00  0.43669764112E+03  0.43669765280E+03  0.10100000352E+00 0.  1.
       -3   -1    0    0    0  501  0.00000000000E+00  0.00000000000E+00 -0.17508935285E+04  0.17508935314E+04  0.10100000352E+00 0. -1.
    10030    2    1    2    0    0  0.00000000000E+00  0.00000000000E+00 -0.13141958873E+04  0.21875911842E+04  0.17488408615E+04 0.  0.
        1    1    3    3  502    0 -0.33803406881E+03  0.55905218128E+03 -0.13841219092E+04  0.15305554001E+04  0.50400001928E-02 0. -1.
       -1    1    3    3    0  502  0.33803406881E+03 -0.55905218128E+03  0.69926021859E+02  0.65703578413E+03  0.50400001928E-02 0.  1.
</event>
<event>
 5   0  0.1324058E-04  0.1911912E+04  0.7818609E-02  0.8648950E-01
       -1   -1    0    0    0  501  0.00000000000E+00  0.00000000000E+00  0.65218899490E+03  0.65218899492E+03  0.50400001928E-02 0. -1.
        1   -1    0    0  501    0  0.00000000000E+00  0.00000000000E+00 -0.14012065354E+04  0.14012065354E+04  0.50400001928E-02 0.  1.
    10030    2    1    2    0    0  0.00000000000E+00  0.00000000000E+00 -0.74901754049E+03  0.20533955303E+04  0.19119115900E+04 0.  0.
        5    1    3    3  502    0  0.50425890211E+03  0.34203717571E+03  0.41658845667E+03  0.73812905521E+03  0.46999998093E+01 0. -1.
       -5    1    3    3    0  502 -0.50425890211E+03 -0.34203717571E+03 -0.11656059972E+04  0.13152664751E+04  0.46999998093E+01 0.  1.
</event>
<event>
 5   0  0.2595012E-04  0.1864868E+04  0.7818609E-02  0.8672544E-01
        2   -1    0    0  501    0  0.00000000000E+00  0.00000000000E+00  0.12140241190E+04  0.12140241190E+04  0.25500000920E-02 0. -1.
       -2   -1    0    0    0  501  0.00000000000E+00  0.00000000000E+00 -0.71615807627E+03  0.71615807628E+03  0.25500000920E-02 0.  1.
    10030    2    1    2    0    0  0.00000000000E+00  0.00000000000E+00  0.49786604268E+03  0.19301821952E+04  0.18648680142E+04 0.  0.
        1    1    3    3  502    0  0.64222917720E+03  0.29722880512E+03 -0.37948044598E+03  0.80299980545E+03  0.50400001928E-02 0.  1.
       -1    1    3    3    0  502 -0.64222917720E+03 -0.29722880512E+03  0.87734648866E+03  0.11271823898E+04  0.50400001928E-02 0. -1.
</event>
<event>
 5   0  0.1277709E-04  0.1897123E+04  0.7818609E-02  0.8656290E-01
        1   -1    0    0  501    0  0.00000000000E+00  0.00000000000E+00  0.20238973546E+04  0.20238973546E+04  0.50400001928E-02 0. -1.
       -1   -1    0    0    0  501  0.00000000000E+00  0.00000000000E+00 -0.44457261744E+03  0.44457261747E+03  0.50400001928E-02 0.  1.
    10030    2    1    2    0    0  0.00000000000E+00  0.00000000000E+00  0.15793247372E+04  0.24684699721E+04  0.18971234482E+04 0.  0.
        4    1    3    3  502    0  0.15577212777E+02 -0.56989936086E+03  0.17760960510E+04  0.18653543166E+04  0.12699999809E+01 0. -1.
       -4    1    3    3    0  502 -0.15577212777E+02  0.56989936086E+03 -0.19677131383E+03  0.60311565551E+03  0.12699999809E+01 0.  1.
</event>
<event>
 5   0  0.1255141E-04  0.1953604E+04  0.7818609E-02  0.8628625E-01
       -1   -1    0    0    0  501  0.00000000000E+00  0.00000000000E+00  0.60528406755E+03  0.60528406757E+03  0.50400001928E-02 0.  1.
        1   -1    0    0  501    0  0.00000000000E+00  0.00000000000E+00 -0.15763545545E+04  0.15763545545E+04  0.50400001928E-02 0. -1.
    10030    2    1    2    0    0  0.00000000000E+00  0.00000000000E+00 -0.97107048695E+03  0.21816386221E+04  0.19536041530E+04 0.  0.
        2    1    3    3  502    0 -0.81073100867E+02 -0.51444186649E+03 -0.14083846690E+04  0.15015893772E+04  0.25500000920E-02 0. -1.
       -2    1    3    3    0  502  0.81073100867E+02  0.51444186649E+03  0.43731418206E+03  0.68004924492E+03  0.25500000920E-02 0.  1.
</event>
<event>
 5   0  0.2562925E-04  0.1920965E+04  0.7818609E-02  0.8644490E-01
       -2   -1    0    0    0  501  0.00000000000E+00  0.00000000000E+00  0.10675410063E+04  0.10675410063E+04  0.25500000920E-02 0. -1.
        2   -1    0    0  501    0  0.00000000000E+00  0.00000000000E+00 -0.86416051968E+03  0.86416051968E+03  0.25500000920E-02 0.  1.
    10030    2    1    2    0    0  0.00000000000E+00  0.00000000000E+00  0.20338048662E+03  0.19317015260E+04  0.19209651645E+04 0.  0.
        4    1    3    3  502    0  0.53585152814E+03 -0.44064773409E+03  0.76964506833E+03  0.10361768333E+04  0.12699999809E+01 0. -1.
       -4    1    3    3    0  502 -0.53585152814E+03  0.44064773409E+03 -0.56626458172E+03  0.89552469267E+03  0.12699999809E+01 0.  1.
</event>
<event>
 5   0  0.2608744E-04  0.1536121E+04  0.7818609E-02  0.8860782E-01
       -2   -1    0    0    0  501  0.00000000000E+00  0.00000000000E+00  0.56770012757E+03  0.56770012757E+03  0.25500000920E-02 0.  1.
        2   -1    0    0  501    0  0.00000000000E+00  0.00000000000E+00 -0.10391348107E+04  0.10391348107E+04  0.25500000920E-02 0. -1.
    10030    2    1    2    0    0  0.00000000000E+00  0.00000000000E+00 -0.47143468314E+03  0.16068349383E+04  0.15361210429E+04 0.  0.
        2    1    3    3  502    0  0.67199676726E+03 -0.21645840662E+03  0.80667878479E+02  0.71059215000E+03  0.25500000920E-02 0.  1.
       -2    1    3    3    0  502 -0.67199676726E+03  0.21645840662E+03 -0.55210256162E+03  0.89624278829E+03  0.25500000920E-02 0. -1.
</event>
<event>
 5   0  0.2541124E-04  0.1918166E+04  0.7818609E-02  0.8645867E-01
       -2   -1    0    0    0  501  0.00000000000E+00  0.00000000000E+00  0.70384984878E+03  0.70384984878E+03  0.25500000920E-02 0.  1.
        2   -1    0    0  501    0  0.00000000000E+00  0.00000000000E+00 -0.13068694416E+04  0.13068694416E+04  0.25500000920E-02 0. -1.
    10030    2    1    2    0    0  0.00000000000E+00  0.00000000000E+00 -0.60301959285E+03  0.20107192904E+04  0.19181656434E+04 0.  0.
        5    1    3    3  502    0  0.30999348512E+03  0.88284952485E+03 -0.52213746061E+03  0.10715264169E+04  0.46999998093E+01 0. -1.
       -5    1    3    3    0  502 -0.30999348512E+03 -0.88284952485E+03 -0.80882132232E+02  0.93919287351E+03  0.46999998093E+01 0.  1.
</event>
<event>
 5   0  0.1255141E-04  0.1900582E+04  0.7818609E-02  0.8654567E-01
        1   -1    0    0  501    0  0.00000000000E+00  0.00000000000E+00  0.22917918320E+04  0.22917918320E+04  0.50400001928E-02 0. -1.
       -1   -1    0    0    0  501  0.00000000000E+00  0.00000000000E+00 -0.39403780910E+03  0.39403780914E+03  0.50400001928E-02 0.  1.
    10030    2    1    2    0    0  0.00000000000E+00  0.00000000000E+00  0.18977540229E+04  0.26858296411E+04  0.19005816293E+04 0.  0.
        2    1    3    3  502    0 -0.34542518101E+03  0.69070800785E+03  0.16631630046E+03  0.78997292333E+03  0.25500000920E-02 0.  1.
       -2    1    3    3    0  502  0.34542518101E+03 -0.69070800785E+03  0.17314377224E+04  0.18958567178E+04  0.25500000920E-02 0. -1.
</event>
<event>
 5   0  0.2562925E-04  0.1842919E+04  0.7818609E-02  0.8683803E-01
        2   -1    0    0  501    0  0.00000000000E+00  0.00000000000E+00  0.10205649476E+04  0.10205649476E+04  0.25500000920E-02 0.  1.
       -2   -1    0    0    0  501  0.00000000000E+00  0.00000000000E+00 -0.83197827830E+03  0.83197827830E+03  0.25500000920E-02 0. -1.
    10030    2    1    2    0    0  0.00000000000E+00  0.00000000000E+00  0.18858666931E+03  0.18525432259E+04  0.18429192798E+04 0.  0.
        4    1    3    3  502    0  0.42232413789E+03 -0.39657125654E+03  0.81459640716E+03  0.99959759825E+03  0.12699999809E+01 0.  1.
       -4    1    3    3    0  502 -0.42232413789E+03  0.39657125654E+03 -0.62600973785E+03  0.85294562766E+03  0.12699999809E+01 0. -1.
</event>
<event>
 5   0  0.2651828E-04  0.1740540E+04  0.7818609E-02  0.8738575E-01
       -2   -1    0    0    0  501  0.00000000000E+00  0.00000000000E+00  0.85305161402E+03  0.85305161402E+03  0.25500000920E-02 0. -1.
        2   -1    0    0  501    0  0.00000000000E+00  0.00000000000E+00 -0.88783594144E+03  0.88783594144E+03  0.25500000920E-02 0.  1.
    10030    2    1    2    0    0  0.00000000000E+00  0.00000000000E+00 -0.34784327419E+02  0.17408875555E+04  0.17405400114E+04 0.  0.
        3    1    3    3  502    0 -0.54007395432E+03 -0.31356567788E+03  0.58883657643E+03  0.85833084205E+03  0.10100000352E+00 0. -1.
       -3    1    3    3    0  502  0.54007395432E+03  0.31356567788E+03 -0.62362090385E+03  0.88255671341E+03  0.10100000352E+00 0.  1.
</event>
<event>
 5   0  0.1239615E-04  0.1911264E+04  0.7818609E-02  0.8649270E-01
       -1   -1    0    0    0  501  0.00000000000E+00  0.00000000000E+00  0.81332325913E+03  0.81332325914E+03  0.50400001928E-02 0. -1.
        1   -1    0    0  501    0  0.00000000000E+00  0.00000000000E+00 -0.11228402031E+04  0.11228402031E+04  0.50400001928E-02 0.  1.
    10030    2    1    2    0    0  0.00000000000E+00  0.00000000000E+00 -0.30951694400E+03  0.19361634623E+04  0.19112635125E+04 0.  0.
        3    1    3    3  502    0 -0.58070159221E+03 -0.75515726052E+03 -0.23160995719E+03  0.98036728311E+03  0.10100000352E+00 0.  1.
       -3    1    3    3    0  502  0.58070159221E+03  0.75515726052E+03 -0.77906986808E+02  0.95579617917E+03  0.10100000352E+00 0. -1.
</event>
<event>
 5   0  0.2651828E-04  0.1895504E+04  0.7818609E-02  0.8657098E-01
        2   -1    0    0  501    0  0.00000000000E+00  0.00000000000E+00  0.98098515381E+03  0.98098515382E+03  0.25500000920E-02 0. -1.
       -2   -1    0    0    0  501  0.00000000000E+00  0.00000000000E+00 -0.91564457761E+03  0.91564457761E+03  0.25500000920E-02 0.  1.
    10030    2    1    2    0    0  0.00000000000E+00  0.00000000000E+00  0.65340576203E+02  0.18966297314E+04  0.18955038769E+04 0.  0.
        3    1    3    3  502    0  0.93804690215E+02  0.52662516871E+03 -0.75016282390E+03  0.92134557078E+03  0.10100000352E+00 0.  1.
       -3    1    3    3    0  502 -0.93804690215E+02 -0.52662516871E+03  0.81550340011E+03  0.97528416065E+03  0.10100000352E+00 0. -1.
</event>
<event>
 5   0  0.1255141E-04  0.1908264E+04  0.7818609E-02  0.8650754E-01
        1   -1    0    0  501    0  0.00000000000E+00  0.00000000000E+00  0.19948341833E+04  0.19948341834E+04  0.50400001928E-02 0.  1.
       -1   -1    0    0    0  501  0.00000000000E+00  0.00000000000E+00 -0.45636248045E+03  0.45636248047E+03  0.50400001928E-02 0. -1.
    10030    2    1    2    0    0  0.00000000000E+00  0.00000000000E+00  0.15384717029E+04  0.24511966638E+04  0.19082635835E+04 0.  0.
        2    1    3    3  502    0  0.90540647911E+03 -0.16026020014E+03  0.10965312704E+04  0.14310223797E+04  0.25500000920E-02 0. -1.
       -2    1    3    3    0  502 -0.90540647911E+03  0.16026020014E+03  0.44194043252E+03  0.10201742842E+04  0.25500000920E-02 0.  1.
</event>
<event>
 5   0  0.1317527E-04  0.1900379E+04  0.7818609E-02  0.8654668E-01
       -1   -1    0    0    0  501  0.00000000000E+00  0.00000000000E+00  0.77621665282E+03  0.77621665284E+03  0.50400001928E-02 0. -1.
        1   -1    0    0  501    0  0.00000000000E+00  0.00000000000E+00 -0.11631546938E+04  0.11631546938E+04  0.50400001928E-02 0.  1.
    10030    2    1    2    0    0  0.00000000000E+00  0.00000000000E+00 -0.38693804098E+03  0.19393713466E+04  0.19003789550E+04 0.  0.
        1    1    3    3  502    0 -0.36870658302E+03 -0.57053327275E+02  0.69833803206E+03  0.79175478121E+03  0.50400001928E-02 0. -1.
       -1    1    3    3    0  502  0.36870658302E+03  0.57053327275E+02 -0.10852760730E+04  0.11476165654E+04  0.50400001928E-02 0.  1.
</event>
<event>
 5   0  0.2562925E-04  0.1903670E+04  0.7818609E-02  0.8653032E-01
       -2   -1    0    0    0  501  0.00000000000E+00  0.00000000000E+00  0.83149606021E+03  0.83149606022E+03  0.25500000920E-02 0.  1.
        2   -1    0    0  501    0  0.00000000000E+00  0.00000000000E+00 -0.10895906006E+04  0.10895906006E+04  0.25500000920E-02 0. -1.
    10030    2    1    2    0    0  0.00000000000E+00  0.00000000000E+00 -0.25809454036E+03  0.19210866608E+04  0.19036704459E+04 0.  0.
        4    1    3    3  502    0  0.38900916607E+03  0.84093873819E+03  0.90851282445E+02  0.93100035505E+03  0.12699999809E+01 0. -1.
       -4    1    3    3    0  502 -0.38900916607E+03 -0.84093873819E+03 -0.34894582280E+03  0.99008630575E+03  0.12699999809E+01 0.  1.
</event>
<event>
 5   0  0.2562925E-04  0.1929795E+04  0.7818609E-02  0.8640166E-01
       -2   -1    0    0    0  501  0.00000000000E+00  0.00000000000E+00  0.76623028693E+03  0.76623028694E+03  0.25500000920E-02 0.  1.
        2   -1    0    0  501    0  0.00000000000E+00  0.00000000000E+00 -0.12150749545E+04  0.12150749545E+04  0.25500000920E-02 0. -1.
    10030    2    1    2    0    0  0.00000000000E+00  0.00000000000E+00 -0.44884466755E+03  0.19813052414E+04  0.19297950472E+04 0.  0.
        4    1    3    3  502    0  0.33534638695E+02  0.16776998258E+03 -0.11993767412E+04  0.12115186830E+04  0.12699999809E+01 0. -1.
       -4    1    3    3    0  502 -0.33534638695E+02 -0.16776998258E+03  0.75053207365E+03  0.76978655842E+03  0.12699999809E+01 0.  1.
</event>
<event>
 5   0  0.2562925E-04  0.1900109E+04  0.7818609E-02  0.8654802E-01
        2   -1    0    0  501    0  0.00000000000E+00  0.00000000000E+00  0.65086050778E+03  0.65086050778E+03  0.25500000920E-02 0. -1.
       -2   -1    0    0    0  501  0.00000000000E+00  0.00000000000E+00 -0.13867846449E+04  0.13867846449E+04  0.25500000920E-02 0.  1.
    10030    2    1    2    0    0  0.00000000000E+00  0.00000000000E+00 -0.73592413709E+03  0.20376451527E+04  0.19001087949E+04 0.  0.
        4    1    3    3  502    0  0.43369208340E+03  0.38734675012E+02 -0.12734833754E+04  0.13458643017E+04  0.12699999809E+01 0.  1.
       -4    1    3    3    0  502 -0.43369208340E+03 -0.38734675012E+02  0.53755923827E+03  0.69178085099E+03  0.12699999809E+01 0. -1.
</event>
<event>
 5   0  0.1317527E-04  0.1874384E+04  0.7818609E-02  0.8667713E-01
        1   -1    0    0  501    0  0.00000000000E+00  0.00000000000E+00  0.69600313333E+03  0.69600313335E+03  0.50400001928E-02 0. -1.
       -1   -1    0    0    0  501  0.00000000000E+00  0.00000000000E+00 -0.12619610831E+04  0.12619610831E+04  0.50400001928E-02 0.  1.
    10030    2    1    2    0    0  0.00000000000E+00  0.00000000000E+00 -0.56595794980E+03  0.19579642165E+04  0.18743840247E+04 0.  0.
        1    1    3    3  502    0 -0.54120493093E+02 -0.23374657948E+03 -0.12293357519E+04  0.12525305913E+04  0.50400001928E-02 0.  1.
       -1    1    3    3    0  502  0.54120493093E+02  0.23374657948E+03  0.66337780211E+03  0.70543362519E+03  0.50400001928E-02 0. -1.
</event>
<event>
 5   0  0.2651828E-04  0.1867745E+04  0.7818609E-02  0.8671080E-01
       -2   -1    0    0    0  501  0.00000000000E+00  0.00000000000E+00  0.10794164938E+04  0.10794164938E+04  0.25500000920E-02 0.  1.
        2   -1    0    0  501    0  0.00000000000E+00  0.00000000000E+00 -0.80795346281E+03  0.80795346281E+03  0.25500000920E-02 0. -1.
    10030    2    1    2    0    0  0.00000000000E+00  0.00000000000E+00  0.27146303097E+03  0.18873699566E+04  0.18677454794E+04 0.  0.
        3    1    3    3  502    0 -0.61418907699E+03  0.70228350509E+03  0.17724773875E+03  0.94965631410E+03  0.10100000352E+00 0. -1.
       -3    1    3    3    0  502  0.61418907699E+03 -0.70228350509E+03  0.94215292227E+02  0.93771364249E+03  0.10100000352E+00 0.  1.
</event>
<event>
 5   0  0.2595012E-04  0.1957889E+04  0.7818609E-02  0.8626566E-01
        2   -1    0    0  501    0  0.00000000000E+00  0.00000000000E+00  0.14164091439E+04  0.14164091439E+04  0.25500000920E-02 0. -1.
       -2   -1    0    0    0  501  0.00000000000E+00  0.00000000000E+00 -0.67659313000E+03  0.67659313000E+03  0.25500000920E-02 0.  1.
    10030    2    1    2    0    0  0.00000000000E+00  0.00000000000E+00  0.73981601389E+03  0.20930022739E+04  0.19578893697E+04 0.  0.
        1    1    3    3  502    0 -0.70867448340E+03 -0.27504257535E+03 -0.28947654313E+03  0.81342769238E+03  0.50400001928E-02 0.  1.
       -1    1    3    3    0  502  0.70867448340E+03  0.27504257535E+03  0.10292925570E+04  0.12795745815E+04  0.50400001928E-02 0. -1.
</event>
<event>
 5   0  0.1255141E-04  0.1894324E+04  0.7818609E-02  0.8657687E-01
       -1   -1    0    0    0  501  0.00000000000E+00  0.00000000000E+00  0.10564789077E+04  0.10564789077E+04  0.50400001928E-02 0. -1.
        1   -1    0    0  501    0  0.00000000000E+00  0.00000000000E+00 -0.84915600629E+03  0.84915600631E+03  0.50400001928E-02 0.  1.
    10030    2    1    2    0    0  0.00000000000E+00  0.00000000000E+00  0.20732290140E+03  0.19056349140E+04  0.18943235310E+04 0.  0.
        2    1    3    3  502    0  0.46380270063E+03  0.14798929172E+03 -0.71365633763E+03  0.86389764661E+03  0.25500000920E-02 0.  1.
       -2    1    3    3    0  502 -0.46380270063E+03 -0.14798929172E+03  0.92097923903E+03  0.10417372674E+04  0.25500000920E-02 0. -1.
</event>
<event>
 5   0  0.1317527E-04  0.1911306E+04  0.7818609E-02  0.8649249E-01
        1   -1    0    0  501    0  0.00000000000E+00  0.00000000000E+00  0.49708041523E+03  0.49708041525E+03  0.50400001928E-02 0.  1.
       -1   -1    0    0    0  501  0.00000000000E+00  0.00000000000E+00 -0.18372734515E+04  0.18372734515E+04  0.50400001928E-02 0. -1.
    10030    2    1    2    0    0  0.00000000000E+00  0.00000000000E+00 -0.13401930363E+04  0.23343538668E+04  0.19113059935E+04 0.  0.
        1    1    3    3  502    0 -0.23440116210E+03 -0.32186615646E+03  0.39094540117E+03  0.55801436737E+03  0.50400001928E-02 0.  1.
       -1    1    3    3    0  502  0.23440116210E+03  0.32186615646E+03 -0.17311384375E+04  0.17763394994E+04  0.50400001928E-02 0. -1.
</event>
<event>
 5   0  0.1255141E-04  0.1891251E+04  0.7818609E-02  0.8659223E-01
        1   -1    0    0  501    0  0.00000000000E+00  0.00000000000E+00  0.48803247639E+03  0.48803247642E+03  0.50400001928E-02 0.  1.
       -1   -1    0    0    0  501  0.00000000000E+00  0.00000000000E+00 -0.18322715423E+04  0.18322715423E+04  0.50400001928E-02 0. -1.
    10030    2    1    2    0    0  0.00000000000E+00  0.00000000000E+00 -0.13442390659E+04  0.23203040187E+04  0.18912514568E+04 0.  0.
        2    1    3    3  502    0 -0.35250693967E+02  0.43640459660E+03 -0.17004290636E+04  0.17558902539E+04  0.25500000920E-02 0. -1.
       -2    1    3    3    0  502  0.35250693967E+02 -0.43640459660E+03  0.35618999775E+03  0.56441376477E+03  0.25500000920E-02 0.  1.
</event>
<event>
 5   0  0.2651828E-04  0.1557711E+04  0.7818609E-02  0.8846958E-01
       -2   -1    0    0    0  501  0.00000000000E+00  0.00000000000E+00  0.46095104531E+03  0.46095104532E+03  0.25500000920E-02 0. -1.
        2   -1    0    0  501    0  0.00000000000E+00  0.00000000000E+00 -0.13160088670E+04  0.13160088670E+04  0.25500000920E-02 0.  1.
    10030    2    1    2    0    0  0.00000000000E+00  0.00000000000E+00 -0.85505782169E+03  0.17769599123E+04  0.15577107086E+04 0.  0.
        3    1    3    3  502    0 -0.31455637273E+03 -0.22141512071E+02  0.38487452928E+03  0.49755841031E+03  0.10100000352E+00 0. -1.
       -3    1    3    3    0  502  0.31455637273E+03  0.22141512071E+02 -0.12399323510E+04  0.12794015020E+04  0.10100000352E+00 0.  1.
</event>
<event>
 5   0  0.1255141E-04  0.1931047E+04  0.7818609E-02  0.8639555E-01
        1   -1    0    0  501    0  0.00000000000E+00  0.00000000000E+00  0.11867982348E+04  0.11867982348E+04  0.50400001928E-02 0. -1.
       -1   -1    0    0    0  501  0.00000000000E+00  0.00000000000E+00 -0.78550477692E+03  0.78550477694E+03  0.50400001928E-02 0.  1.
    10030    2    1    2    0    0  0.00000000000E+00  0.00000000000E+00  0.40129345787E+03  0.19723030117E+04  0.19310470556E+04 0.  0.
        2    1    3    3  502    0  0.40384200572E+03  0.16582810835E+03  0.10802357506E+04  0.11651165624E+04  0.25500000920E-02 0. -1.
       -2    1    3    3    0  502 -0.40384200572E+03 -0.16582810835E+03 -0.67894229274E+03  0.80718644933E+03  0.25500000920E-02 0.  1.
</event>
<event>
 5   0  0.2562925E-04  0.1874146E+04  0.7818609E-02  0.8667834E-01
       -2   -1    0    0    0  501  0.00000000000E+00  0.00000000000E+00  0.45255264226E+03  0.45255264227E+03  0.25500000920E-02 0. -1.
        2   -1    0    0  501    0  0.00000000000E+00  0.00000000000E+00 -0.19403390467E+04  0.19403390467E+04  0.25500000920E-02 0.  1.
    10030    2    1    2    0    0  0.00000000000E+00  0.00000000000E+00 -0.14877864044E+04  0.23928916889E+04  0.18741457387E+04 0.  0.
        4    1    3    3  502    0 -0.16508193296E+03 -0.32552489679E+03  0.35806323467E+03  0.51130166824E+03  0.12699999809E+01 0. -1.
       -4    1    3    3    0  502  0.16508193296E+03  0.32552489679E+03 -0.18458496391E+04  0.18815900207E+04  0.12699999809E+01 0.  1.
</event>
<event>
 5   0  0.1239615E-04  0.1951950E+04  0.7818609E-02  0.8629421E-01
       -1   -1    0    0    0  501  0.00000000000E+00  0.00000000000E+00  0.13931164751E+04  0.13931164751E+04  0.50400001928E-02 0.  1.
        1   -1    0    0  501    0  0.00000000000E+00  0.00000000000E+00 -0.68373867477E+03  0.68373867479E+03  0.50400001928E-02 0. -1.
    10030    2    1    2    0    0  0.00000000000E+00  0.00000000000E+00  0.70937780030E+03  0.20768551499E+04  0.19519504220E+04 0.  0.
        3    1    3    3  502    0  0.34017335527E+03  0.35624370396E+02 -0.61788184643E+03  0.70623295997E+03  0.10100000352E+00 0. -1.
       -3    1    3    3    0  502 -0.34017335527E+03 -0.35624370396E+02  0.13272596467E+04  0.13706221899E+04  0.10100000352E+00 0.  1.
</event>
<event>
 5   0  0.1317527E-04  0.1885844E+04  0.7818609E-02  0.8661935E-01
        1   -1    0    0  501    0  0.00000000000E+00  0.00000000000E+00  0.19600557320E+04  0.19600557320E+04  0.50400001928E-02 0. -1.
       -1   -1    0    0    0  501  0.00000000000E+00  0.00000000000E+00 -0.45361047070E+03  0.45361047073E+03  0.50400001928E-02 0.  1.
    10030    2    1    2    0    0  0.00000000000E+00  0.00000000000E+00  0.15064452613E+04  0.24136662027E+04  0.18858438994E+04 0.  0.
        1    1    3    3  502    0 -0.48816517026E+02 -0.74894393778E+03  0.22675632732E+02  0.75087566122E+03  0.50400001928E-02 0.  1.
       -1    1    3    3    0  502  0.48816517026E+02  0.74894393778E+03  0.14837696286E+04  0.16627905415E+04  0.50400001928E-02 0. -1.
</event>
<event>
 5   0  0.2562925E-04  0.1911087E+04  0.7818609E-02  0.8649357E-01
        2   -1    0    0  501    0  0.00000000000E+00  0.00000000000E+00  0.12779720940E+04  0.12779720941E+04  0.25500000920E-02 0.  1.
       -2   -1    0    0    0  501  0.00000000000E+00  0.00000000000E+00 -0.71446273874E+03  0.71446273875E+03  0.25500000920E-02 0. -1.
    10030    2    1    2    0    0  0.00000000000E+00  0.00000000000E+00  0.56350935531E+03  0.19924348328E+04  0.19110870648E+04 0.  0.
        4    1    3    3  502    0 -0.60411278196E+03  0.56772120742E+03  0.77716807131E+03  0.11363324543E+04  0.12699999809E+01 0.  1.
       -4    1    3    3    0  502  0.60411278196E+03 -0.56772120742E+03 -0.21365871601E+03  0.85610237852E+03  0.12699999809E+01 0. -1.
</event>
<event>
 5   0  0.2541124E-04  0.1888295E+04  0.7818609E-02  0.8660705E-01
        2   -1    0    0  501    0  0.00000000000E+00  0.00000000000E+00  0.19496733633E+04  0.19496733633E+04  0.25500000920E-02 0.  1.
       -2   -1    0    0    0  501  0.00000000000E+00  0.00000000000E+00 -0.45721206155E+03  0.45721206156E+03  0.25500000920E-02 0. -1.
    10030    2    1    2    0    0  0.00000000000E+00  0.00000000000E+00  0.14924613018E+04  0.24068854249E+04  0.18882946569E+04 0.  0.
        5    1    3    3  502    0  0.64493264372E+03  0.61367780730E+02  0.16216437726E+04  0.17462688037E+04  0.46999998093E+01 0.  1.
       -5    1    3    3    0  502 -0.64493264372E+03 -0.61367780730E+02 -0.12918247083E+03  0.66061662121E+03  0.46999998093E+01 0. -1.
</event>
<event>
 5   0  0.1255141E-04  0.1911995E+04  0.7818609E-02  0.8648909E-01
       -1   -1    0    0    0  501  0.00000000000E+00  0.00000000000E+00  0.73235715947E+03  0.73235715948E+03  0.50400001928E-02 0.  1.
        1   -1    0    0  501    0  0.00000000000E+00  0.00000000000E+00 -0.12479313856E+04  0.12479313856E+04  0.50400001928E-02 0. -1.
    10030    2    1    2    0    0  0.00000000000E+00  0.00000000000E+00 -0.51557422616E+03  0.19802885451E+04  0.19119952770E+04 0.  0.
        2    1    3    3  502    0  0.39980330631E+03  0.72412110395E+03 -0.75421656295E+03  0.11193912099E+04  0.25500000920E-02 0. -1.
       -2    1    3    3    0  502 -0.39980330631E+03 -0.72412110395E+03  0.23864233678E+03  0.86089733525E+03  0.25500000920E-02 0.  1.
</event>
<event>
 5   0  0.1255141E-04  0.1903302E+04  0.7818609E-02  0.8653214E-01
       -1   -1    0    0    0  501  0.00000000000E+00  0.00000000000E+00  0.10544144820E+04  0.10544144820E+04  0.50400001928E-02 0. -1.
        1   -1    0    0  501    0  0.00000000000E+00  0.00000000000E+00 -0.85890309193E+03  0.85890309195E+03  0.50400001928E-02 0.  1.
    10030    2    1    2    0    0  0.00000000000E+00  0.00000000000E+00  0.19551139003E+03  0.19133175739E+04  0.19033022448E+04 0.  0.
        2    1    3    3  502    0  0.74377730163E+03  0.91876927776E+02  0.68735181576E+03  0.10169063688E+04  0.25500000920E-02 0. -1.
       -2    1    3    3    0  502 -0.74377730163E+03 -0.91876927776E+02 -0.49184042573E+03  0.89641120512E+03  0.25500000920E-02 0.  1.
</event>
<event>
 5   0  0.1317527E-04  0.1954818E+04  0.7818609E-02  0.8628041E-01
       -1   -1    0    0    0  501  0.00000000000E+00  0.00000000000E+00  0.10504200700E+04  0.10504200700E+04  0.50400001928E-02 0. -1.
        1   -1    0    0  501    0  0.00000000000E+00  0.00000000000E+00 -0.90947228249E+03  0.90947228250E+03  0.50400001928E-02 0.  1.
    10030    2    1    2    0    0  0.00000000000E+00  0.00000000000E+00  0.14094778751E+03  0.19598923525E+04  0.19548175758E+04 0.  0.
        1    1    3    3  502    0  0.10539494955E+03 -0.75117463139E+03 -0.54753244816E+03  0.93550157886E+03  0.50400001928E-02 0.  1.
       -1    1    3    3    0  502 -0.10539494955E+03  0.75117463139E+03  0.68848023567E+03  0.10243907737E+04  0.50400001928E-02 0. -1.
</event>
<event>
 5   0  0.1324058E-04  0.1860735E+04  0.7818609E-02  0.8674652E-01
       -1   -1    0    0    0  501  0.00000000000E+00  0.00000000000E+00  0.10317509370E+04  0.10317509370E+04  0.50400001928E-02 0. -1.
        1   -1    0    0  501    0  0.00000000000E+00  0.00000000000E+00 -0.83894653923E+03  0.83894653924E+03  0.50400001928E-02 0.  1.
    10030    2    1    2    0    0  0.00000000000E+00  0.00000000000E+00  0.19280439776E+03  0.18706974762E+04  0.18607352073E+04 0.  0.
        5    1    3    3  502    0 -0.86808268525E+03 -0.29105750329E+03  0.26245237170E+03  0.95246278461E+03  0.46999998093E+01 0.  1.
       -5    1    3    3    0  502  0.86808268525E+03  0.29105750329E+03 -0.69647973945E+02  0.91823469163E+03  0.46999998093E+01 0. -1.
</event>
<event>
 5   0  0.1239615E-04  0.1891451E+04  0.7818609E-02  0.8659124E-01
        1   -1    0    0  501    0  0.00000000000E+00  0.00000000000E+00  0.91482159143E+03  0.91482159144E+03  0.50400001928E-02 0. -1.
       -1   -1    0    0    0  501  0.00000000000E+00  0.00000000000E+00 -0.97767312048E+03  0.97767312049E+03  0.50400001928E-02 0.  1.
    10030    2    1    2    0    0  0.00000000000E+00  0.00000000000E+00 -0.62851529055E+02  0.18924947119E+04  0.18914507448E+04 0.  0.
        3    1    3    3  502    0 -0.25192442821E+03  0.16347730265E+03 -0.92869591071E+03  0.97604654130E+03  0.10100000352E+00 0.  1.
       -3    1    3    3    0  502  0.25192442821E+03 -0.16347730265E+03  0.86584438166E+03  0.91644817063E+03  0.10100000352E+00 0. -1.
</event>
<event>
 5   0  0.2595012E-04  0.1919015E+04  0.7818609E-02  0.8645449E-01
       -2   -1    0    0    0  501  0.00000000000E+00  0.00000000000E+00  0.64540381431E+03  0.64540381432E+03  0.25500000920E-02 0. -1.
        2   -1    0    0  501    0  0.00000000000E+00  0.00000000000E+00 -0.14264787750E+04  0.14264787750E+04  0.25500000920E-02 0.  1.
    10030    2    1    2    0    0  0.00000000000E+00  0.00000000000E+00 -0.78107496071E+03  0.20718825893E+04  0.19190152083E+04 0.  0.
        1    1    3    3  502    0  0.44119902366E+03 -0.70897127295E+03  0.11971776579E+03  0.84358116848E+03  0.50400001928E-02 0. -1.
       -1    1    3    3    0  502 -0.44119902366E+03  0.70897127295E+03 -0.90079272650E+03  0.12283014209E+04  0.50400001928E-02 0.  1.
</event>
<event>
 5   0  0.1324058E-04  0.1903455E+04  0.7818609E-02  0.8653138E-01
        1   -1    0    0  501    0  0.00000000000E+00  0.00000000000E+00  0.15767878341E+04  0.15767878341E+04  0.50400001928E-02 0.  1.
       -1   -1    0    0    0  501  0.00000000000E+00  0.00000000000E+00 -0.57444980823E+03  0.57444980825E+03  0.50400001928E-02 0. -1.
    10030    2    1    2    0    0  0.00000000000E+00  0.00000000000E+00  0.10023380259E+04  0.21512376424E+04  0.19034552466E+04 0.  0.
        5    1    3    3  502    0 -0.54172993876E+03 -0.69404986876E+02  0.13820351670E+04  0.14860456492E+04  0.46999998093E+01 0.  1.
       -5    1    3    3    0  502  0.54172993876E+03  0.69404986876E+02 -0.37969714112E+03  0.66519199313E+03  0.46999998093E+01 0. -1.
</event>
<event>
 5   0  0.1317527E-04  0.1902610E+04  0.7818609E-02  0.8653558E-01
        1   -1    0    0  501    0  0.00000000000E+00  0.00000000000E+00  0.80194153535E+03  0.80194153537E+03  0.50400001928E-02 0.  1.
       -1   -1    0    0    0  501  0.00000000000E+00  0.00000000000E+00 -0.11284878510E+04  0.11284878510E+04  0.50400001928E-02 0. -1.
    10030    2    1    2    0    0  0.00000000000E+00  0.00000000000E+00 -0.32654631564E+03  0.19304293864E+04  0.19026100808E+04 0.  0.
        1    1    3    3  502    0 -0.37448842617E+03  0.55628369394E+03  0.52134324496E+03  0.84940679804E+03  0.50400001928E-02 0.  1.
       -1    1    3    3    0  502  0.37448842617E+03 -0.55628369394E+03 -0.84788956061E+03  0.10810225883E+04  0.50400001928E-02 0. -1.
</event>
<event>
 5   0  0.1239615E-04  0.1900991E+04  0.7818609E-02  0.8654363E-01
        1   -1    0    0  501    0  0.00000000000E+00  0.00000000000E+00  0.19898128579E+04  0.19898128579E+04  0.50400001928E-02 0. -1.
       -1   -1    0    0    0  501  0.00000000000E+00  0.00000000000E+00 -0.45403333824E+03  0.45403333827E+03  0.50400001928E-02 0.  1.
    10030    2    1    2    0    0  0.00000000000E+00  0.00000000000E+00  0.15357795197E+04  0.24438461962E+04  0.19009906622E+04 0.  0.
        3    1    3    3  502    0 -0.70700100701E+03 -0.59750324387E+03  0.49043165050E+03  0.10475608643E+04  0.10100000352E+00 0.  1.
       -3    1    3    3    0  502  0.70700100701E+03  0.59750324387E+03  0.10453478692E+04  0.13962853319E+04  0.10100000352E+00 0. -1.
</event>
<event>
 5   0  0.1277709E-04  0.1909468E+04  0.7818609E-02  0.8650158E-01
       -1   -1    0    0    0  501  0.00000000000E+00  0.00000000000E+00  0.54025622480E+03  0.54025622483E+03  0.50400001928E-02 0.  1.
        1   -1    0    0  501    0  0.00000000000E+00  0.00000000000E+00 -0.16871931227E+04  0.16871931227E+04  0.50400001928E-02 0. -1.
    10030    2    1    2    0    0  0.00000000000E+00  0.00000000000E+00 -0.11469368979E+04  0.22274493476E+04  0.19094675562E+04 0.  0.
        4    1    3    3  502    0  0.50770176154E+03  0.19362116333E+03  0.34228637153E+03  0.64219296680E+03  0.12699999809E+01 0.  1.
       -4    1    3    3    0  502 -0.50770176154E+03 -0.19362116333E+03 -0.14892232695E+04  0.15852563808E+04  0.12699999809E+01 0. -1.
</event>
<event>
 5   0  0.1239615E-04  0.1895109E+04  0.7818609E-02  0.8657295E-01
        1   -1    0    0  501    0  0.00000000000E+00  0.00000000000E+00  0.76642937697E+03  0.76642937699E+03  0.50400001928E-02 0.  1.
       -1   -1    0    0    0  501  0.00000000000E+00  0.00000000000E+00 -0.11714835812E+04  0.11714835812E+04  0.50400001928E-02 0. -1.
    10030    2    1    2    0    0  0.00000000000E+00  0.00000000000E+00 -0.40505420419E+03  0.19379129582E+04  0.18951088953E+04 0.  0.
        3    1    3    3  502    0 -0.14728477025E+03 -0.77120370096E+03 -0.74499119115E+03  0.10823399822E+04  0.10100000352E+00 0.  1.
       -3    1    3    3    0  502  0.14728477025E+03  0.77120370096E+03  0.33993698696E+03  0.85557297598E+03  0.10100000352E+00 0. -1.
</event>
<event>
 5   0  0.2595012E-04  0.1953084E+04  0.7818609E-02  0.8628875E-01
       -2   -1    0    0    0  501  0.00000000000E+00  0.00000000000E+00  0.83805018460E+03  0.83805018460E+03  0.25500000920E-02 0.  1.
        2   -1    0    0  501    0  0.00000000000E+00  0.00000000000E+00 -0.11379202190E+04  0.11379202190E+04  0.25500000920E-02 0. -1.
    10030    2    1    2    0    0  0.00000000000E+00  0.00000000000E+00 -0.29987003444E+03  0.19759704036E+04  0.19530839712E+04 0.  0.
        1    1    3    3  502    0 -0.77953805663E+02 -0.44966632159E+02  0.83384597881E+03  0.83868820799E+03  0.50400001928E-02 0.  1.
       -1    1    3    3    0  502  0.77953805663E+02  0.44966632159E+02 -0.11337160132E+04  0.11372821956E+04  0.50400001928E-02 0. -1.
</event>
<event>
 5   0  0.2541124E-04  0.1826993E+04  0.7818609E-02  0.8692075E-01
       -2   -1    0    0    0  501  0.00000000000E+00  0.00000000000E+00  0.82100779499E+03  0.82100779499E+03  0.25500000920E-02 0. -1.
        2   -1    0    0  501    0  0.00000000000E+00  0.00000000000E+00 -0.10164039120E+04  0.10164039120E+04  0.25500000920E-02 0.  1.
    10030    2    1    2    0    0  0.00000000000E+00  0.00000000000E+00 -0.19539611701E+03  0.18374117070E+04  0.18269926487E+04 0.  0.
        5    1    3    3  502    0  0.25512100761E+01  0.83855638663E+03  0.26668034135E+03  0.87995671297E+03  0.46999998093E+01 0. -1.
       -5    1    3    3    0  502 -0.25512100761E+01 -0.83855638663E+03 -0.46207645836E+03  0.95745499404E+03  0.46999998093E+01 0.  1.
</event>
<event>
 5   0  0.1239615E-04  0.1898315E+04  0.7818609E-02  0.8655696E-01
        1   -1    0    0  501    0  0.00000000000E+00  0.00000000000E+00  0.94420946289E+03  0.94420946290E+03  0.50400001928E-02 0. -1.
       -1   -1    0    0    0  501  0.00000000000E+00  0.00000000000E+00 -0.95413134855E+03  0.95413134857E+03  0.50400001928E-02 0.  1.
    10030    2    1    2    0    0  0.00000000000E+00  0.00000000000E+00 -0.99218856691E+01  0.18983408115E+04  0.18983148824E+04 0.  0.
        3    1    3    3  502    0 -0.90900429316E+03  0.19224995189E+03 -0.19900222075E+03  0.95018458367E+03  0.10100000352E+00 0. -1.
       -3    1    3    3    0  502  0.90900429316E+03 -0.19224995189E+03  0.18908033508E+03  0.94815622779E+03  0.10100000352E+00 0.  1.
</event>
<event>
 5   0  0.9266125E-05  0.1908771E+04  0.7818609E-02  0.8650503E-01
       -4   -1    0    0    0  501  0.00000000000E+00  0.00000000000E+00  0.55385478570E+03  0.55385624177E+03  0.12699999809E+01 0. -1.
        4   -1    0    0  501    0  0.00000000000E+00  0.00000000000E+00 -0.16445641709E+04  0.16445646612E+04  0.12699999809E+01 0.  1.
    10030    2    1    2    0    0  0.00000000000E+00  0.00000000000E+00 -0.10907093852E+04  0.21984209030E+04  0.19087712026E+04 0.  0.
        1    1    3    3  502    0  0.22778129976E+03  0.62459602782E+03 -0.13339836265E+04  0.14904753719E+04  0.50400001928E-02 0.  1.
       -1    1    3    3    0  502 -0.22778129976E+03 -0.62459602782E+03  0.24327424133E+03  0.70794553110E+03  0.50400001928E-02 0. -1.
</event>
<event>
 5   0  0.1277709E-04  0.1933161E+04  0.7818609E-02  0.8638524E-01
       -1   -1    0    0    0  501  0.00000000000E+00  0.00000000000E+00  0.18448265686E+04  0.18448265686E+04  0.50400001928E-02 0. -1.
        1   -1    0    0  501    0  0.00000000000E+00  0.00000000000E+00 -0.50643113826E+03  0.50643113828E+03  0.50400001928E-02 0.  1.
    10030    2    1    2    0    0  0.00000000000E+00  0.00000000000E+00  0.13383954303E+04  0.23512577069E+04  0.19331607476E+04 0.  0.
        4    1    3    3  502    0 -0.32253182282E+03  0.17748784084E+03 -0.41782085682E+03  0.55687035446E+03  0.12699999809E+01 0.  1.
       -4    1    3    3    0  502  0.32253182282E+03 -0.17748784084E+03  0.17562162871E+04  0.17943873524E+04  0.12699999809E+01 0. -1.
</event>
<event>
 5   0  0.1255141E-04  0.1951779E+04  0.7818609E-02  0.8629503E-01
        1   -1    0    0  501    0  0.00000000000E+00  0.00000000000E+00  0.18342292551E+04  0.18342292551E+04  0.50400001928E-02 0. -1.
       -1   -1    0    0    0  501  0.00000000000E+00  0.00000000000E+00 -0.51921544468E+03  0.51921544471E+03  0.50400001928E-02 0.  1.
    10030    2    1    2    0    0  0.00000000000E+00  0.00000000000E+00  0.13150138105E+04  0.23534446999E+04  0.19517788383E+04 0.  0.
        2    1    3    3  502    0  0.55952163758E+03 -0.56902765903E+02  0.16191671760E+04  0.17140608891E+04  0.25500000920E-02 0. -1.
       -2    1    3    3    0  502 -0.55952163758E+03  0.56902765903E+02 -0.30415336554E+03  0.63938381076E+03  0.25500000920E-02 0.  1.
</event>
<event>
 5   0  0.1317527E-04  0.1839537E+04  0.7818609E-02  0.8685552E-01
        1   -1    0    0  501    0  0.00000000000E+00  0.00000000000E+00  0.56820714658E+03  0.56820714660E+03  0.50400001928E-02 0.  1.
       -1   -1    0    0    0  501  0.00000000000E+00  0.00000000000E+00 -0.14888476841E+04  0.14888476841E+04  0.50400001928E-02 0. -1.
    10030    2    1    2    0    0  0.00000000000E+00  0.00000000000E+00 -0.92064053753E+03  0.20570548307E+04  0.18395367833E+04 0.  0.
        1    1    3    3  502    0  0.19734329687E+03 -0.66080696031E+03  0.22021648655E+03  0.72395132197E+03  0.50400001928E-02 0.  1.
       -1    1    3    3    0  502 -0.19734329687E+03  0.66080696031E+03 -0.11408570241E+04  0.13331035087E+04  0.50400001928E-02 0. -1.
</event>
<event>
 5   0  0.1324058E-04  0.1896920E+04  0.7818609E-02  0.8656391E-01
       -1   -1    0    0    0  501  0.00000000000E+00  0.00000000000E+00  0.70117334711E+03  0.70117334713E+03  0.50400001928E-02 0.  1.
        1   -1    0    0  501    0  0.00000000000E+00  0.00000000000E+00 -0.12829591081E+04  0.12829591081E+04  0.50400001928E-02 0. -1.
    10030    2    1    2    0    0  0.00000000000E+00  0.00000000000E+00 -0.58178576095E+03  0.19841324552E+04  0.18969203800E+04 0.  0.
        5    1    3    3  502    0 -0.83765900712E+02  0.40713747903E+03  0.60081405149E+03  0.73060062101E+03  0.46999998093E+01 0.  1.
       -5    1    3    3    0  502  0.83765900712E+02 -0.40713747903E+03 -0.11825998124E+04  0.12535318342E+04  0.46999998093E+01 0. -1.
</event>
<event>
 5   0  0.2541124E-04  0.1897699E+04  0.7818609E-02  0.8656003E-01
        2   -1    0    0  501    0  0.00000000000E+00  0.00000000000E+00  0.14689336607E+04  0.14689336607E+04  0.25500000920E-02 0.  1.
       -2   -1    0    0    0  501  0.00000000000E+00  0.00000000000E+00 -0.61290407347E+03  0.61290407348E+03  0.25500000920E-02 0. -1.
    10030    2    1    2    0    0  0.00000000000E+00  0.00000000000E+00  0.85602958725E+03  0.20818377342E+04  0.18976990534E+04 0.  0.
        5    1    3    3  502    0  0.77138130603E+03 -0.11783273994E+03  0.10201885430E+04  0.12844144297E+04  0.46999998093E+01 0.  1.
       -5    1    3    3    0  502 -0.77138130603E+03  0.11783273994E+03 -0.16415895572E+03  0.79742330455E+03  0.46999998093E+01 0. -1.
</event>
<event>
 5   0  0.2562925E-04  0.1915068E+04  0.7818609E-02  0.8647392E-01
        2   -1    0    0  501    0  0.00000000000E+00  0.00000000000E+00  0.12612565887E+04  0.12612565887E+04  0.25500000920E-02 0. -1.
       -2   -1    0    0    0  501  0.00000000000E+00  0.00000000000E+00 -0.72695083760E+03  0.72695083761E+03  0.25500000920E-02 0.  1.
    10030    2    1    2    0    0  0.00000000000E+00  0.00000000000E+00  0.53430575110E+03  0.19882074263E+04  0.19150681801E+04 0.  0.
        4    1    3    3  502    0  0.73292950611E+03 -0.21884564291E+03 -0.33085878203E+03  0.83339559808E+03  0.12699999809E+01 0.  1.
       -4    1    3    3    0  502 -0.73292950611E+03  0.21884564291E+03  0.86516453313E+03  0.11548118282E+04  0.12699999809E+01 0. -1.
</event>
<event>
 5   0  0.1324058E-04  0.1929805E+04  0.7818609E-02  0.8640161E-01
        1   -1    0    0  501    0  0.00000000000E+00  0.00000000000E+00  0.72101458440E+03  0.72101458442E+03  0.50400001928E-02 0. -1.
       -1   -1    0    0    0  501  0.00000000000E+00  0.00000000000E+00 -0.12912865464E+04  0.12912865464E+04  0.50400001928E-02 0.  1.
    10030    2    1    2    0    0  0.00000000000E+00  0.00000000000E+00 -0.57027196195E+03  0.20123011308E+04  0.19298045835E+04 0.  0.
        5    1    3    3  502    0 -0.34374302502E+03 -0.14510111017E+03 -0.12130069572E+04  0.12691026623E+04  0.46999998093E+01 0.  1.
       -5    1    3    3    0  502  0.34374302502E+03  0.14510111017E+03  0.64273499521E+03  0.74319846844E+03  0.46999998093E+01 0. -1.
</event>
<event>
 5   0  0.9266125E-05  0.1893540E+04  0.7818609E-02  0.8658079E-01
        3   -1    0    0  501    0  0.00000000000E+00  0.00000000000E+00  0.68373126389E+03  0.68373127135E+03  0.10100000352E+00 0.  1.
       -3   -1    0    0    0  501  0.00000000000E+00  0.00000000000E+00 -0.13110026987E+04  0.13110027025E+04  0.10100000352E+00 0. -1.
    10030    2    1    2    0    0  0.00000000000E+00  0.00000000000E+00 -0.62727143477E+03  0.19947339739E+04  0.18935401168E+04 0.  0.
        3    1    3    3  502    0  0.33689485729E+03 -0.27735258171E+03 -0.11987467059E+04  0.12757022672E+04  0.10100000352E+00 0. -1.
       -3    1    3    3    0  502 -0.33689485729E+03  0.27735258171E+03  0.57147527116E+03  0.71903170667E+03  0.10100000352E+00 0.  1.
</event>
<event>
 5   0  0.2595012E-04  0.1908823E+04  0.7818609E-02  0.8650477E-01
        2   -1    0    0  501    0  0.00000000000E+00  0.00000000000E+00  0.61976952374E+03  0.61976952374E+03  0.25500000920E-02 0. -1.
       -2   -1    0    0    0  501  0.00000000000E+00  0.00000000000E+00 -0.14697424287E+04  0.14697424287E+04  0.25500000920E-02 0.  1.
    10030    2    1    2    0    0  0.00000000000E+00  0.00000000000E+00 -0.84997290496E+03  0.20895119524E+04  0.19088232658E+04 0.  0.
        1    1    3    3  502    0 -0.26804691156E+03  0.13523703276E+03 -0.14167042818E+04  0.14481675400E+04  0.50400001928E-02 0.  1.
       -1    1    3    3    0  502  0.26804691156E+03 -0.13523703276E+03  0.56673137685E+03  0.64134441243E+03  0.50400001928E-02 0. -1.
</event>
<event>
 5   0  0.2562925E-04  0.1916973E+04  0.7818609E-02  0.8646453E-01
       -2   -1    0    0    0  501  0.00000000000E+00  0.00000000000E+00  0.71718906821E+03  0.71718906822E+03  0.25500000920E-02 0. -1.
        2   -1    0    0  501    0  0.00000000000E+00  0.00000000000E+00 -0.12809687913E+04  0.12809687913E+04  0.25500000920E-02 0.  1.
    10030    2    1    2    0    0  0.00000000000E+00  0.00000000000E+00 -0.56377972308E+03  0.19981578595E+04  0.19169734624E+04 0.  0.
        4    1    3    3  502    0  0.83407898642E+03 -0.44387963438E+03 -0.11388602920E+03  0.95167669193E+03  0.12699999809E+01 0.  1.
       -4    1    3    3    0  502 -0.83407898642E+03  0.44387963438E+03 -0.44989369388E+03  0.10464811676E+04  0.12699999809E+01 0. -1.
</event>
<event>
 5   0  0.2562925E-04  0.1889838E+04  0.7818609E-02  0.8659931E-01
       -2   -1    0    0    0  501  0.00000000000E+00  0.00000000000E+00  0.39328927999E+03  0.39328928000E+03  0.25500000920E-02 0. -1.
        2   -1    0    0  501    0  0.00000000000E+00  0.00000000000E+00 -0.22702676792E+04  0.22702676792E+04  0.25500000920E-02 0.  1.
    10030    2    1    2    0    0  0.00000000000E+00  0.00000000000E+00 -0.18769783992E+04  0.26635569592E+04  0.18898380258E+04 0.  0.
        4    1    3    3  502    0  0.51313858519E+03 -0.28223549541E+03  0.10666447488E+03  0.59527053143E+03  0.12699999809E+01 0. -1.
       -4    1    3    3    0  502 -0.51313858519E+03  0.28223549541E+03 -0.19836428741E+04  0.20682864278E+04  0.12699999809E+01 0.  1.
</event>
<event>
 5   0  0.1317527E-04  0.1370338E+04  0.7818609E-02  0.8975573E-01
       -1   -1    0    0    0  501  0.00000000000E+00  0.00000000000E+00  0.70730804528E+03  0.70730804530E+03  0.50400001928E-02 0.  1.
        1   -1    0    0  501    0  0.00000000000E+00  0.00000000000E+00 -0.66372335555E+03  0.66372335557E+03  0.50400001928E-02 0. -1.
    10030    2    1    2    0    0  0.00000000000E+00  0.00000000000E+00  0.43584689730E+02  0.13710314009E+04  0.13703384534E+04 0.  0.
        1    1    3    3  502    0  0.52536018922E+02  0.48808895404E+03 -0.45643053927E+03  0.67031313395E+03  0.50400001928E-02 0. -1.
       -1    1    3    3    0  502 -0.52536018922E+02 -0.48808895404E+03  0.50001522900E+03  0.70071826692E+03  0.50400001928E-02 0.  1.
</event>
<event>
 5   0  0.1239615E-04  0.1900445E+04  0.7818609E-02  0.8654635E-01
       -1   -1    0    0    0  501  0.00000000000E+00  0.00000000000E+00  0.23048247244E+04  0.23048247244E+04  0.50400001928E-02 0. -1.
        1   -1    0    0  501    0  0.00000000000E+00  0.00000000000E+00 -0.39175326678E+03  0.39175326681E+03  0.50400001928E-02 0.  1.
    10030    2    1    2    0    0  0.00000000000E+00  0.00000000000E+00  0.19130714577E+04  0.26965779913E+04  0.19004448060E+04 0.  0.
        3    1    3    3  502    0  0.34900795734E+03  0.73038999419E+03  0.16626481123E+04  0.18492362892E+04  0.10100000352E+00 0. -1.
       -3    1    3    3    0  502 -0.34900795734E+03 -0.73038999419E+03  0.25042334537E+03  0.84734170203E+03  0.10100000352E+00 0.  1.
</event>
<event>
 5   0  0.1239615E-04  0.1892662E+04  0.7818609E-02  0.8658517E-01
        1   -1    0    0  501    0  0.00000000000E+00  0.00000000000E+00  0.16255522425E+04  0.16255522425E+04  0.50400001928E-02 0.  1.
       -1   -1    0    0    0  501  0.00000000000E+00  0.00000000000E+00 -0.55091598718E+03  0.55091598720E+03  0.50400001928E-02 0. -1.
    10030    2    1    2    0    0  0.00000000000E+00  0.00000000000E+00  0.10746362553E+04  0.21764682297E+04  0.18926623771E+04 0.  0.
        3    1    3    3  502    0 -0.63931346965E+03 -0.43137339914E+03  0.11679462394E+04  0.13996082131E+04  0.10100000352E+00 0.  1.
       -3    1    3    3    0  502  0.63931346965E+03  0.43137339914E+03 -0.93309984106E+02  0.77686001654E+03  0.10100000352E+00 0. -1.
</event>
<event>
 5   0  0.2562925E-04  0.1912002E+04  0.7818609E-02  0.8648905E-01
       -2   -1    0    0    0  501  0.00000000000E+00  0.00000000000E+00  0.51763840883E+03  0.51763840883E+03  0.25500000920E-02 0. -1.
        2   -1    0    0  501    0  0.00000000000E+00  0.00000000000E+00 -0.17655907283E+04  0.17655907283E+04  0.25500000920E-02 0.  1.
    10030    2    1    2    0    0  0.00000000000E+00  0.00000000000E+00 -0.12479523195E+04  0.22832291371E+04  0.19120016478E+04 0.  0.
        4    1    3    3  502    0  0.28332346133E+03 -0.24075402900E+03  0.42776407597E+03  0.56676132879E+03  0.12699999809E+01 0. -1.
       -4    1    3    3    0  502 -0.28332346133E+03  0.24075402900E+03 -0.16757163955E+04  0.17164678084E+04  0.12699999809E+01 0.  1.
</event>
<event>
 5   0  0.1277709E-04  0.1897701E+04  0.7818609E-02  0.8656002E-01
        1   -1    0    0  501    0  0.00000000000E+00  0.00000000000E+00  0.17400371245E+04  0.17400371245E+04  0.50400001928E-02 0. -1.
       -1   -1    0    0    0  501  0.00000000000E+00  0.00000000000E+00 -0.51741249573E+03  0.51741249575E+03  0.50400001928E-02 0.  1.
    10030    2    1    2    0    0  0.00000000000E+00  0.00000000000E+00  0.12226246288E+04  0.22574496203E+04  0.18977006627E+04 0.  0.
        4    1    3    3  502    0 -0.64222803655E+03  0.67649871923E+03  0.40455964247E+03  0.10167484867E+04  0.12699999809E+01 0. -1.
       -4    1    3    3    0  502  0.64222803655E+03 -0.67649871923E+03  0.81806498630E+03  0.12407011335E+04  0.12699999809E+01 0.  1.
</event>
<event>
 5   0  0.2651828E-04  0.1877728E+04  0.7818609E-02  0.8666022E-01
       -2   -1    0    0    0  501  0.00000000000E+00  0.00000000000E+00  0.12569360235E+04  0.12569360235E+04  0.25500000920E-02 0.  1.
        2   -1    0    0  501    0  0.00000000000E+00  0.00000000000E+00 -0.70128155988E+03  0.70128155988E+03  0.25500000920E-02 0. -1.
    10030    2    1    2    0    0  0.00000000000E+00  0.00000000000E+00  0.55565446360E+03  0.19582175834E+04  0.18777284737E+04 0.  0.
        3    1    3    3  502    0  0.42576578017E+03  0.22986961822E+02 -0.59448514041E+03  0.73158560152E+03  0.10100000352E+00 0. -1.
       -3    1    3    3    0  502 -0.42576578017E+03 -0.22986961822E+02  0.11501396040E+04  0.12266319818E+04  0.10100000352E+00 0.  1.
</event>
<event>
 5   0  0.1324058E-04  0.1742602E+04  0.7818609E-02  0.8737433E-01
       -1   -1    0    0    0  501  0.00000000000E+00  0.00000000000E+00  0.10433747619E+04  0.10433747619E+04  0.50400001928E-02 0. -1.
        1   -1    0    0  501    0  0.00000000000E+00  0.00000000000E+00 -0.72760565933E+03  0.72760565935E+03  0.50400001928E-02 0.  1.
    10030    2    1    2    0    0  0.00000000000E+00  0.00000000000E+00  0.31576910259E+03  0.17709804213E+04  0.17426019415E+04 0.  0.
        5    1    3    3  502    0  0.39721259037E+03  0.61006147580E+03 -0.32865014961E+03  0.79874016866E+03  0.46999998093E+01 0.  1.
       -5    1    3    3    0  502 -0.39721259037E+03 -0.61006147580E+03  0.64441925220E+03  0.97224025262E+03  0.46999998093E+01 0. -1.
</event>
<event>
 5   0  0.2651828E-04  0.1909920E+04  0.7818609E-02  0.8649934E-01
       -2   -1    0    0    0  501  0.00000000000E+00  0.00000000000E+00  0.57353200207E+03  0.57353200208E+03  0.25500000920E-02 0.  1.
        2   -1    0    0  501    0  0.00000000000E+00  0.00000000000E+00 -0.15900574626E+04  0.15900574626E+04  0.25500000920E-02 0. -1.
    10030    2    1    2    0    0  0.00000000000E+00  0.00000000000E+00 -0.10165254605E+04  0.21635894647E+04  0.19099202496E+04 0.  0.
        3    1    3    3  502    0 -0.65245173226E+03 -0.46177981571E+03 -0.11001688827E+04  0.13598917022E+04  0.10100000352E+00 0. -1.
       -3    1    3    3    0  502  0.65245173226E+03  0.46177981571E+03  0.83643422155E+02  0.80369776246E+03  0.10100000352E+00 0.  1.
</event>
<event>
 5   0  0.2595012E-04  0.2017810E+04  0.7818609E-02  0.8598339E-01
        2   -1    0    0  501    0  0.00000000000E+00  0.00000000000E+00  0.22019341566E+04  0.22019341566E+04  0.25500000920E-02 0. -1.
       -2   -1    0    0    0  501  0.00000000000E+00  0.00000000000E+00 -0.46227066191E+03  0.46227066192E+03  0.25500000920E-02 0.  1.
    10030    2    1    2    0    0  0.00000000000E+00  0.00000000000E+00  0.17396634947E+04  0.26642048185E+04  0.20178102587E+04 0.  0.
        1    1    3    3  502    0 -0.18390650819E+03  0.79184275910E+03  0.80874213508E+02  0.81693157444E+03  0.50400001928E-02 0.  1.
       -1    1    3    3    0  502  0.18390650819E+03 -0.79184275910E+03  0.16587892812E+04  0.18472732441E+04  0.50400001928E-02 0. -1.
</event>
<event>
 5   0  0.1324058E-04  0.1800962E+04  0.7818609E-02  0.8705788E-01
       -1   -1    0    0    0  501  0.00000000000E+00  0.00000000000E+00  0.64090026848E+03  0.64090026850E+03  0.50400001928E-02 0.  1.
        1   -1    0    0  501    0  0.00000000000E+00  0.00000000000E+00 -0.12651984102E+04  0.12651984102E+04  0.50400001928E-02 0. -1.
    10030    2    1    2    0    0  0.00000000000E+00  0.00000000000E+00 -0.62429814175E+03  0.19060986787E+04  0.18009619661E+04 0.  0.
        5    1    3    3  502    0 -0.24020226978E+03 -0.76161532339E+03  0.12817803671E+03  0.80883047069E+03  0.46999998093E+01 0.  1.
       -5    1    3    3    0  502  0.24020226978E+03  0.76161532339E+03 -0.75247617845E+03  0.10972682080E+04  0.46999998093E+01 0. -1.
</event>
<event>
 5   0  0.1255141E-04  0.1890986E+04  0.7818609E-02  0.8659356E-01
       -1   -1    0    0    0  501  0.00000000000E+00  0.00000000000E+00  0.13850134841E+04  0.13850134841E+04  0.50400001928E-02 0.  1.
        1   -1    0    0  501    0  0.00000000000E+00  0.00000000000E+00 -0.64545001939E+03  0.64545001941E+03  0.50400001928E-02 0. -1.
    10030    2    1    2    0    0  0.00000000000E+00  0.00000000000E+00  0.73956346474E+03  0.20304635036E+04  0.18909859653E+04 0.  0.
        2    1    3    3  502    0  0.65543446856E+03 -0.66066922432E+03  0.54906676181E+03  0.10805334217E+04  0.25500000920E-02 0.  1.
       -2    1    3    3    0  502 -0.65543446856E+03  0.66066922432E+03  0.19049670293E+03  0.94993008183E+03  0.25500000920E-02 0. -1.
</event>
<event>
 5   0  0.2608744E-04  0.1912371E+04  0.7818609E-02  0.8648723E-01
        2   -1    0    0  501    0  0.00000000000E+00  0.00000000000E+00  0.14681754887E+04  0.14681754887E+04  0.25500000920E-02 0. -1.
       -2   -1    0    0    0  501  0.00000000000E+00  0.00000000000E+00 -0.62273952219E+03  0.62273952219E+03  0.25500000920E-02 0.  1.
    10030    2    1    2    0    0  0.00000000000E+00  0.00000000000E+00  0.84543596650E+03  0.20909150109E+04  0.19123712007E+04 0.  0.
        2    1    3    3  502    0  0.61624197468E+03  0.11387522943E+03 -0.36690565132E+03  0.72618282561E+03  0.25500000920E-02 0.  1.
       -2    1    3    3    0  502 -0.61624197468E+03 -0.11387522943E+03  0.12123416178E+04  0.13647321853E+04  0.25500000920E-02 0. -1.
</event>
<event>
 5   0  0.2608744E-04  0.1874894E+04  0.7818609E-02  0.8667455E-01
       -2   -1    0    0    0  501  0.00000000000E+00  0.00000000000E+00  0.57683600194E+03  0.57683600195E+03  0.25500000920E-02 0. -1.
        2   -1    0    0  501    0  0.00000000000E+00  0.00000000000E+00 -0.15234949551E+04  0.15234949551E+04  0.25500000920E-02 0.  1.
    10030    2    1    2    0    0  0.00000000000E+00  0.00000000000E+00 -0.94665895321E+03  0.21003309571E+04  0.18748938518E+04 0.  0.
        2    1    3    3  502    0  0.57780412031E+03  0.70696592805E+03 -0.23529941050E+03  0.94288081827E+03  0.25500000920E-02 0. -1.
       -2    1    3    3    0  502 -0.57780412031E+03 -0.70696592805E+03 -0.71135954271E+03  0.11574501388E+04  0.25500000920E-02 0.  1.
</event>
<event>
 5   0  0.1239615E-04  0.1909153E+04  0.7818609E-02  0.8650314E-01
        1   -1    0    0  501    0  0.00000000000E+00  0.00000000000E+00  0.72428353968E+03  0.72428353970E+03  0.50400001928E-02 0. -1.
       -1   -1    0    0    0  501  0.00000000000E+00  0.00000000000E+00 -0.12580936941E+04  0.12580936941E+04  0.50400001928E-02 0.  1.
    10030    2    1    2    0    0  0.00000000000E+00  0.00000000000E+00 -0.53381015444E+03  0.19823772338E+04  0.19091532721E+04 0.  0.
        3    1    3    3  502    0  0.29471313378E+03 -0.89637043089E+03 -0.11686105760E+03  0.95078509537E+03  0.10100000352E+00 0. -1.
       -3    1    3    3    0  502 -0.29471313378E+03  0.89637043089E+03 -0.41694909684E+03  0.10315921385E+04  0.10100000352E+00 0.  1.
</event>
<event>
 5   0  0.1255141E-04  0.1923970E+04  0.7818609E-02  0.8643016E-01
       -1   -1    0    0    0  501  0.00000000000E+00  0.00000000000E+00  0.40930022023E+03  0.40930022026E+03  0.50400001928E-02 0. -1.
        1   -1    0    0  501    0  0.00000000000E+00  0.00000000000E+00 -0.22609690412E+04  0.22609690412E+04  0.50400001928E-02 0.  1.
    10030    2    1    2    0    0  0.00000000000E+00  0.00000000000E+00 -0.18516688210E+04  0.26702692615E+04  0.19239699858E+04 0.  0.
        2    1    3    3  502    0  0.50459150022E+03  0.40054592760E+02  0.20952702191E+03  0.54783074523E+03  0.25500000920E-02 0. -1.
       -2    1    3    3    0  502 -0.50459150022E+03 -0.40054592760E+02 -0.20611958429E+04  0.21224385163E+04  0.25500000920E-02 0.  1.
</event>
<event>
 5   0  0.2595012E-04  0.1921255E+04  0.7818609E-02  0.8644348E-01
        2   -1    0    0  501    0  0.00000000000E+00  0.00000000000E+00  0.11047110987E+04  0.11047110987E+04  0.25500000920E-02 0. -1.
       -2   -1    0    0    0  501  0.00000000000E+00  0.00000000000E+00 -0.83533640591E+03  0.83533640592E+03  0.25500000920E-02 0.  1.
    10030    2    1    2    0    0  0.00000000000E+00  0.00000000000E+00  0.26937469278E+03  0.19400475046E+04  0.19212552134E+04 0.  0.
        1    1    3    3  502    0  0.16486405762E+03 -0.81566384004E+03  0.61929581781E+03  0.10373114129E+04  0.50400001928E-02 0. -1.
       -1    1    3    3    0  502 -0.16486405762E+03  0.81566384004E+03 -0.34992112503E+03  0.90273609167E+03  0.50400001928E-02 0.  1.
</event>
<event>
 5   0  0.1277709E-04  0.1897577E+04  0.7818609E-02  0.8656064E-01
        1   -1    0    0  501    0  0.00000000000E+00  0.00000000000E+00  0.72955022150E+03  0.72955022152E+03  0.50400001928E-02 0.  1.
       -1   -1    0    0    0  501  0.00000000000E+00  0.00000000000E+00 -0.12339099829E+04  0.12339099829E+04  0.50400001928E-02 0. -1.
    10030    2    1    2    0    0  0.00000000000E+00  0.00000000000E+00 -0.50435976137E+03  0.19634602044E+04  0.18975766665E+04 0.  0.
        4    1    3    3  502    0  0.29375934766E+03  0.35689239124E+03  0.60515962054E+03  0.76150279874E+03  0.12699999809E+01 0.  1.
       -4    1    3    3    0  502 -0.29375934766E+03 -0.35689239124E+03 -0.11095193819E+04  0.12019574057E+04  0.12699999809E+01 0. -1.
</event>
<event>
 5   0  0.2595012E-04  0.2041633E+04  0.7818609E-02  0.8587400E-01
       -2   -1    0    0    0  501  0.00000000000E+00  0.00000000000E+00  0.67732989455E+03  0.67732989456E+03  0.25500000920E-02 0. -1.
        2   -1    0    0  501    0  0.00000000000E+00  0.00000000000E+00 -0.15384913452E+04  0.15384913452E+04  0.25500000920E-02 0.  1.
    10030    2    1    2    0    0  0.00000000000E+00  0.00000000000E+00 -0.86116145063E+03  0.22158212397E+04  0.20416328569E+04 0.  0.
        1    1    3    3  502    0  0.26171961932E+02 -0.25758517877E+03  0.64110218525E+03  0.69140950808E+03  0.50400001928E-02 0. -1.
       -1    1    3    3    0  502 -0.26171961932E+02  0.25758517877E+03 -0.15022636359E+04  0.15244117317E+04  0.50400001928E-02 0.  1.
</event>
<event>
 5   0  0.1317527E-04  0.1845342E+04  0.7818609E-02  0.8682552E-01
       -1   -1    0    0    0  501  0.00000000000E+00  0.00000000000E+00  0.10632070050E+04  0.10632070050E+04  0.50400001928E-02 0.  1.
        1   -1    0    0  501    0  0.00000000000E+00  0.00000000000E+00 -0.80071140178E+03  0.80071140180E+03  0.50400001928E-02 0. -1.
    10030    2    1    2    0    0  0.00000000000E+00  0.00000000000E+00  0.26249560325E+03  0.18639184068E+04  0.18453422137E+04 0.  0.
        1    1    3    3  502    0 -0.40572262762E+03  0.45928665113E+03 -0.56545424973E+03  0.83384266324E+03  0.50400001928E-02 0. -1.
       -1    1    3    3    0  502  0.40572262762E+03 -0.45928665113E+03  0.82794985298E+03  0.10300757436E+04  0.50400001928E-02 0.  1.
</event>
<event>
 5   0  0.2562925E-04  0.1904712E+04  0.7818609E-02  0.8652514E-01
        2   -1    0    0  501    0  0.00000000000E+00  0.00000000000E+00  0.88848239665E+03  0.88848239666E+03  0.25500000920E-02 0. -1.
       -2   -1    0    0    0  501  0.00000000000E+00  0.00000000000E+00 -0.10208219059E+04  0.10208219059E+04  0.25500000920E-02 0.  1.
    10030    2    1    2    0    0  0.00000000000E+00  0.00000000000E+00 -0.13233950920E+03  0.19093043025E+04  0.19047123599E+04 0.  0.
        4    1    3    3  502    0  0.52069679302E+03 -0.79147969653E+03  0.31097264581E+02  0.94791028745E+03  0.12699999809E+01 0. -1.
       -4    1    3    3    0  502 -0.52069679302E+03  0.79147969653E+03 -0.16343677378E+03  0.96139401507E+03  0.12699999809E+01 0.  1.
</event>
<event>
 5   0  0.9266125E-05  0.1913568E+04  0.7818609E-02  0.8648132E-01
       -3   -1    0    0    0  501  0.00000000000E+00  0.00000000000E+00  0.78049693175E+03  0.78049693829E+03  0.10100000352E+00 0.  1.
        3   -1    0    0  501    0  0.00000000000E+00  0.00000000000E+00 -0.11728886007E+04  0.11728886051E+04  0.10100000352E+00 0. -1.
    10030    2    1    2    0    0  0.00000000000E+00  0.00000000000E+00 -0.39239166895E+03  0.19533855433E+04  0.19135683576E+04 0.  0.
        3    1    3    3  502    0  0.64252187746E+03 -0.68878243702E+03 -0.24832798079E+02  0.94226975258E+03  0.10100000352E+00 0. -1.
       -3    1    3    3    0  502 -0.64252187746E+03  0.68878243702E+03 -0.36755887087E+03  0.10111157908E+04  0.10100000352E+00 0.  1.
</event>
<event>
 5   0  0.2651828E-04  0.1918704E+04  0.7818609E-02  0.8645602E-01
        2   -1    0    0  501    0  0.00000000000E+00  0.00000000000E+00  0.15519209780E+04  0.15519209780E+04  0.25500000920E-02 0. -1.
       -2   -1    0    0    0  501  0.00000000000E+00  0.00000000000E+00 -0.59304310075E+03  0.59304310075E+03  0.25500000920E-02 0.  1.
    10030    2    1    2    0    0  0.00000000000E+00  0.00000000000E+00  0.95887787725E+03  0.21449640788E+04  0.19187037592E+04 0.  0.
        3    1    3    3  502    0  0.25083264603E+03  0.25500251790E+03 -0.51570938508E+03  0.62761411752E+03  0.10100000352E+00 0.  1.
       -3    1    3    3    0  502 -0.25083264603E+03 -0.25500251790E+03  0.14745872623E+04  0.15173499612E+04  0.10100000352E+00 0. -1.
</event>
<event>
 5   0  0.2608744E-04  0.1915638E+04  0.7818609E-02  0.8647111E-01
       -2   -1    0    0    0  501  0.00000000000E+00  0.00000000000E+00  0.67973016643E+03  0.67973016644E+03  0.25500000920E-02 0.  1.
        2   -1    0    0  501    0  0.00000000000E+00  0.00000000000E+00 -0.13496792274E+04  0.13496792274E+04  0.25500000920E-02 0. -1.
    10030    2    1    2    0    0  0.00000000000E+00  0.00000000000E+00 -0.66994906092E+03  0.20294093938E+04  0.19156384689E+04 0.  0.
        2    1    3    3  502    0 -0.25586015099E+03 -0.95554175102E+02  0.63760297475E+03  0.69363720392E+03  0.25500000920E-02 0.  1.
       -2    1    3    3    0  502  0.25586015099E+03  0.95554175102E+02 -0.13075520357E+04  0.13357721899E+04  0.25500000920E-02 0. -1.
</event>
<event>
 5   0  0.2595012E-04  0.1903865E+04  0.7818609E-02  0.8652935E-01
        2   -1    0    0  501    0  0.00000000000E+00  0.00000000000E+00  0.78092162166E+03  0.78092162167E+03  0.25500000920E-02 0.  1.
       -2   -1    0    0    0  501  0.00000000000E+00  0.00000000000E+00 -0.11603923817E+04  0.11603923817E+04  0.25500000920E-02 0. -1.
    10030    2    1    2    0    0  0.00000000000E+00  0.00000000000E+00 -0.37947076004E+03  0.19413140034E+04  0.19038650167E+04 0.  0.
        1    1    3    3  502    0  0.35063756007E+02  0.90340378922E+03 -0.49360323942E+03  0.10300543827E+04  0.50400001928E-02 0. -1.
       -1    1    3    3    0  502 -0.35063756007E+02 -0.90340378922E+03  0.11413247938E+03  0.91125962065E+03  0.50400001928E-02 0.  1.
</event>
<event>
 5   0  0.1277709E-04  0.1934727E+04  0.7818609E-02  0.8637761E-01
       -1   -1    0    0    0  501  0.00000000000E+00  0.00000000000E+00  0.10406276097E+04  0.10406276097E+04  0.50400001928E-02 0.  1.
        1   -1    0    0  501    0  0.00000000000E+00  0.00000000000E+00 -0.89925775881E+03  0.89925775882E+03  0.50400001928E-02 0. -1.
    10030    2    1    2    0    0  0.00000000000E+00  0.00000000000E+00  0.14136985092E+03  0.19398853686E+04  0.19347273215E+04 0.  0.
        4    1    3    3  502    0 -0.64096179684E+03  0.63291442191E+03  0.42429802663E+03  0.99571236749E+03  0.12699999809E+01 0. -1.
       -4    1    3    3    0  502  0.64096179684E+03 -0.63291442191E+03 -0.28292817571E+03  0.94417300108E+03  0.12699999809E+01 0.  1.
</event>
<event>
 5   0  0.2608744E-04  0.1905124E+04  0.7818609E-02  0.8652310E-01
        2   -1    0    0  501    0  0.00000000000E+00  0.00000000000E+00  0.75710864393E+03  0.75710864393E+03  0.25500000920E-02 0.  1.
       -2   -1    0    0    0  501  0.00000000000E+00  0.00000000000E+00 -0.11984725322E+04  0.11984725322E+04  0.25500000920E-02 0. -1.
    10030    2    1    2    0    0  0.00000000000E+00  0.00000000000E+00 -0.44136388823E+03  0.19555811761E+04  0.19051235274E+04 0.  0.
        2    1    3    3  502    0 -0.52022194443E+03 -0.44508135160E+03 -0.90052648204E+03  0.11312277515E+04  0.25500000920E-02 0. -1.
       -2    1    3    3    0  502  0.52022194443E+03  0.44508135160E+03  0.45916259381E+03  0.82435342455E+03  0.25500000920E-02 0.  1.
</event>
<event>
 5   0  0.1324058E-04  0.1930396E+04  0.7818609E-02  0.8639873E-01
        1   -1    0    0  501    0  0.00000000000E+00  0.00000000000E+00  0.10817267583E+04  0.10817267583E+04  0.50400001928E-02 0. -1.
       -1   -1    0    0    0  501  0.00000000000E+00  0.00000000000E+00 -0.86122187602E+03  0.86122187604E+03  0.50400001928E-02 0.  1.
    10030    2    1    2    0    0  0.00000000000E+00  0.00000000000E+00  0.22050488231E+03  0.19429486344E+04  0.19303955534E+04 0.  0.
        5    1    3    3  502    0 -0.29670770874E+02  0.80247570986E+03  0.64921290562E+03  0.10326408409E+04  0.46999998093E+01 0. -1.
       -5    1    3    3    0  502  0.29670770874E+02 -0.80247570986E+03 -0.42870802331E+03  0.91030779344E+03  0.46999998093E+01 0.  1.
</event>
<event>
 5   0  0.1277709E-04  0.1394171E+04  0.7818609E-02  0.8958049E-01
        1   -1    0    0  501    0  0.00000000000E+00  0.00000000000E+00  0.63299824980E+03  0.63299824982E+03  0.50400001928E-02 0. -1.
       -1   -1    0    0    0  501  0.00000000000E+00  0.00000000000E+00 -0.76766116906E+03  0.76766116907E+03  0.50400001928E-02 0.  1.
    10030    2    1    2    0    0  0.00000000000E+00  0.00000000000E+00 -0.13466291926E+03  0.14006594189E+04  0.13941709744E+04 0.  0.
        4    1    3    3  502    0 -0.39625465583E+03 -0.15131160844E+03 -0.62309093933E+03  0.75376182359E+03  0.12699999809E+01 0.  1.
       -4    1    3    3    0  502  0.39625465583E+03  0.15131160844E+03  0.48842802008E+03  0.64689759531E+03  0.12699999809E+01 0. -1.
</event>
<event>
 5   0  0.1255141E-04  0.1914009E+04  0.7818609E-02  0.8647914E-01
       -1   -1    0    0    0  501  0.00000000000E+00  0.00000000000E+00  0.48072755028E+03  0.48072755031E+03  0.50400001928E-02 0. -1.
        1   -1    0    0  501    0  0.00000000000E+00  0.00000000000E+00 -0.19051490010E+04  0.19051490010E+04  0.50400001928E-02 0.  1.
    10030    2    1    2    0    0  0.00000000000E+00  0.00000000000E+00 -0.14244214507E+04  0.23858765513E+04  0.19140089991E+04 0.  0.
        2    1    3    3  502    0  0.66323980593E+03 -0.46508070870E+03 -0.13474177701E+04  0.15721710317E+04  0.25500000920E-02 0.  1.
       -2    1    3    3    0  502 -0.66323980593E+03  0.46508070870E+03 -0.77003680610E+02  0.81370551959E+03  0.25500000920E-02 0. -1.
</event>
<event>
 5   0  0.1324058E-04  0.1899317E+04  0.7818609E-02  0.8655196E-01
       -1   -1    0    0    0  501  0.00000000000E+00  0.00000000000E+00  0.52669907071E+03  0.52669907074E+03  0.50400001928E-02 0.  1.
        1   -1    0    0  501    0  0.00000000000E+00  0.00000000000E+00 -0.17122707846E+04  0.17122707846E+04  0.50400001928E-02 0. -1.
    10030    2    1    2    0    0  0.00000000000E+00  0.00000000000E+00 -0.11855717139E+04  0.22389698553E+04  0.18993171732E+04 0.  0.
        5    1    3    3  502    0  0.62715078773E+03  0.47790531916E+03 -0.12166945769E+04  0.14498549542E+04  0.46999998093E+01 0. -1.
       -5    1    3    3    0  502 -0.62715078773E+03 -0.47790531916E+03  0.31122863048E+02  0.78911490116E+03  0.46999998093E+01 0.  1.
</event>
<event>
 5   0  0.2651828E-04  0.1906156E+04  0.7818609E-02  0.8651798E-01
       -2   -1    0    0    0  501  0.00000000000E+00  0.00000000000E+00  0.58423762584E+03  0.58423762585E+03  0.25500000920E-02 0. -1.
        2   -1    0    0  501    0  0.00000000000E+00  0.00000000000E+00 -0.15547737253E+04  0.15547737253E+04  0.25500000920E-02 0.  1.
    10030    2    1    2    0    0  0.00000000000E+00  0.00000000000E+00 -0.97053609944E+03  0.21390113511E+04  0.19061556180E+04 0.  0.
        3    1    3    3  502    0  0.29183111283E+03 -0.80590089659E+03 -0.17560689910E+02  0.85729227313E+03  0.10100000352E+00 0.  1.
       -3    1    3    3    0  502 -0.29183111283E+03  0.80590089659E+03 -0.95297540953E+03  0.12817190780E+04  0.10100000352E+00 0. -1.
</event>
<event>
 5   0  0.2562925E-04  0.1971147E+04  0.7818609E-02  0.8620230E-01
       -2   -1    0    0    0  501  0.00000000000E+00  0.00000000000E+00  0.67100204131E+03  0.67100204131E+03  0.25500000920E-02 0. -1.
        2   -1    0    0  501    0  0.00000000000E+00  0.00000000000E+00 -0.14476186020E+04  0.14476186020E+04  0.25500000920E-02 0.  1.
    10030    2    1    2    0    0  0.00000000000E+00  0.00000000000E+00 -0.77661656073E+03  0.21186206433E+04  0.19711469118E+04 0.  0.
        4    1    3    3  502    0  0.44803678424E+03  0.84382198692E+03 -0.64845137002E+03  0.11546702117E+04  0.12699999809E+01 0.  1.
       -4    1    3    3    0  502 -0.44803678424E+03 -0.84382198692E+03 -0.12816519071E+03  0.96395043163E+03  0.12699999809E+01 0. -1.
</event>
<event>
 5   0  0.2541124E-04  0.1894869E+04  0.7818609E-02  0.8657415E-01
        2   -1    0    0  501    0  0.00000000000E+00  0.00000000000E+00  0.13727204773E+04  0.13727204773E+04  0.25500000920E-02 0. -1.
       -2   -1    0    0    0  501  0.00000000000E+00  0.00000000000E+00 -0.65390730780E+03  0.65390730781E+03  0.25500000920E-02 0.  1.
    10030    2    1    2    0    0  0.00000000000E+00  0.00000000000E+00  0.71881316952E+03  0.20266277851E+04  0.18948688099E+04 0.  0.
        5    1    3    3  502    0 -0.76302517320E+03  0.22129515508E+03 -0.19265450976E+03  0.81750645914E+03  0.46999998093E+01 0.  1.
       -5    1    3    3    0  502  0.76302517320E+03 -0.22129515508E+03  0.91146767928E+03  0.12091213260E+04  0.46999998093E+01 0. -1.
</event>
<event>
 5   0  0.1255141E-04  0.1943999E+04  0.7818609E-02  0.8633260E-01
        1   -1    0    0  501    0  0.00000000000E+00  0.00000000000E+00  0.97138326359E+03  0.97138326361E+03  0.50400001928E-02 0.  1.
       -1   -1    0    0    0  501  0.00000000000E+00  0.00000000000E+00 -0.97261566715E+03  0.97261566716E+03  0.50400001928E-02 0. -1.
    10030    2    1    2    0    0  0.00000000000E+00  0.00000000000E+00 -0.12324035517E+01  0.19439989308E+04  0.19439985401E+04 0.  0.
        2    1    3    3  502    0  0.87059173008E+03 -0.25934185675E+02 -0.43210213823E+03  0.97227300710E+03  0.25500000920E-02 0. -1.
       -2    1    3    3    0  502 -0.87059173008E+03  0.25934185675E+02  0.43086973468E+03  0.97172592367E+03  0.25500000920E-02 0.  1.
</event>
<event>
 5   0  0.1255141E-04  0.1891389E+04  0.7818609E-02  0.8659154E-01
       -1   -1    0    0    0  501  0.00000000000E+00  0.00000000000E+00  0.39268065261E+03  0.39268065264E+03  0.50400001928E-02 0.  1.
        1   -1    0    0  501    0  0.00000000000E+00  0.00000000000E+00 -0.22775207295E+04  0.22775207296E+04  0.50400001928E-02 0. -1.
    10030    2    1    2    0    0  0.00000000000E+00  0.00000000000E+00 -0.18848400769E+04  0.26702013822E+04  0.18913892529E+04 0.  0.
        2    1    3    3  502    0  0.80832587275E+03  0.30980516396E+03 -0.14799463503E+04  0.17145294269E+04  0.25500000920E-02 0.  1.
       -2    1    3    3    0  502 -0.80832587275E+03 -0.30980516396E+03 -0.40489372668E+03  0.95567195527E+03  0.25500000920E-02 0. -1.
</event>
<event>
 5   0  0.9266125E-05  0.1911562E+04  0.7818609E-02  0.8649123E-01
        3   -1    0    0  501    0  0.00000000000E+00  0.00000000000E+00  0.10329018733E+04  0.10329018783E+04  0.10100000352E+00 0.  1.
       -3   -1    0    0    0  501  0.00000000000E+00  0.00000000000E+00 -0.88441789338E+03  0.88441789915E+03  0.10100000352E+00 0. -1.
    10030    2    1    2    0    0  0.00000000000E+00  0.00000000000E+00  0.14848397996E+03  0.19173197774E+04  0.19115615702E+04 0.  0.
        3    1    3    3  502    0  0.39564534722E+03 -0.67493142641E+03 -0.47645581957E+03  0.91601191550E+03  0.10100000352E+00 0. -1.
       -3    1    3    3    0  502 -0.39564534722E+03  0.67493142641E+03  0.62493979954E+03  0.10013078619E+04  0.10100000352E+00 0.  1.
</event>
<event>
 5   0  0.1277709E-04  0.1917226E+04  0.7818609E-02  0.8646329E-01
       -1   -1    0    0    0  501  0.00000000000E+00  0.00000000000E+00  0.92646062851E+03  0.92646062853E+03  0.50400001928E-02 0. -1.
        1   -1    0    0  501    0  0.00000000000E+00  0.00000000000E+00 -0.99188112069E+03  0.99188112071E+03  0.50400001928E-02 0.  1.
    10030    2    1    2    0    0  0.00000000000E+00  0.00000000000E+00 -0.65420492182E+02  0.19183417492E+04  0.19172259194E+04 0.  0.
        4    1    3    3  502    0 -0.46226495583E+03 -0.83309011930E+03  0.73224680405E+02  0.95555821538E+03  0.12699999809E+01 0. -1.
       -4    1    3    3    0  502  0.46226495583E+03  0.83309011930E+03 -0.13864517259E+03  0.96278353385E+03  0.12699999809E+01 0.  1.
</event>
<event>
 5   0  0.1239615E-04  0.1881829E+04  0.7818609E-02  0.8663954E-01
        1   -1    0    0  501    0  0.00000000000E+00  0.00000000000E+00  0.14882277143E+04  0.14882277143E+04  0.50400001928E-02 0.  1.
       -1   -1    0    0    0  501  0.00000000000E+00  0.00000000000E+00 -0.59488236765E+03  0.59488236767E+03  0.50400001928E-02 0. -1.
    10030    2    1    2    0    0  0.00000000000E+00  0.00000000000E+00  0.89334534667E+03  0.20831100820E+04  0.18818293507E+04 0.  0.
        3    1    3    3  502    0 -0.49966713754E+03  0.12566078264E+03  0.13181973274E+04  0.14153098900E+04  0.10100000352E+00 0.  1.
       -3    1    3    3    0  502  0.49966713754E+03 -0.12566078264E+03 -0.42485198075E+03  0.66780019196E+03  0.10100000352E+00 0. -1.
</event>
<event>
 5   0  0.2562925E-04  0.1742173E+04  0.7818609E-02  0.8737670E-01
       -2   -1    0    0    0  501  0.00000000000E+00  0.00000000000E+00  0.43259526203E+03  0.43259526203E+03  0.25500000920E-02 0. -1.
        2   -1    0    0  501    0  0.00000000000E+00  0.00000000000E+00 -0.17540459105E+04  0.17540459105E+04  0.25500000920E-02 0.  1.
    10030    2    1    2    0    0  0.00000000000E+00  0.00000000000E+00 -0.13214506485E+04  0.21866411725E+04  0.17421732982E+04 0.  0.
        4    1    3    3  502    0 -0.44355539089E+03 -0.71487908617E+03 -0.94416315876E+03  0.12646102862E+04  0.12699999809E+01 0.  1.
       -4    1    3    3    0  502  0.44355539089E+03  0.71487908617E+03 -0.37728748972E+03  0.92203088638E+03  0.12699999809E+01 0. -1.
</event>
<event>
 5   0  0.2541124E-04  0.1921067E+04  0.7818609E-02  0.8644440E-01
       -2   -1    0    0    0  501  0.00000000000E+00  0.00000000000E+00  0.94969040999E+03  0.94969040999E+03  0.25500000920E-02 0.  1.
        2   -1    0    0  501    0  0.00000000000E+00  0.00000000000E+00 -0.97150076232E+03  0.97150076233E+03  0.25500000920E-02 0. -1.
    10030    2    1    2    0    0  0.00000000000E+00  0.00000000000E+00 -0.21810352334E+02  0.19211911723E+04  0.19210673671E+04 0.  0.
        5    1    3    3  502    0  0.58219320646E+03  0.67994688174E+03 -0.35924669556E+03  0.96455013862E+03  0.46999998093E+01 0. -1.
       -5    1    3    3    0  502 -0.58219320646E+03 -0.67994688174E+03  0.33743634322E+03  0.95664103370E+03  0.46999998093E+01 0.  1.
</event>
<event>
 5   0  0.1324058E-04  0.1883359E+04  0.7818609E-02  0.8663184E-01
        1   -1    0    0  501    0  0.00000000000E+00  0.00000000000E+00  0.15808159579E+04  0.15808159580E+04  0.50400001928E-02 0. -1.
       -1   -1    0    0    0  501  0.00000000000E+00  0.00000000000E+00 -0.56095101642E+03  0.56095101644E+03  0.50400001928E-02 0.  1.
    10030    2    1    2    0    0  0.00000000000E+00  0.00000000000E+00  0.10198649415E+04  0.21417669744E+04  0.18833590400E+04 0.  0.
        5    1    3    3  502    0  0.28386686016E+03 -0.42830474063E+03 -0.38746124100E+03  0.64356324353E+03  0.46999998093E+01 0.  1.
       -5    1    3    3    0  502 -0.28386686016E+03  0.42830474063E+03  0.14073261825E+04  0.14982037309E+04  0.46999998093E+01 0. -1.
</event>
<event>
 5   0  0.2595012E-04  0.1899005E+04  0.7818609E-02  0.8655352E-01
       -2   -1    0    0    0  501  0.00000000000E+00  0.00000000000E+00  0.42185517822E+03  0.42185517823E+03  0.25500000920E-02 0. -1.
        2   -1    0    0  501    0  0.00000000000E+00  0.00000000000E+00 -0.21371197738E+04  0.21371197738E+04  0.25500000920E-02 0.  1.
    10030    2    1    2    0    0  0.00000000000E+00  0.00000000000E+00 -0.17152645956E+04  0.25589749521E+04  0.18990050480E+04 0.  0.
        1    1    3    3  502    0  0.15424989369E+03 -0.87499607628E+03 -0.40637139864E+03  0.97701017234E+03  0.50400001928E-02 0. -1.
       -1    1    3    3    0  502 -0.15424989369E+03  0.87499607628E+03 -0.13088931970E+04  0.15819647797E+04  0.50400001928E-02 0.  1.
</event>
<event>
 5   0  0.2608744E-04  0.1905243E+04  0.7818609E-02  0.8652251E-01
       -2   -1    0    0    0  501  0.00000000000E+00  0.00000000000E+00  0.12772495678E+04  0.12772495678E+04  0.25500000920E-02 0. -1.
        2   -1    0    0  501    0  0.00000000000E+00  0.00000000000E+00 -0.71050131575E+03  0.71050131576E+03  0.25500000920E-02 0.  1.
    10030    2    1    2    0    0  0.00000000000E+00  0.00000000000E+00  0.56674825200E+03  0.19877508835E+04  0.19052427651E+04 0.  0.
        2    1    3    3  502    0  0.54434033091E+03 -0.60426196836E+03 -0.23413982533E+03  0.84632167648E+03  0.25500000920E-02 0.  1.
       -2    1    3    3    0  502 -0.54434033091E+03  0.60426196836E+03  0.80088807733E+03  0.11414292070E+04  0.25500000920E-02 0. -1.
</event>
<event>
 5   0  0.2608744E-04  0.1757851E+04  0.7818609E-02  0.8729041E-01
        2   -1    0    0  501    0  0.00000000000E+00  0.00000000000E+00  0.12649991139E+04  0.12649991139E+04  0.25500000920E-02 0. -1.
       -2   -1    0    0    0  501  0.00000000000E+00  0.00000000000E+00 -0.61067995188E+03  0.61067995188E+03  0.25500000920E-02 0.  1.
    10030    2    1    2    0    0  0.00000000000E+00  0.00000000000E+00  0.65431916204E+03  0.18756790658E+04  0.17578505033E+04 0.  0.
        2    1    3    3  502    0 -0.34301386620E+03 -0.14418327146E+03  0.11768144475E+04  0.12342364328E+04  0.25500000920E-02 0. -1.
       -2    1    3    3    0  502  0.34301386620E+03  0.14418327146E+03 -0.52249528543E+03  0.64144263304E+03  0.25500000920E-02 0.  1.
</event>
<event>
 5   0  0.1277709E-04  0.1879821E+04  0.7818609E-02  0.8664967E-01
        1   -1    0    0  501    0  0.00000000000E+00  0.00000000000E+00  0.15505980864E+04  0.15505980864E+04  0.50400001928E-02 0.  1.
       -1   -1    0    0    0  501  0.00000000000E+00  0.00000000000E+00 -0.56973587146E+03  0.56973587148E+03  0.50400001928E-02 0. -1.
    10030    2    1    2    0    0  0.00000000000E+00  0.00000000000E+00  0.98086221490E+03  0.21203339578E+04  0.18798205787E+04 0.  0.
        4    1    3    3  502    0 -0.31657489741E+03 -0.42793944953E+03  0.13641901552E+04  0.14643661531E+04  0.12699999809E+01 0.  1.
       -4    1    3    3    0  502  0.31657489741E+03  0.42793944953E+03 -0.38332794026E+03  0.65596780471E+03  0.12699999809E+01 0. -1.
</event>
<event>
 5   0  0.1317527E-04  0.1958110E+04  0.7818609E-02  0.8626460E-01
       -1   -1    0    0    0  501  0.00000000000E+00  0.00000000000E+00  0.12139481999E+04  0.12139481999E+04  0.50400001928E-02 0.  1.
        1   -1    0    0  501    0  0.00000000000E+00  0.00000000000E+00 -0.78961227532E+03  0.78961227534E+03  0.50400001928E-02 0. -1.
    10030    2    1    2    0    0  0.00000000000E+00  0.00000000000E+00  0.42433592461E+03  0.20035604753E+04  0.19581097010E+04 0.  0.
        1    1    3    3  502    0  0.84729910457E+03 -0.77847379119E+02  0.70773670327E+03  0.11067371993E+04  0.50400001928E-02 0.  1.
       -1    1    3    3    0  502 -0.84729910457E+03  0.77847379119E+02 -0.28340077866E+03  0.89682327602E+03  0.50400001928E-02 0. -1.
</event>
<event>
 5   0  0.2541124E-04  0.1915366E+04  0.7818609E-02  0.8647245E-01
        2   -1    0    0  501    0  0.00000000000E+00  0.00000000000E+00  0.99438661635E+03  0.99438661635E+03  0.25500000920E-02 0. -1.
       -2   -1    0    0    0  501  0.00000000000E+00  0.00000000000E+00 -0.92233452362E+03  0.92233452362E+03  0.25500000920E-02 0.  1.
    10030    2    1    2    0    0  0.00000000000E+00  0.00000000000E+00  0.72052092734E+02  0.19167211400E+04  0.19153663943E+04 0.  0.
        5    1    3    3  502    0  0.59382764544E+03  0.38655039182E+02  0.78689637514E+03  0.98658678268E+03  0.46999998093E+01 0. -1.
       -5    1    3    3    0  502 -0.59382764544E+03 -0.38655039182E+02 -0.71484428240E+03  0.93013435730E+03  0.46999998093E+01 0.  1.
</event>
<event>
 5   0  0.1324058E-04  0.1914569E+04  0.7818609E-02  0.8647638E-01
        1   -1    0    0  501    0  0.00000000000E+00  0.00000000000E+00  0.99885874348E+03  0.99885874350E+03  0.50400001928E-02 0. -1.
       -1   -1    0    0    0  501  0.00000000000E+00  0.00000000000E+00 -0.91744107800E+03  0.91744107802E+03  0.50400001928E-02 0.  1.
    10030    2    1    2    0    0  0.00000000000E+00  0.00000000000E+00  0.81417665479E+02  0.19162998215E+04  0.19145694476E+04 0.  0.
        5    1    3    3  502    0 -0.62928552555E+02 -0.23650485675E+03 -0.88558823522E+03  0.91879440701E+03  0.46999998093E+01 0.  1.
       -5    1    3    3    0  502  0.62928552555E+02  0.23650485675E+03  0.96700590069E+03  0.99750541451E+03  0.46999998093E+01 0. -1.
</event>
<event>
 5   0  0.2608744E-04  0.1859796E+04  0.7818609E-02  0.8675131E-01
        2   -1    0    0  501    0  0.00000000000E+00  0.00000000000E+00  0.64732442545E+03  0.64732442546E+03  0.25500000920E-02 0.  1.
       -2   -1    0    0    0  501  0.00000000000E+00  0.00000000000E+00 -0.13358219951E+04  0.13358219951E+04  0.25500000920E-02 0. -1.
    10030    2    1    2    0    0  0.00000000000E+00  0.00000000000E+00 -0.68849756964E+03  0.19831464206E+04  0.18597959087E+04 0.  0.
        2    1    3    3  502    0  0.77484398631E+03  0.50561664488E+03 -0.44358774333E+03  0.10260611486E+04  0.25500000920E-02 0. -1.
       -2    1    3    3    0  502 -0.77484398631E+03 -0.50561664488E+03 -0.24490982632E+03  0.95708527192E+03  0.25500000920E-02 0.  1.
</event>
<event>
 5   0  0.2562925E-04  0.1916990E+04  0.7818609E-02  0.8646445E-01
       -2   -1    0    0    0  501  0.00000000000E+00  0.00000000000E+00  0.87648020311E+03  0.87648020312E+03  0.25500000920E-02 0.  1.
        2   -1    0    0  501    0  0.00000000000E+00  0.00000000000E+00 -0.10481838208E+04  0.10481838208E+04  0.25500000920E-02 0. -1.
    10030    2    1    2    0    0  0.00000000000E+00  0.00000000000E+00 -0.17170361769E+03  0.19246640239E+04  0.19169896903E+04 0.  0.
        4    1    3    3  502    0  0.41144497688E+03 -0.18890610876E+02 -0.95480316164E+03  0.10398531216E+04  0.12699999809E+01 0. -1.
       -4    1    3    3    0  502 -0.41144497688E+03  0.18890610876E+02  0.78309954395E+03  0.88481090229E+03  0.12699999809E+01 0.  1.
</event>
<event>
 5   0  0.1277709E-04  0.1895673E+04  0.7818609E-02  0.8657013E-01
       -1   -1    0    0    0  501  0.00000000000E+00  0.00000000000E+00  0.15077295757E+04  0.15077295757E+04  0.50400001928E-02 0.  1.
        1   -1    0    0  501    0  0.00000000000E+00  0.00000000000E+00 -0.59585915929E+03  0.59585915931E+03  0.50400001928E-02 0. -1.
    10030    2    1    2    0    0  0.00000000000E+00  0.00000000000E+00  0.91187041641E+03  0.21035887350E+04  0.18956734713E+04 0.  0.
        4    1    3    3  502    0 -0.50601519781E+03  0.22317635899E+03 -0.39825358116E+03  0.68151786142E+03  0.12699999809E+01 0. -1.
       -4    1    3    3    0  502  0.50601519781E+03 -0.22317635899E+03  0.13101239976E+04  0.14220708736E+04  0.12699999809E+01 0.  1.
</event>
<event>
 5   0  0.2541124E-04  0.1947552E+04  0.7818609E-02  0.8631542E-01
       -2   -1    0    0    0  501  0.00000000000E+00  0.00000000000E+00  0.41178018807E+03  0.41178018807E+03  0.25500000920E-02 0. -1.
        2   -1    0    0  501    0  0.00000000000E+00  0.00000000000E+00 -0.23027805223E+04  0.23027805223E+04  0.25500000920E-02 0.  1.
    10030    2    1    2    0    0  0.00000000000E+00  0.00000000000E+00 -0.18910003342E+04  0.27145607103E+04  0.19475516902E+04 0.  0.
        5    1    3    3  502    0 -0.28126840716E+02  0.23095823069E+02 -0.23018164204E+04  0.23021089157E+04  0.46999998093E+01 0.  1.
       -5    1    3    3    0  502  0.28126840716E+02 -0.23095823069E+02  0.41081608624E+03  0.41245179467E+03  0.46999998093E+01 0. -1.
</event>
<event>
 5   0  0.2651828E-04  0.1908744E+04  0.7818609E-02  0.8650516E-01
       -2   -1    0    0    0  501  0.00000000000E+00  0.00000000000E+00  0.39826406315E+03  0.39826406316E+03  0.25500000920E-02 0. -1.
        2   -1    0    0  501    0  0.00000000000E+00  0.00000000000E+00 -0.22869904159E+04  0.22869904159E+04  0.25500000920E-02 0.  1.
    10030    2    1    2    0    0  0.00000000000E+00  0.00000000000E+00 -0.18887263528E+04  0.26852544791E+04  0.19087441897E+04 0.  0.
        3    1    3    3  502    0 -0.58132125153E+03 -0.96664718587E+01 -0.20090908982E+04  0.20915243450E+04  0.10100000352E+00 0.  1.
       -3    1    3    3    0  502  0.58132125153E+03  0.96664718587E+01  0.12036454543E+03  0.59373013411E+03  0.10100000352E+00 0. -1.
</event>
<event>
 5   0  0.2562925E-04  0.1930622E+04  0.7818609E-02  0.8639762E-01
        2   -1    0    0  501    0  0.00000000000E+00  0.00000000000E+00  0.94619054155E+03  0.94619054156E+03  0.25500000920E-02 0. -1.
       -2   -1    0    0    0  501  0.00000000000E+00  0.00000000000E+00 -0.98481788288E+03  0.98481788288E+03  0.25500000920E-02 0.  1.
    10030    2    1    2    0    0  0.00000000000E+00  0.00000000000E+00 -0.38627341325E+02  0.19310084244E+04  0.19306220406E+04 0.  0.
        4    1    3    3  502    0  0.62018419356E+02 -0.95753011434E+03  0.86128245460E+02  0.96339498223E+03  0.12699999809E+01 0. -1.
       -4    1    3    3    0  502 -0.62018419356E+02  0.95753011434E+03 -0.12475558678E+03  0.96761344221E+03  0.12699999809E+01 0.  1.
</event>
<event>
 5   0  0.1255141E-04  0.1905611E+04  0.7818609E-02  0.8652069E-01
       -1   -1    0    0    0  501  0.00000000000E+00  0.00000000000E+00  0.91580047764E+03  0.91580047765E+03  0.50400001928E-02 0. -1.
        1   -1    0    0  501    0  0.00000000000E+00  0.00000000000E+00 -0.99130559228E+03  0.99130559229E+03  0.50400001928E-02 0.  1.
    10030    2    1    2    0    0  0.00000000000E+00  0.00000000000E+00 -0.75505114637E+02  0.19071060699E+04  0.19056108049E+04 0.  0.
        2    1    3    3  502    0 -0.73152183661E+03 -0.25916324598E+02 -0.64818385350E+03  0.97772090152E+03  0.25500000920E-02 0.  1.
       -2    1    3    3    0  502  0.73152183661E+03  0.25916324598E+02  0.57267873887E+03  0.92938516842E+03  0.25500000920E-02 0. -1.
</event>
<event>
 5   0  0.2541124E-04  0.1888930E+04  0.7818609E-02  0.8660386E-01
        2   -1    0    0  501    0  0.00000000000E+00  0.00000000000E+00  0.16710473711E+04  0.16710473711E+04  0.25500000920E-02 0.  1.
       -2   -1    0    0    0  501  0.00000000000E+00  0.00000000000E+00 -0.53380555760E+03  0.53380555760E+03  0.25500000920E-02 0. -1.
    10030    2    1    2    0    0  0.00000000000E+00  0.00000000000E+00  0.11372418135E+04  0.22048529287E+04  0.18889302514E+04 0.  0.
        5    1    3    3  502    0 -0.40499909235E+03 -0.86407506367E+02 -0.42216820992E+03  0.59138702169E+03  0.46999998093E+01 0. -1.
       -5    1    3    3    0  502  0.40499909235E+03  0.86407506367E+02  0.15594100234E+04  0.16134659070E+04  0.46999998093E+01 0.  1.
</event>
<event>
 5   0  0.1324058E-04  0.1926461E+04  0.7818609E-02  0.8641796E-01
        1   -1    0    0  501    0  0.00000000000E+00  0.00000000000E+00  0.12421449622E+04  0.12421449622E+04  0.50400001928E-02 0.  1.
       -1   -1    0    0    0  501  0.00000000000E+00  0.00000000000E+00 -0.74694386727E+03  0.74694386729E+03  0.50400001928E-02 0. -1.
    10030    2    1    2    0    0  0.00000000000E+00  0.00000000000E+00  0.49520109494E+03  0.19890888295E+04  0.19264605491E+04 0.  0.
        5    1    3    3  502    0 -0.78531493151E+03 -0.13702303850E+03  0.80582031342E+03  0.11335181173E+04  0.46999998093E+01 0.  1.
       -5    1    3    3    0  502  0.78531493151E+03  0.13702303850E+03 -0.31061921847E+03  0.85557071222E+03  0.46999998093E+01 0. -1.
</event>
<event>
 5   0  0.2562925E-04  0.1894598E+04  0.7818609E-02  0.8657550E-01
       -2   -1    0    0    0  501  0.00000000000E+00  0.00000000000E+00  0.47007904435E+03  0.47007904436E+03  0.25500000920E-02 0. -1.
        2   -1    0    0  501    0  0.00000000000E+00  0.00000000000E+00 -0.19089889322E+04  0.19089889322E+04  0.25500000920E-02 0.  1.
    10030    2    1    2    0    0  0.00000000000E+00  0.00000000000E+00 -0.14389098879E+04  0.23790679766E+04  0.18945983141E+04 0.  0.
        4    1    3    3  502    0 -0.29174823015E+03 -0.28746319213E+03 -0.17920570716E+04  0.18382661063E+04  0.12699999809E+01 0.  1.
       -4    1    3    3    0  502  0.29174823015E+03  0.28746319213E+03  0.35314718376E+03  0.54080187030E+03  0.12699999809E+01 0. -1.
</event>
<event>
 5   0  0.1317527E-04  0.1907519E+04  0.7818609E-02  0.8651123E-01
        1   -1    0    0  501    0  0.00000000000E+00  0.00000000000E+00  0.46757474376E+03  0.46757474379E+03  0.50400001928E-02 0.  1.
       -1   -1    0    0    0  501  0.00000000000E+00  0.00000000000E+00 -0.19454802701E+04  0.19454802701E+04  0.50400001928E-02 0. -1.
    10030    2    1    2    0    0  0.00000000000E+00  0.00000000000E+00 -0.14779055264E+04  0.24130550139E+04  0.19075192674E+04 0.  0.
        1    1    3    3  502    0 -0.95004832310E+03 -0.83863236230E+02 -0.73173213209E+03  0.12021051417E+04  0.50400001928E-02 0.  1.
       -1    1    3    3    0  502  0.95004832310E+03  0.83863236230E+02 -0.74617339428E+03  0.12109498722E+04  0.50400001928E-02 0. -1.
</event>
<event>
 5   0  0.2541124E-04  0.1900692E+04  0.7818609E-02  0.8654512E-01
       -2   -1    0    0    0  501  0.00000000000E+00  0.00000000000E+00  0.62390488175E+03  0.62390488176E+03  0.25500000920E-02 0.  1.
        2   -1    0    0  501    0  0.00000000000E+00  0.00000000000E+00 -0.14475880536E+04  0.14475880536E+04  0.25500000920E-02 0. -1.
    10030    2    1    2    0    0  0.00000000000E+00  0.00000000000E+00 -0.82368317189E+03  0.20714929354E+04  0.19006917198E+04 0.  0.
        5    1    3    3  502    0 -0.52622385136E+03  0.78304500800E+03 -0.28727196604E+03  0.98621412420E+03  0.46999998093E+01 0. -1.
       -5    1    3    3    0  502  0.52622385136E+03 -0.78304500800E+03 -0.53641120585E+03  0.10852788112E+04  0.46999998093E+01 0.  1.
</event>
<event>
 5   0  0.1324058E-04  0.1896978E+04  0.7818609E-02  0.8656362E-01
       -1   -1    0    0    0  501  0.00000000000E+00  0.00000000000E+00  0.87543378330E+03  0.87543378332E+03  0.50400001928E-02 0. -1.
        1   -1    0    0  501    0  0.00000000000E+00  0.00000000000E+00 -0.10276406241E+04  0.10276406241E+04  0.50400001928E-02 0.  1.
    10030    2    1    2    0    0  0.00000000000E+00  0.00000000000E+00 -0.15220684081E+03  0.19030744074E+04  0.18969779329E+04 0.  0.
        5    1    3    3  502    0  0.50429197047E+03  0.64702120102E+03 -0.55372422379E+03  0.98973705198E+03  0.46999998093E+01 0.  1.
       -5    1    3    3    0  502 -0.50429197047E+03 -0.64702120102E+03  0.40151738298E+03  0.91333735546E+03  0.46999998093E+01 0. -1.
</event>
<event>
 5   0  0.1324058E-04  0.1975258E+04  0.7818609E-02  0.8618277E-01
       -1   -1    0    0    0  501  0.00000000000E+00  0.00000000000E+00  0.79332592017E+03  0.79332592018E+03  0.50400001928E-02 0.  1.
        1   -1    0    0  501    0  0.00000000000E+00  0.00000000000E+00 -0.12295211248E+04  0.12295211248E+04  0.50400001928E-02 0. -1.
    10030    2    1    2    0    0  0.00000000000E+00  0.00000000000E+00 -0.43619520460E+03  0.20228470450E+04  0.19752579353E+04 0.  0.
        5    1    3    3  502    0  0.84785455892E+03 -0.32414154512E+02 -0.73572637940E+03  0.11230420410E+04  0.46999998093E+01 0. -1.
       -5    1    3    3    0  502 -0.84785455892E+03  0.32414154512E+02  0.29953117480E+03  0.89980500397E+03  0.46999998093E+01 0.  1.
</event>
<event>
 5   0  0.2541124E-04  0.1879843E+04  0.7818609E-02  0.8664955E-01
        2   -1    0    0  501    0  0.00000000000E+00  0.00000000000E+00  0.81221009913E+03  0.81221009913E+03  0.25500000920E-02 0. -1.
       -2   -1    0    0    0  501  0.00000000000E+00  0.00000000000E+00 -0.10877140384E+04  0.10877140384E+04  0.25500000920E-02 0.  1.
    10030    2    1    2    0    0  0.00000000000E+00  0.00000000000E+00 -0.27550393929E+03  0.18999241375E+04  0.18798428945E+04 0.  0.
        5    1    3    3  502    0 -0.91040077506E+03 -0.19247351990E+03 -0.38428064055E+01  0.93054418716E+03  0.46999998093E+01 0.  1.
       -5    1    3    3    0  502  0.91040077506E+03  0.19247351990E+03 -0.27166113289E+03  0.96937995039E+03  0.46999998093E+01 0. -1.
</event>
<event>
 5   0  0.1277709E-04  0.1915123E+04  0.7818609E-02  0.8647365E-01
        1   -1    0    0  501    0  0.00000000000E+00  0.00000000000E+00  0.93376475216E+03  0.93376475217E+03  0.50400001928E-02 0.  1.
       -1   -1    0    0    0  501  0.00000000000E+00  0.00000000000E+00 -0.98196491540E+03  0.98196491541E+03  0.50400001928E-02 0. -1.
    10030    2    1    2    0    0  0.00000000000E+00  0.00000000000E+00 -0.48200163240E+02  0.19157296676E+04  0.19151232084E+04 0.  0.
        4    1    3    3  502    0 -0.22180216244E+03 -0.81171120325E+03 -0.48124735597E+03  0.96936675581E+03  0.12699999809E+01 0. -1.
       -4    1    3    3    0  502  0.22180216244E+03  0.81171120325E+03  0.43304719273E+03  0.94636291177E+03  0.12699999809E+01 0.  1.
</event>
<event>
 5   0  0.1277709E-04  0.1891104E+04  0.7818609E-02  0.8659297E-01
        1   -1    0    0  501    0  0.00000000000E+00  0.00000000000E+00  0.74357698312E+03  0.74357698314E+03  0.50400001928E-02 0. -1.
       -1   -1    0    0    0  501  0.00000000000E+00  0.00000000000E+00 -0.12023891609E+04  0.12023891609E+04  0.50400001928E-02 0.  1.
    10030    2    1    2    0    0  0.00000000000E+00  0.00000000000E+00 -0.45881217782E+03  0.19459661441E+04  0.18911043386E+04 0.  0.
        4    1    3    3  502    0  0.34030342498E+03  0.64857093922E+03 -0.84476519085E+03  0.11180700000E+04  0.12699999809E+01 0.  1.
       -4    1    3    3    0  502 -0.34030342498E+03 -0.64857093922E+03  0.38595301304E+03  0.82789614411E+03  0.12699999809E+01 0. -1.
</event>
<event>
 5   0  0.1324058E-04  0.1916363E+04  0.7818609E-02  0.8646754E-01
        1   -1    0    0  501    0  0.00000000000E+00  0.00000000000E+00  0.70295700162E+03  0.70295700163E+03  0.50400001928E-02 0. -1.
       -1   -1    0    0    0  501  0.00000000000E+00  0.00000000000E+00 -0.13060714907E+04  0.13060714908E+04  0.50400001928E-02 0.  1.
    10030    2    1    2    0    0  0.00000000000E+00  0.00000000000E+00 -0.60311448913E+03  0.20090284924E+04  0.19163633257E+04 0.  0.
        5    1    3    3  502    0  0.49263385861E+03 -0.12349745990E+03 -0.11533415760E+04  0.12602216559E+04  0.46999998093E+01 0.  1.
       -5    1    3    3    0  502 -0.49263385861E+03  0.12349745990E+03  0.55022708683E+03  0.74880683646E+03  0.46999998093E+01 0. -1.
</event>
<event>
 5   0  0.1277709E-04  0.1896695E+04  0.7818609E-02  0.8656503E-01
       -1   -1    0    0    0  501  0.00000000000E+00  0.00000000000E+00  0.14033770288E+04  0.14033770288E+04  0.50400001928E-02 0. -1.
        1   -1    0    0  501    0  0.00000000000E+00  0.00000000000E+00 -0.64085618815E+03  0.64085618817E+03  0.50400001928E-02 0.  1.
    10030    2    1    2    0    0  0.00000000000E+00  0.00000000000E+00  0.76252084067E+03  0.20442332170E+04  0.18966948655E+04 0.  0.
        4    1    3    3  502    0 -0.35025364045E+02 -0.14826510925E+02  0.14025537569E+04  0.14030699396E+04  0.12699999809E+01 0. -1.
       -4    1    3    3    0  502  0.35025364045E+02  0.14826510925E+02 -0.64003291621E+03  0.64116327740E+03  0.12699999809E+01 0.  1.
</event>
<event>
 5   0  0.1277709E-04  0.1918497E+04  0.7818609E-02  0.8645703E-01
       -1   -1    0    0    0  501  0.00000000000E+00  0.00000000000E+00  0.51380488355E+03  0.51380488358E+03  0.50400001928E-02 0.  1.
        1   -1    0    0  501    0  0.00000000000E+00  0.00000000000E+00 -0.17908706577E+04  0.17908706577E+04  0.50400001928E-02 0. -1.
    10030    2    1    2    0    0  0.00000000000E+00  0.00000000000E+00 -0.12770657741E+04  0.23046755413E+04  0.19184974222E+04 0.  0.
        4    1    3    3  502    0 -0.73161557050E+03 -0.71234340080E+02  0.10181858874E+03  0.74209454392E+03  0.12699999809E+01 0.  1.
       -4    1    3    3    0  502  0.73161557050E+03  0.71234340080E+02 -0.13788843629E+04  0.15625809973E+04  0.12699999809E+01 0. -1.
</event>
<event>
 5   0  0.1277709E-04  0.1864602E+04  0.7818609E-02  0.8672680E-01
        1   -1    0    0  501    0  0.00000000000E+00  0.00000000000E+00  0.17158931673E+04  0.17158931673E+04  0.50400001928E-02 0.  1.
       -1   -1    0    0    0  501  0.00000000000E+00  0.00000000000E+00 -0.50654963251E+03  0.50654963254E+03  0.50400001928E-02 0. -1.
    10030    2    1    2    0    0  0.00000000000E+00  0.00000000000E+00  0.12093435347E+04  0.22224427998E+04  0.18646018914E+04 0.  0.
        4    1    3    3  502    0 -0.15707112161E+03  0.65056106633E+03  0.13782978986E+04  0.15321905066E+04  0.12699999809E+01 0.  1.
       -4    1    3    3    0  502  0.15707112161E+03 -0.65056106633E+03 -0.16895436390E+03  0.69025229318E+03  0.12699999809E+01 0. -1.
</event>
<event>
 5   0  0.1239615E-04  0.1909479E+04  0.7818609E-02  0.8650152E-01
        1   -1    0    0  501    0  0.00000000000E+00  0.00000000000E+00  0.10700824941E+04  0.10700824941E+04  0.50400001928E-02 0. -1.
       -1   -1    0    0    0  501  0.00000000000E+00  0.00000000000E+00 -0.85182946220E+03  0.85182946221E+03  0.50400001928E-02 0.  1.
    10030    2    1    2    0    0  0.00000000000E+00  0.00000000000E+00  0.21825303187E+03  0.19219119563E+04  0.19094792960E+04 0.  0.
        3    1    3    3  502    0  0.24352620387E+03  0.41037282530E+03 -0.72318989015E+03  0.86643781954E+03  0.10100000352E+00 0.  1.
       -3    1    3    3    0  502 -0.24352620387E+03 -0.41037282530E+03  0.94144292201E+03  0.10554741367E+04  0.10100000352E+00 0. -1.
</event>
<event>
 5   0  0.2608744E-04  0.1917614E+04  0.7818609E-02  0.8646138E-01
        2   -1    0    0  501    0  0.00000000000E+00  0.00000000000E+00  0.13337634722E+04  0.13337634722E+04  0.25500000920E-02 0.  1.
       -2   -1    0    0    0  501  0.00000000000E+00  0.00000000000E+00 -0.68926052547E+03  0.68926052548E+03  0.25500000920E-02 0. -1.
    10030    2    1    2    0    0  0.00000000000E+00  0.00000000000E+00  0.64450294669E+03  0.20230239976E+04  0.19176136333E+04 0.  0.
        2    1    3    3  502    0  0.86826113449E+03  0.27592901718E+03  0.63750259271E+03  0.11119459411E+04  0.25500000920E-02 0. -1.
       -2    1    3    3    0  502 -0.86826113449E+03 -0.27592901718E+03  0.70003539774E+01  0.91107805656E+03  0.25500000920E-02 0.  1.
</event>
<event>
 5   0  0.1317527E-04  0.1927089E+04  0.7818609E-02  0.8641489E-01
       -1   -1    0    0    0  501  0.00000000000E+00  0.00000000000E+00  0.83815743844E+03  0.83815743845E+03  0.50400001928E-02 0.  1.
        1   -1    0    0  501    0  0.00000000000E+00  0.00000000000E+00 -0.11076888173E+04  0.11076888173E+04  0.50400001928E-02 0. -1.
    10030    2    1    2    0    0  0.00000000000E+00  0.00000000000E+00 -0.26953137887E+03  0.19458462558E+04  0.19270886038E+04 0.  0.
        1    1    3    3  502    0  0.82136802498E+03  0.35368806564E+02  0.37264053882E+03  0.90263910625E+03  0.50400001928E-02 0.  1.
       -1    1    3    3    0  502 -0.82136802498E+03 -0.35368806564E+02 -0.64217191769E+03  0.10432071495E+04  0.50400001928E-02 0. -1.
</event>
<event>
 5   0  0.1317527E-04  0.1902450E+04  0.7818609E-02  0.8653638E-01
       -1   -1    0    0    0  501  0.00000000000E+00  0.00000000000E+00  0.11922371361E+04  0.11922371361E+04  0.50400001928E-02 0. -1.
        1   -1    0    0  501    0  0.00000000000E+00  0.00000000000E+00 -0.75893388480E+03  0.75893388481E+03  0.50400001928E-02 0.  1.
    10030    2    1    2    0    0  0.00000000000E+00  0.00000000000E+00  0.43330325129E+03  0.19511710209E+04  0.19024501689E+04 0.  0.
        1    1    3    3  502    0  0.29032071502E+03  0.43076861738E+03  0.10339159917E+04  0.11570782157E+04  0.50400001928E-02 0. -1.
       -1    1    3    3    0  502 -0.29032071502E+03 -0.43076861738E+03 -0.60061274043E+03  0.79409280521E+03  0.50400001928E-02 0.  1.
</event>
<event>
 5   0  0.2541124E-04  0.2113812E+04  0.7818609E-02  0.8555183E-01
       -2   -1    0    0    0  501  0.00000000000E+00  0.00000000000E+00  0.58349490116E+03  0.58349490117E+03  0.25500000920E-02 0.  1.
        2   -1    0    0  501    0  0.00000000000E+00  0.00000000000E+00 -0.19144136578E+04  0.19144136578E+04  0.25500000920E-02 0. -1.
    10030    2    1    2    0    0  0.00000000000E+00  0.00000000000E+00 -0.13309187566E+04  0.24979085589E+04  0.21138122982E+04 0.  0.
        5    1    3    3  502    0 -0.92799931325E+03 -0.50565699980E+03 -0.68025628606E+03  0.12568382679E+04  0.46999998093E+01 0. -1.
       -5    1    3    3    0  502  0.92799931325E+03  0.50565699980E+03 -0.65066247055E+03  0.12410702911E+04  0.46999998093E+01 0.  1.
</event>
<event>
 5   0  0.9266125E-05  0.1928194E+04  0.7818609E-02  0.8640948E-01
        4   -1    0    0  501    0  0.00000000000E+00  0.00000000000E+00  0.11682137394E+04  0.11682144297E+04  0.12699999809E+01 0. -1.
       -4   -1    0    0    0  501  0.00000000000E+00  0.00000000000E+00 -0.79564322143E+03  0.79564423502E+03  0.12699999809E+01 0.  1.
    10030    2    1    2    0    0  0.00000000000E+00  0.00000000000E+00  0.37257051794E+03  0.19638586647E+04  0.19281939903E+04 0.  0.
        5    1    3    3  502    0  0.40658603442E+01 -0.62316087819E+03  0.93549645118E+03  0.11240648164E+04  0.46999998093E+01 0. -1.
       -5    1    3    3    0  502 -0.40658603442E+01  0.62316087819E+03 -0.56292593324E+03  0.83979384830E+03  0.46999998093E+01 0.  1.
</event>
<event>
 5   0  0.1239615E-04  0.1922606E+04  0.7818609E-02  0.8643685E-01
       -1   -1    0    0    0  501  0.00000000000E+00  0.00000000000E+00  0.53989308984E+03  0.53989308987E+03  0.50400001928E-02 0. -1.
        1   -1    0    0  501    0  0.00000000000E+00  0.00000000000E+00 -0.17116412325E+04  0.17116412325E+04  0.50400001928E-02 0.  1.
    10030    2    1    2    0    0  0.00000000000E+00  0.00000000000E+00 -0.11717481427E+04  0.22515343224E+04  0.19226058086E+04 0.  0.
        3    1    3    3  502    0  0.25863548879E+03 -0.10280147120E+03 -0.16634265561E+04  0.16865492510E+04  0.10100000352E+00 0.  1.
       -3    1    3    3    0  502 -0.25863548879E+03  0.10280147120E+03  0.49167841335E+03  0.56498507140E+03  0.10100000352E+00 0. -1.
</event>
<event>
 5   0  0.1277709E-04  0.1901232E+04  0.7818609E-02  0.8654243E-01
        1   -1    0    0  501    0  0.00000000000E+00  0.00000000000E+00  0.97726700104E+03  0.97726700105E+03  0.50400001928E-02 0. -1.
       -1   -1    0    0    0  501  0.00000000000E+00  0.00000000000E+00 -0.92469167607E+03  0.92469167609E+03  0.50400001928E-02 0.  1.
    10030    2    1    2    0    0  0.00000000000E+00  0.00000000000E+00  0.52575324963E+02  0.19019586771E+04  0.19012318756E+04 0.  0.
        4    1    3    3  502    0 -0.61125007553E+03 -0.46033001798E+03  0.59054110742E+03  0.96657684265E+03  0.12699999809E+01 0. -1.
       -4    1    3    3    0  502  0.61125007553E+03  0.46033001798E+03 -0.53796578246E+03  0.93538183449E+03  0.12699999809E+01 0.  1.
</event>
<event>
 5   0  0.1277709E-04  0.1887054E+04  0.7818609E-02  0.8661327E-01
        1   -1    0    0  501    0  0.00000000000E+00  0.00000000000E+00  0.12003081080E+04  0.12003081080E+04  0.50400001928E-02 0.  1.
       -1   -1    0    0    0  501  0.00000000000E+00  0.00000000000E+00 -0.74167913508E+03  0.74167913510E+03  0.50400001928E-02 0. -1.
    10030    2    1    2    0    0  0.00000000000E+00  0.00000000000E+00  0.45862897292E+03  0.19419872431E+04  0.18870542964E+04 0.  0.
        4    1    3    3  502    0  0.26770803604E+03 -0.46096162978E+03  0.10304943989E+04  0.11602040923E+04  0.12699999809E+01 0.  1.
       -4    1    3    3    0  502 -0.26770803604E+03  0.46096162978E+03 -0.57186542594E+03  0.78178315087E+03  0.12699999809E+01 0. -1.
</event>
<event>
 5   0  0.2562925E-04  0.1969332E+04  0.7818609E-02  0.8621094E-01
        2   -1    0    0  501    0  0.00000000000E+00  0.00000000000E+00  0.13826731437E+04  0.13826731437E+04  0.25500000920E-02 0.  1.
       -2   -1    0    0    0  501  0.00000000000E+00  0.00000000000E+00 -0.70122688960E+03  0.70122688961E+03  0.25500000920E-02 0. -1.
    10030    2    1    2    0    0  0.00000000000E+00  0.00000000000E+00  0.68144625414E+03  0.20839000334E+04  0.19693324635E+04 0.  0.
        4    1    3    3  502    0  0.52652201329E+03 -0.42794508529E+03  0.10958215310E+04  0.12888711600E+04  0.12699999809E+01 0.  1.
       -4    1    3    3    0  502 -0.52652201329E+03  0.42794508529E+03 -0.41437527682E+03  0.79502887334E+03  0.12699999809E+01 0. -1.
</event>
<event>
 5   0  0.1239615E-04  0.1914907E+04  0.7818609E-02  0.8647472E-01
        1   -1    0    0  501    0  0.00000000000E+00  0.00000000000E+00  0.82416042564E+03  0.82416042565E+03  0.50400001928E-02 0.  1.
       -1   -1    0    0    0  501  0.00000000000E+00  0.00000000000E+00 -0.11123039761E+04  0.11123039761E+04  0.50400001928E-02 0. -1.
    10030    2    1    2    0    0  0.00000000000E+00  0.00000000000E+00 -0.28814355043E+03  0.19364644017E+04  0.19149067010E+04 0.  0.
        3    1    3    3  502    0 -0.90802148805E+03 -0.14464954040E+03  0.12593670976E+03  0.92805526633E+03  0.10100000352E+00 0.  1.
       -3    1    3    3    0  502  0.90802148805E+03  0.14464954040E+03 -0.41408026019E+03  0.10084091354E+04  0.10100000352E+00 0. -1.
</event>
<event>
 5   0  0.2608744E-04  0.1913789E+04  0.7818609E-02  0.8648023E-01
        2   -1    0    0  501    0  0.00000000000E+00  0.00000000000E+00  0.15782105690E+04  0.15782105690E+04  0.25500000920E-02 0.  1.
       -2   -1    0    0    0  501  0.00000000000E+00  0.00000000000E+00 -0.58018040930E+03  0.58018040931E+03  0.25500000920E-02 0. -1.
    10030    2    1    2    0    0  0.00000000000E+00  0.00000000000E+00  0.99803015965E+03  0.21583909783E+04  0.19137887594E+04 0.  0.
        2    1    3    3  502    0  0.53152592549E+03 -0.20131153620E+03 -0.36917976207E+03  0.67774614775E+03  0.25500000920E-02 0. -1.
       -2    1    3    3    0  502 -0.53152592549E+03  0.20131153620E+03  0.13672099217E+04  0.14806448305E+04  0.25500000920E-02 0.  1.
</event>
<event>
 5   0  0.2541124E-04  0.1915454E+04  0.7818609E-02  0.8647202E-01
       -2   -1    0    0    0  501  0.00000000000E+00  0.00000000000E+00  0.79491130770E+03  0.79491130771E+03  0.25500000920E-02 0.  1.
        2   -1    0    0  501    0  0.00000000000E+00  0.00000000000E+00 -0.11538911825E+04  0.11538911825E+04  0.25500000920E-02 0. -1.
    10030    2    1    2    0    0  0.00000000000E+00  0.00000000000E+00 -0.35897987478E+03  0.19488024902E+04  0.19154541486E+04 0.  0.
        5    1    3    3  502    0 -0.37774411470E+03  0.81785208962E+03 -0.51018173366E+03  0.10353164483E+04  0.46999998093E+01 0. -1.
       -5    1    3    3    0  502  0.37774411470E+03 -0.81785208962E+03  0.15120185888E+03  0.91348604193E+03  0.46999998093E+01 0.  1.
</event>
<event>
 5   0  0.2651828E-04  0.1890358E+04  0.7818609E-02  0.8659671E-01
       -2   -1    0    0    0  501  0.00000000000E+00  0.00000000000E+00  0.60380280519E+03  0.60380280520E+03  0.25500000920E-02 0.  1.
        2   -1    0    0  501    0  0.00000000000E+00  0.00000000000E+00 -0.14795617048E+04  0.14795617048E+04  0.25500000920E-02 0. -1.
    10030    2    1    2    0    0  0.00000000000E+00  0.00000000000E+00 -0.87575889965E+03  0.20833645100E+04  0.18903581754E+04 0.  0.
        3    1    3    3  502    0  0.23271713441E+03  0.35817642933E+03  0.49136562738E+03  0.65106667028E+03  0.10100000352E+00 0.  1.
       -3    1    3    3    0  502 -0.23271713441E+03 -0.35817642933E+03 -0.13671245270E+04  0.14322978398E+04  0.10100000352E+00 0. -1.
</event>
<event>
 5   0  0.1255141E-04  0.1886800E+04  0.7818609E-02  0.8661455E-01
        1   -1    0    0  501    0  0.00000000000E+00  0.00000000000E+00  0.14362385331E+04  0.14362385331E+04  0.50400001928E-02 0. -1.
       -1   -1    0    0    0  501  0.00000000000E+00  0.00000000000E+00 -0.61967697750E+03  0.61967697752E+03  0.50400001928E-02 0.  1.
    10030    2    1    2    0    0  0.00000000000E+00  0.00000000000E+00  0.81656155557E+03  0.20559155106E+04  0.18868004168E+04 0.  0.
        2    1    3    3  502    0 -0.59913319785E+03  0.61586280437E+03 -0.16194855811E+02  0.85936596158E+03  0.25500000920E-02 0.  1.
       -2    1    3    3    0  502  0.59913319785E+03 -0.61586280437E+03  0.83275641138E+03  0.11965495490E+04  0.25500000920E-02 0. -1.
</event>
<event>
 5   0  0.2651828E-04  0.1921377E+04  0.7818609E-02  0.8644288E-01
       -2   -1    0    0    0  501  0.00000000000E+00  0.00000000000E+00  0.74486824851E+03  0.74486824851E+03  0.25500000920E-02 0. -1.
        2   -1    0    0  501    0  0.00000000000E+00  0.00000000000E+00 -0.12390415610E+04  0.12390415610E+04  0.25500000920E-02 0.  1.
    10030    2    1    2    0    0  0.00000000000E+00  0.00000000000E+00 -0.49417331251E+03  0.19839098095E+04  0.19213773366E+04 0.  0.
        3    1    3    3  502    0  0.50039378615E+03  0.59446463573E+03  0.33622447542E+03  0.84665757685E+03  0.10100000352E+00 0. -1.
       -3    1    3    3    0  502 -0.50039378615E+03 -0.59446463573E+03 -0.83039778793E+03  0.11372522327E+04  0.10100000352E+00 0.  1.
</event>
<event>
 5   0  0.1324058E-04  0.1860859E+04  0.7818609E-02  0.8674588E-01
        1   -1    0    0  501    0  0.00000000000E+00  0.00000000000E+00  0.12901042090E+04  0.12901042090E+04  0.50400001928E-02 0.  1.
       -1   -1    0    0    0  501  0.00000000000E+00  0.00000000000E+00 -0.67103062282E+03  0.67103062283E+03  0.50400001928E-02 0. -1.
    10030    2    1    2    0    0  0.00000000000E+00  0.00000000000E+00  0.61907358614E+03  0.19611348318E+04  0.18608594045E+04 0.  0.
        5    1    3    3  502    0 -0.21193953786E+03 -0.37905313109E+03 -0.55765097975E+03  0.70682129928E+03  0.46999998093E+01 0. -1.
       -5    1    3    3    0  502  0.21193953786E+03  0.37905313109E+03  0.11767245659E+04  0.12543135325E+04  0.46999998093E+01 0.  1.
</event>
<event>
 5   0  0.1239615E-04  0.2022654E+04  0.7818609E-02  0.8596102E-01
        1   -1    0    0  501    0  0.00000000000E+00  0.00000000000E+00  0.50681025377E+03  0.50681025380E+03  0.50400001928E-02 0.  1.
       -1   -1    0    0    0  501  0.00000000000E+00  0.00000000000E+00 -0.20180778341E+04  0.20180778341E+04  0.50400001928E-02 0. -1.
    10030    2    1    2    0    0  0.00000000000E+00  0.00000000000E+00 -0.15112675804E+04  0.25248880879E+04  0.20226542357E+04 0.  0.
        3    1    3    3  502    0 -0.34044212255E+03 -0.75853102164E+03 -0.14743713825E+04  0.16926432386E+04  0.10100000352E+00 0. -1.
       -3    1    3    3    0  502  0.34044212255E+03  0.75853102164E+03 -0.36896197897E+02  0.83224484932E+03  0.10100000352E+00 0.  1.
</event>
<event>
 5   0  0.1277709E-04  0.1911692E+04  0.7818609E-02  0.8649058E-01
       -1   -1    0    0    0  501  0.00000000000E+00  0.00000000000E+00  0.47053329917E+03  0.47053329919E+03  0.50400001928E-02 0.  1.
        1   -1    0    0  501    0  0.00000000000E+00  0.00000000000E+00 -0.19417145690E+04  0.19417145690E+04  0.50400001928E-02 0. -1.
    10030    2    1    2    0    0  0.00000000000E+00  0.00000000000E+00 -0.14711812698E+04  0.24122478682E+04  0.19116917767E+04 0.  0.
        4    1    3    3  502    0 -0.64695666998E+02  0.73970596619E+03 -0.14950976950E+04  0.16693319550E+04  0.12699999809E+01 0. -1.
       -4    1    3    3    0  502  0.64695666998E+02 -0.73970596619E+03  0.23916425122E+02  0.74291591316E+03  0.12699999809E+01 0.  1.
</event>
<event>
 5   0  0.2562925E-04  0.1875515E+04  0.7818609E-02  0.8667141E-01
        2   -1    0    0  501    0  0.00000000000E+00  0.00000000000E+00  0.15199649773E+04  0.15199649773E+04  0.25500000920E-02 0.  1.
       -2   -1    0    0    0  501  0.00000000000E+00  0.00000000000E+00 -0.57855850275E+03  0.57855850276E+03  0.25500000920E-02 0. -1.
    10030    2    1    2    0    0  0.00000000000E+00  0.00000000000E+00  0.94140647452E+03  0.20985234800E+04  0.18755145017E+04 0.  0.
        4    1    3    3  502    0  0.65647656841E+03 -0.12082124831E+03  0.12076771081E+04  0.13798713235E+04  0.12699999809E+01 0.  1.
       -4    1    3    3    0  502 -0.65647656841E+03  0.12082124831E+03 -0.26627063361E+03  0.71865215656E+03  0.12699999809E+01 0. -1.
</event>
<event>
 5   0  0.1277709E-04  0.1891318E+04  0.7818609E-02  0.8659190E-01
        1   -1    0    0  501    0  0.00000000000E+00  0.00000000000E+00  0.20684177111E+04  0.20684177111E+04  0.50400001928E-02 0. -1.
       -1   -1    0    0    0  501  0.00000000000E+00  0.00000000000E+00 -0.43234521654E+03  0.43234521657E+03  0.50400001928E-02 0.  1.
    10030    2    1    2    0    0  0.00000000000E+00  0.00000000000E+00  0.16360724946E+04  0.25007629277E+04  0.18913175336E+04 0.  0.
        4    1    3    3  502    0  0.47996557580E+02 -0.89840165096E+03  0.12031664883E+04  0.15023449695E+04  0.12699999809E+01 0.  1.
       -4    1    3    3    0  502 -0.47996557580E+02  0.89840165096E+03  0.43290600623E+03  0.99841795813E+03  0.12699999809E+01 0. -1.
</event>
<event>
 5   0  0.9266125E-05  0.1910850E+04  0.7818609E-02  0.8649474E-01
        4   -1    0    0  501    0  0.00000000000E+00  0.00000000000E+00  0.91290782681E+03  0.91290871019E+03  0.12699999809E+01 0.  1.
       -4   -1    0    0    0  501  0.00000000000E+00  0.00000000000E+00 -0.99992042790E+03  0.99992123441E+03  0.12699999809E+01 0. -1.
    10030    2    1    2    0    0  0.00000000000E+00  0.00000000000E+00 -0.87012601091E+02  0.19128299446E+04  0.19108498644E+04 0.  0.
        4    1    3    3  502    0  0.56268979842E+03 -0.74109129314E+03  0.17351104514E+03  0.94654308391E+03  0.12699999809E+01 0.  1.
       -4    1    3    3    0  502 -0.56268979842E+03  0.74109129314E+03 -0.26052364623E+03  0.96628686070E+03  0.12699999809E+01 0. -1.
</event>
<event>
 5   0  0.1239615E-04  0.1903437E+04  0.7818609E-02  0.8653147E-01
       -1   -1    0    0    0  501  0.00000000000E+00  0.00000000000E+00  0.59962141086E+03  0.59962141088E+03  0.50400001928E-02 0. -1.
        1   -1    0    0  501    0  0.00000000000E+00  0.00000000000E+00 -0.15105673701E+04  0.15105673701E+04  0.50400001928E-02 0.  1.
    10030    2    1    2    0    0  0.00000000000E+00  0.00000000000E+00 -0.91094595925E+03  0.21101887810E+04  0.19034374565E+04 0.  0.
        3    1    3    3  502    0 -0.49260347989E+03  0.78002855320E+03 -0.71467628404E+03  0.11669896886E+04  0.10100000352E+00 0. -1.
       -3    1    3    3    0  502  0.49260347989E+03 -0.78002855320E+03 -0.19626967521E+03  0.94319909235E+03  0.10100000352E+00 0.  1.
</event>
<event>
 5   0  0.2608744E-04  0.1906675E+04  0.7818609E-02  0.8651541E-01
       -2   -1    0    0    0  501  0.00000000000E+00  0.00000000000E+00  0.99212218095E+03  0.99212218095E+03  0.25500000920E-02 0. -1.
        2   -1    0    0  501    0  0.00000000000E+00  0.00000000000E+00 -0.91606929801E+03  0.91606929801E+03  0.25500000920E-02 0.  1.
    10030    2    1    2    0    0  0.00000000000E+00  0.00000000000E+00  0.76052882937E+02  0.19081914790E+04  0.19066752947E+04 0.  0.
        2    1    3    3  502    0 -0.19446721396E+03 -0.52956855065E+03 -0.73108471549E+03  0.92344204386E+03  0.25500000920E-02 0.  1.
       -2    1    3    3    0  502  0.19446721396E+03  0.52956855065E+03  0.80713759842E+03  0.98474943510E+03  0.25500000920E-02 0. -1.
</event>
<event>
 5   0  0.2562925E-04  0.1894171E+04  0.7818609E-02  0.8657763E-01
        2   -1    0    0  501    0  0.00000000000E+00  0.00000000000E+00  0.13969746569E+04  0.13969746569E+04  0.25500000920E-02 0. -1.
       -2   -1    0    0    0  501  0.00000000000E+00  0.00000000000E+00 -0.64208126429E+03  0.64208126430E+03  0.25500000920E-02 0.  1.
    10030    2    1    2    0    0  0.00000000000E+00  0.00000000000E+00  0.75489339264E+03  0.20390559212E+04  0.18941713269E+04 0.  0.
        4    1    3    3  502    0  0.48259156227E+03 -0.31733483310E+03 -0.43054730278E+03  0.72039475644E+03  0.12699999809E+01 0.  1.
       -4    1    3    3    0  502 -0.48259156227E+03  0.31733483310E+03  0.11854406954E+04  0.13186611648E+04  0.12699999809E+01 0. -1.
</event>
<event>
 5   0  0.2608744E-04  0.1901243E+04  0.7818609E-02  0.8654238E-01
        2   -1    0    0  501    0  0.00000000000E+00  0.00000000000E+00  0.24951082675E+04  0.24951082675E+04  0.25500000920E-02 0.  1.
       -2   -1    0    0    0  501  0.00000000000E+00  0.00000000000E+00 -0.36218120786E+03  0.36218120786E+03  0.25500000920E-02 0. -1.
    10030    2    1    2    0    0  0.00000000000E+00  0.00000000000E+00  0.21329270596E+04  0.28572894754E+04  0.19012430945E+04 0.  0.
        2    1    3    3  502    0 -0.67591545329E+03 -0.35056019077E+03  0.19218064915E+04  0.20671464240E+04  0.25500000920E-02 0.  1.
       -2    1    3    3    0  502  0.67591545329E+03  0.35056019077E+03  0.21112056813E+03  0.79014305138E+03  0.25500000920E-02 0. -1.
</event>
<event>
 5   0  0.1277709E-04  0.1888108E+04  0.7818609E-02  0.8660799E-01
        1   -1    0    0  501    0  0.00000000000E+00  0.00000000000E+00  0.63073428803E+03  0.63073428805E+03  0.50400001928E-02 0. -1.
       -1   -1    0    0    0  501  0.00000000000E+00  0.00000000000E+00 -0.14130165293E+04  0.14130165293E+04  0.50400001928E-02 0.  1.
    10030    2    1    2    0    0  0.00000000000E+00  0.00000000000E+00 -0.78228224129E+03  0.20437508174E+04  0.18881080209E+04 0.  0.
        4    1    3    3  502    0  0.92501608945E+02 -0.87731930584E+03 -0.27291137290E+02  0.88260530881E+03  0.12699999809E+01 0. -1.
       -4    1    3    3    0  502 -0.92501608945E+02  0.87731930584E+03 -0.75499110400E+03  0.11611455086E+04  0.12699999809E+01 0.  1.
</event>
<event>
 5   0  0.2541124E-04  0.1840775E+04  0.7818609E-02  0.8684911E-01
        2   -1    0    0  501    0  0.00000000000E+00  0.00000000000E+00  0.98060095169E+03  0.98060095169E+03  0.25500000920E-02 0. -1.
       -2   -1    0    0    0  501  0.00000000000E+00  0.00000000000E+00 -0.86387134044E+03  0.86387134044E+03  0.25500000920E-02 0.  1.
    10030    2    1    2    0    0  0.00000000000E+00  0.00000000000E+00  0.11672961125E+03  0.18444722921E+04  0.18407749005E+04 0.  0.
        5    1    3    3  502    0  0.65425056814E+03  0.51547810339E+03  0.45072441527E+03  0.94706708817E+03  0.46999998093E+01 0.  1.
       -5    1    3    3    0  502 -0.65425056814E+03 -0.51547810339E+03 -0.33399480402E+03  0.89740520396E+03  0.46999998093E+01 0. -1.
</event>
<event>
 5   0  0.1255141E-04  0.1894860E+04  0.7818609E-02  0.8657419E-01
        1   -1    0    0  501    0  0.00000000000E+00  0.00000000000E+00  0.10026760221E+04  0.10026760221E+04  0.50400001928E-02 0. -1.
       -1   -1    0    0    0  501  0.00000000000E+00  0.00000000000E+00 -0.89522823299E+03  0.89522823301E+03  0.50400001928E-02 0.  1.
    10030    2    1    2    0    0  0.00000000000E+00  0.00000000000E+00  0.10744778909E+03  0.18979042551E+04  0.18948602941E+04 0.  0.
        2    1    3    3  502    0  0.38548732351E+03 -0.12444666910E+03 -0.80411937598E+03  0.90038626204E+03  0.25500000920E-02 0.  1.
       -2    1    3    3    0  502 -0.38548732351E+03  0.12444666910E+03  0.91156716507E+03  0.99751799306E+03  0.25500000920E-02 0. -1.
</event>
<event>
 5   0  0.1317527E-04  0.1568264E+04  0.7818609E-02  0.8840286E-01
        1   -1    0    0  501    0  0.00000000000E+00  0.00000000000E+00  0.85034096795E+03  0.85034096797E+03  0.50400001928E-02 0. -1.
       -1   -1    0    0    0  501  0.00000000000E+00  0.00000000000E+00 -0.72307794785E+03  0.72307794787E+03  0.50400001928E-02 0.  1.
    10030    2    1    2    0    0  0.00000000000E+00  0.00000000000E+00  0.12726302010E+03  0.15734189158E+04  0.15682637560E+04 0.  0.
        1    1    3    3  502    0  0.73190863688E+03  0.22377124266E+03 -0.10751346270E+03  0.77286671973E+03  0.50400001928E-02 0.  1.
       -1    1    3    3    0  502 -0.73190863688E+03 -0.22377124266E+03  0.23477648280E+03  0.80055219610E+03  0.50400001928E-02 0. -1.
</event>
<event>
 5   0  0.1324058E-04  0.1793962E+04  0.7818609E-02  0.8709517E-01
        1   -1    0    0  501    0  0.00000000000E+00  0.00000000000E+00  0.14779154394E+04  0.14779154394E+04  0.50400001928E-02 0. -1.
       -1   -1    0    0    0  501  0.00000000000E+00  0.00000000000E+00 -0.54439853247E+03  0.54439853250E+03  0.50400001928E-02 0.  1.
    10030    2    1    2    0    0  0.00000000000E+00  0.00000000000E+00  0.93351690693E+03  0.20223139719E+04  0.17939620914E+04 0.  0.
        5    1    3    3  502    0  0.65906565403E+03 -0.60722897051E+03  0.50980772624E+03  0.10310288874E+04  0.46999998093E+01 0.  1.
       -5    1    3    3    0  502 -0.65906565403E+03  0.60722897051E+03  0.42370918070E+03  0.99128508450E+03  0.46999998093E+01 0. -1.
</event>
<event>
 5   0  0.1277709E-04  0.1897811E+04  0.7818609E-02  0.8655947E-01
       -1   -1    0    0    0  501  0.00000000000E+00  0.00000000000E+00  0.65093314493E+03  0.65093314495E+03  0.50400001928E-02 0. -1.
        1   -1    0    0  501    0  0.00000000000E+00  0.00000000000E+00 -0.13832781671E+04  0.13832781671E+04  0.50400001928E-02 0.  1.
    10030    2    1    2    0    0  0.00000000000E+00  0.00000000000E+00 -0.73234502219E+03  0.20342113121E+04  0.18978109576E+04 0.  0.
        4    1    3    3  502    0 -0.93804138939E+03  0.96975113767E+02 -0.47907164208E+03  0.10577509499E+04  0.12699999809E+01 0. -1.
       -4    1    3    3    0  502  0.93804138939E+03 -0.96975113767E+02 -0.25327338010E+03  0.97646036215E+03  0.12699999809E+01 0.  1.
</event>
<event>
 5   0  0.2595012E-04  0.1902603E+04  0.7818609E-02  0.8653562E-01
        2   -1    0    0  501    0  0.00000000000E+00  0.00000000000E+00  0.14806043906E+04  0.14806043906E+04  0.25500000920E-02 0. -1.
       -2   -1    0    0    0  501  0.00000000000E+00  0.00000000000E+00 -0.61121951065E+03  0.61121951066E+03  0.25500000920E-02 0.  1.
    10030    2    1    2    0    0  0.00000000000E+00  0.00000000000E+00  0.86938487990E+03  0.20918239012E+04  0.19026027342E+04 0.  0.
        1    1    3    3  502    0  0.55043824543E+03 -0.31743395668E+03 -0.34369270964E+03  0.72240657360E+03  0.50400001928E-02 0.  1.
       -1    1    3    3    0  502 -0.55043824543E+03  0.31743395668E+03  0.12130775895E+04  0.13694173276E+04  0.50400001928E-02 0. -1.
</event>
<event>
 5   0  0.1317527E-04  0.2104212E+04  0.7818609E-02  0.8559390E-01
        1   -1    0    0  501    0  0.00000000000E+00  0.00000000000E+00  0.10792614397E+04  0.10792614397E+04  0.50400001928E-02 0.  1.
       -1   -1    0    0    0  501  0.00000000000E+00  0.00000000000E+00 -0.10256342885E+04  0.10256342885E+04  0.50400001928E-02 0. -1.
    10030    2    1    2    0    0  0.00000000000E+00  0.00000000000E+00  0.53627151173E+02  0.21048957282E+04  0.21042124786E+04 0.  0.
        1    1    3    3  502    0 -0.14389900094E+01 -0.41453386482E+03 -0.94049945421E+03  0.10278032979E+04  0.50400001928E-02 0. -1.
       -1    1    3    3    0  502  0.14389900094E+01  0.41453386482E+03  0.99412660539E+03  0.10770924303E+04  0.50400001928E-02 0.  1.
</event>
<event>
 5   0  0.2651828E-04  0.1499120E+04  0.7818609E-02  0.8885038E-01
        2   -1    0    0  501    0  0.00000000000E+00  0.00000000000E+00  0.74774347764E+03  0.74774347764E+03  0.25500000920E-02 0.  1.
       -2   -1    0    0    0  501  0.00000000000E+00  0.00000000000E+00 -0.75138116533E+03  0.75138116534E+03  0.25500000920E-02 0. -1.
    10030    2    1    2    0    0  0.00000000000E+00  0.00000000000E+00 -0.36376876978E+01  0.14991246430E+04  0.14991202295E+04 0.  0.
        3    1    3    3  502    0  0.33723473776E+03 -0.25455398259E+03 -0.62094533659E+03  0.75106465743E+03  0.10100000352E+00 0. -1.
       -3    1    3    3    0  502 -0.33723473776E+03  0.25455398259E+03  0.61730764889E+03  0.74805998555E+03  0.10100000352E+00 0.  1.
</event>
<event>
 5   0  0.2595012E-04  0.1903525E+04  0.7818609E-02  0.8653104E-01
       -2   -1    0    0    0  501  0.00000000000E+00  0.00000000000E+00  0.36194216161E+03  0.36194216162E+03  0.25500000920E-02 0. -1.
        2   -1    0    0  501    0  0.00000000000E+00  0.00000000000E+00 -0.25027524207E+04  0.25027524207E+04  0.25500000920E-02 0.  1.
    10030    2    1    2    0    0  0.00000000000E+00  0.00000000000E+00 -0.21408102591E+04  0.28646945823E+04  0.19035247528E+04 0.  0.
        1    1    3    3  502    0 -0.52003845372E+03 -0.75718628580E+03 -0.14453760581E+04  0.17125662073E+04  0.50400001928E-02 0.  1.
       -1    1    3    3    0  502  0.52003845372E+03  0.75718628580E+03 -0.69543420095E+03  0.11521283751E+04  0.50400001928E-02 0. -1.
</event>
<event>
 5   0  0.2595012E-04  0.2006396E+04  0.7818609E-02  0.8603636E-01
        2   -1    0    0  501    0  0.00000000000E+00  0.00000000000E+00  0.11686880072E+04  0.11686880072E+04  0.25500000920E-02 0.  1.
       -2   -1    0    0    0  501  0.00000000000E+00  0.00000000000E+00 -0.86114177022E+03  0.86114177022E+03  0.25500000920E-02 0. -1.
    10030    2    1    2    0    0  0.00000000000E+00  0.00000000000E+00  0.30754623697E+03  0.20298297774E+04  0.20063958327E+04 0.  0.
        1    1    3    3  502    0  0.21764120507E+03  0.47445201899E+03  0.10204783166E+04  0.11462322658E+04  0.50400001928E-02 0.  1.
       -1    1    3    3    0  502 -0.21764120507E+03 -0.47445201899E+03 -0.71293207959E+03  0.88359751165E+03  0.50400001928E-02 0. -1.
</event>
<event>
 5   0  0.2541124E-04  0.1897850E+04  0.7818609E-02  0.8655927E-01
       -2   -1    0    0    0  501  0.00000000000E+00  0.00000000000E+00  0.72867597854E+03  0.72867597855E+03  0.25500000920E-02 0. -1.
        2   -1    0    0  501    0  0.00000000000E+00  0.00000000000E+00 -0.12357469148E+04  0.12357469149E+04  0.25500000920E-02 0.  1.
    10030    2    1    2    0    0  0.00000000000E+00  0.00000000000E+00 -0.50707093631E+03  0.19644228934E+04  0.18978504603E+04 0.  0.
        5    1    3    3  502    0 -0.83778918431E+03 -0.11073643203E+03 -0.70028124650E+03  0.10975286734E+04  0.46999998093E+01 0.  1.
       -5    1    3    3    0  502  0.83778918431E+03  0.11073643203E+03  0.19321031019E+03  0.86689422001E+03  0.46999998093E+01 0. -1.
</event>
<event>
 5   0  0.1324058E-04  0.1896906E+04  0.7818609E-02  0.8656398E-01
        1   -1    0    0  501    0  0.00000000000E+00  0.00000000000E+00  0.66656583214E+03  0.66656583216E+03  0.50400001928E-02 0. -1.
       -1   -1    0    0    0  501  0.00000000000E+00  0.00000000000E+00 -0.13495485998E+04  0.13495485999E+04  0.50400001928E-02 0.  1.
    10030    2    1    2    0    0  0.00000000000E+00  0.00000000000E+00 -0.68298276770E+03  0.20161144320E+04  0.18969058864E+04 0.  0.
        5    1    3    3  502    0 -0.19376007236E+03  0.24544531623E+03  0.61018677985E+03  0.68566490737E+03  0.46999998093E+01 0. -1.
       -5    1    3    3    0  502  0.19376007236E+03 -0.24544531623E+03 -0.12931695476E+04  0.13304495246E+04  0.46999998093E+01 0.  1.
</event>
<event>
 5   0  0.2651828E-04  0.1756504E+04  0.7818609E-02  0.8729778E-01
       -2   -1    0    0    0  501  0.00000000000E+00  0.00000000000E+00  0.40923826379E+03  0.40923826380E+03  0.25500000920E-02 0. -1.
        2   -1    0    0  501    0  0.00000000000E+00  0.00000000000E+00 -0.18847858600E+04  0.18847858600E+04  0.25500000920E-02 0.  1.
    10030    2    1    2    0    0  0.00000000000E+00  0.00000000000E+00 -0.14755475962E+04  0.22940241238E+04  0.17565039060E+04 0.  0.
        3    1    3    3  502    0  0.56807204956E+03 -0.48921808582E+03 -0.13352481328E+04  0.15313157007E+04  0.10100000352E+00 0.  1.
       -3    1    3    3    0  502 -0.56807204956E+03  0.48921808582E+03 -0.14029946341E+03  0.76270842306E+03  0.10100000352E+00 0. -1.
</event>
<event>
 5   0  0.1255141E-04  0.1928972E+04  0.7818609E-02  0.8640568E-01
        1   -1    0    0  501    0  0.00000000000E+00  0.00000000000E+00  0.83554416348E+03  0.83554416349E+03  0.50400001928E-02 0.  1.
       -1   -1    0    0    0  501  0.00000000000E+00  0.00000000000E+00 -0.11133259521E+04  0.11133259521E+04  0.50400001928E-02 0. -1.
    10030    2    1    2    0    0  0.00000000000E+00  0.00000000000E+00 -0.27778178865E+03  0.19488701156E+04  0.19289717482E+04 0.  0.
        2    1    3    3  502    0  0.27175875972E+03  0.90800866749E+03 -0.31934025582E+03  0.10001553693E+04  0.25500000920E-02 0.  1.
       -2    1    3    3    0  502 -0.27175875972E+03 -0.90800866749E+03  0.41558467172E+02  0.94871474634E+03  0.25500000920E-02 0. -1.
</event>
<event>
 5   0  0.1317527E-04  0.1877570E+04  0.7818609E-02  0.8666102E-01
        1   -1    0    0  501    0  0.00000000000E+00  0.00000000000E+00  0.38030969440E+03  0.38030969444E+03  0.50400001928E-02 0.  1.
       -1   -1    0    0    0  501  0.00000000000E+00  0.00000000000E+00 -0.23173685287E+04  0.23173685287E+04  0.50400001928E-02 0. -1.
    10030    2    1    2    0    0  0.00000000000E+00  0.00000000000E+00 -0.19370588343E+04  0.26976782232E+04  0.18775704695E+04 0.  0.
        1    1    3    3  502    0  0.54506597728E+03  0.63794487293E+03 -0.15734293189E+04  0.17831854648E+04  0.50400001928E-02 0. -1.
       -1    1    3    3    0  502 -0.54506597728E+03 -0.63794487293E+03 -0.36362951543E+03  0.91449275831E+03  0.50400001928E-02 0.  1.
</event>
<event>
 5   0  0.1239615E-04  0.1467731E+04  0.7818609E-02  0.8906199E-01
        1   -1    0    0  501    0  0.00000000000E+00  0.00000000000E+00  0.16337615866E+04  0.16337615866E+04  0.50400001928E-02 0.  1.
       -1   -1    0    0    0  501  0.00000000000E+00  0.00000000000E+00 -0.32964346839E+03  0.32964346843E+03  0.50400001928E-02 0. -1.
    10030    2    1    2    0    0  0.00000000000E+00  0.00000000000E+00  0.13041181182E+04  0.19634050550E+04  0.14677313596E+04 0.  0.
        3    1    3    3  502    0 -0.35812304644E+03 -0.21787607538E+03  0.14578436361E+04  0.15169146904E+04  0.10100000352E+00 0.  1.
       -3    1    3    3    0  502  0.35812304644E+03  0.21787607538E+03 -0.15372551789E+03  0.44649036458E+03  0.10100000352E+00 0. -1.
</event>
<event>
 5   0  0.1239615E-04  0.1895304E+04  0.7818609E-02  0.8657197E-01
       -1   -1    0    0    0  501  0.00000000000E+00  0.00000000000E+00  0.16557586089E+04  0.16557586089E+04  0.50400001928E-02 0.  1.
        1   -1    0    0  501    0  0.00000000000E+00  0.00000000000E+00 -0.54237640431E+03  0.54237640434E+03  0.50400001928E-02 0. -1.
    10030    2    1    2    0    0  0.00000000000E+00  0.00000000000E+00  0.11133822046E+04  0.21981350132E+04  0.18953040925E+04 0.  0.
        3    1    3    3  502    0 -0.69060257518E+03  0.64686629510E+03  0.61669184809E+03  0.11294586165E+04  0.10100000352E+00 0.  1.
       -3    1    3    3    0  502  0.69060257518E+03 -0.64686629510E+03  0.49669035648E+03  0.10686763968E+04  0.10100000352E+00 0. -1.
</event>
<event>
 5   0  0.2608744E-04  0.1919905E+04  0.7818609E-02  0.8645011E-01
        2   -1    0    0  501    0  0.00000000000E+00  0.00000000000E+00  0.87299123942E+03  0.87299123942E+03  0.25500000920E-02 0.  1.
       -2   -1    0    0    0  501  0.00000000000E+00  0.00000000000E+00 -0.10555759617E+04  0.10555759617E+04  0.25500000920E-02 0. -1.
    10030    2    1    2    0    0  0.00000000000E+00  0.00000000000E+00 -0.18258472228E+03  0.19285672011E+04  0.19199047550E+04 0.  0.
        2    1    3    3  502    0  0.77648452013E+03  0.55621065389E+03 -0.18769445213E+03  0.97341034968E+03  0.25500000920E-02 0. -1.
       -2    1    3    3    0  502 -0.77648452013E+03 -0.55621065389E+03  0.51097298513E+01  0.95515685144E+03  0.25500000920E-02 0.  1.
</event>
<event>
 5   0  0.1324058E-04  0.1910044E+04  0.7818609E-02  0.8649873E-01
        1   -1    0    0  501    0  0.00000000000E+00  0.00000000000E+00  0.18553617753E+04  0.18553617753E+04  0.50400001928E-02 0.  1.
       -1   -1    0    0    0  501  0.00000000000E+00  0.00000000000E+00 -0.49158429320E+03  0.49158429322E+03  0.50400001928E-02 0. -1.
    10030    2    1    2    0    0  0.00000000000E+00  0.00000000000E+00  0.13637774821E+04  0.23469460685E+04  0.19100436717E+04 0.  0.
        5    1    3    3  502    0 -0.67164890789E+03 -0.26243299472E+03  0.14512614766E+04  0.16205447528E+04  0.46999998093E+01 0.  1.
       -5    1    3    3    0  502  0.67164890789E+03  0.26243299472E+03 -0.87483994551E+02  0.72640131573E+03  0.46999998093E+01 0. -1.
</event>
<event>
 5   0  0.2541124E-04  0.1898988E+04  0.7818609E-02  0.8655360E-01
        2   -1    0    0  501    0  0.00000000000E+00  0.00000000000E+00  0.89645580644E+03  0.89645580644E+03  0.25500000920E-02 0. -1.
       -2   -1    0    0    0  501  0.00000000000E+00  0.00000000000E+00 -0.10056700665E+04  0.10056700665E+04  0.25500000920E-02 0.  1.
    10030    2    1    2    0    0  0.00000000000E+00  0.00000000000E+00 -0.10921426008E+03  0.19021258730E+04  0.18989879099E+04 0.  0.
        5    1    3    3  502    0  0.57064799257E+03  0.67392128831E+03  0.29483558010E+03  0.93099900298E+03  0.46999998093E+01 0. -1.
       -5    1    3    3    0  502 -0.57064799257E+03 -0.67392128831E+03 -0.40404984018E+03  0.97112686998E+03  0.46999998093E+01 0.  1.
</event>
<event>
 5   0  0.1255141E-04  0.1915866E+04  0.7818609E-02  0.8646999E-01
        1   -1    0    0  501    0  0.00000000000E+00  0.00000000000E+00  0.12222685819E+04  0.12222685820E+04  0.50400001928E-02 0.  1.
       -1   -1    0    0    0  501  0.00000000000E+00  0.00000000000E+00 -0.75076465671E+03  0.75076465673E+03  0.50400001928E-02 0. -1.
    10030    2    1    2    0    0  0.00000000000E+00  0.00000000000E+00  0.47150392524E+03  0.19730332387E+04  0.19158664383E+04 0.  0.
        2    1    3    3  502    0 -0.25199799713E+03 -0.86153819082E+03 -0.10872098383E+03  0.90419649254E+03  0.25500000920E-02 0. -1.
       -2    1    3    3    0  502  0.25199799713E+03  0.86153819082E+03  0.58022490907E+03  0.10688367461E+04  0.25500000920E-02 0.  1.
</event>
<event>
 5   0  0.1255141E-04  0.1938026E+04  0.7818609E-02  0.8636157E-01
       -1   -1    0    0    0  501  0.00000000000E+00  0.00000000000E+00  0.12592702051E+04  0.12592702051E+04  0.50400001928E-02 0. -1.
        1   -1    0    0  501    0  0.00000000000E+00  0.00000000000E+00 -0.74565904437E+03  0.74565904438E+03  0.50400001928E-02 0.  1.
    10030    2    1    2    0    0  0.00000000000E+00  0.00000000000E+00  0.51361116069E+03  0.20049292494E+04  0.19380260243E+04 0.  0.
        2    1    3    3  502    0 -0.17383863506E+03 -0.39668159158E+03 -0.63995797511E+03  0.77273693198E+03  0.25500000920E-02 0.  1.
       -2    1    3    3    0  502  0.17383863506E+03  0.39668159158E+03  0.11535691358E+04  0.12321923175E+04  0.25500000920E-02 0. -1.
</event>
<event>
 5   0  0.1317527E-04  0.1906892E+04  0.7818609E-02  0.8651434E-01
       -1   -1    0    0    0  501  0.00000000000E+00  0.00000000000E+00  0.13230114250E+04  0.13230114250E+04  0.50400001928E-02 0.  1.
        1   -1    0    0  501    0  0.00000000000E+00  0.00000000000E+00 -0.68711333968E+03  0.68711333970E+03  0.50400001928E-02 0. -1.
    10030    2    1    2    0    0  0.00000000000E+00  0.00000000000E+00  0.63589808530E+03  0.20101247647E+04  0.19068915005E+04 0.  0.
        1    1    3    3  502    0  0.88939734776E+03 -0.97165621700E+02  0.66531875138E+03  0.11149519457E+04  0.50400001928E-02 0.  1.
       -1    1    3    3    0  502 -0.88939734776E+03  0.97165621700E+02 -0.29420666078E+02  0.89517281899E+03  0.50400001928E-02 0. -1.
</event>
<event>
 5   0  0.1255141E-04  0.1839102E+04  0.7818609E-02  0.8685777E-01
       -1   -1    0    0    0  501  0.00000000000E+00  0.00000000000E+00  0.55362301348E+03  0.55362301350E+03  0.50400001928E-02 0.  1.
        1   -1    0    0  501    0  0.00000000000E+00  0.00000000000E+00 -0.15273463357E+04  0.15273463357E+04  0.50400001928E-02 0. -1.
    10030    2    1    2    0    0  0.00000000000E+00  0.00000000000E+00 -0.97372332218E+03  0.20809693492E+04  0.18391020428E+04 0.  0.
        2    1    3    3  502    0  0.10627170452E+02  0.63182923364E+03 -0.12427374126E+04  0.13941726557E+04  0.25500000920E-02 0. -1.
       -2    1    3    3    0  502 -0.10627170452E+02 -0.63182923364E+03  0.26901409046E+03  0.68679669343E+03  0.25500000920E-02 0.  1.
</event>
<event>
 5   0  0.2595012E-04  0.1883927E+04  0.7818609E-02  0.8662899E-01
       -2   -1    0    0    0  501  0.00000000000E+00  0.00000000000E+00  0.38832178211E+03  0.38832178211E+03  0.25500000920E-02 0. -1.
        2   -1    0    0  501    0  0.00000000000E+00  0.00000000000E+00 -0.22849477433E+04  0.22849477433E+04  0.25500000920E-02 0.  1.
    10030    2    1    2    0    0  0.00000000000E+00  0.00000000000E+00 -0.18966259611E+04  0.26732695254E+04  0.18839267286E+04 0.  0.
        1    1    3    3  502    0 -0.11132271894E+03  0.12834083346E+03  0.36640136343E+03  0.40387383728E+03  0.50400001928E-02 0. -1.
       -1    1    3    3    0  502  0.11132271894E+03 -0.12834083346E+03 -0.22630273246E+04  0.22693956881E+04  0.50400001928E-02 0.  1.
</event>
<event>
 5   0  0.2595012E-04  0.1926652E+04  0.7818609E-02  0.8641703E-01
       -2   -1    0    0    0  501  0.00000000000E+00  0.00000000000E+00  0.74271756778E+03  0.74271756778E+03  0.25500000920E-02 0.  1.
        2   -1    0    0  501    0  0.00000000000E+00  0.00000000000E+00 -0.12494609054E+04  0.12494609054E+04  0.25500000920E-02 0. -1.
    10030    2    1    2    0    0  0.00000000000E+00  0.00000000000E+00 -0.50674333761E+03  0.19921784732E+04  0.19266515665E+04 0.  0.
        1    1    3    3  502    0 -0.53177138601E+03 -0.60898420446E+03 -0.79497422872E+03  0.11338547493E+04  0.50400001928E-02 0. -1.
       -1    1    3    3    0  502  0.53177138601E+03  0.60898420446E+03  0.28823089111E+03  0.85832372383E+03  0.50400001928E-02 0.  1.
</event>
<event>
 5   0  0.1277709E-04  0.1937451E+04  0.7818609E-02  0.8636436E-01
        1   -1    0    0  501    0  0.00000000000E+00  0.00000000000E+00  0.15608415873E+04  0.15608415873E+04  0.50400001928E-02 0.  1.
       -1   -1    0    0    0  501  0.00000000000E+00  0.00000000000E+00 -0.60123290675E+03  0.60123290677E+03  0.50400001928E-02 0. -1.
    10030    2    1    2    0    0  0.00000000000E+00  0.00000000000E+00  0.95960868056E+03  0.21620744941E+04  0.19374512376E+04 0.  0.
        4    1    3    3  502    0  0.36088507257E+03  0.88134463292E+03  0.28199260882E+03  0.99324107945E+03  0.12699999809E+01 0. -1.
       -4    1    3    3    0  502 -0.36088507257E+03 -0.88134463292E+03  0.67761607175E+03  0.11688334146E+04  0.12699999809E+01 0.  1.
</event>
<event>
 5   0  0.2541124E-04  0.1939698E+04  0.7818609E-02  0.8635345E-01
       -2   -1    0    0    0  501  0.00000000000E+00  0.00000000000E+00  0.41461970751E+03  0.41461970752E+03  0.25500000920E-02 0. -1.
        2   -1    0    0  501    0  0.00000000000E+00  0.00000000000E+00 -0.22686009888E+04  0.22686009888E+04  0.25500000920E-02 0.  1.
    10030    2    1    2    0    0  0.00000000000E+00  0.00000000000E+00 -0.18539812813E+04  0.26832206963E+04  0.19396975831E+04 0.  0.
        5    1    3    3  502    0 -0.31537971783E+03  0.53072661747E+03  0.10768162387E+03  0.62669971360E+03  0.46999998093E+01 0. -1.
       -5    1    3    3    0  502  0.31537971783E+03 -0.53072661747E+03 -0.19616629051E+04  0.20565209827E+04  0.46999998093E+01 0.  1.
</event>
<event>
 5   0  0.1324058E-04  0.1946052E+04  0.7818609E-02  0.8632267E-01
        1   -1    0    0  501    0  0.00000000000E+00  0.00000000000E+00  0.93215546412E+03  0.93215546414E+03  0.50400001928E-02 0.  1.
       -1   -1    0    0    0  501  0.00000000000E+00  0.00000000000E+00 -0.10156889291E+04  0.10156889291E+04  0.50400001928E-02 0. -1.
    10030    2    1    2    0    0  0.00000000000E+00  0.00000000000E+00 -0.83533464998E+02  0.19478443933E+04  0.19460523992E+04 0.  0.
        5    1    3    3  502    0  0.46830954734E+03  0.31810596670E+03  0.75032324932E+03  0.93995335344E+03  0.46999998093E+01 0.  1.
       -5    1    3    3    0  502 -0.46830954734E+03 -0.31810596670E+03 -0.83385671431E+03  0.10078910398E+04  0.46999998093E+01 0. -1.
</event>
<event>
 5   0  0.1255141E-04  0.1930301E+04  0.7818609E-02  0.8639919E-01
       -1   -1    0    0    0  501  0.00000000000E+00  0.00000000000E+00  0.17690350880E+04  0.17690350880E+04  0.50400001928E-02 0. -1.
        1   -1    0    0  501    0  0.00000000000E+00  0.00000000000E+00 -0.52656725930E+03  0.52656725932E+03  0.50400001928E-02 0.  1.
    10030    2    1    2    0    0  0.00000000000E+00  0.00000000000E+00  0.12424678287E+04  0.22956023473E+04  0.19303014872E+04 0.  0.
        2    1    3    3  502    0  0.84003136727E+03 -0.43200585435E+03  0.38567262372E+03  0.10203063897E+04  0.25500000920E-02 0.  1.
       -2    1    3    3    0  502 -0.84003136727E+03  0.43200585435E+03  0.85679520497E+03  0.12752959576E+04  0.25500000920E-02 0. -1.
</event>
<event>
 5   0  0.2541124E-04  0.2049652E+04  0.7818609E-02  0.8583752E-01
        2   -1    0    0  501    0  0.00000000000E+00  0.00000000000E+00  0.10947496328E+04  0.10947496328E+04  0.25500000920E-02 0.  1.
       -2   -1    0    0    0  501  0.00000000000E+00  0.00000000000E+00 -0.95936832680E+03  0.95936832680E+03  0.25500000920E-02 0. -1.
    10030    2    1    2    0    0  0.00000000000E+00  0.00000000000E+00  0.13538130596E+03  0.20541179596E+04  0.20496517982E+04 0.  0.
        5    1    3    3  502    0  0.86393297263E+03 -0.39501145226E+03 -0.31763616083E+03  0.10016631416E+04  0.46999998093E+01 0. -1.
       -5    1    3    3    0  502 -0.86393297263E+03  0.39501145226E+03  0.45301746678E+03  0.10524548179E+04  0.46999998093E+01 0.  1.
</event>
<event>
 5   0  0.2595012E-04  0.1878049E+04  0.7818609E-02  0.8665861E-01
       -2   -1    0    0    0  501  0.00000000000E+00  0.00000000000E+00  0.54345786811E+03  0.54345786812E+03  0.25500000920E-02 0.  1.
        2   -1    0    0  501    0  0.00000000000E+00  0.00000000000E+00 -0.16225118014E+04  0.16225118014E+04  0.25500000920E-02 0. -1.
    10030    2    1    2    0    0  0.00000000000E+00  0.00000000000E+00 -0.10790539333E+04  0.21659696695E+04  0.18780487795E+04 0.  0.
        1    1    3    3  502    0 -0.39201887714E+03  0.82476229025E+03 -0.79182271399E+03  0.12086748305E+04  0.50400001928E-02 0. -1.
       -1    1    3    3    0  502  0.39201887714E+03 -0.82476229025E+03 -0.28723121930E+03  0.95729483903E+03  0.50400001928E-02 0.  1.
</event>
<event>
 5   0  0.1255141E-04  0.1906840E+04  0.7818609E-02  0.8651459E-01
        1   -1    0    0  501    0  0.00000000000E+00  0.00000000000E+00  0.12280851840E+04  0.12280851840E+04  0.50400001928E-02 0.  1.
       -1   -1    0    0    0  501  0.00000000000E+00  0.00000000000E+00 -0.74018465650E+03  0.74018465652E+03  0.50400001928E-02 0. -1.
    10030    2    1    2    0    0  0.00000000000E+00  0.00000000000E+00  0.48790052750E+03  0.19682698405E+04  0.19068401193E+04 0.  0.
        2    1    3    3  502    0  0.14464812887E+03  0.82058372589E+03  0.72226723071E+03  0.11027015394E+04  0.25500000920E-02 0.  1.
       -2    1    3    3    0  502 -0.14464812887E+03 -0.82058372589E+03 -0.23436670321E+03  0.86556830115E+03  0.25500000920E-02 0. -1.
</event>
<event>
 5   0  0.9266125E-05  0.1863495E+04  0.7818609E-02  0.8673244E-01
        3   -1    0    0  501    0  0.00000000000E+00  0.00000000000E+00  0.98766282120E+03  0.98766282636E+03  0.10100000352E+00 0.  1.
       -3   -1    0    0    0  501  0.00000000000E+00  0.00000000000E+00 -0.87899757938E+03  0.87899758519E+03  0.10100000352E+00 0. -1.
    10030    2    1    2    0    0  0.00000000000E+00  0.00000000000E+00  0.10866524181E+03  0.18666604116E+04  0.18634948235E+04 0.  0.
        4    1    3    3  502    0  0.69249389688E+03 -0.84309159843E+01 -0.57005019447E+03  0.89698256097E+03  0.12699999809E+01 0. -1.
       -4    1    3    3    0  502 -0.69249389688E+03  0.84309159843E+01  0.67871543628E+03  0.96967785058E+03  0.12699999809E+01 0.  1.
</event>
<event>
 5   0  0.1239615E-04  0.1895883E+04  0.7818609E-02  0.8656908E-01
        1   -1    0    0  501    0  0.00000000000E+00  0.00000000000E+00  0.24424309631E+04  0.24424309631E+04  0.50400001928E-02 0.  1.
       -1   -1    0    0    0  501  0.00000000000E+00  0.00000000000E+00 -0.36790944271E+03  0.36790944274E+03  0.50400001928E-02 0. -1.
    10030    2    1    2    0    0  0.00000000000E+00  0.00000000000E+00  0.20745215204E+04  0.28103404058E+04  0.18958833451E+04 0.  0.
        3    1    3    3  502    0  0.59957868380E+03 -0.70885203293E+03  0.13209556790E+04  0.16145865473E+04  0.10100000352E+00 0.  1.
       -3    1    3    3    0  502 -0.59957868380E+03  0.70885203293E+03  0.75356584131E+03  0.11957538585E+04  0.10100000352E+00 0. -1.
</event>
<event>
 5   0  0.1239615E-04  0.1905977E+04  0.7818609E-02  0.8651887E-01
        1   -1    0    0  501    0  0.00000000000E+00  0.00000000000E+00  0.11619875822E+04  0.11619875822E+04  0.50400001928E-02 0. -1.
       -1   -1    0    0    0  501  0.00000000000E+00  0.00000000000E+00 -0.78158051982E+03  0.78158051983E+03  0.50400001928E-02 0.  1.
    10030    2    1    2    0    0  0.00000000000E+00  0.00000000000E+00  0.38040706236E+03  0.19435681020E+04  0.19059767664E+04 0.  0.
        3    1    3    3  502    0  0.47156121645E+02 -0.62719523205E+03 -0.53987053915E+03  0.82888947885E+03  0.10100000352E+00 0.  1.
       -3    1    3    3    0  502 -0.47156121645E+02  0.62719523205E+03  0.92027760151E+03  0.11146786232E+04  0.10100000352E+00 0. -1.
</event>
<event>
 5   0  0.1324058E-04  0.1913108E+04  0.7818609E-02  0.8648359E-01
       -1   -1    0    0    0  501  0.00000000000E+00  0.00000000000E+00  0.68854664994E+03  0.68854664996E+03  0.50400001928E-02 0. -1.
        1   -1    0    0  501    0  0.00000000000E+00  0.00000000000E+00 -0.13288788511E+04  0.13288788511E+04  0.50400001928E-02 0.  1.
    10030    2    1    2    0    0  0.00000000000E+00  0.00000000000E+00 -0.64033220117E+03  0.20174255011E+04  0.19131075047E+04 0.  0.
        5    1    3    3  502    0  0.95013820113E+03  0.14027955842E+02 -0.20458286987E+03  0.97202655593E+03  0.46999998093E+01 0. -1.
       -5    1    3    3    0  502 -0.95013820113E+03 -0.14027955842E+02 -0.43574933130E+03  0.10453989451E+04  0.46999998093E+01 0.  1.
</event>
<event>
 5   0  0.1277709E-04  0.1845219E+04  0.7818609E-02  0.8682616E-01
        1   -1    0    0  501    0  0.00000000000E+00  0.00000000000E+00  0.16233514124E+04  0.16233514124E+04  0.50400001928E-02 0. -1.
       -1   -1    0    0    0  501  0.00000000000E+00  0.00000000000E+00 -0.52435218749E+03  0.52435218751E+03  0.50400001928E-02 0.  1.
    10030    2    1    2    0    0  0.00000000000E+00  0.00000000000E+00  0.10989992249E+04  0.21477035999E+04  0.18452185390E+04 0.  0.
        4    1    3    3  502    0  0.90759524623E+03  0.15757087650E+03  0.48959921051E+03  0.10432002262E+04  0.12699999809E+01 0.  1.
       -4    1    3    3    0  502 -0.90759524623E+03 -0.15757087650E+03  0.60940001439E+03  0.11045033737E+04  0.12699999809E+01 0. -1.
</event>
<event>
 5   0  0.1324058E-04  0.1932641E+04  0.7818609E-02  0.8638778E-01
       -1   -1    0    0    0  501  0.00000000000E+00  0.00000000000E+00  0.11771152210E+04  0.11771152210E+04  0.50400001928E-02 0. -1.
        1   -1    0    0  501    0  0.00000000000E+00  0.00000000000E+00 -0.79327394691E+03  0.79327394692E+03  0.50400001928E-02 0.  1.
    10030    2    1    2    0    0  0.00000000000E+00  0.00000000000E+00  0.38384127408E+03  0.19703891679E+04  0.19326405122E+04 0.  0.
        5    1    3    3  502    0  0.22342875715E+02 -0.68608909537E+03  0.88530392847E+03  0.11202689796E+04  0.46999998093E+01 0. -1.
       -5    1    3    3    0  502 -0.22342875715E+02  0.68608909537E+03 -0.50146265438E+03  0.85012018834E+03  0.46999998093E+01 0.  1.
</event>
<event>
 5   0  0.2562925E-04  0.1835444E+04  0.7818609E-02  0.8687675E-01
        2   -1    0    0  501    0  0.00000000000E+00  0.00000000000E+00  0.13429460347E+04  0.13429460347E+04  0.25500000920E-02 0.  1.
       -2   -1    0    0    0  501  0.00000000000E+00  0.00000000000E+00 -0.62713892993E+03  0.62713892994E+03  0.25500000920E-02 0. -1.
    10030    2    1    2    0    0  0.00000000000E+00  0.00000000000E+00  0.71580710476E+03  0.19700849646E+04  0.18354440761E+04 0.  0.
        4    1    3    3  502    0  0.26005808415E+03 -0.46785559097E+03  0.11580349053E+04  0.12757607597E+04  0.12699999809E+01 0.  1.
       -4    1    3    3    0  502 -0.26005808415E+03  0.46785559097E+03 -0.44222780054E+03  0.69432420496E+03  0.12699999809E+01 0. -1.
</event>
<event>
 5   0  0.1324058E-04  0.1923440E+04  0.7818609E-02  0.8643276E-01
        1   -1    0    0  501    0  0.00000000000E+00  0.00000000000E+00  0.80715107936E+03  0.80715107937E+03  0.50400001928E-02 0. -1.
       -1   -1    0    0    0  501  0.00000000000E+00  0.00000000000E+00 -0.11458892664E+04  0.11458892664E+04  0.50400001928E-02 0.  1.
    10030    2    1    2    0    0  0.00000000000E+00  0.00000000000E+00 -0.33873818703E+03  0.19530403458E+04  0.19234404157E+04 0.  0.
        5    1    3    3  502    0  0.70817846532E+03  0.63284171207E+03 -0.15785677182E+02  0.94988243951E+03  0.46999998093E+01 0.  1.
       -5    1    3    3    0  502 -0.70817846532E+03 -0.63284171207E+03 -0.32295250985E+03  0.10031579063E+04  0.46999998093E+01 0. -1.
</event>
<event>
 5   0  0.2651828E-04  0.1646419E+04  0.7818609E-02  0.8792527E-01
        2   -1    0    0  501    0  0.00000000000E+00  0.00000000000E+00  0.64774102248E+03  0.64774102249E+03  0.25500000920E-02 0.  1.
       -2   -1    0    0    0  501  0.00000000000E+00  0.00000000000E+00 -0.10462117451E+04  0.10462117451E+04  0.25500000920E-02 0. -1.
    10030    2    1    2    0    0  0.00000000000E+00  0.00000000000E+00 -0.39847072257E+03  0.16939527675E+04  0.16464194672E+04 0.  0.
        3    1    3    3  502    0  0.50038376818E+03 -0.24567656805E+03  0.42400332762E+03  0.70037113275E+03  0.10100000352E+00 0.  1.
       -3    1    3    3    0  502 -0.50038376818E+03  0.24567656805E+03 -0.82247405019E+03  0.99358163479E+03  0.10100000352E+00 0. -1.
</event>
<event>
 5   0  0.2651828E-04  0.1789804E+04  0.7818609E-02  0.8711740E-01
        2   -1    0    0  501    0  0.00000000000E+00  0.00000000000E+00  0.17087623046E+04  0.17087623046E+04  0.25500000920E-02 0.  1.
       -2   -1    0    0    0  501  0.00000000000E+00  0.00000000000E+00 -0.46867251374E+03  0.46867251374E+03  0.25500000920E-02 0. -1.
    10030    2    1    2    0    0  0.00000000000E+00  0.00000000000E+00  0.12400897909E+04  0.21774348184E+04  0.17898043744E+04 0.  0.
        3    1    3    3  502    0 -0.81791340156E+03 -0.32014938163E+03  0.41154491015E+03  0.96997277399E+03  0.10100000352E+00 0. -1.
       -3    1    3    3    0  502  0.81791340156E+03  0.32014938163E+03  0.82854488072E+03  0.12074620444E+04  0.10100000352E+00 0.  1.
</event>
<event>
 5   0  0.1255141E-04  0.1427885E+04  0.7818609E-02  0.8933878E-01
       -1   -1    0    0    0  501  0.00000000000E+00  0.00000000000E+00  0.51550620293E+03  0.51550620296E+03  0.50400001928E-02 0.  1.
        1   -1    0    0  501    0  0.00000000000E+00  0.00000000000E+00 -0.98876406878E+03  0.98876406879E+03  0.50400001928E-02 0. -1.
    10030    2    1    2    0    0  0.00000000000E+00  0.00000000000E+00 -0.47325786584E+03  0.15042702717E+04  0.14278851645E+04 0.  0.
        2    1    3    3  502    0 -0.58829597562E+03  0.18436696078E+03 -0.61593211866E+03  0.87146755875E+03  0.25500000920E-02 0. -1.
       -2    1    3    3    0  502  0.58829597562E+03 -0.18436696078E+03  0.14267425281E+03  0.63280271300E+03  0.25500000920E-02 0.  1.
</event>
<event>
 5   0  0.2541124E-04  0.1894620E+04  0.7818609E-02  0.8657539E-01
       -2   -1    0    0    0  501  0.00000000000E+00  0.00000000000E+00  0.53365926216E+03  0.53365926216E+03  0.25500000920E-02 0.  1.
        2   -1    0    0  501    0  0.00000000000E+00  0.00000000000E+00 -0.16815901106E+04  0.16815901106E+04  0.25500000920E-02 0. -1.
    10030    2    1    2    0    0  0.00000000000E+00  0.00000000000E+00 -0.11479308485E+04  0.22152493728E+04  0.18946198961E+04 0.  0.
        5    1    3    3  502    0  0.86631001160E+03 -0.13116771354E+03 -0.15291859370E+03  0.88944038112E+03  0.46999998093E+01 0.  1.
       -5    1    3    3    0  502 -0.86631001160E+03  0.13116771354E+03 -0.99501225479E+03  0.13258089917E+04  0.46999998093E+01 0. -1.
</event>
<event>
 5   0  0.1324058E-04  0.1896371E+04  0.7818609E-02  0.8656665E-01
        1   -1    0    0  501    0  0.00000000000E+00  0.00000000000E+00  0.23513804659E+04  0.23513804659E+04  0.50400001928E-02 0.  1.
       -1   -1    0    0    0  501  0.00000000000E+00  0.00000000000E+00 -0.38235224244E+03  0.38235224248E+03  0.50400001928E-02 0. -1.
    10030    2    1    2    0    0  0.00000000000E+00  0.00000000000E+00  0.19690282234E+04  0.27337327083E+04  0.18963708435E+04 0.  0.
        5    1    3    3  502    0  0.39642300573E+03 -0.40548279650E+03 -0.11094454432E+03  0.57783931992E+03  0.46999998093E+01 0. -1.
       -5    1    3    3    0  502 -0.39642300573E+03  0.40548279650E+03  0.20799727677E+04  0.21558933884E+04  0.46999998093E+01 0.  1.
</event>
<event>
 5   0  0.1255141E-04  0.1884860E+04  0.7818609E-02  0.8662429E-01
       -1   -1    0    0    0  501  0.00000000000E+00  0.00000000000E+00  0.63807970839E+03  0.63807970841E+03  0.50400001928E-02 0.  1.
        1   -1    0    0  501    0  0.00000000000E+00  0.00000000000E+00 -0.13919492418E+04  0.13919492418E+04  0.50400001928E-02 0. -1.
    10030    2    1    2    0    0  0.00000000000E+00  0.00000000000E+00 -0.75386953341E+03  0.20300289502E+04  0.18848602774E+04 0.  0.
        2    1    3    3  502    0  0.22021996193E+03  0.22632610255E+03  0.57940301402E+03  0.65986982731E+03  0.25500000920E-02 0.  1.
       -2    1    3    3    0  502 -0.22021996193E+03 -0.22632610255E+03 -0.13332725474E+04  0.13701591229E+04  0.25500000920E-02 0. -1.
</event>
<event>
 5   0  0.2541124E-04  0.1923887E+04  0.7818609E-02  0.8643057E-01
        2   -1    0    0  501    0  0.00000000000E+00  0.00000000000E+00  0.74768215093E+03  0.74768215093E+03  0.25500000920E-02 0.  1.
       -2   -1    0    0    0  501  0.00000000000E+00  0.00000000000E+00 -0.12376049225E+04  0.12376049225E+04  0.25500000920E-02 0. -1.
    10030    2    1    2    0    0  0.00000000000E+00  0.00000000000E+00 -0.48992277155E+03  0.19852870734E+04  0.19238868059E+04 0.  0.
        5    1    3    3  502    0  0.45390953692E+03 -0.74113657947E+03 -0.67042536386E+03  0.10976381716E+04  0.46999998093E+01 0. -1.
       -5    1    3    3    0  502 -0.45390953692E+03  0.74113657947E+03  0.18050259231E+03  0.88764890186E+03  0.46999998093E+01 0.  1.
</event>
<event>
 5   0  0.2595012E-04  0.1892975E+04  0.7818609E-02  0.8658361E-01
       -2   -1    0    0    0  501  0.00000000000E+00  0.00000000000E+00  0.47142513135E+03  0.47142513136E+03  0.25500000920E-02 0.  1.
        2   -1    0    0  501    0  0.00000000000E+00  0.00000000000E+00 -0.19002775946E+04  0.19002775946E+04  0.25500000920E-02 0. -1.
    10030    2    1    2    0    0  0.00000000000E+00  0.00000000000E+00 -0.14288524633E+04  0.23717027260E+04  0.18929750285E+04 0.  0.
        1    1    3    3  502    0 -0.27557454470E+03  0.38573883744E+03  0.31195784154E+03  0.56749755534E+03  0.50400001928E-02 0.  1.
       -1    1    3    3    0  502  0.27557454470E+03 -0.38573883744E+03 -0.17408103048E+04  0.18042051707E+04  0.50400001928E-02 0. -1.
</event>
<event>
 5   0  0.1255141E-04  0.1921332E+04  0.7818609E-02  0.8644310E-01
       -1   -1    0    0    0  501  0.00000000000E+00  0.00000000000E+00  0.68057494481E+03  0.68057494483E+03  0.50400001928E-02 0. -1.
        1   -1    0    0  501    0  0.00000000000E+00  0.00000000000E+00 -0.13560288781E+04  0.13560288781E+04  0.50400001928E-02 0.  1.
    10030    2    1    2    0    0  0.00000000000E+00  0.00000000000E+00 -0.67545393329E+03  0.20366038229E+04  0.19213321201E+04 0.  0.
        2    1    3    3  502    0 -0.79896502010E+03  0.98562171540E+02  0.21795719875E+03  0.83400536299E+03  0.25500000920E-02 0. -1.
       -2    1    3    3    0  502  0.79896502010E+03 -0.98562171540E+02 -0.89341113204E+03  0.12025984599E+04  0.25500000920E-02 0.  1.
</event>
<event>
 5   0  0.2595012E-04  0.1905878E+04  0.7818609E-02  0.8651936E-01
       -2   -1    0    0    0  501  0.00000000000E+00  0.00000000000E+00  0.12793256958E+04  0.12793256959E+04  0.25500000920E-02 0.  1.
        2   -1    0    0  501    0  0.00000000000E+00  0.00000000000E+00 -0.70982164745E+03  0.70982164745E+03  0.25500000920E-02 0. -1.
    10030    2    1    2    0    0  0.00000000000E+00  0.00000000000E+00  0.56950404840E+03  0.19891473433E+04  0.19058783519E+04 0.  0.
        1    1    3    3  502    0 -0.47069479908E+03  0.21949770522E+03  0.11186341991E+04  0.12333188185E+04  0.50400001928E-02 0.  1.
       -1    1    3    3    0  502  0.47069479908E+03 -0.21949770522E+03 -0.54913015074E+03  0.75582852484E+03  0.50400001928E-02 0. -1.
</event>
<event>
 5   0  0.1277709E-04  0.1952577E+04  0.7818609E-02  0.8629119E-01
       -1   -1    0    0    0  501  0.00000000000E+00  0.00000000000E+00  0.34575279075E+03  0.34575279078E+03  0.50400001928E-02 0.  1.
        1   -1    0    0  501    0  0.00000000000E+00  0.00000000000E+00 -0.27567083332E+04  0.27567083332E+04  0.50400001928E-02 0. -1.
    10030    2    1    2    0    0  0.00000000000E+00  0.00000000000E+00 -0.24109555424E+04  0.31024611240E+04  0.19525773732E+04 0.  0.
        4    1    3    3  502    0 -0.38505814233E+03  0.78284350430E+03 -0.19017453092E+04  0.20923074724E+04  0.12699999809E+01 0. -1.
       -4    1    3    3    0  502  0.38505814233E+03 -0.78284350430E+03 -0.50921023323E+03  0.10101536515E+04  0.12699999809E+01 0.  1.
</event>
<event>
 5   0  0.2651828E-04  0.1981638E+04  0.7818609E-02  0.8615254E-01
       -2   -1    0    0    0  501  0.00000000000E+00  0.00000000000E+00  0.67449936268E+03  0.67449936269E+03  0.25500000920E-02 0. -1.
        2   -1    0    0  501    0  0.00000000000E+00  0.00000000000E+00 -0.14554824954E+04  0.14554824954E+04  0.25500000920E-02 0.  1.
    10030    2    1    2    0    0  0.00000000000E+00  0.00000000000E+00 -0.78098313274E+03  0.21299818581E+04  0.19816377223E+04 0.  0.
        3    1    3    3  502    0  0.27389652377E+03 -0.20937983305E+03 -0.13889328106E+04  0.14310812635E+04  0.10100000352E+00 0.  1.
       -3    1    3    3    0  502 -0.27389652377E+03  0.20937983305E+03  0.60794967782E+03  0.69890059464E+03  0.10100000352E+00 0. -1.
</event>
<event>
 5   0  0.1277709E-04  0.1896532E+04  0.7818609E-02  0.8656584E-01
       -1   -1    0    0    0  501  0.00000000000E+00  0.00000000000E+00  0.41221468958E+03  0.41221468961E+03  0.50400001928E-02 0. -1.
        1   -1    0    0  501    0  0.00000000000E+00  0.00000000000E+00 -0.21814084084E+04  0.21814084085E+04  0.50400001928E-02 0.  1.
    10030    2    1    2    0    0  0.00000000000E+00  0.00000000000E+00 -0.17691937189E+04  0.25936230981E+04  0.18965321932E+04 0.  0.
        4    1    3    3  502    0  0.54901215497E+03 -0.69618316049E+03 -0.13445562483E+04  0.16105646392E+04  0.12699999809E+01 0.  1.
       -4    1    3    3    0  502 -0.54901215497E+03  0.69618316049E+03 -0.42463747056E+03  0.98305845887E+03  0.12699999809E+01 0. -1.
</event>
<event>
 5   0  0.2651828E-04  0.1887987E+04  0.7818609E-02  0.8660859E-01
        2   -1    0    0  501    0  0.00000000000E+00  0.00000000000E+00  0.90473883851E+03  0.90473883851E+03  0.25500000920E-02 0.  1.
       -2   -1    0    0    0  501  0.00000000000E+00  0.00000000000E+00 -0.98495124380E+03  0.98495124380E+03  0.25500000920E-02 0. -1.
    10030    2    1    2    0    0  0.00000000000E+00  0.00000000000E+00 -0.80212405292E+02  0.18896900823E+04  0.18879869113E+04 0.  0.
        3    1    3    3  502    0 -0.33494687532E+03 -0.34605322154E+01 -0.92346809327E+03  0.98234144475E+03  0.10100000352E+00 0. -1.
       -3    1    3    3    0  502  0.33494687532E+03  0.34605322154E+01  0.84325568798E+03  0.90734863756E+03  0.10100000352E+00 0.  1.
</event>
<event>
 5   0  0.2562925E-04  0.1960792E+04  0.7818609E-02  0.8625174E-01
        2   -1    0    0  501    0  0.00000000000E+00  0.00000000000E+00  0.15788138314E+04  0.15788138314E+04  0.25500000920E-02 0.  1.
       -2   -1    0    0    0  501  0.00000000000E+00  0.00000000000E+00 -0.60879670631E+03  0.60879670631E+03  0.25500000920E-02 0. -1.
    10030    2    1    2    0    0  0.00000000000E+00  0.00000000000E+00  0.97001712510E+03  0.21876105377E+04  0.19607923505E+04 0.  0.
        4    1    3    3  502    0  0.13847674102E+03  0.91001844208E+03  0.86148241214E+03  0.12607390420E+04  0.12699999809E+01 0.  1.
       -4    1    3    3    0  502 -0.13847674102E+03 -0.91001844208E+03  0.10853471296E+03  0.92687149571E+03  0.12699999809E+01 0. -1.
</event>
<event>
 5   0  0.2608744E-04  0.1967057E+04  0.7818609E-02  0.8622179E-01
       -2   -1    0    0    0  501  0.00000000000E+00  0.00000000000E+00  0.19172420389E+04  0.19172420389E+04  0.25500000920E-02 0.  1.
        2   -1    0    0  501    0  0.00000000000E+00  0.00000000000E+00 -0.50454170928E+03  0.50454170928E+03  0.25500000920E-02 0. -1.
    10030    2    1    2    0    0  0.00000000000E+00  0.00000000000E+00  0.14127003296E+04  0.24217837482E+04  0.19670572695E+04 0.  0.
        2    1    3    3  502    0 -0.25716635736E+02  0.43772401882E+03  0.17902456187E+04  0.18431611533E+04  0.25500000920E-02 0.  1.
       -2    1    3    3    0  502  0.25716635736E+02 -0.43772401882E+03 -0.37754528903E+03  0.57862259486E+03  0.25500000920E-02 0. -1.
</event>
<event>
 5   0  0.2608744E-04  0.1650357E+04  0.7818609E-02  0.8790196E-01
        2   -1    0    0  501    0  0.00000000000E+00  0.00000000000E+00  0.13888668826E+04  0.13888668826E+04  0.25500000920E-02 0.  1.
       -2   -1    0    0    0  501  0.00000000000E+00  0.00000000000E+00 -0.49026957322E+03  0.49026957322E+03  0.25500000920E-02 0. -1.
    10030    2    1    2    0    0  0.00000000000E+00  0.00000000000E+00  0.89859730937E+03  0.18791364558E+04  0.16503565358E+04 0.  0.
        2    1    3    3  502    0 -0.72571235270E+03 -0.29142429547E+03  0.14948639105E+03  0.79619891985E+03  0.25500000920E-02 0. -1.
       -2    1    3    3    0  502  0.72571235270E+03  0.29142429547E+03  0.74911091832E+03  0.10829375360E+04  0.25500000920E-02 0.  1.
</event>
<event>
 5   0  0.1277709E-04  0.1893805E+04  0.7818609E-02  0.8657946E-01
        1   -1    0    0  501    0  0.00000000000E+00  0.00000000000E+00  0.77497233808E+03  0.77497233810E+03  0.50400001928E-02 0. -1.
       -1   -1    0    0    0  501  0.00000000000E+00  0.00000000000E+00 -0.11569760745E+04  0.11569760745E+04  0.50400001928E-02 0.  1.
    10030    2    1    2    0    0  0.00000000000E+00  0.00000000000E+00 -0.38200373639E+03  0.19319484126E+04  0.18938051152E+04 0.  0.
        4    1    3    3  502    0 -0.10974345222E+02  0.94612304956E+03 -0.15346983215E+03  0.95855300503E+03  0.12699999809E+01 0.  1.
       -4    1    3    3    0  502  0.10974345222E+02 -0.94612304956E+03 -0.22853390424E+03  0.97339540756E+03  0.12699999809E+01 0. -1.
</event>
<event>
 5   0  0.2608744E-04  0.1654091E+04  0.7818609E-02  0.8787990E-01
       -2   -1    0    0    0  501  0.00000000000E+00  0.00000000000E+00  0.89690367880E+03  0.89690367880E+03  0.25500000920E-02 0.  1.
        2   -1    0    0  501    0  0.00000000000E+00  0.00000000000E+00 -0.76262879609E+03  0.76262879610E+03  0.25500000920E-02 0. -1.
    10030    2    1    2    0    0  0.00000000000E+00  0.00000000000E+00  0.13427488270E+03  0.16595324749E+04  0.16540913793E+04 0.  0.
        2    1    3    3  502    0 -0.35186757351E+03 -0.71696643652E+03 -0.14840153352E+03  0.81232670493E+03  0.25500000920E-02 0. -1.
       -2    1    3    3    0  502  0.35186757351E+03  0.71696643652E+03  0.28267641622E+03  0.84720576997E+03  0.25500000920E-02 0.  1.
</event>
<event>
 5   0  0.2541124E-04  0.1908053E+04  0.7818609E-02  0.8650858E-01
        2   -1    0    0  501    0  0.00000000000E+00  0.00000000000E+00  0.13059579360E+04  0.13059579360E+04  0.25500000920E-02 0.  1.
       -2   -1    0    0    0  501  0.00000000000E+00  0.00000000000E+00 -0.69693433794E+03  0.69693433794E+03  0.25500000920E-02 0. -1.
    10030    2    1    2    0    0  0.00000000000E+00  0.00000000000E+00  0.60902359806E+03  0.20028922739E+04  0.19080533845E+04 0.  0.
        5    1    3    3  502    0  0.36133320575E+03  0.39481566945E+03  0.11335150704E+04  0.12535228771E+04  0.46999998093E+01 0.  1.
       -5    1    3    3    0  502 -0.36133320575E+03 -0.39481566945E+03 -0.52449147236E+03  0.74936939689E+03  0.46999998093E+01 0. -1.
</event>
<event>
 5   0  0.2541124E-04  0.1888935E+04  0.7818609E-02  0.8660384E-01
       -2   -1    0    0    0  501  0.00000000000E+00  0.00000000000E+00  0.76243322720E+03  0.76243322721E+03  0.25500000920E-02 0. -1.
        2   -1    0    0  501    0  0.00000000000E+00  0.00000000000E+00 -0.11699630601E+04  0.11699630601E+04  0.25500000920E-02 0.  1.
    10030    2    1    2    0    0  0.00000000000E+00  0.00000000000E+00 -0.40752983286E+03  0.19323962873E+04  0.18889348444E+04 0.  0.
        5    1    3    3  502    0  0.26011170804E+03 -0.37497213944E+03 -0.10496725357E+04  0.11445945693E+04  0.46999998093E+01 0.  1.
       -5    1    3    3    0  502 -0.26011170804E+03  0.37497213944E+03  0.64214270281E+03  0.78780171794E+03  0.46999998093E+01 0. -1.
</event>
<event>
 5   0  0.2651828E-04  0.1890743E+04  0.7818609E-02  0.8659478E-01
       -2   -1    0    0    0  501  0.00000000000E+00  0.00000000000E+00  0.55456158522E+03  0.55456158523E+03  0.25500000920E-02 0. -1.
        2   -1    0    0  501    0  0.00000000000E+00  0.00000000000E+00 -0.16115917891E+04  0.16115917891E+04  0.25500000920E-02 0.  1.
    10030    2    1    2    0    0  0.00000000000E+00  0.00000000000E+00 -0.10570302039E+04  0.21661533743E+04  0.18907426026E+04 0.  0.
        3    1    3    3  502    0 -0.69842091240E+02 -0.60594060829E+03  0.29897145495E+03  0.67928335734E+03  0.10100000352E+00 0. -1.
       -3    1    3    3    0  502  0.69842091240E+02  0.60594060829E+03 -0.13560016588E+04  0.14868700170E+04  0.10100000352E+00 0.  1.
</event>
<event>
 5   0  0.1324058E-04  0.1907612E+04  0.7818609E-02  0.8651076E-01
       -1   -1    0    0    0  501  0.00000000000E+00  0.00000000000E+00  0.11151341121E+04  0.11151341121E+04  0.50400001928E-02 0. -1.
        1   -1    0    0  501    0  0.00000000000E+00  0.00000000000E+00 -0.81581775230E+03  0.81581775232E+03  0.50400001928E-02 0.  1.
    10030    2    1    2    0    0  0.00000000000E+00  0.00000000000E+00  0.29931635979E+03  0.19309518644E+04  0.19076123347E+04 0.  0.
        5    1    3    3  502    0 -0.28617873855E+03 -0.13219234129E+03  0.10608670103E+04  0.11067221824E+04  0.46999998093E+01 0. -1.
       -5    1    3    3    0  502  0.28617873855E+03  0.13219234129E+03 -0.76155065049E+03  0.82422968204E+03  0.46999998093E+01 0.  1.
</event>
<event>
 5   0  0.1317527E-04  0.1879043E+04  0.7818609E-02  0.8665359E-01
       -1   -1    0    0    0  501  0.00000000000E+00  0.00000000000E+00  0.46334932359E+03  0.46334932362E+03  0.50400001928E-02 0.  1.
        1   -1    0    0  501    0  0.00000000000E+00  0.00000000000E+00 -0.19050429943E+04  0.19050429943E+04  0.50400001928E-02 0. -1.
    10030    2    1    2    0    0  0.00000000000E+00  0.00000000000E+00 -0.14416936707E+04  0.23683923179E+04  0.18790427168E+04 0.  0.
        1    1    3    3  502    0  0.59395911856E+03  0.13343447211E+03 -0.16228287948E+04  0.17332528639E+04  0.50400001928E-02 0. -1.
       -1    1    3    3    0  502 -0.59395911856E+03 -0.13343447211E+03  0.18113512411E+03  0.63513945404E+03  0.50400001928E-02 0.  1.
</event>
<event>
 5   0  0.2651828E-04  0.1921680E+04  0.7818609E-02  0.8644140E-01
        2   -1    0    0  501    0  0.00000000000E+00  0.00000000000E+00  0.15673808889E+04  0.15673808889E+04  0.25500000920E-02 0. -1.
       -2   -1    0    0    0  501  0.00000000000E+00  0.00000000000E+00 -0.58901666552E+03  0.58901666552E+03  0.25500000920E-02 0.  1.
    10030    2    1    2    0    0  0.00000000000E+00  0.00000000000E+00  0.97836422341E+03  0.21563975545E+04  0.19216799575E+04 0.  0.
        3    1    3    3  502    0  0.31338174269E+03 -0.78276036685E+03 -0.27845955778E+02  0.84362154786E+03  0.10100000352E+00 0. -1.
       -3    1    3    3    0  502 -0.31338174269E+03  0.78276036685E+03  0.10062101792E+04  0.13127760066E+04  0.10100000352E+00 0.  1.
</event>
<event>
 5   0  0.1255141E-04  0.1888133E+04  0.7818609E-02  0.8660786E-01
       -1   -1    0    0    0  501  0.00000000000E+00  0.00000000000E+00  0.85988077085E+03  0.85988077086E+03  0.50400001928E-02 0.  1.
        1   -1    0    0  501    0  0.00000000000E+00  0.00000000000E+00 -0.10364942822E+04  0.10364942822E+04  0.50400001928E-02 0. -1.
    10030    2    1    2    0    0  0.00000000000E+00  0.00000000000E+00 -0.17661351138E+03  0.18963750531E+04  0.18881329428E+04 0.  0.
        2    1    3    3  502    0  0.81587855743E+03 -0.18331257691E+03  0.35178424016E+03  0.90720090000E+03  0.25500000920E-02 0.  1.
       -2    1    3    3    0  502 -0.81587855743E+03  0.18331257691E+03 -0.52839775155E+03  0.98917415311E+03  0.25500000920E-02 0. -1.
</event>
<event>
 5   0  0.2562925E-04  0.1844255E+04  0.7818609E-02  0.8683113E-01
       -2   -1    0    0    0  501  0.00000000000E+00  0.00000000000E+00  0.11300219797E+04  0.11300219797E+04  0.25500000920E-02 0. -1.
        2   -1    0    0  501    0  0.00000000000E+00  0.00000000000E+00 -0.75248018259E+03  0.75248018260E+03  0.25500000920E-02 0.  1.
    10030    2    1    2    0    0  0.00000000000E+00  0.00000000000E+00  0.37754179713E+03  0.18825021623E+04  0.18442550210E+04 0.  0.
        4    1    3    3  502    0 -0.65114047446E+03  0.44552669868E+02 -0.47615911167E+03  0.80789725238E+03  0.12699999809E+01 0.  1.
       -4    1    3    3    0  502  0.65114047446E+03 -0.44552669868E+02  0.85370090881E+03  0.10746049099E+04  0.12699999809E+01 0. -1.
</event>
<event>
 5   0  0.1277709E-04  0.1487926E+04  0.7818609E-02  0.8892522E-01
        1   -1    0    0  501    0  0.00000000000E+00  0.00000000000E+00  0.89401150579E+03  0.89401150581E+03  0.50400001928E-02 0. -1.
       -1   -1    0    0    0  501  0.00000000000E+00  0.00000000000E+00 -0.61909852290E+03  0.61909852293E+03  0.50400001928E-02 0.  1.
    10030    2    1    2    0    0  0.00000000000E+00  0.00000000000E+00  0.27491298289E+03  0.15131100287E+04  0.14879263459E+04 0.  0.
        4    1    3    3  502    0 -0.44313071647E+03  0.32320849046E+03  0.64860795933E+03  0.84942478066E+03  0.12699999809E+01 0. -1.
       -4    1    3    3    0  502  0.44313071647E+03 -0.32320849046E+03 -0.37369497644E+03  0.66368524807E+03  0.12699999809E+01 0.  1.
</event>
<event>
 5   0  0.2562925E-04  0.1905741E+04  0.7818609E-02  0.8652004E-01
       -2   -1    0    0    0  501  0.00000000000E+00  0.00000000000E+00  0.65150677876E+03  0.65150677876E+03  0.25500000920E-02 0.  1.
        2   -1    0    0  501    0  0.00000000000E+00  0.00000000000E+00 -0.13936346038E+04  0.13936346038E+04  0.25500000920E-02 0. -1.
    10030    2    1    2    0    0  0.00000000000E+00  0.00000000000E+00 -0.74212782505E+03  0.20451413826E+04  0.19057412117E+04 0.  0.
        4    1    3    3  502    0 -0.35438637305E+03 -0.11528769758E+03  0.57005634136E+03  0.68106299256E+03  0.12699999809E+01 0.  1.
       -4    1    3    3    0  502  0.35438637305E+03  0.11528769758E+03 -0.13121841664E+04  0.13640783900E+04  0.12699999809E+01 0. -1.
</event>
<event>
 5   0  0.2595012E-04  0.1879412E+04  0.7818609E-02  0.8665173E-01
        2   -1    0    0  501    0  0.00000000000E+00  0.00000000000E+00  0.14996030647E+04  0.14996030647E+04  0.25500000920E-02 0. -1.
       -2   -1    0    0    0  501  0.00000000000E+00  0.00000000000E+00 -0.58885404931E+03  0.58885404931E+03  0.25500000920E-02 0.  1.
    10030    2    1    2    0    0  0.00000000000E+00  0.00000000000E+00  0.91074901541E+03  0.20884571140E+04  0.18794119687E+04 0.  0.
        1    1    3    3  502    0 -0.71523460956E+03  0.55514406083E+03  0.17579082850E+03  0.92230574670E+03  0.50400001928E-02 0.  1.
       -1    1    3    3    0  502  0.71523460956E+03 -0.55514406083E+03  0.73495818691E+03  0.11661513673E+04  0.50400001928E-02 0. -1.
</event>
<event>
 5   0  0.2608744E-04  0.1887442E+04  0.7818609E-02  0.8661132E-01
        2   -1    0    0  501    0  0.00000000000E+00  0.00000000000E+00  0.92191545718E+03  0.92191545718E+03  0.25500000920E-02 0. -1.
       -2   -1    0    0    0  501  0.00000000000E+00  0.00000000000E+00 -0.96604270894E+03  0.96604270895E+03  0.25500000920E-02 0.  1.
    10030    2    1    2    0    0  0.00000000000E+00  0.00000000000E+00 -0.44127251764E+02  0.18879581661E+04  0.18874424025E+04 0.  0.
        2    1    3    3  502    0  0.33664766746E+03  0.21402693487E+02 -0.90367838584E+03  0.96458506744E+03  0.25500000920E-02 0.  1.
       -2    1    3    3    0  502 -0.33664766746E+03 -0.21402693487E+02  0.85955113407E+03  0.92337309869E+03  0.25500000920E-02 0. -1.
</event>
<event>
 5   0  0.1239615E-04  0.1894545E+04  0.7818609E-02  0.8657576E-01
        1   -1    0    0  501    0  0.00000000000E+00  0.00000000000E+00  0.96035544854E+03  0.96035544855E+03  0.50400001928E-02 0.  1.
       -1   -1    0    0    0  501  0.00000000000E+00  0.00000000000E+00 -0.93436776212E+03  0.93436776214E+03  0.50400001928E-02 0. -1.
    10030    2    1    2    0    0  0.00000000000E+00  0.00000000000E+00  0.25987686418E+02  0.18947232107E+04  0.18945449811E+04 0.  0.
        3    1    3    3  502    0 -0.29835157352E+03 -0.70924332511E+03  0.56557220664E+03  0.95494067185E+03  0.10100000352E+00 0.  1.
       -3    1    3    3    0  502  0.29835157352E+03  0.70924332511E+03 -0.53958452022E+03  0.93978253884E+03  0.10100000352E+00 0. -1.
</event>
<event>
 5   0  0.1317527E-04  0.1900624E+04  0.7818609E-02  0.8654546E-01
       -1   -1    0    0    0  501  0.00000000000E+00  0.00000000000E+00  0.38768553311E+03  0.38768553315E+03  0.50400001928E-02 0.  1.
        1   -1    0    0  501    0  0.00000000000E+00  0.00000000000E+00 -0.23294468660E+04  0.23294468660E+04  0.50400001928E-02 0. -1.
    10030    2    1    2    0    0  0.00000000000E+00  0.00000000000E+00 -0.19417613329E+04  0.27171323991E+04  0.19006239503E+04 0.  0.
        1    1    3    3  502    0  0.54756503017E+03  0.65828259673E+03 -0.15601975439E+04  0.17797134082E+04  0.50400001928E-02 0. -1.
       -1    1    3    3    0  502 -0.54756503017E+03 -0.65828259673E+03 -0.38156378897E+03  0.93741899090E+03  0.50400001928E-02 0.  1.
</event>
<event>
 5   0  0.1255141E-04  0.1935295E+04  0.7818609E-02  0.8637485E-01
        1   -1    0    0  501    0  0.00000000000E+00  0.00000000000E+00  0.40805765783E+03  0.40805765786E+03  0.50400001928E-02 0. -1.
       -1   -1    0    0    0  501  0.00000000000E+00  0.00000000000E+00 -0.22946297378E+04  0.22946297378E+04  0.50400001928E-02 0.  1.
    10030    2    1    2    0    0  0.00000000000E+00  0.00000000000E+00 -0.18865720800E+04  0.27026873957E+04  0.19352945372E+04 0.  0.
        2    1    3    3  502    0  0.14979841404E+03 -0.25096048072E+03  0.34494346277E+03  0.45211361432E+03  0.25500000920E-02 0. -1.
       -2    1    3    3    0  502 -0.14979841404E+03  0.25096048072E+03 -0.22315155428E+04  0.22505737813E+04  0.25500000920E-02 0.  1.
</event>
<event>
 5   0  0.2608744E-04  0.1897678E+04  0.7818609E-02  0.8656013E-01
        2   -1    0    0  501    0  0.00000000000E+00  0.00000000000E+00  0.90883388575E+03  0.90883388576E+03  0.25500000920E-02 0.  1.
       -2   -1    0    0    0  501  0.00000000000E+00  0.00000000000E+00 -0.99060470372E+03  0.99060470373E+03  0.25500000920E-02 0. -1.
    10030    2    1    2    0    0  0.00000000000E+00  0.00000000000E+00 -0.81770817973E+02  0.18994385895E+04  0.18976776566E+04 0.  0.
        2    1    3    3  502    0  0.20369966265E+03  0.84735298476E+03 -0.41645951347E+03  0.96588775731E+03  0.25500000920E-02 0. -1.
       -2    1    3    3    0  502 -0.20369966265E+03 -0.84735298476E+03  0.33468869550E+03  0.93355083217E+03  0.25500000920E-02 0.  1.
</event>
<event>
 5   0  0.2541124E-04  0.1761498E+04  0.7818609E-02  0.8727047E-01
       -2   -1    0    0    0  501  0.00000000000E+00  0.00000000000E+00  0.94177606121E+03  0.94177606121E+03  0.25500000920E-02 0.  1.
        2   -1    0    0  501    0  0.00000000000E+00  0.00000000000E+00 -0.82367657397E+03  0.82367657398E+03  0.25500000920E-02 0. -1.
    10030    2    1    2    0    0  0.00000000000E+00  0.00000000000E+00  0.11809948724E+03  0.17654526352E+04  0.17614980892E+04 0.  0.
        5    1    3    3  502    0  0.32111265004E+03  0.71542713210E+03  0.46088308890E+03  0.90960685298E+03  0.46999998093E+01 0.  1.
       -5    1    3    3    0  502 -0.32111265004E+03 -0.71542713210E+03 -0.34278360166E+03  0.85584578221E+03  0.46999998093E+01 0. -1.
</event>
<event>
 5   0  0.1317527E-04  0.1893777E+04  0.7818609E-02  0.8657960E-01
        1   -1    0    0  501    0  0.00000000000E+00  0.00000000000E+00  0.19466108094E+04  0.19466108094E+04  0.50400001928E-02 0. -1.
       -1   -1    0    0    0  501  0.00000000000E+00  0.00000000000E+00 -0.46059444195E+03  0.46059444198E+03  0.50400001928E-02 0.  1.
    10030    2    1    2    0    0  0.00000000000E+00  0.00000000000E+00  0.14860163675E+04  0.24072052514E+04  0.18937773042E+04 0.  0.
        1    1    3    3  502    0 -0.24631213004E+03 -0.30978400684E+03  0.18364332314E+04  0.18785959677E+04  0.50400001928E-02 0. -1.
       -1    1    3    3    0  502  0.24631213004E+03  0.30978400684E+03 -0.35041686394E+03  0.52860928374E+03  0.50400001928E-02 0.  1.
</event>
<event>
 5   0  0.2595012E-04  0.1887502E+04  0.7818609E-02  0.8661103E-01
       -2   -1    0    0    0  501  0.00000000000E+00  0.00000000000E+00  0.14843514022E+04  0.14843514022E+04  0.25500000920E-02 0. -1.
        2   -1    0    0  501    0  0.00000000000E+00  0.00000000000E+00 -0.60003681154E+03  0.60003681154E+03  0.25500000920E-02 0.  1.
    10030    2    1    2    0    0  0.00000000000E+00  0.00000000000E+00  0.88431459064E+03  0.20843882137E+04  0.18875015047E+04 0.  0.
        1    1    3    3  502    0 -0.35797851517E+03  0.38403369240E+03 -0.42388921012E+03  0.67476852083E+03  0.50400001928E-02 0.  1.
       -1    1    3    3    0  502  0.35797851517E+03 -0.38403369240E+03  0.13082038008E+04  0.14096196929E+04  0.50400001928E-02 0. -1.
</event>
<event>
 5   0  0.1317527E-04  0.1883664E+04  0.7818609E-02  0.8663031E-01
        1   -1    0    0  501    0  0.00000000000E+00  0.00000000000E+00  0.97282129034E+03  0.97282129035E+03  0.50400001928E-02 0. -1.
       -1   -1    0    0    0  501  0.00000000000E+00  0.00000000000E+00 -0.91182949361E+03  0.91182949362E+03  0.50400001928E-02 0.  1.
    10030    2    1    2    0    0  0.00000000000E+00  0.00000000000E+00  0.60991796734E+02  0.18846507840E+04  0.18836636054E+04 0.  0.
        1    1    3    3  502    0  0.32671131042E+03 -0.19308399172E+03  0.89293687641E+03  0.97023604009E+03  0.50400001928E-02 0. -1.
       -1    1    3    3    0  502 -0.32671131042E+03  0.19308399172E+03 -0.83194507967E+03  0.91441474389E+03  0.50400001928E-02 0.  1.
</event>
<event>
 5   0  0.2541124E-04  0.1899704E+04  0.7818609E-02  0.8655004E-01
       -2   -1    0    0    0  501  0.00000000000E+00  0.00000000000E+00  0.49706595719E+03  0.49706595719E+03  0.25500000920E-02 0. -1.
        2   -1    0    0  501    0  0.00000000000E+00  0.00000000000E+00 -0.18150892587E+04  0.18150892587E+04  0.25500000920E-02 0.  1.
    10030    2    1    2    0    0  0.00000000000E+00  0.00000000000E+00 -0.13180233015E+04  0.23121552158E+04  0.18997042715E+04 0.  0.
        5    1    3    3  502    0 -0.43433780758E+03  0.10627173579E+03  0.36093648733E+03  0.57466533809E+03  0.46999998093E+01 0. -1.
       -5    1    3    3    0  502  0.43433780758E+03 -0.10627173579E+03 -0.16789597888E+04  0.17374898778E+04  0.46999998093E+01 0.  1.
</event>
<event>
 5   0  0.2595012E-04  0.1899279E+04  0.7818609E-02  0.8655215E-01
       -2   -1    0    0    0  501  0.00000000000E+00  0.00000000000E+00  0.12950241928E+04  0.12950241928E+04  0.25500000920E-02 0. -1.
        2   -1    0    0  501    0  0.00000000000E+00  0.00000000000E+00 -0.69636959074E+03  0.69636959074E+03  0.25500000920E-02 0.  1.
    10030    2    1    2    0    0  0.00000000000E+00  0.00000000000E+00  0.59865460208E+03  0.19913937836E+04  0.18992793024E+04 0.  0.
        1    1    3    3  502    0 -0.53066074294E+03  0.75586585570E+03  0.53114167266E+03  0.10653851380E+04  0.50400001928E-02 0. -1.
       -1    1    3    3    0  502  0.53066074294E+03 -0.75586585570E+03  0.67512929428E+02  0.92600864552E+03  0.50400001928E-02 0.  1.
</event>
<event>
 5   0  0.2541124E-04  0.1878549E+04  0.7818609E-02  0.8665608E-01
        2   -1    0    0  501    0  0.00000000000E+00  0.00000000000E+00  0.76756265870E+03  0.76756265871E+03  0.25500000920E-02 0. -1.
       -2   -1    0    0    0  501  0.00000000000E+00  0.00000000000E+00 -0.11493999064E+04  0.11493999064E+04  0.25500000920E-02 0.  1.
    10030    2    1    2    0    0  0.00000000000E+00  0.00000000000E+00 -0.38183724766E+03  0.19169625651E+04  0.18785488528E+04 0.  0.
        5    1    3    3  502    0  0.74245120231E+03  0.34803343186E+03  0.27654631204E+03  0.86536755786E+03  0.46999998093E+01 0. -1.
       -5    1    3    3    0  502 -0.74245120231E+03 -0.34803343186E+03 -0.65838355971E+03  0.10515950072E+04  0.46999998093E+01 0.  1.
</event>
<event>
 5   0  0.2541124E-04  0.1967992E+04  0.7818609E-02  0.8621733E-01
        2   -1    0    0  501    0  0.00000000000E+00  0.00000000000E+00  0.13315112768E+04  0.13315112768E+04  0.25500000920E-02 0. -1.
       -2   -1    0    0    0  501  0.00000000000E+00  0.00000000000E+00 -0.72717981006E+03  0.72717981007E+03  0.25500000920E-02 0.  1.
    10030    2    1    2    0    0  0.00000000000E+00  0.00000000000E+00  0.60433146677E+03  0.20586910869E+04  0.19679919892E+04 0.  0.
        5    1    3    3  502    0  0.51215011584E+03  0.54577253966E+03  0.97040224482E+03  0.12255072472E+04  0.46999998093E+01 0. -1.
       -5    1    3    3    0  502 -0.51215011584E+03 -0.54577253966E+03 -0.36607077805E+03  0.83318383970E+03  0.46999998093E+01 0.  1.
</event>
<event>
 5   0  0.1255141E-04  0.1749862E+04  0.7818609E-02  0.8733426E-01
        1   -1    0    0  501    0  0.00000000000E+00  0.00000000000E+00  0.24135950637E+04  0.24135950637E+04  0.50400001928E-02 0. -1.
       -1   -1    0    0    0  501  0.00000000000E+00  0.00000000000E+00 -0.31716350915E+03  0.31716350919E+03  0.50400001928E-02 0.  1.
    10030    2    1    2    0    0  0.00000000000E+00  0.00000000000E+00  0.20964315546E+04  0.27307585729E+04  0.17498620290E+04 0.  0.
        2    1    3    3  502    0 -0.12713779119E+03 -0.62265053496E+03  0.19866885468E+04  0.20858545224E+04  0.25500000920E-02 0. -1.
       -2    1    3    3    0  502  0.12713779119E+03  0.62265053496E+03  0.10974300780E+03  0.64490405054E+03  0.25500000920E-02 0.  1.
</event>
<event>
 5   0  0.2651828E-04  0.1998727E+04  0.7818609E-02  0.8607216E-01
       -2   -1    0    0    0  501  0.00000000000E+00  0.00000000000E+00  0.12943716410E+04  0.12943716410E+04  0.25500000920E-02 0. -1.
        2   -1    0    0  501    0  0.00000000000E+00  0.00000000000E+00 -0.77159234993E+03  0.77159234994E+03  0.25500000920E-02 0.  1.
    10030    2    1    2    0    0  0.00000000000E+00  0.00000000000E+00  0.52277929108E+03  0.20659639909E+04  0.19987268509E+04 0.  0.
        3    1    3    3  502    0  0.38702464796E+03  0.68697443879E+03 -0.37327312301E+03  0.87238454379E+03  0.10100000352E+00 0.  1.
       -3    1    3    3    0  502 -0.38702464796E+03 -0.68697443879E+03  0.89605241409E+03  0.11935794472E+04  0.10100000352E+00 0. -1.
</event>
<event>
 5   0  0.1255141E-04  0.1906067E+04  0.7818609E-02  0.8651842E-01
        1   -1    0    0  501    0  0.00000000000E+00  0.00000000000E+00  0.80104698851E+03  0.80104698852E+03  0.50400001928E-02 0. -1.
       -1   -1    0    0    0  501  0.00000000000E+00  0.00000000000E+00 -0.11338572295E+04  0.11338572295E+04  0.50400001928E-02 0.  1.
    10030    2    1    2    0    0  0.00000000000E+00  0.00000000000E+00 -0.33281024101E+03  0.19349042180E+04  0.19060670703E+04 0.  0.
        2    1    3    3  502    0 -0.52469310761E+03  0.79546096611E+03 -0.18118260294E+03  0.96999388729E+03  0.25500000920E-02 0. -1.
       -2    1    3    3    0  502  0.52469310761E+03 -0.79546096611E+03 -0.15162763807E+03  0.96491033076E+03  0.25500000920E-02 0.  1.
</event>
<event>
 5   0  0.2562925E-04  0.1917000E+04  0.7818609E-02  0.8646440E-01
        2   -1    0    0  501    0  0.00000000000E+00  0.00000000000E+00  0.16322872341E+04  0.16322872341E+04  0.25500000920E-02 0. -1.
       -2   -1    0    0    0  501  0.00000000000E+00  0.00000000000E+00 -0.56284363710E+03  0.56284363710E+03  0.25500000920E-02 0.  1.
    10030    2    1    2    0    0  0.00000000000E+00  0.00000000000E+00  0.10694435970E+04  0.21951308712E+04  0.19170002437E+04 0.  0.
        4    1    3    3  502    0  0.63735850006E+03  0.70961333698E+03  0.64301528263E+03  0.11503248290E+04  0.12699999809E+01 0. -1.
       -4    1    3    3    0  502 -0.63735850006E+03 -0.70961333698E+03  0.42642831436E+03  0.10448060422E+04  0.12699999809E+01 0.  1.
</event>
<event>
 5   0  0.1239615E-04  0.1715575E+04  0.7818609E-02  0.8752531E-01
       -1   -1    0    0    0  501  0.00000000000E+00  0.00000000000E+00  0.10236236641E+04  0.10236236641E+04  0.50400001928E-02 0. -1.
        1   -1    0    0  501    0  0.00000000000E+00  0.00000000000E+00 -0.71881853210E+03  0.71881853212E+03  0.50400001928E-02 0.  1.
    10030    2    1    2    0    0  0.00000000000E+00  0.00000000000E+00  0.30480513198E+03  0.17424421962E+04  0.17155753084E+04 0.  0.
        3    1    3    3  502    0  0.38745188409E+03 -0.71927943019E+03  0.41787259163E+03  0.91765972682E+03  0.10100000352E+00 0. -1.
       -3    1    3    3    0  502 -0.38745188409E+03  0.71927943019E+03 -0.11306745965E+03  0.82478246939E+03  0.10100000352E+00 0.  1.
</event>
<event>
 5   0  0.2651828E-04  0.1900406E+04  0.7818609E-02  0.8654654E-01
        2   -1    0    0  501    0  0.00000000000E+00  0.00000000000E+00  0.12937595159E+04  0.12937595159E+04  0.25500000920E-02 0. -1.
       -2   -1    0    0    0  501  0.00000000000E+00  0.00000000000E+00 -0.69787778794E+03  0.69787778794E+03  0.25500000920E-02 0.  1.
    10030    2    1    2    0    0  0.00000000000E+00  0.00000000000E+00  0.59588172795E+03  0.19916373038E+04  0.19004063030E+04 0.  0.
        3    1    3    3  502    0 -0.46583435019E+03 -0.70344376358E+03  0.75601812095E+03  0.11328716519E+04  0.10100000352E+00 0. -1.
       -3    1    3    3    0  502  0.46583435019E+03  0.70344376358E+03 -0.16013639300E+03  0.85876565191E+03  0.10100000352E+00 0.  1.
</event>
<event>
 5   0  0.1277709E-04  0.1898472E+04  0.7818609E-02  0.8655617E-01
       -1   -1    0    0    0  501  0.00000000000E+00  0.00000000000E+00  0.66786367150E+03  0.66786367152E+03  0.50400001928E-02 0.  1.
        1   -1    0    0  501    0  0.00000000000E+00  0.00000000000E+00 -0.13491514013E+04  0.13491514013E+04  0.50400001928E-02 0. -1.
    10030    2    1    2    0    0  0.00000000000E+00  0.00000000000E+00 -0.68128772980E+03  0.20170150728E+04  0.18984722366E+04 0.  0.
        4    1    3    3  502    0  0.14372312668E+03  0.34372659763E+03  0.58693681986E+03  0.69519835621E+03  0.12699999809E+01 0.  1.
       -4    1    3    3    0  502 -0.14372312668E+03 -0.34372659763E+03 -0.12682245497E+04  0.13218167166E+04  0.12699999809E+01 0. -1.
</event>
<event>
 5   0  0.2595012E-04  0.1998923E+04  0.7818609E-02  0.8607125E-01
        2   -1    0    0  501    0  0.00000000000E+00  0.00000000000E+00  0.12627267324E+04  0.12627267324E+04  0.25500000920E-02 0.  1.
       -2   -1    0    0    0  501  0.00000000000E+00  0.00000000000E+00 -0.79108395917E+03  0.79108395918E+03  0.25500000920E-02 0. -1.
    10030    2    1    2    0    0  0.00000000000E+00  0.00000000000E+00  0.47164277321E+03  0.20538106916E+04  0.19989225726E+04 0.  0.
        1    1    3    3  502    0 -0.96257215559E+01 -0.26491411715E+03  0.12259477806E+04  0.12542807121E+04  0.50400001928E-02 0.  1.
       -1    1    3    3    0  502  0.96257215559E+01  0.26491411715E+03 -0.75430500735E+03  0.79952997950E+03  0.50400001928E-02 0. -1.
</event>
<event>
 5   0  0.1324058E-04  0.1834704E+04  0.7818609E-02  0.8688059E-01
        1   -1    0    0  501    0  0.00000000000E+00  0.00000000000E+00  0.15903124788E+04  0.15903124788E+04  0.50400001928E-02 0.  1.
       -1   -1    0    0    0  501  0.00000000000E+00  0.00000000000E+00 -0.52916304803E+03  0.52916304805E+03  0.50400001928E-02 0. -1.
    10030    2    1    2    0    0  0.00000000000E+00  0.00000000000E+00  0.10611494308E+04  0.21194755269E+04  0.18347038983E+04 0.  0.
        5    1    3    3  502    0  0.19113405367E+03 -0.84356090287E+03  0.17755281584E+03  0.88299168497E+03  0.46999998093E+01 0.  1.
       -5    1    3    3    0  502 -0.19113405367E+03  0.84356090287E+03  0.88359661492E+03  0.12364838419E+04  0.46999998093E+01 0. -1.
</event>
<event>
 5   0  0.1277709E-04  0.2004662E+04  0.7818609E-02  0.8604444E-01
       -1   -1    0    0    0  501  0.00000000000E+00  0.00000000000E+00  0.83349272418E+03  0.83349272420E+03  0.50400001928E-02 0. -1.
        1   -1    0    0  501    0  0.00000000000E+00  0.00000000000E+00 -0.12053708460E+04  0.12053708460E+04  0.50400001928E-02 0.  1.
    10030    2    1    2    0    0  0.00000000000E+00  0.00000000000E+00 -0.37187812180E+03  0.20388635702E+04  0.20046623956E+04 0.  0.
        4    1    3    3  502    0 -0.42381479699E+03  0.29421343101E+03 -0.10599522072E+04  0.11788472418E+04  0.12699999809E+01 0.  1.
       -4    1    3    3    0  502  0.42381479699E+03 -0.29421343101E+03  0.68807408540E+03  0.86001632835E+03  0.12699999809E+01 0. -1.
</event>
<event>
 5   0  0.2651828E-04  0.1912628E+04  0.7818609E-02  0.8648596E-01
        2   -1    0    0  501    0  0.00000000000E+00  0.00000000000E+00  0.12241871578E+04  0.12241871578E+04  0.25500000920E-02 0.  1.
       -2   -1    0    0    0  501  0.00000000000E+00  0.00000000000E+00 -0.74705627967E+03  0.74705627968E+03  0.25500000920E-02 0. -1.
    10030    2    1    2    0    0  0.00000000000E+00  0.00000000000E+00  0.47713087810E+03  0.19712434374E+04  0.19126282479E+04 0.  0.
        3    1    3    3  502    0 -0.84547964329E+02  0.88219755459E+03  0.60890440257E+03  0.10752606499E+04  0.10100000352E+00 0.  1.
       -3    1    3    3    0  502  0.84547964329E+02 -0.88219755459E+03 -0.13177352447E+03  0.89598278753E+03  0.10100000352E+00 0. -1.
</event>
<event>
 5   0  0.1324058E-04  0.1893258E+04  0.7818609E-02  0.8658220E-01
       -1   -1    0    0    0  501  0.00000000000E+00  0.00000000000E+00  0.11913745132E+04  0.11913745132E+04  0.50400001928E-02 0.  1.
        1   -1    0    0  501    0  0.00000000000E+00  0.00000000000E+00 -0.75216155273E+03  0.75216155275E+03  0.50400001928E-02 0. -1.
    10030    2    1    2    0    0  0.00000000000E+00  0.00000000000E+00  0.43921296049E+03  0.19435360660E+04  0.18932576198E+04 0.  0.
        5    1    3    3  502    0 -0.70203354081E+03  0.33271154451E+03 -0.33562299422E+03  0.84629365384E+03  0.46999998093E+01 0. -1.
       -5    1    3    3    0  502  0.70203354081E+03 -0.33271154451E+03  0.77483595471E+03  0.10972424121E+04  0.46999998093E+01 0.  1.
</event>
<event>
 5   0  0.1239615E-04  0.1918396E+04  0.7818609E-02  0.8645754E-01
        1   -1    0    0  501    0  0.00000000000E+00  0.00000000000E+00  0.86100073975E+03  0.86100073977E+03  0.50400001928E-02 0. -1.
       -1   -1    0    0    0  501  0.00000000000E+00  0.00000000000E+00 -0.10685941774E+04  0.10685941774E+04  0.50400001928E-02 0.  1.
    10030    2    1    2    0    0  0.00000000000E+00  0.00000000000E+00 -0.20759343763E+03  0.19295949172E+04  0.19183955559E+04 0.  0.
        3    1    3    3  502    0  0.36532452267E+03 -0.76624239050E+03  0.34543232298E+03  0.91646762508E+03  0.10100000352E+00 0. -1.
       -3    1    3    3    0  502 -0.36532452267E+03  0.76624239050E+03 -0.55302576061E+03  0.10131272921E+04  0.10100000352E+00 0.  1.
</event>
<event>
 5   0  0.1255141E-04  0.1872271E+04  0.7818609E-02  0.8668783E-01
        1   -1    0    0  501    0  0.00000000000E+00  0.00000000000E+00  0.82715895469E+03  0.82715895471E+03  0.50400001928E-02 0. -1.
       -1   -1    0    0    0  501  0.00000000000E+00  0.00000000000E+00 -0.10594693101E+04  0.10594693101E+04  0.50400001928E-02 0.  1.
    10030    2    1    2    0    0  0.00000000000E+00  0.00000000000E+00 -0.23231035536E+03  0.18866282648E+04  0.18722708427E+04 0.  0.
        2    1    3    3  502    0  0.18183043000E+03 -0.60617755759E+03 -0.81125360562E+03  0.10289052188E+04  0.25500000920E-02 0.  1.
       -2    1    3    3    0  502 -0.18183043000E+03  0.60617755759E+03  0.57894325026E+03  0.85772304599E+03  0.25500000920E-02 0. -1.
</event>
<event>
 5   0  0.2608744E-04  0.1903959E+04  0.7818609E-02  0.8652888E-01
        2   -1    0    0  501    0  0.00000000000E+00  0.00000000000E+00  0.16393687382E+04  0.16393687382E+04  0.25500000920E-02 0. -1.
       -2   -1    0    0    0  501  0.00000000000E+00  0.00000000000E+00 -0.55281328701E+03  0.55281328702E+03  0.25500000920E-02 0.  1.
    10030    2    1    2    0    0  0.00000000000E+00  0.00000000000E+00  0.10865554512E+04  0.21921820252E+04  0.19039588449E+04 0.  0.
        2    1    3    3  502    0  0.59606691332E+03  0.73396160550E+03  0.41574224460E+03  0.10328780264E+04  0.25500000920E-02 0.  1.
       -2    1    3    3    0  502 -0.59606691332E+03 -0.73396160550E+03  0.67081320659E+03  0.11593039988E+04  0.25500000920E-02 0. -1.
</event>
<event>
 5   0  0.1255141E-04  0.1885253E+04  0.7818609E-02  0.8662232E-01
       -1   -1    0    0    0  501  0.00000000000E+00  0.00000000000E+00  0.55407112116E+03  0.55407112118E+03  0.50400001928E-02 0. -1.
        1   -1    0    0  501    0  0.00000000000E+00  0.00000000000E+00 -0.16036658794E+04  0.16036658794E+04  0.50400001928E-02 0.  1.
    10030    2    1    2    0    0  0.00000000000E+00  0.00000000000E+00 -0.10495947582E+04  0.21577370006E+04  0.18852532475E+04 0.  0.
        2    1    3    3  502    0 -0.31020388743E+03  0.85661268857E+03 -0.80170183969E+03  0.12135640032E+04  0.25500000920E-02 0.  1.
       -2    1    3    3    0  502  0.31020388743E+03 -0.85661268857E+03 -0.24789291854E+03  0.94417299742E+03  0.25500000920E-02 0. -1.
</event>
<event>
 5   0  0.1255141E-04  0.1686746E+04  0.7818609E-02  0.8768960E-01
        1   -1    0    0  501    0  0.00000000000E+00  0.00000000000E+00  0.16021775235E+04  0.16021775235E+04  0.50400001928E-02 0. -1.
       -1   -1    0    0    0  501  0.00000000000E+00  0.00000000000E+00 -0.44394472643E+03  0.44394472646E+03  0.50400001928E-02 0.  1.
    10030    2    1    2    0    0  0.00000000000E+00  0.00000000000E+00  0.11582327971E+04  0.20461222500E+04  0.16867462908E+04 0.  0.
        2    1    3    3  502    0 -0.12502432934E+03 -0.76450625295E+03  0.17464295756E+03  0.79410393297E+03  0.25500000920E-02 0. -1.
       -2    1    3    3    0  502  0.12502432934E+03  0.76450625295E+03  0.98358983955E+03  0.12520183170E+04  0.25500000920E-02 0.  1.
</event>
<event>
 5   0  0.1239615E-04  0.1895050E+04  0.7818609E-02  0.8657324E-01
        1   -1    0    0  501    0  0.00000000000E+00  0.00000000000E+00  0.89398152332E+03  0.89398152334E+03  0.50400001928E-02 0.  1.
       -1   -1    0    0    0  501  0.00000000000E+00  0.00000000000E+00 -0.10042749807E+04  0.10042749807E+04  0.50400001928E-02 0. -1.
    10030    2    1    2    0    0  0.00000000000E+00  0.00000000000E+00 -0.11029345735E+03  0.18982565040E+04  0.18950496322E+04 0.  0.
        3    1    3    3  502    0  0.63603576165E+02 -0.90842825839E+03  0.20705174180E+03  0.93389386416E+03  0.10100000352E+00 0.  1.
       -3    1    3    3    0  502 -0.63603576165E+02  0.90842825839E+03 -0.31734519916E+03  0.96436263986E+03  0.10100000352E+00 0. -1.
</event>
<event>
 5   0  0.2595012E-04  0.1882527E+04  0.7818609E-02  0.8663603E-01
       -2   -1    0    0    0  501  0.00000000000E+00  0.00000000000E+00  0.12344976310E+04  0.12344976310E+04  0.25500000920E-02 0. -1.
        2   -1    0    0  501    0  0.00000000000E+00  0.00000000000E+00 -0.71768182751E+03  0.71768182751E+03  0.25500000920E-02 0.  1.
    10030    2    1    2    0    0  0.00000000000E+00  0.00000000000E+00  0.51681580346E+03  0.19521794585E+04  0.18825265107E+04 0.  0.
        1    1    3    3  502    0 -0.47382595419E+03  0.35169941605E+03 -0.50205518037E+03  0.77476636367E+03  0.50400001928E-02 0.  1.
       -1    1    3    3    0  502  0.47382595419E+03 -0.35169941605E+03  0.10188709838E+04  0.11774130948E+04  0.50400001928E-02 0. -1.
</event>
<event>
 5   0  0.2562925E-04  0.1914834E+04  0.7818609E-02  0.8647508E-01
       -2   -1    0    0    0  501  0.00000000000E+00  0.00000000000E+00  0.14858316430E+04  0.14858316430E+04  0.25500000920E-02 0.  1.
        2   -1    0    0  501    0  0.00000000000E+00  0.00000000000E+00 -0.61692549854E+03  0.61692549854E+03  0.25500000920E-02 0. -1.
    10030    2    1    2    0    0  0.00000000000E+00  0.00000000000E+00  0.86890614445E+03  0.21027571415E+04  0.19148341203E+04 0.  0.
        4    1    3    3  502    0  0.70309051660E+03  0.62819320455E+03  0.25174267567E+03  0.97587856028E+03  0.12699999809E+01 0. -1.
       -4    1    3    3    0  502 -0.70309051660E+03 -0.62819320455E+03  0.61716346879E+03  0.11268785812E+04  0.12699999809E+01 0.  1.
</event>
<event>
 5   0  0.1317527E-04  0.1924038E+04  0.7818609E-02  0.8642983E-01
       -1   -1    0    0    0  501  0.00000000000E+00  0.00000000000E+00  0.66500468039E+03  0.66500468041E+03  0.50400001928E-02 0. -1.
        1   -1    0    0  501    0  0.00000000000E+00  0.00000000000E+00 -0.13916908445E+04  0.13916908445E+04  0.50400001928E-02 0.  1.
    10030    2    1    2    0    0  0.00000000000E+00  0.00000000000E+00 -0.72668616414E+03  0.20566955249E+04  0.19240383835E+04 0.  0.
        1    1    3    3  502    0 -0.22609967620E+03  0.88426009736E+03 -0.38333998287E+02  0.91351326143E+03  0.50400001928E-02 0. -1.
       -1    1    3    3    0  502  0.22609967620E+03 -0.88426009736E+03 -0.68835216585E+03  0.11431822635E+04  0.50400001928E-02 0.  1.
</event>
<event>
 5   0  0.2595012E-04  0.1905195E+04  0.7818609E-02  0.8652275E-01
        2   -1    0    0  501    0  0.00000000000E+00  0.00000000000E+00  0.70644956434E+03  0.70644956434E+03  0.25500000920E-02 0.  1.
       -2   -1    0    0    0  501  0.00000000000E+00  0.00000000000E+00 -0.12845106304E+04  0.12845106304E+04  0.25500000920E-02 0. -1.
    10030    2    1    2    0    0  0.00000000000E+00  0.00000000000E+00 -0.57806106606E+03  0.19909601947E+04  0.19051949771E+04 0.  0.
        1    1    3    3  502    0  0.89782192530E+03  0.30271650180E+03 -0.18599972141E+03  0.96556583743E+03  0.50400001928E-02 0. -1.
       -1    1    3    3    0  502 -0.89782192530E+03 -0.30271650180E+03 -0.39206134465E+03  0.10253943573E+04  0.50400001928E-02 0.  1.
</event>
<event>
 5   0  0.2562925E-04  0.1835416E+04  0.7818609E-02  0.8687689E-01
        2   -1    0    0  501    0  0.00000000000E+00  0.00000000000E+00  0.48039848670E+03  0.48039848671E+03  0.25500000920E-02 0.  1.
       -2   -1    0    0    0  501  0.00000000000E+00  0.00000000000E+00 -0.17531035480E+04  0.17531035480E+04  0.25500000920E-02 0. -1.
    10030    2    1    2    0    0  0.00000000000E+00  0.00000000000E+00 -0.12727050613E+04  0.22335020347E+04  0.18354163468E+04 0.  0.
        4    1    3    3  502    0  0.36016345640E+03 -0.74515672042E+03 -0.15385796262E+03  0.84181360103E+03  0.12699999809E+01 0. -1.
       -4    1    3    3    0  502 -0.36016345640E+03  0.74515672042E+03 -0.11188470987E+04  0.13916884337E+04  0.12699999809E+01 0.  1.
</event>
<event>
 5   0  0.2541124E-04  0.1896737E+04  0.7818609E-02  0.8656482E-01
       -2   -1    0    0    0  501  0.00000000000E+00  0.00000000000E+00  0.82902468643E+03  0.82902468643E+03  0.25500000920E-02 0.  1.
        2   -1    0    0  501    0  0.00000000000E+00  0.00000000000E+00 -0.10848923270E+04  0.10848923270E+04  0.25500000920E-02 0. -1.
    10030    2    1    2    0    0  0.00000000000E+00  0.00000000000E+00 -0.25586764055E+03  0.19139170134E+04  0.18967366936E+04 0.  0.
        5    1    3    3  502    0  0.69585015178E+03  0.53824040251E+03  0.22949244843E+03  0.90917492184E+03  0.46999998093E+01 0. -1.
       -5    1    3    3    0  502 -0.69585015178E+03 -0.53824040251E+03 -0.48536008898E+03  0.10047420916E+04  0.46999998093E+01 0.  1.
</event>
<event>
 5   0  0.2595012E-04  0.1923578E+04  0.7818609E-02  0.8643208E-01
       -2   -1    0    0    0  501  0.00000000000E+00  0.00000000000E+00  0.78664433054E+03  0.78664433055E+03  0.25500000920E-02 0. -1.
        2   -1    0    0  501    0  0.00000000000E+00  0.00000000000E+00 -0.11759292740E+04  0.11759292740E+04  0.25500000920E-02 0.  1.
    10030    2    1    2    0    0  0.00000000000E+00  0.00000000000E+00 -0.38928494345E+03  0.19625736045E+04  0.19235780166E+04 0.  0.
        1    1    3    3  502    0  0.47976392401E+02  0.17667573949E+03 -0.11579882351E+04  0.11723705915E+04  0.50400001928E-02 0.  1.
       -1    1    3    3    0  502 -0.47976392401E+02 -0.17667573949E+03  0.76870329167E+03  0.79020301303E+03  0.50400001928E-02 0. -1.
</event>
<event>
 5   0  0.2541124E-04  0.1890178E+04  0.7818609E-02  0.8659761E-01
       -2   -1    0    0    0  501  0.00000000000E+00  0.00000000000E+00  0.14621463721E+04  0.14621463721E+04  0.25500000920E-02 0. -1.
        2   -1    0    0  501    0  0.00000000000E+00  0.00000000000E+00 -0.61087834557E+03  0.61087834558E+03  0.25500000920E-02 0.  1.
    10030    2    1    2    0    0  0.00000000000E+00  0.00000000000E+00  0.85126802649E+03  0.20730247176E+04  0.18901783585E+04 0.  0.
        5    1    3    3  502    0  0.47422477922E+01 -0.86985092618E+03  0.83084507561E+03  0.12029084555E+04  0.46999998093E+01 0. -1.
       -5    1    3    3    0  502 -0.47422477922E+01  0.86985092618E+03  0.20422950877E+02  0.87011626212E+03  0.46999998093E+01 0.  1.
</event>
<event>
 5   0  0.2595012E-04  0.1847724E+04  0.7818609E-02  0.8681324E-01
       -2   -1    0    0    0  501  0.00000000000E+00  0.00000000000E+00  0.67226333861E+03  0.67226333862E+03  0.25500000920E-02 0. -1.
        2   -1    0    0  501    0  0.00000000000E+00  0.00000000000E+00 -0.12696236504E+04  0.12696236504E+04  0.25500000920E-02 0.  1.
    10030    2    1    2    0    0  0.00000000000E+00  0.00000000000E+00 -0.59736031183E+03  0.19418869891E+04  0.18477244752E+04 0.  0.
        1    1    3    3  502    0  0.32635016055E+03  0.49889773620E+03 -0.10404221754E+04  0.11991170425E+04  0.50400001928E-02 0.  1.
       -1    1    3    3    0  502 -0.32635016055E+03 -0.49889773620E+03  0.44306186361E+03  0.74276994654E+03  0.50400001928E-02 0. -1.
</event>
<event>
 5   0  0.1277709E-04  0.1905194E+04  0.7818609E-02  0.8652276E-01
        1   -1    0    0  501    0  0.00000000000E+00  0.00000000000E+00  0.13822708629E+04  0.13822708629E+04  0.50400001928E-02 0. -1.
       -1   -1    0    0    0  501  0.00000000000E+00  0.00000000000E+00 -0.65648538977E+03  0.65648538979E+03  0.50400001928E-02 0.  1.
    10030    2    1    2    0    0  0.00000000000E+00  0.00000000000E+00  0.72578547313E+03  0.20387562527E+04  0.19051935610E+04 0.  0.
        4    1    3    3  502    0  0.85049526401E+03 -0.18702585936E+03  0.77612236271E+03  0.11664854911E+04  0.12699999809E+01 0. -1.
       -4    1    3    3    0  502 -0.85049526401E+03  0.18702585936E+03 -0.50336889580E+02  0.87227076159E+03  0.12699999809E+01 0.  1.
</event>
<event>
 5   0  0.1239615E-04  0.1902457E+04  0.7818609E-02  0.8653634E-01
        1   -1    0    0  501    0  0.00000000000E+00  0.00000000000E+00  0.10575584208E+04  0.10575584208E+04  0.50400001928E-02 0.  1.
       -1   -1    0    0    0  501  0.00000000000E+00  0.00000000000E+00 -0.85558908726E+03  0.85558908727E+03  0.50400001928E-02 0. -1.
    10030    2    1    2    0    0  0.00000000000E+00  0.00000000000E+00  0.20196933350E+03  0.19131475080E+04  0.19024567737E+04 0.  0.
        3    1    3    3  502    0  0.59238525570E+03 -0.78804988820E+02 -0.64324500034E+03  0.87800606951E+03  0.10100000352E+00 0. -1.
       -3    1    3    3    0  502 -0.59238525570E+03  0.78804988820E+02  0.84521433384E+03  0.10351414385E+04  0.10100000352E+00 0.  1.
</event>
<event>
 5   0  0.2595012E-04  0.1867396E+04  0.7818609E-02  0.8671258E-01
        2   -1    0    0  501    0  0.00000000000E+00  0.00000000000E+00  0.21391926650E+04  0.21391926650E+04  0.25500000920E-02 0. -1.
       -2   -1    0    0    0  501  0.00000000000E+00  0.00000000000E+00 -0.40753324019E+03  0.40753324019E+03  0.25500000920E-02 0.  1.
    10030    2    1    2    0    0  0.00000000000E+00  0.00000000000E+00  0.17316594248E+04  0.25467259052E+04  0.18673961745E+04 0.  0.
        1    1    3    3  502    0 -0.72307515648E+03 -0.41635667826E+03  0.29433802603E+03  0.88477423055E+03  0.50400001928E-02 0.  1.
       -1    1    3    3    0  502  0.72307515648E+03  0.41635667826E+03  0.14373213988E+04  0.16619516747E+04  0.50400001928E-02 0. -1.
</event>
<event>
 5   0  0.1255141E-04  0.1929029E+04  0.7818609E-02  0.8640540E-01
        1   -1    0    0  501    0  0.00000000000E+00  0.00000000000E+00  0.93261781112E+03  0.93261781113E+03  0.50400001928E-02 0.  1.
       -1   -1    0    0    0  501  0.00000000000E+00  0.00000000000E+00 -0.99750243551E+03  0.99750243552E+03  0.50400001928E-02 0. -1.
    10030    2    1    2    0    0  0.00000000000E+00  0.00000000000E+00 -0.64884624387E+02  0.19301202467E+04  0.19290293290E+04 0.  0.
        2    1    3    3  502    0 -0.27129487604E+03  0.42991458860E+03 -0.85257717942E+03  0.99263050030E+03  0.25500000920E-02 0. -1.
       -2    1    3    3    0  502  0.27129487604E+03 -0.42991458860E+03  0.78769255503E+03  0.93748974635E+03  0.25500000920E-02 0.  1.
</event>
<event>
 5   0  0.2608744E-04  0.1852810E+04  0.7818609E-02  0.8678709E-01
        2   -1    0    0  501    0  0.00000000000E+00  0.00000000000E+00  0.20452382447E+04  0.20452382447E+04  0.25500000920E-02 0.  1.
       -2   -1    0    0    0  501  0.00000000000E+00  0.00000000000E+00 -0.41962171596E+03  0.41962171597E+03  0.25500000920E-02 0. -1.
    10030    2    1    2    0    0  0.00000000000E+00  0.00000000000E+00  0.16256165287E+04  0.24648599606E+04  0.18528101703E+04 0.  0.
        2    1    3    3  502    0  0.46137389847E+03  0.48696587808E+03 -0.37176195032E+02  0.67185095823E+03  0.25500000920E-02 0. -1.
       -2    1    3    3    0  502 -0.46137389847E+03 -0.48696587808E+03  0.16627927237E+04  0.17930090024E+04  0.25500000920E-02 0.  1.
</event>
<event>
 5   0  0.1277709E-04  0.1901225E+04  0.7818609E-02  0.8654247E-01
       -1   -1    0    0    0  501  0.00000000000E+00  0.00000000000E+00  0.91568369208E+03  0.91568369209E+03  0.50400001928E-02 0.  1.
        1   -1    0    0  501    0  0.00000000000E+00  0.00000000000E+00 -0.98687392070E+03  0.98687392071E+03  0.50400001928E-02 0. -1.
    10030    2    1    2    0    0  0.00000000000E+00  0.00000000000E+00 -0.71190228624E+02  0.19025576128E+04  0.19012252421E+04 0.  0.
        4    1    3    3  502    0  0.77036189460E+03  0.43512349046E+03  0.31231624735E+03  0.93826059911E+03  0.12699999809E+01 0. -1.
       -4    1    3    3    0  502 -0.77036189460E+03 -0.43512349046E+03 -0.38350647597E+03  0.96429701369E+03  0.12699999809E+01 0.  1.
</event>
<event>
 5   0  0.2541124E-04  0.1912079E+04  0.7818609E-02  0.8648867E-01
        2   -1    0    0  501    0  0.00000000000E+00  0.00000000000E+00  0.61347053212E+03  0.61347053212E+03  0.25500000920E-02 0.  1.
       -2   -1    0    0    0  501  0.00000000000E+00  0.00000000000E+00 -0.14899033446E+04  0.14899033446E+04  0.25500000920E-02 0. -1.
    10030    2    1    2    0    0  0.00000000000E+00  0.00000000000E+00 -0.87643281247E+03  0.21033738767E+04  0.19120792846E+04 0.  0.
        5    1    3    3  502    0 -0.48236167772E+03  0.21200077704E+03 -0.13157551747E+04  0.14173393692E+04  0.46999998093E+01 0. -1.
       -5    1    3    3    0  502  0.48236167772E+03 -0.21200077704E+03  0.43932236223E+03  0.68603450755E+03  0.46999998093E+01 0.  1.
</event>
<event>
 5   0  0.1317527E-04  0.1856325E+04  0.7818609E-02  0.8676907E-01
       -1   -1    0    0    0  501  0.00000000000E+00  0.00000000000E+00  0.55733304690E+03  0.55733304693E+03  0.50400001928E-02 0.  1.
        1   -1    0    0  501    0  0.00000000000E+00  0.00000000000E+00 -0.15457286714E+04  0.15457286714E+04  0.50400001928E-02 0. -1.
    10030    2    1    2    0    0  0.00000000000E+00  0.00000000000E+00 -0.98839562449E+03  0.21030617183E+04  0.18563250471E+04 0.  0.
        1    1    3    3  502    0  0.34863508774E+03 -0.31236367899E+03 -0.14022064975E+04  0.14782762103E+04  0.50400001928E-02 0. -1.
       -1    1    3    3    0  502 -0.34863508774E+03  0.31236367899E+03  0.41381087301E+03  0.62478550800E+03  0.50400001928E-02 0.  1.
</event>
<event>
 5   0  0.2595012E-04  0.1898903E+04  0.7818609E-02  0.8655402E-01
        2   -1    0    0  501    0  0.00000000000E+00  0.00000000000E+00  0.74788511344E+03  0.74788511345E+03  0.25500000920E-02 0. -1.
       -2   -1    0    0    0  501  0.00000000000E+00  0.00000000000E+00 -0.12053434678E+04  0.12053434678E+04  0.25500000920E-02 0.  1.
    10030    2    1    2    0    0  0.00000000000E+00  0.00000000000E+00 -0.45745835433E+03  0.19532285812E+04  0.18989033005E+04 0.  0.
        1    1    3    3  502    0 -0.33827036590E+03 -0.86069978748E+03 -0.44988597394E+03  0.10284105961E+04  0.50400001928E-02 0.  1.
       -1    1    3    3    0  502  0.33827036590E+03  0.86069978748E+03 -0.75723803921E+01  0.92481798511E+03  0.50400001928E-02 0. -1.
</event>
<event>
 5   0  0.1255141E-04  0.1914422E+04  0.7818609E-02  0.8647711E-01
       -1   -1    0    0    0  501  0.00000000000E+00  0.00000000000E+00  0.10103994087E+04  0.10103994087E+04  0.50400001928E-02 0. -1.
        1   -1    0    0  501    0  0.00000000000E+00  0.00000000000E+00 -0.90682217231E+03  0.90682217233E+03  0.50400001928E-02 0.  1.
    10030    2    1    2    0    0  0.00000000000E+00  0.00000000000E+00  0.10357723637E+03  0.19172215810E+04  0.19144216742E+04 0.  0.
        2    1    3    3  502    0 -0.45499335454E+03  0.53802328763E+03 -0.59705135731E+03  0.92355743404E+03  0.25500000920E-02 0.  1.
       -2    1    3    3    0  502  0.45499335454E+03 -0.53802328763E+03  0.70062859368E+03  0.99366414698E+03  0.25500000920E-02 0. -1.
</event>
<event>
 5   0  0.1255141E-04  0.1875577E+04  0.7818609E-02  0.8667109E-01
        1   -1    0    0  501    0  0.00000000000E+00  0.00000000000E+00  0.11574410758E+04  0.11574410758E+04  0.50400001928E-02 0. -1.
       -1   -1    0    0    0  501  0.00000000000E+00  0.00000000000E+00 -0.75982060629E+03  0.75982060630E+03  0.50400001928E-02 0.  1.
    10030    2    1    2    0    0  0.00000000000E+00  0.00000000000E+00  0.39762046951E+03  0.19172616821E+04  0.18755773298E+04 0.  0.
        2    1    3    3  502    0  0.50428348791E+03  0.24521619363E+03  0.96719070031E+03  0.11179850932E+04  0.25500000920E-02 0. -1.
       -2    1    3    3    0  502 -0.50428348791E+03 -0.24521619363E+03 -0.56957023080E+03  0.79927658893E+03  0.25500000920E-02 0.  1.
</event>
<event>
 5   0  0.1324058E-04  0.1900736E+04  0.7818609E-02  0.8654490E-01
        1   -1    0    0  501    0  0.00000000000E+00  0.00000000000E+00  0.13763637733E+04  0.13763637733E+04  0.50400001928E-02 0. -1.
       -1   -1    0    0    0  501  0.00000000000E+00  0.00000000000E+00 -0.65622150797E+03  0.65622150799E+03  0.50400001928E-02 0.  1.
    10030    2    1    2    0    0  0.00000000000E+00  0.00000000000E+00  0.72014226532E+03  0.20325852813E+04  0.19007361846E+04 0.  0.
        5    1    3    3  502    0 -0.36664698378E+03  0.29839300518E+03  0.12417053796E+04  0.13286544833E+04  0.46999998093E+01 0. -1.
       -5    1    3    3    0  502  0.36664698378E+03 -0.29839300518E+03 -0.52156311425E+03  0.70393079802E+03  0.46999998093E+01 0.  1.
</event>
<event>
 5   0  0.1324058E-04  0.1938345E+04  0.7818609E-02  0.8636002E-01
       -1   -1    0    0    0  501  0.00000000000E+00  0.00000000000E+00  0.73559034939E+03  0.73559034941E+03  0.50400001928E-02 0.  1.
        1   -1    0    0  501    0  0.00000000000E+00  0.00000000000E+00 -0.12769270295E+04  0.12769270295E+04  0.50400001928E-02 0. -1.
    10030    2    1    2    0    0  0.00000000000E+00  0.00000000000E+00 -0.54133668012E+03  0.20125173789E+04  0.19383448608E+04 0.  0.
        5    1    3    3  502    0  0.47318404932E+03 -0.33086042515E+02 -0.11481567765E+04  0.12422897827E+04  0.46999998093E+01 0. -1.
       -5    1    3    3    0  502 -0.47318404932E+03  0.33086042515E+02  0.60682009634E+03  0.77022759627E+03  0.46999998093E+01 0.  1.
</event>
<event>
 5   0  0.1277709E-04  0.1915642E+04  0.7818609E-02  0.8647109E-01
       -1   -1    0    0    0  501  0.00000000000E+00  0.00000000000E+00  0.81365694874E+03  0.81365694875E+03  0.50400001928E-02 0. -1.
        1   -1    0    0  501    0  0.00000000000E+00  0.00000000000E+00 -0.11275282134E+04  0.11275282134E+04  0.50400001928E-02 0.  1.
    10030    2    1    2    0    0  0.00000000000E+00  0.00000000000E+00 -0.31387126466E+03  0.19411851622E+04  0.19156421020E+04 0.  0.
        4    1    3    3  502    0  0.82851742397E+03 -0.44028815471E+03  0.38311420143E+02  0.93902298099E+03  0.12699999809E+01 0. -1.
       -4    1    3    3    0  502 -0.82851742397E+03  0.44028815471E+03 -0.35218268481E+03  0.10021621812E+04  0.12699999809E+01 0.  1.
</event>
<event>
 5   0  0.2562925E-04  0.1796678E+04  0.7818609E-02  0.8708068E-01
       -2   -1    0    0    0  501  0.00000000000E+00  0.00000000000E+00  0.13583370884E+04  0.13583370884E+04  0.25500000920E-02 0. -1.
        2   -1    0    0  501    0  0.00000000000E+00  0.00000000000E+00 -0.59411802081E+03  0.59411802081E+03  0.25500000920E-02 0.  1.
    10030    2    1    2    0    0  0.00000000000E+00  0.00000000000E+00  0.76421906764E+03  0.19524551093E+04  0.17966775365E+04 0.  0.
        4    1    3    3  502    0  0.25404670943E+03  0.86165742985E+03  0.38667791426E+03  0.97801568457E+03  0.12699999809E+01 0.  1.
       -4    1    3    3    0  502 -0.25404670943E+03 -0.86165742985E+03  0.37754115337E+03  0.97443942469E+03  0.12699999809E+01 0. -1.
</event>
<event>
 5   0  0.2595012E-04  0.1821085E+04  0.7818609E-02  0.8695166E-01
       -2   -1    0    0    0  501  0.00000000000E+00  0.00000000000E+00  0.50173176714E+03  0.50173176714E+03  0.25500000920E-02 0.  1.
        2   -1    0    0  501    0  0.00000000000E+00  0.00000000000E+00 -0.16524525577E+04  0.16524525577E+04  0.25500000920E-02 0. -1.
    10030    2    1    2    0    0  0.00000000000E+00  0.00000000000E+00 -0.11507207905E+04  0.21541843248E+04  0.18210853268E+04 0.  0.
        1    1    3    3  502    0  0.35853395994E+02 -0.50993606829E+03  0.31596832490E+03  0.60096276267E+03  0.50400001928E-02 0.  1.
       -1    1    3    3    0  502 -0.35853395994E+02  0.50993606829E+03 -0.14666891154E+04  0.15532215622E+04  0.50400001928E-02 0. -1.
</event>
<event>
 5   0  0.2541124E-04  0.1843228E+04  0.7818609E-02  0.8683643E-01
        2   -1    0    0  501    0  0.00000000000E+00  0.00000000000E+00  0.95592838173E+03  0.95592838173E+03  0.25500000920E-02 0. -1.
       -2   -1    0    0    0  501  0.00000000000E+00  0.00000000000E+00 -0.88853129039E+03  0.88853129039E+03  0.25500000920E-02 0.  1.
    10030    2    1    2    0    0  0.00000000000E+00  0.00000000000E+00  0.67397091342E+02  0.18444596721E+04  0.18432279062E+04 0.  0.
        5    1    3    3  502    0 -0.34397464969E+03  0.11879288794E+03 -0.81357849564E+03  0.89127008725E+03  0.46999998093E+01 0.  1.
       -5    1    3    3    0  502  0.34397464969E+03 -0.11879288794E+03  0.88097558699E+03  0.95318958488E+03  0.46999998093E+01 0. -1.
</event>
<event>
 5   0  0.2608744E-04  0.1905847E+04  0.7818609E-02  0.8651951E-01
       -2   -1    0    0    0  501  0.00000000000E+00  0.00000000000E+00  0.11933859733E+04  0.11933859733E+04  0.25500000920E-02 0. -1.
        2   -1    0    0  501    0  0.00000000000E+00  0.00000000000E+00 -0.76091357009E+03  0.76091357009E+03  0.25500000920E-02 0.  1.
    10030    2    1    2    0    0  0.00000000000E+00  0.00000000000E+00  0.43247240323E+03  0.19542995434E+04  0.19058474036E+04 0.  0.
        2    1    3    3  502    0 -0.43889479848E+03  0.16703551922E+03  0.10664930107E+04  0.11653054753E+04  0.25500000920E-02 0. -1.
       -2    1    3    3    0  502  0.43889479848E+03 -0.16703551922E+03 -0.63402060749E+03  0.78899406813E+03  0.25500000920E-02 0.  1.
</event>
<event>
 5   0  0.1255141E-04  0.1846342E+04  0.7818609E-02  0.8682036E-01
       -1   -1    0    0    0  501  0.00000000000E+00  0.00000000000E+00  0.36948232014E+03  0.36948232018E+03  0.50400001928E-02 0.  1.
        1   -1    0    0  501    0  0.00000000000E+00  0.00000000000E+00 -0.23065924997E+04  0.23065924997E+04  0.50400001928E-02 0. -1.
    10030    2    1    2    0    0  0.00000000000E+00  0.00000000000E+00 -0.19371101795E+04  0.26760748198E+04  0.18463424909E+04 0.  0.
        2    1    3    3  502    0 -0.82512049419E+03 -0.19359673271E+03 -0.43810592898E+03  0.95406516018E+03  0.25500000920E-02 0.  1.
       -2    1    3    3    0  502  0.82512049419E+03  0.19359673271E+03 -0.14990042505E+04  0.17220096597E+04  0.25500000920E-02 0. -1.
</event>
<event>
 5   0  0.1317527E-04  0.1888428E+04  0.7818609E-02  0.8660638E-01
        1   -1    0    0  501    0  0.00000000000E+00  0.00000000000E+00  0.88788428415E+03  0.88788428416E+03  0.50400001928E-02 0. -1.
       -1   -1    0    0    0  501  0.00000000000E+00  0.00000000000E+00 -0.10041173616E+04  0.10041173616E+04  0.50400001928E-02 0.  1.
    10030    2    1    2    0    0  0.00000000000E+00  0.00000000000E+00 -0.11623307744E+03  0.18920016458E+04  0.18884279439E+04 0.  0.
        1    1    3    3  502    0 -0.77658756383E+03  0.53284444290E+03  0.93055374634E+01  0.94185882046E+03  0.50400001928E-02 0. -1.
       -1    1    3    3    0  502  0.77658756383E+03 -0.53284444290E+03 -0.12553861490E+03  0.95014282530E+03  0.50400001928E-02 0.  1.
</event>
<event>
 5   0  0.2541124E-04  0.1882509E+04  0.7818609E-02  0.8663612E-01
       -2   -1    0    0    0  501  0.00000000000E+00  0.00000000000E+00  0.10932583422E+04  0.10932583422E+04  0.25500000920E-02 0.  1.
        2   -1    0    0  501    0  0.00000000000E+00  0.00000000000E+00 -0.81038469873E+03  0.81038469874E+03  0.25500000920E-02 0. -1.
    10030    2    1    2    0    0  0.00000000000E+00  0.00000000000E+00  0.28287364351E+03  0.19036430410E+04  0.18825087860E+04 0.  0.
        5    1    3    3  502    0 -0.42049321923E+03  0.10961793728E+03 -0.70286603280E+03  0.82636153690E+03  0.46999998093E+01 0. -1.
       -5    1    3    3    0  502  0.42049321923E+03 -0.10961793728E+03  0.98573967631E+03  0.10772815041E+04  0.46999998093E+01 0.  1.
</event>
<event>
 5   0  0.2595012E-04  0.1909937E+04  0.7818609E-02  0.8649926E-01
       -2   -1    0    0    0  501  0.00000000000E+00  0.00000000000E+00  0.78530092540E+03  0.78530092540E+03  0.25500000920E-02 0. -1.
        2   -1    0    0  501    0  0.00000000000E+00  0.00000000000E+00 -0.11612940009E+04  0.11612940009E+04  0.25500000920E-02 0.  1.
    10030    2    1    2    0    0  0.00000000000E+00  0.00000000000E+00 -0.37599307552E+03  0.19465949263E+04  0.19099374373E+04 0.  0.
        1    1    3    3  502    0  0.80330376910E+03  0.21822603894E+03  0.28900943344E+03  0.88116173440E+03  0.50400001928E-02 0. -1.
       -1    1    3    3    0  502 -0.80330376910E+03 -0.21822603894E+03 -0.66500250896E+03  0.10654331919E+04  0.50400001928E-02 0.  1.
</event>
<event>
 5   0  0.9266125E-05  0.1942711E+04  0.7818609E-02  0.8633884E-01
        3   -1    0    0  501    0  0.00000000000E+00  0.00000000000E+00  0.65991141394E+03  0.65991142167E+03  0.10100000352E+00 0.  1.
       -3   -1    0    0    0  501  0.00000000000E+00  0.00000000000E+00 -0.14297855802E+04  0.14297855838E+04  0.10100000352E+00 0. -1.
    10030    2    1    2    0    0  0.00000000000E+00  0.00000000000E+00 -0.76987416626E+03  0.20896970054E+04  0.19427113380E+04 0.  0.
        2    1    3    3  502    0 -0.90533861883E+03 -0.17756532292E+03 -0.58027766131E+02  0.92441045012E+03  0.25500000920E-02 0. -1.
       -2    1    3    3    0  502  0.90533861883E+03  0.17756532292E+03 -0.71184640013E+03  0.11652865553E+04  0.25500000920E-02 0.  1.
</event>
<event>
 5   0  0.1239615E-04  0.1917537E+04  0.7818609E-02  0.8646176E-01
       -1   -1    0    0    0  501  0.00000000000E+00  0.00000000000E+00  0.73900770927E+03  0.73900770929E+03  0.50400001928E-02 0.  1.
        1   -1    0    0  501    0  0.00000000000E+00  0.00000000000E+00 -0.12438808022E+04  0.12438808022E+04  0.50400001928E-02 0. -1.
    10030    2    1    2    0    0  0.00000000000E+00  0.00000000000E+00 -0.50487309294E+03  0.19828885115E+04  0.19175374857E+04 0.  0.
        3    1    3    3  502    0  0.55252214779E+03 -0.49474330309E+03 -0.88075085084E+03  0.11514224816E+04  0.10100000352E+00 0. -1.
       -3    1    3    3    0  502 -0.55252214779E+03  0.49474330309E+03  0.37587775790E+03  0.83146602988E+03  0.10100000352E+00 0.  1.
</event>
<event>
 5   0  0.2541124E-04  0.1961371E+04  0.7818609E-02  0.8624897E-01
       -2   -1    0    0    0  501  0.00000000000E+00  0.00000000000E+00  0.70899481046E+03  0.70899481047E+03  0.25500000920E-02 0. -1.
        2   -1    0    0  501    0  0.00000000000E+00  0.00000000000E+00 -0.13564891345E+04  0.13564891345E+04  0.25500000920E-02 0.  1.
    10030    2    1    2    0    0  0.00000000000E+00  0.00000000000E+00 -0.64749432405E+03  0.20654839450E+04  0.19613707011E+04 0.  0.
        5    1    3    3  502    0 -0.30994106299E+03  0.16350553425E+03  0.64080004293E+03  0.73037271806E+03  0.46999998093E+01 0. -1.
       -5    1    3    3    0  502  0.30994106299E+03 -0.16350553425E+03 -0.12882943670E+04  0.13351112269E+04  0.46999998093E+01 0.  1.
</event>
<event>
 5   0  0.1239615E-04  0.1917956E+04  0.7818609E-02  0.8645970E-01
       -1   -1    0    0    0  501  0.00000000000E+00  0.00000000000E+00  0.66937938958E+03  0.66937938960E+03  0.50400001928E-02 0. -1.
        1   -1    0    0  501    0  0.00000000000E+00  0.00000000000E+00 -0.13738673376E+04  0.13738673376E+04  0.50400001928E-02 0.  1.
    10030    2    1    2    0    0  0.00000000000E+00  0.00000000000E+00 -0.70448794805E+03  0.20432467272E+04  0.19179556615E+04 0.  0.
        3    1    3    3  502    0  0.58257455122E+03  0.33434791834E+03 -0.10813942376E+04  0.12730259799E+04  0.10100000352E+00 0.  1.
       -3    1    3    3    0  502 -0.58257455122E+03 -0.33434791834E+03  0.37690628958E+03  0.77022074729E+03  0.10100000352E+00 0. -1.
</event>
<event>
 5   0  0.2541124E-04  0.2044359E+04  0.7818609E-02  0.8586158E-01
        2   -1    0    0  501    0  0.00000000000E+00  0.00000000000E+00  0.17250397081E+04  0.17250397081E+04  0.25500000920E-02 0.  1.
       -2   -1    0    0    0  501  0.00000000000E+00  0.00000000000E+00 -0.60569696824E+03  0.60569696825E+03  0.25500000920E-02 0. -1.
    10030    2    1    2    0    0  0.00000000000E+00  0.00000000000E+00  0.11193427399E+04  0.23307366764E+04  0.20443593826E+04 0.  0.
        5    1    3    3  502    0 -0.58749421730E+03 -0.60228209966E+03 -0.10210263779E+03  0.84754953931E+03  0.46999998093E+01 0. -1.
       -5    1    3    3    0  502  0.58749421730E+03  0.60228209966E+03  0.12214453777E+04  0.14831871371E+04  0.46999998093E+01 0.  1.
</event>
<event>
 5   0  0.1255141E-04  0.1898383E+04  0.7818609E-02  0.8655662E-01
       -1   -1    0    0    0  501  0.00000000000E+00  0.00000000000E+00  0.75181611293E+03  0.75181611294E+03  0.50400001928E-02 0.  1.
        1   -1    0    0  501    0  0.00000000000E+00  0.00000000000E+00 -0.11983836386E+04  0.11983836386E+04  0.50400001928E-02 0. -1.
    10030    2    1    2    0    0  0.00000000000E+00  0.00000000000E+00 -0.44656752563E+03  0.19501997515E+04  0.18983826052E+04 0.  0.
        2    1    3    3  502    0 -0.39728998827E+03  0.20601442240E+03 -0.10831998930E+04  0.11720082274E+04  0.25500000920E-02 0. -1.
       -2    1    3    3    0  502  0.39728998827E+03 -0.20601442240E+03  0.63663236734E+03  0.77819152409E+03  0.25500000920E-02 0.  1.
</event>
<event>
 5   0  0.2595012E-04  0.1876410E+04  0.7818609E-02  0.8666689E-01
       -2   -1    0    0    0  501  0.00000000000E+00  0.00000000000E+00  0.91358838093E+03  0.91358838093E+03  0.25500000920E-02 0. -1.
        2   -1    0    0  501    0  0.00000000000E+00  0.00000000000E+00 -0.96348478226E+03  0.96348478227E+03  0.25500000920E-02 0.  1.
    10030    2    1    2    0    0  0.00000000000E+00  0.00000000000E+00 -0.49896401334E+02  0.18770731632E+04  0.18764098724E+04 0.  0.
        1    1    3    3  502    0 -0.63479109879E+03 -0.68923516998E+03 -0.72120395397E+02  0.93979051395E+03  0.50400001928E-02 0. -1.
       -1    1    3    3    0  502  0.63479109879E+03  0.68923516998E+03  0.22223994063E+02  0.93728264925E+03  0.50400001928E-02 0.  1.
</event>
<event>
 5   0  0.1255141E-04  0.1943669E+04  0.7818609E-02  0.8633420E-01
        1   -1    0    0  501    0  0.00000000000E+00  0.00000000000E+00  0.89888512549E+03  0.89888512550E+03  0.50400001928E-02 0. -1.
       -1   -1    0    0    0  501  0.00000000000E+00  0.00000000000E+00 -0.10507041983E+04  0.10507041983E+04  0.50400001928E-02 0.  1.
    10030    2    1    2    0    0  0.00000000000E+00  0.00000000000E+00 -0.15181907282E+03  0.19495893238E+04  0.19436690821E+04 0.  0.
        2    1    3    3  502    0 -0.15031433053E+03  0.79560860642E+03  0.46319840906E+03  0.93281306741E+03  0.25500000920E-02 0. -1.
       -2    1    3    3    0  502  0.15031433053E+03 -0.79560860642E+03 -0.61501748188E+03  0.10167762564E+04  0.25500000920E-02 0.  1.
</event>
<event>
 5   0  0.2562925E-04  0.1872950E+04  0.7818609E-02  0.8668439E-01
        2   -1    0    0  501    0  0.00000000000E+00  0.00000000000E+00  0.79095494831E+03  0.79095494832E+03  0.25500000920E-02 0. -1.
       -2   -1    0    0    0  501  0.00000000000E+00  0.00000000000E+00 -0.11087675689E+04  0.11087675689E+04  0.25500000920E-02 0.  1.
    10030    2    1    2    0    0  0.00000000000E+00  0.00000000000E+00 -0.31781262055E+03  0.18997225172E+04  0.18729497539E+04 0.  0.
        4    1    3    3  502    0 -0.26935504768E+03 -0.87212558329E+03 -0.37125123687E+03  0.98538534012E+03  0.12699999809E+01 0.  1.
       -4    1    3    3    0  502  0.26935504768E+03  0.87212558329E+03  0.53438616320E+02  0.91433717706E+03  0.12699999809E+01 0. -1.
</event>
<event>
 5   0  0.1277709E-04  0.1905046E+04  0.7818609E-02  0.8652349E-01
       -1   -1    0    0    0  501  0.00000000000E+00  0.00000000000E+00  0.51887026356E+03  0.51887026359E+03  0.50400001928E-02 0. -1.
        1   -1    0    0  501    0  0.00000000000E+00  0.00000000000E+00 -0.17486063501E+04  0.17486063501E+04  0.50400001928E-02 0.  1.
    10030    2    1    2    0    0  0.00000000000E+00  0.00000000000E+00 -0.12297360865E+04  0.22674766137E+04  0.19050457609E+04 0.  0.
        4    1    3    3  502    0 -0.88886565569E+03  0.17841117168E+03 -0.26706808115E+03  0.94511357672E+03  0.12699999809E+01 0. -1.
       -4    1    3    3    0  502  0.88886565569E+03 -0.17841117168E+03 -0.96266800537E+03  0.13223630370E+04  0.12699999809E+01 0.  1.
</event>
<event>
 5   0  0.1255141E-04  0.1906813E+04  0.7818609E-02  0.8651473E-01
        1   -1    0    0  501    0  0.00000000000E+00  0.00000000000E+00  0.69692907891E+03  0.69692907893E+03  0.50400001928E-02 0.  1.
       -1   -1    0    0    0  501  0.00000000000E+00  0.00000000000E+00 -0.13042702399E+04  0.13042702399E+04  0.50400001928E-02 0. -1.
    10030    2    1    2    0    0  0.00000000000E+00  0.00000000000E+00 -0.60734116102E+03  0.20011993189E+04  0.19068128980E+04 0.  0.
        2    1    3    3  502    0 -0.28680316608E+03 -0.75291028636E+03  0.23132092505E+03  0.83823584137E+03  0.25500000920E-02 0.  1.
       -2    1    3    3    0  502  0.28680316608E+03  0.75291028636E+03 -0.83866208607E+03  0.11629634775E+04  0.25500000920E-02 0. -1.
</event>
<event>
 5   0  0.1324058E-04  0.1910733E+04  0.7818609E-02  0.8649532E-01
        1   -1    0    0  501    0  0.00000000000E+00  0.00000000000E+00  0.20486833343E+04  0.20486833343E+04  0.50400001928E-02 0. -1.
       -1   -1    0    0    0  501  0.00000000000E+00  0.00000000000E+00 -0.44551792183E+03  0.44551792186E+03  0.50400001928E-02 0.  1.
    10030    2    1    2    0    0  0.00000000000E+00  0.00000000000E+00  0.16031654125E+04  0.24942012562E+04  0.19107329920E+04 0.  0.
        5    1    3    3  502    0 -0.88016744844E+03 -0.36773999343E+03  0.73281083566E+03  0.12028970242E+04  0.46999998093E+01 0. -1.
       -5    1    3    3    0  502  0.88016744844E+03  0.36773999343E+03  0.87035457685E+03  0.12913042320E+04  0.46999998093E+01 0.  1.
</event>
<event>
 5   0  0.1255141E-04  0.1894254E+04  0.7818609E-02  0.8657722E-01
        1   -1    0    0  501    0  0.00000000000E+00  0.00000000000E+00  0.93772641006E+03  0.93772641007E+03  0.50400001928E-02 0. -1.
       -1   -1    0    0    0  501  0.00000000000E+00  0.00000000000E+00 -0.95662223697E+03  0.95662223698E+03  0.50400001928E-02 0.  1.
    10030    2    1    2    0    0  0.00000000000E+00  0.00000000000E+00 -0.18895826915E+02  0.18943486471E+04  0.18942544033E+04 0.  0.
        2    1    3    3  502    0 -0.23277623062E+03  0.91595367539E+03 -0.71853158172E+02  0.94779680593E+03  0.25500000920E-02 0. -1.
       -2    1    3    3    0  502  0.23277623062E+03 -0.91595367539E+03  0.52957331257E+02  0.94655184112E+03  0.25500000920E-02 0.  1.
</event>
<event>
 5   0  0.1239615E-04  0.1894348E+04  0.7818609E-02  0.8657675E-01
       -1   -1    0    0    0  501  0.00000000000E+00  0.00000000000E+00  0.95721468539E+03  0.95721468540E+03  0.50400001928E-02 0.  1.
        1   -1    0    0  501    0  0.00000000000E+00  0.00000000000E+00 -0.93723902219E+03  0.93723902221E+03  0.50400001928E-02 0. -1.
    10030    2    1    2    0    0  0.00000000000E+00  0.00000000000E+00  0.19975663194E+02  0.18944537076E+04  0.18943483901E+04 0.  0.
        3    1    3    3  502    0  0.67121110393E+03 -0.66803883419E+03  0.28393081653E+02  0.94742092404E+03  0.10100000352E+00 0.  1.
       -3    1    3    3    0  502 -0.67121110393E+03  0.66803883419E+03 -0.84174184589E+01  0.94703278357E+03  0.10100000352E+00 0. -1.
</event>
<event>
 5   0  0.1324058E-04  0.1860771E+04  0.7818609E-02  0.8674633E-01
        1   -1    0    0  501    0  0.00000000000E+00  0.00000000000E+00  0.15225622382E+04  0.15225622382E+04  0.50400001928E-02 0.  1.
       -1   -1    0    0    0  501  0.00000000000E+00  0.00000000000E+00 -0.56852691965E+03  0.56852691967E+03  0.50400001928E-02 0. -1.
    10030    2    1    2    0    0  0.00000000000E+00  0.00000000000E+00  0.95403531857E+03  0.20910891579E+04  0.18607714737E+04 0.  0.
        5    1    3    3  502    0 -0.96236273644E+02 -0.38815058164E+01  0.15169313880E+04  0.15199932277E+04  0.46999998093E+01 0.  1.
       -5    1    3    3    0  502  0.96236273644E+02  0.38815058164E+01 -0.56289606944E+03  0.57109593016E+03  0.46999998093E+01 0. -1.
</event>
<event>
 5   0  0.1324058E-04  0.1926973E+04  0.7818609E-02  0.8641546E-01
        1   -1    0    0  501    0  0.00000000000E+00  0.00000000000E+00  0.11001071100E+04  0.11001071100E+04  0.50400001928E-02 0.  1.
       -1   -1    0    0    0  501  0.00000000000E+00  0.00000000000E+00 -0.84383228817E+03  0.84383228819E+03  0.50400001928E-02 0. -1.
    10030    2    1    2    0    0  0.00000000000E+00  0.00000000000E+00  0.25627482180E+03  0.19439393982E+04  0.19269726515E+04 0.  0.
        5    1    3    3  502    0 -0.25204149475E+03  0.36123155778E+03 -0.73630339043E+03  0.85800811544E+03  0.46999998093E+01 0. -1.
       -5    1    3    3    0  502  0.25204149475E+03 -0.36123155778E+03  0.99257821223E+03  0.10859312827E+04  0.46999998093E+01 0.  1.
</event>
<event>
 5   0  0.1324058E-04  0.1726427E+04  0.7818609E-02  0.8746434E-01
       -1   -1    0    0    0  501  0.00000000000E+00  0.00000000000E+00  0.92378041933E+03  0.92378041934E+03  0.50400001928E-02 0. -1.
        1   -1    0    0  501    0  0.00000000000E+00  0.00000000000E+00 -0.80661727420E+03  0.80661727421E+03  0.50400001928E-02 0.  1.
    10030    2    1    2    0    0  0.00000000000E+00  0.00000000000E+00  0.11716314513E+03  0.17303976936E+04  0.17264266493E+04 0.  0.
        5    1    3    3  502    0 -0.25612884611E+03 -0.81352875427E+03 -0.74706011113E+02  0.85617410491E+03  0.46999998093E+01 0. -1.
       -5    1    3    3    0  502  0.25612884611E+03  0.81352875427E+03  0.19186915625E+03  0.87422358865E+03  0.46999998093E+01 0.  1.
</event>
<event>
 5   0  0.2562925E-04  0.1718967E+04  0.7818609E-02  0.8750620E-01
        2   -1    0    0  501    0  0.00000000000E+00  0.00000000000E+00  0.24556422022E+04  0.24556422022E+04  0.25500000920E-02 0.  1.
       -2   -1    0    0    0  501  0.00000000000E+00  0.00000000000E+00 -0.30082231397E+03  0.30082231399E+03  0.25500000920E-02 0. -1.
    10030    2    1    2    0    0  0.00000000000E+00  0.00000000000E+00  0.21548198882E+04  0.27564645162E+04  0.17189670963E+04 0.  0.
        4    1    3    3  502    0  0.35212467274E+03 -0.37099115713E+02  0.23332556224E+04  0.23599685468E+04  0.12699999809E+01 0.  1.
       -4    1    3    3    0  502 -0.35212467274E+03  0.37099115713E+02 -0.17843573423E+03  0.39649596933E+03  0.12699999809E+01 0. -1.
</event>
<event>
 5   0  0.1277709E-04  0.1656890E+04  0.7818609E-02  0.8786341E-01
        1   -1    0    0  501    0  0.00000000000E+00  0.00000000000E+00  0.87371802678E+03  0.87371802679E+03  0.50400001928E-02 0.  1.
       -1   -1    0    0    0  501  0.00000000000E+00  0.00000000000E+00 -0.78551831124E+03  0.78551831125E+03  0.50400001928E-02 0. -1.
    10030    2    1    2    0    0  0.00000000000E+00  0.00000000000E+00  0.88199715542E+02  0.16592363380E+04  0.16568904718E+04 0.  0.
        4    1    3    3  502    0 -0.51257745856E+03  0.61097779192E+03 -0.18047282155E+03  0.81768060113E+03  0.12699999809E+01 0. -1.
       -4    1    3    3    0  502  0.51257745856E+03 -0.61097779192E+03  0.26867253709E+03  0.84155573692E+03  0.12699999809E+01 0.  1.
</event>
<event>
 5   0  0.2651828E-04  0.1804375E+04  0.7818609E-02  0.8703977E-01
       -2   -1    0    0    0  501  0.00000000000E+00  0.00000000000E+00  0.42043353869E+03  0.42043353870E+03  0.25500000920E-02 0. -1.
        2   -1    0    0  501    0  0.00000000000E+00  0.00000000000E+00 -0.19359584297E+04  0.19359584297E+04  0.25500000920E-02 0.  1.
    10030    2    1    2    0    0  0.00000000000E+00  0.00000000000E+00 -0.15155248910E+04  0.23563919684E+04  0.18043745214E+04 0.  0.
        3    1    3    3  502    0 -0.60667269429E+03  0.52564140046E+03 -0.21996032711E+03  0.83230595070E+03  0.10100000352E+00 0. -1.
       -3    1    3    3    0  502  0.60667269429E+03 -0.52564140046E+03 -0.12955645639E+04  0.15240860177E+04  0.10100000352E+00 0.  1.
</event>
<event>
 5   0  0.2595012E-04  0.1919021E+04  0.7818609E-02  0.8645446E-01
       -2   -1    0    0    0  501  0.00000000000E+00  0.00000000000E+00  0.61715806641E+03  0.61715806642E+03  0.25500000920E-02 0.  1.
        2   -1    0    0  501    0  0.00000000000E+00  0.00000000000E+00 -0.14917739320E+04  0.14917739320E+04  0.25500000920E-02 0. -1.
    10030    2    1    2    0    0  0.00000000000E+00  0.00000000000E+00 -0.87461586559E+03  0.21089319984E+04  0.19190209123E+04 0.  0.
        1    1    3    3  502    0 -0.84857667064E+03  0.69568719431E+02 -0.92351425360E+03  0.12561053894E+04  0.50400001928E-02 0. -1.
       -1    1    3    3    0  502  0.84857667064E+03 -0.69568719431E+02  0.48898388006E+02  0.85282660902E+03  0.50400001928E-02 0.  1.
</event>
<event>
 5   0  0.1277709E-04  0.1879929E+04  0.7818609E-02  0.8664912E-01
       -1   -1    0    0    0  501  0.00000000000E+00  0.00000000000E+00  0.37674550641E+03  0.37674550644E+03  0.50400001928E-02 0.  1.
        1   -1    0    0  501    0  0.00000000000E+00  0.00000000000E+00 -0.23451714238E+04  0.23451714238E+04  0.50400001928E-02 0. -1.
    10030    2    1    2    0    0  0.00000000000E+00  0.00000000000E+00 -0.19684259174E+04  0.27219169303E+04  0.18799285048E+04 0.  0.
        4    1    3    3  502    0  0.13962509006E+03 -0.75485117667E+03 -0.19883044094E+03  0.79298841217E+03  0.12699999809E+01 0.  1.
       -4    1    3    3    0  502 -0.13962509006E+03  0.75485117667E+03 -0.17695954765E+04  0.19289285181E+04  0.12699999809E+01 0. -1.
</event>
<event>
 5   0  0.2595012E-04  0.1907423E+04  0.7818609E-02  0.8651170E-01
        2   -1    0    0  501    0  0.00000000000E+00  0.00000000000E+00  0.13757254500E+04  0.13757254500E+04  0.25500000920E-02 0. -1.
       -2   -1    0    0    0  501  0.00000000000E+00  0.00000000000E+00 -0.66115315661E+03  0.66115315662E+03  0.25500000920E-02 0.  1.
    10030    2    1    2    0    0  0.00000000000E+00  0.00000000000E+00  0.71457229340E+03  0.20368786066E+04  0.19074225792E+04 0.  0.
        1    1    3    3  502    0  0.42199439797E+03 -0.36707439316E+03  0.11822058077E+04  0.13078354078E+04  0.50400001928E-02 0. -1.
       -1    1    3    3    0  502 -0.42199439797E+03  0.36707439316E+03 -0.46763351433E+03  0.72904319884E+03  0.50400001928E-02 0.  1.
</event>
<event>
 5   0  0.2651828E-04  0.1920988E+04  0.7818609E-02  0.8644479E-01
       -2   -1    0    0    0  501  0.00000000000E+00  0.00000000000E+00  0.80491709289E+03  0.80491709290E+03  0.25500000920E-02 0. -1.
        2   -1    0    0  501    0  0.00000000000E+00  0.00000000000E+00 -0.11461413023E+04  0.11461413024E+04  0.25500000920E-02 0.  1.
    10030    2    1    2    0    0  0.00000000000E+00  0.00000000000E+00 -0.34122420946E+03  0.19510583952E+04  0.19209880011E+04 0.  0.
        3    1    3    3  502    0 -0.67111868690E+02 -0.53588575300E+03  0.63609513971E+03  0.83444267637E+03  0.10100000352E+00 0. -1.
       -3    1    3    3    0  502  0.67111868690E+02  0.53588575300E+03 -0.97731934916E+03  0.11166157189E+04  0.10100000352E+00 0.  1.
</event>
<event>
 5   0  0.1255141E-04  0.1884772E+04  0.7818609E-02  0.8662474E-01
        1   -1    0    0  501    0  0.00000000000E+00  0.00000000000E+00  0.75900506551E+03  0.75900506552E+03  0.50400001928E-02 0.  1.
       -1   -1    0    0    0  501  0.00000000000E+00  0.00000000000E+00 -0.11700727819E+04  0.11700727819E+04  0.50400001928E-02 0. -1.
    10030    2    1    2    0    0  0.00000000000E+00  0.00000000000E+00 -0.41106771637E+03  0.19290778474E+04  0.18847717830E+04 0.  0.
        2    1    3    3  502    0  0.23229401083E+03  0.60130278002E+03  0.49806001247E+03  0.81460991693E+03  0.25500000920E-02 0.  1.
       -2    1    3    3    0  502 -0.23229401083E+03 -0.60130278002E+03 -0.90912772884E+03  0.11144679305E+04  0.25500000920E-02 0. -1.
</event>
<event>
 5   0  0.2651828E-04  0.1919185E+04  0.7818609E-02  0.8645365E-01
       -2   -1    0    0    0  501  0.00000000000E+00  0.00000000000E+00  0.39815733836E+03  0.39815733837E+03  0.25500000920E-02 0. -1.
        2   -1    0    0  501    0  0.00000000000E+00  0.00000000000E+00 -0.23126980781E+04  0.23126980781E+04  0.25500000920E-02 0.  1.
    10030    2    1    2    0    0  0.00000000000E+00  0.00000000000E+00 -0.19145407398E+04  0.27108554165E+04  0.19191849429E+04 0.  0.
        3    1    3    3  502    0 -0.57339920466E+03  0.20213191840E+03  0.91387418425E+02  0.61481349269E+03  0.10100000352E+00 0. -1.
       -3    1    3    3    0  502  0.57339920466E+03 -0.20213191840E+03 -0.20059281582E+04  0.20960419238E+04  0.10100000352E+00 0.  1.
</event>
<event>
 5   0  0.1317527E-04  0.1843677E+04  0.7818609E-02  0.8683411E-01
        1   -1    0    0  501    0  0.00000000000E+00  0.00000000000E+00  0.18036594305E+04  0.18036594305E+04  0.50400001928E-02 0. -1.
       -1   -1    0    0    0  501  0.00000000000E+00  0.00000000000E+00 -0.47114555452E+03  0.47114555454E+03  0.50400001928E-02 0.  1.
    10030    2    1    2    0    0  0.00000000000E+00  0.00000000000E+00  0.13325138760E+04  0.22748049851E+04  0.18436768942E+04 0.  0.
        1    1    3    3  502    0  0.29863674825E+03  0.84011138366E+03  0.37738232455E+03  0.96818823752E+03  0.50400001928E-02 0.  1.
       -1    1    3    3    0  502 -0.29863674825E+03 -0.84011138366E+03  0.95513155144E+03  0.13066167475E+04  0.50400001928E-02 0. -1.
</event>
<event>
 5   0  0.1255141E-04  0.1887076E+04  0.7818609E-02  0.8661316E-01
        1   -1    0    0  501    0  0.00000000000E+00  0.00000000000E+00  0.15633313401E+04  0.15633313401E+04  0.50400001928E-02 0.  1.
       -1   -1    0    0    0  501  0.00000000000E+00  0.00000000000E+00 -0.56946579189E+03  0.56946579191E+03  0.50400001928E-02 0. -1.
    10030    2    1    2    0    0  0.00000000000E+00  0.00000000000E+00  0.99386554825E+03  0.21327971321E+04  0.18870757480E+04 0.  0.
        2    1    3    3  502    0  0.90452405985E+02  0.90926836624E+03  0.76274459652E+03  0.11902646425E+04  0.25500000920E-02 0.  1.
       -2    1    3    3    0  502 -0.90452405985E+02 -0.90926836624E+03  0.23112095173E+03  0.94253248959E+03  0.25500000920E-02 0. -1.
</event>
<event>
 5   0  0.1317527E-04  0.1443345E+04  0.7818609E-02  0.8923027E-01
        1   -1    0    0  501    0  0.00000000000E+00  0.00000000000E+00  0.10107195493E+04  0.10107195493E+04  0.50400001928E-02 0. -1.
       -1   -1    0    0    0  501  0.00000000000E+00  0.00000000000E+00 -0.51528758361E+03  0.51528758364E+03  0.50400001928E-02 0.  1.
    10030    2    1    2    0    0  0.00000000000E+00  0.00000000000E+00  0.49543196569E+03  0.15260071330E+04  0.14433450513E+04 0.  0.
        1    1    3    3  502    0 -0.32219619550E+02 -0.70945317777E+03  0.38331619120E+03  0.80702739594E+03  0.50400001928E-02 0. -1.
       -1    1    3    3    0  502  0.32219619550E+02  0.70945317777E+03  0.11211577449E+03  0.71897973702E+03  0.50400001928E-02 0.  1.
</event>
<event>
 5   0  0.2595012E-04  0.1930645E+04  0.7818609E-02  0.8639751E-01
        2   -1    0    0  501    0  0.00000000000E+00  0.00000000000E+00  0.32186174705E+04  0.32186174705E+04  0.25500000920E-02 0. -1.
       -2   -1    0    0    0  501  0.00000000000E+00  0.00000000000E+00 -0.28951808519E+03  0.28951808520E+03  0.25500000920E-02 0.  1.
    10030    2    1    2    0    0  0.00000000000E+00  0.00000000000E+00  0.29290993854E+04  0.35081355557E+04  0.19306454538E+04 0.  0.
        1    1    3    3  502    0 -0.87540295634E+03  0.40509403752E+03  0.13961625055E+04  0.16969682546E+04  0.50400001928E-02 0. -1.
       -1    1    3    3    0  502  0.87540295634E+03 -0.40509403752E+03  0.15329368798E+04  0.18111673012E+04  0.50400001928E-02 0.  1.
</event>
<event>
 5   0  0.1317527E-04  0.1922267E+04  0.7818609E-02  0.8643851E-01
        1   -1    0    0  501    0  0.00000000000E+00  0.00000000000E+00  0.12654866889E+04  0.12654866889E+04  0.50400001928E-02 0.  1.
       -1   -1    0    0    0  501  0.00000000000E+00  0.00000000000E+00 -0.72997827445E+03  0.72997827447E+03  0.50400001928E-02 0. -1.
    10030    2    1    2    0    0  0.00000000000E+00  0.00000000000E+00  0.53550841446E+03  0.19954649634E+04  0.19222671922E+04 0.  0.
        1    1    3    3  502    0  0.50205803096E+03 -0.70971129905E+03 -0.15776367471E+03  0.88353934352E+03  0.50400001928E-02 0.  1.
       -1    1    3    3    0  502 -0.50205803096E+03  0.70971129905E+03  0.69327208917E+03  0.11119256199E+04  0.50400001928E-02 0. -1.
</event>
<event>
 5   0  0.1277709E-04  0.1909288E+04  0.7818609E-02  0.8650247E-01
       -1   -1    0    0    0  501  0.00000000000E+00  0.00000000000E+00  0.53977141026E+03  0.53977141028E+03  0.50400001928E-02 0. -1.
        1   -1    0    0  501    0  0.00000000000E+00  0.00000000000E+00 -0.16883915146E+04  0.16883915146E+04  0.50400001928E-02 0.  1.
    10030    2    1    2    0    0  0.00000000000E+00  0.00000000000E+00 -0.11486201044E+04  0.22281629249E+04  0.19092883166E+04 0.  0.
        4    1    3    3  502    0 -0.17293625015E+03 -0.15323683853E+03 -0.16552654630E+04  0.16713150035E+04  0.12699999809E+01 0.  1.
       -4    1    3    3    0  502  0.17293625015E+03  0.15323683853E+03  0.50664535857E+03  0.55684792139E+03  0.12699999809E+01 0. -1.
</event>
<event>
 5   0  0.2608744E-04  0.1753381E+04  0.7818609E-02  0.8731491E-01
       -2   -1    0    0    0  501  0.00000000000E+00  0.00000000000E+00  0.52453151235E+03  0.52453151236E+03  0.25500000920E-02 0.  1.
        2   -1    0    0  501    0  0.00000000000E+00  0.00000000000E+00 -0.14652814679E+04  0.14652814679E+04  0.25500000920E-02 0. -1.
    10030    2    1    2    0    0  0.00000000000E+00  0.00000000000E+00 -0.94074995557E+03  0.19898129803E+04  0.17533810817E+04 0.  0.
        2    1    3    3  502    0 -0.18938933428E+03  0.25802935711E+03 -0.13966038614E+04  0.14328118560E+04  0.25500000920E-02 0. -1.
       -2    1    3    3    0  502  0.18938933428E+03 -0.25802935711E+03  0.45585390578E+03  0.55700112431E+03  0.25500000920E-02 0.  1.
</event>
<event>
 5   0  0.2608744E-04  0.1854257E+04  0.7818609E-02  0.8677967E-01
       -2   -1    0    0    0  501  0.00000000000E+00  0.00000000000E+00  0.65714268841E+03  0.65714268841E+03  0.25500000920E-02 0. -1.
        2   -1    0    0  501    0  0.00000000000E+00  0.00000000000E+00 -0.13080378236E+04  0.13080378236E+04  0.25500000920E-02 0.  1.
    10030    2    1    2    0    0  0.00000000000E+00  0.00000000000E+00 -0.65089513514E+03  0.19651805120E+04  0.18542572550E+04 0.  0.
        2    1    3    3  502    0  0.31969519215E+02  0.45644406563E+03 -0.11800367006E+04  0.12656420702E+04  0.25500000920E-02 0.  1.
       -2    1    3    3    0  502 -0.31969519215E+02 -0.45644406563E+03  0.52914156543E+03  0.69953844174E+03  0.25500000920E-02 0. -1.
</event>
<event>
 5   0  0.9266125E-05  0.1898997E+04  0.7818609E-02  0.8655356E-01
       -4   -1    0    0    0  501  0.00000000000E+00  0.00000000000E+00  0.72429410424E+03  0.72429521767E+03  0.12699999809E+01 0.  1.
        4   -1    0    0  501    0  0.00000000000E+00  0.00000000000E+00 -0.12447225895E+04  0.12447232374E+04  0.12699999809E+01 0. -1.
    10030    2    1    2    0    0  0.00000000000E+00  0.00000000000E+00 -0.52042848528E+03  0.19690184551E+04  0.18989965424E+04 0.  0.
        4    1    3    3  502    0  0.59061388067E+03 -0.68062560012E+03 -0.57035786304E+03  0.10664828496E+04  0.12699999809E+01 0.  1.
       -4    1    3    3    0  502 -0.59061388067E+03  0.68062560012E+03  0.49929377761E+02  0.90253560552E+03  0.12699999809E+01 0. -1.
</event>
<event>
 5   0  0.2595012E-04  0.1963788E+04  0.7818609E-02  0.8623741E-01
       -2   -1    0    0    0  501  0.00000000000E+00  0.00000000000E+00  0.50933567327E+03  0.50933567328E+03  0.25500000920E-02 0.  1.
        2   -1    0    0  501    0  0.00000000000E+00  0.00000000000E+00 -0.18928887598E+04  0.18928887599E+04  0.25500000920E-02 0. -1.
    10030    2    1    2    0    0  0.00000000000E+00  0.00000000000E+00 -0.13835530866E+04  0.24022244331E+04  0.19637879427E+04 0.  0.
        1    1    3    3  502    0  0.13471350129E+02  0.50819791417E+03 -0.17193658205E+04  0.17929488063E+04  0.50400001928E-02 0. -1.
       -1    1    3    3    0  502 -0.13471350129E+02 -0.50819791417E+03  0.33581273388E+03  0.60927562688E+03  0.50400001928E-02 0.  1.
</event>
<event>
 5   0  0.1239615E-04  0.1916781E+04  0.7818609E-02  0.8646548E-01
       -1   -1    0    0    0  501  0.00000000000E+00  0.00000000000E+00  0.50793809959E+03  0.50793809961E+03  0.50400001928E-02 0.  1.
        1   -1    0    0  501    0  0.00000000000E+00  0.00000000000E+00 -0.18083148769E+04  0.18083148769E+04  0.50400001928E-02 0. -1.
    10030    2    1    2    0    0  0.00000000000E+00  0.00000000000E+00 -0.13003767773E+04  0.23162529765E+04  0.19167806573E+04 0.  0.
        3    1    3    3  502    0 -0.30940476410E+03  0.71157457730E+03  0.29579829077E+02  0.77649511498E+03  0.10100000352E+00 0.  1.
       -3    1    3    3    0  502  0.30940476410E+03 -0.71157457730E+03 -0.13299566064E+04  0.15397578616E+04  0.10100000352E+00 0. -1.
</event>
<event>
 5   0  0.2562925E-04  0.1895903E+04  0.7818609E-02  0.8656898E-01
       -2   -1    0    0    0  501  0.00000000000E+00  0.00000000000E+00  0.46467761389E+03  0.46467761390E+03  0.25500000920E-02 0. -1.
        2   -1    0    0  501    0  0.00000000000E+00  0.00000000000E+00 -0.19338405958E+04  0.19338405958E+04  0.25500000920E-02 0.  1.
    10030    2    1    2    0    0  0.00000000000E+00  0.00000000000E+00 -0.14691629820E+04  0.23985182097E+04  0.18959034086E+04 0.  0.
        4    1    3    3  502    0 -0.79382415549E+03  0.50426163085E+03 -0.88519942386E+03  0.12915170208E+04  0.12699999809E+01 0.  1.
       -4    1    3    3    0  502  0.79382415549E+03 -0.50426163085E+03 -0.58396355809E+03  0.11070011889E+04  0.12699999809E+01 0. -1.
</event>
<event>
 5   0  0.2541124E-04  0.1910368E+04  0.7818609E-02  0.8649713E-01
        2   -1    0    0  501    0  0.00000000000E+00  0.00000000000E+00  0.14220174134E+04  0.14220174134E+04  0.25500000920E-02 0. -1.
       -2   -1    0    0    0  501  0.00000000000E+00  0.00000000000E+00 -0.64160694443E+03  0.64160694444E+03  0.25500000920E-02 0.  1.
    10030    2    1    2    0    0  0.00000000000E+00  0.00000000000E+00  0.78041046900E+03  0.20636243579E+04  0.19103677631E+04 0.  0.
        5    1    3    3  502    0  0.39047693439E+03 -0.23314230413E+03  0.12975458604E+04  0.13749454244E+04  0.46999998093E+01 0. -1.
       -5    1    3    3    0  502 -0.39047693439E+03  0.23314230413E+03 -0.51713539144E+03  0.68867893343E+03  0.46999998093E+01 0.  1.
</event>
<event>
 5   0  0.2651828E-04  0.1907731E+04  0.7818609E-02  0.8651018E-01
       -2   -1    0    0    0  501  0.00000000000E+00  0.00000000000E+00  0.62637569997E+03  0.62637569998E+03  0.25500000920E-02 0.  1.
        2   -1    0    0  501    0  0.00000000000E+00  0.00000000000E+00 -0.14525782595E+04  0.14525782595E+04  0.25500000920E-02 0. -1.
    10030    2    1    2    0    0  0.00000000000E+00  0.00000000000E+00 -0.82620255955E+03  0.20789539595E+04  0.19077313480E+04 0.  0.
        3    1    3    3  502    0 -0.83078067905E+03 -0.38997320274E+03 -0.12979914101E+03  0.92688913185E+03  0.10100000352E+00 0.  1.
       -3    1    3    3    0  502  0.83078067905E+03  0.38997320274E+03 -0.69640341854E+03  0.11520648276E+04  0.10100000352E+00 0. -1.
</event>
<event>
 5   0  0.1317527E-04  0.1843371E+04  0.7818609E-02  0.8683570E-01
       -1   -1    0    0    0  501  0.00000000000E+00  0.00000000000E+00  0.54237926693E+03  0.54237926695E+03  0.50400001928E-02 0. -1.
        1   -1    0    0  501    0  0.00000000000E+00  0.00000000000E+00 -0.15662540717E+04  0.15662540717E+04  0.50400001928E-02 0.  1.
    10030    2    1    2    0    0  0.00000000000E+00  0.00000000000E+00 -0.10238748048E+04  0.21086333387E+04  0.18433705382E+04 0.  0.
        1    1    3    3  502    0 -0.52655421056E+03 -0.20352964184E+03 -0.13453539124E+04  0.14589930779E+04  0.50400001928E-02 0.  1.
       -1    1    3    3    0  502  0.52655421056E+03  0.20352964184E+03  0.32147910760E+03  0.64964026077E+03  0.50400001928E-02 0. -1.
</event>
<event>
 5   0  0.1255141E-04  0.1937135E+04  0.7818609E-02  0.8636589E-01
        1   -1    0    0  501    0  0.00000000000E+00  0.00000000000E+00  0.11701594976E+04  0.11701594977E+04  0.50400001928E-02 0.  1.
       -1   -1    0    0    0  501  0.00000000000E+00  0.00000000000E+00 -0.80170550483E+03  0.80170550484E+03  0.50400001928E-02 0. -1.
    10030    2    1    2    0    0  0.00000000000E+00  0.00000000000E+00  0.36845399282E+03  0.19718650025E+04  0.19371353188E+04 0.  0.
        2    1    3    3  502    0  0.42430207832E+03  0.86633220704E+03  0.27273154650E+03  0.10024700709E+04  0.25500000920E-02 0.  1.
       -2    1    3    3    0  502 -0.42430207832E+03 -0.86633220704E+03  0.95722446319E+02  0.96939493158E+03  0.25500000920E-02 0. -1.
</event>
<event>
 5   0  0.1255141E-04  0.1907993E+04  0.7818609E-02  0.8650888E-01
       -1   -1    0    0    0  501  0.00000000000E+00  0.00000000000E+00  0.10575047606E+04  0.10575047606E+04  0.50400001928E-02 0.  1.
        1   -1    0    0  501    0  0.00000000000E+00  0.00000000000E+00 -0.86061938145E+03  0.86061938147E+03  0.50400001928E-02 0. -1.
    10030    2    1    2    0    0  0.00000000000E+00  0.00000000000E+00  0.19688537916E+03  0.19181241421E+04  0.19079927599E+04 0.  0.
        2    1    3    3  502    0 -0.27845343053E+03  0.33871409163E+03  0.95019926239E+03  0.10464904142E+04  0.25500000920E-02 0.  1.
       -2    1    3    3    0  502  0.27845343053E+03 -0.33871409163E+03 -0.75331388323E+03  0.87163372785E+03  0.25500000920E-02 0. -1.
</event>
<event>
 5   0  0.2608744E-04  0.1891990E+04  0.7818609E-02  0.8658854E-01
        2   -1    0    0  501    0  0.00000000000E+00  0.00000000000E+00  0.84898903668E+03  0.84898903669E+03  0.25500000920E-02 0.  1.
       -2   -1    0    0    0  501  0.00000000000E+00  0.00000000000E+00 -0.10540847116E+04  0.10540847116E+04  0.25500000920E-02 0. -1.
    10030    2    1    2    0    0  0.00000000000E+00  0.00000000000E+00 -0.20509567495E+03  0.19030737483E+04  0.18919898138E+04 0.  0.
        2    1    3    3  502    0  0.27907009836E+03  0.75451874197E+03  0.39809051945E+03  0.89758270564E+03  0.25500000920E-02 0.  1.
       -2    1    3    3    0  502 -0.27907009836E+03 -0.75451874197E+03 -0.60318619440E+03  0.10054910427E+04  0.25500000920E-02 0. -1.
</event>
<event>
 5   0  0.2562925E-04  0.1774144E+04  0.7818609E-02  0.8720172E-01
        2   -1    0    0  501    0  0.00000000000E+00  0.00000000000E+00  0.13426423998E+04  0.13426423998E+04  0.25500000920E-02 0.  1.
       -2   -1    0    0    0  501  0.00000000000E+00  0.00000000000E+00 -0.58608064788E+03  0.58608064789E+03  0.25500000920E-02 0. -1.
    10030    2    1    2    0    0  0.00000000000E+00  0.00000000000E+00  0.75656175190E+03  0.19287230477E+04  0.17741439937E+04 0.  0.
        4    1    3    3  502    0 -0.25738851927E+03 -0.62727485855E+03  0.10001076424E+04  0.12082795650E+04  0.12699999809E+01 0.  1.
       -4    1    3    3    0  502  0.25738851927E+03  0.62727485855E+03 -0.24354589047E+03  0.72044348265E+03  0.12699999809E+01 0. -1.
</event>
<event>
 5   0  0.2541124E-04  0.1902825E+04  0.7818609E-02  0.8653451E-01
        2   -1    0    0  501    0  0.00000000000E+00  0.00000000000E+00  0.84194287156E+03  0.84194287156E+03  0.25500000920E-02 0.  1.
       -2   -1    0    0    0  501  0.00000000000E+00  0.00000000000E+00 -0.10751155991E+04  0.10751155991E+04  0.25500000920E-02 0. -1.
    10030    2    1    2    0    0  0.00000000000E+00  0.00000000000E+00 -0.23317272750E+03  0.19170584706E+04  0.19028251782E+04 0.  0.
        5    1    3    3  502    0  0.12775718990E+03 -0.15818775273E+03 -0.10529568904E+04  0.10724204249E+04  0.46999998093E+01 0. -1.
       -5    1    3    3    0  502 -0.12775718990E+03  0.15818775273E+03  0.81978416286E+03  0.84463804577E+03  0.46999998093E+01 0.  1.
</event>
<event>
 5   0  0.1317527E-04  0.1922736E+04  0.7818609E-02  0.8643621E-01
        1   -1    0    0  501    0  0.00000000000E+00  0.00000000000E+00  0.83022597417E+03  0.83022597418E+03  0.50400001928E-02 0. -1.
       -1   -1    0    0    0  501  0.00000000000E+00  0.00000000000E+00 -0.11132249096E+04  0.11132249096E+04  0.50400001928E-02 0.  1.
    10030    2    1    2    0    0  0.00000000000E+00  0.00000000000E+00 -0.28299893547E+03  0.19434508838E+04  0.19227357958E+04 0.  0.
        1    1    3    3  502    0 -0.93997781362E+02 -0.23633495042E+03 -0.10786009189E+04  0.11081830778E+04  0.50400001928E-02 0.  1.
       -1    1    3    3    0  502  0.93997781362E+02  0.23633495042E+03  0.79560198343E+03  0.83526780601E+03  0.50400001928E-02 0. -1.
</event>
<event>
 5   0  0.1277709E-04  0.1956084E+04  0.7818609E-02  0.8627433E-01
       -1   -1    0    0    0  501  0.00000000000E+00  0.00000000000E+00  0.57223080717E+03  0.57223080720E+03  0.50400001928E-02 0. -1.
        1   -1    0    0  501    0  0.00000000000E+00  0.00000000000E+00 -0.16716441611E+04  0.16716441611E+04  0.50400001928E-02 0.  1.
    10030    2    1    2    0    0  0.00000000000E+00  0.00000000000E+00 -0.10994133539E+04  0.22438749683E+04  0.19560841369E+04 0.  0.
        4    1    3    3  502    0 -0.46585513062E+02 -0.70278374868E+03  0.22872584730E+03  0.74053516700E+03  0.12699999809E+01 0. -1.
       -4    1    3    3    0  502  0.46585513062E+02  0.70278374868E+03 -0.13281392012E+04  0.15033398013E+04  0.12699999809E+01 0.  1.
</event>
<event>
 5   0  0.2608744E-04  0.1899851E+04  0.7818609E-02  0.8654931E-01
       -2   -1    0    0    0  501  0.00000000000E+00  0.00000000000E+00  0.62440476367E+03  0.62440476368E+03  0.25500000920E-02 0. -1.
        2   -1    0    0  501    0  0.00000000000E+00  0.00000000000E+00 -0.14451491440E+04  0.14451491440E+04  0.25500000920E-02 0.  1.
    10030    2    1    2    0    0  0.00000000000E+00  0.00000000000E+00 -0.82074438034E+03  0.20695539077E+04  0.18998505307E+04 0.  0.
        2    1    3    3  502    0 -0.43804638447E+03  0.77319634589E+03 -0.77597131213E+03  0.11797663758E+04  0.25500000920E-02 0. -1.
       -2    1    3    3    0  502  0.43804638447E+03 -0.77319634589E+03 -0.44773068211E+02  0.88978753188E+03  0.25500000920E-02 0.  1.
</event>
<event>
 5   0  0.2595012E-04  0.1864883E+04  0.7818609E-02  0.8672537E-01
       -2   -1    0    0    0  501  0.00000000000E+00  0.00000000000E+00  0.11323483326E+04  0.11323483326E+04  0.25500000920E-02 0. -1.
        2   -1    0    0  501    0  0.00000000000E+00  0.00000000000E+00 -0.76782621507E+03  0.76782621508E+03  0.25500000920E-02 0.  1.
    10030    2    1    2    0    0  0.00000000000E+00  0.00000000000E+00  0.36452211752E+03  0.19001745477E+04  0.18648825533E+04 0.  0.
        1    1    3    3  502    0  0.31500425658E+03  0.28662470742E+03 -0.66293380299E+03  0.78794836870E+03  0.50400001928E-02 0.  1.
       -1    1    3    3    0  502 -0.31500425658E+03 -0.28662470742E+03  0.10274559205E+04  0.11122261790E+04  0.50400001928E-02 0. -1.
</event>
<event>
 5   0  0.2595012E-04  0.1893076E+04  0.7818609E-02  0.8658311E-01
       -2   -1    0    0    0  501  0.00000000000E+00  0.00000000000E+00  0.12477383682E+04  0.12477383682E+04  0.25500000920E-02 0.  1.
        2   -1    0    0  501    0  0.00000000000E+00  0.00000000000E+00 -0.71804656436E+03  0.71804656437E+03  0.25500000920E-02 0. -1.
    10030    2    1    2    0    0  0.00000000000E+00  0.00000000000E+00  0.52969180380E+03  0.19657849325E+04  0.18930760666E+04 0.  0.
        1    1    3    3  502    0  0.42354715790E+03  0.84637033578E+03  0.27950578571E+03  0.98684265439E+03  0.50400001928E-02 0. -1.
       -1    1    3    3    0  502 -0.42354715790E+03 -0.84637033578E+03  0.25018601809E+03  0.97894227814E+03  0.50400001928E-02 0.  1.
</event>
<event>
 5   0  0.1255141E-04  0.1893098E+04  0.7818609E-02  0.8658299E-01
        1   -1    0    0  501    0  0.00000000000E+00  0.00000000000E+00  0.10989666415E+04  0.10989666415E+04  0.50400001928E-02 0.  1.
       -1   -1    0    0    0  501  0.00000000000E+00  0.00000000000E+00 -0.81527070342E+03  0.81527070344E+03  0.50400001928E-02 0. -1.
    10030    2    1    2    0    0  0.00000000000E+00  0.00000000000E+00  0.28369593805E+03  0.19142373449E+04  0.18930983143E+04 0.  0.
        2    1    3    3  502    0 -0.72575721175E+03  0.54423124333E+03 -0.13143670504E+03  0.91661703238E+03  0.25500000920E-02 0.  1.
       -2    1    3    3    0  502  0.72575721175E+03 -0.54423124333E+03  0.41513264309E+03  0.99762031253E+03  0.25500000920E-02 0. -1.
</event>
<event>
 5   0  0.2541124E-04  0.1903792E+04  0.7818609E-02  0.8652971E-01
       -2   -1    0    0    0  501  0.00000000000E+00  0.00000000000E+00  0.61991312378E+03  0.61991312379E+03  0.25500000920E-02 0.  1.
        2   -1    0    0  501    0  0.00000000000E+00  0.00000000000E+00 -0.14616667122E+04  0.14616667122E+04  0.25500000920E-02 0. -1.
    10030    2    1    2    0    0  0.00000000000E+00  0.00000000000E+00 -0.84175358842E+03  0.20815798360E+04  0.19037924020E+04 0.  0.
        5    1    3    3  502    0  0.77599318383E+03 -0.52498674247E+03 -0.60483808063E+03  0.11151805660E+04  0.46999998093E+01 0. -1.
       -5    1    3    3    0  502 -0.77599318383E+03  0.52498674247E+03 -0.23691550779E+03  0.96639926994E+03  0.46999998093E+01 0.  1.
</event>
<event>
 5   0  0.1277709E-04  0.1893255E+04  0.7818609E-02  0.8658221E-01
        1   -1    0    0  501    0  0.00000000000E+00  0.00000000000E+00  0.21726978921E+04  0.21726978921E+04  0.50400001928E-02 0.  1.
       -1   -1    0    0    0  501  0.00000000000E+00  0.00000000000E+00 -0.41243830019E+03  0.41243830022E+03  0.50400001928E-02 0. -1.
    10030    2    1    2    0    0  0.00000000000E+00  0.00000000000E+00  0.17602595919E+04  0.25851361924E+04  0.18932552131E+04 0.  0.
        4    1    3    3  502    0  0.66602440259E+03 -0.53784687838E+03  0.14318008123E+04  0.16682095038E+04  0.12699999809E+01 0.  1.
       -4    1    3    3    0  502 -0.66602440259E+03  0.53784687838E+03  0.32845877960E+03  0.91692668857E+03  0.12699999809E+01 0. -1.
</event>
<event>
 5   0  0.1317527E-04  0.1910345E+04  0.7818609E-02  0.8649724E-01
       -1   -1    0    0    0  501  0.00000000000E+00  0.00000000000E+00  0.88012098833E+03  0.88012098835E+03  0.50400001928E-02 0.  1.
        1   -1    0    0  501    0  0.00000000000E+00  0.00000000000E+00 -0.10366241460E+04  0.10366241460E+04  0.50400001928E-02 0. -1.
    10030    2    1    2    0    0  0.00000000000E+00  0.00000000000E+00 -0.15650315763E+03  0.19167451343E+04  0.19103451708E+04 0.  0.
        1    1    3    3  502    0 -0.65994269771E+03 -0.36190509274E+03  0.51181301848E+03  0.91019351037E+03  0.50400001928E-02 0.  1.
       -1    1    3    3    0  502  0.65994269771E+03  0.36190509274E+03 -0.66831617611E+03  0.10065516240E+04  0.50400001928E-02 0. -1.
</event>
<event>
 5   0  0.1317527E-04  0.1889415E+04  0.7818609E-02  0.8660143E-01
       -1   -1    0    0    0  501  0.00000000000E+00  0.00000000000E+00  0.14206554011E+04  0.14206554011E+04  0.50400001928E-02 0. -1.
        1   -1    0    0  501    0  0.00000000000E+00  0.00000000000E+00 -0.62821157278E+03  0.62821157280E+03  0.50400001928E-02 0.  1.
    10030    2    1    2    0    0  0.00000000000E+00  0.00000000000E+00  0.79244382830E+03  0.20488669739E+04  0.18894148977E+04 0.  0.
        1    1    3    3  502    0  0.43789231537E+03  0.67284813205E+03  0.93624261311E+03  0.12332982280E+04  0.50400001928E-02 0. -1.
       -1    1    3    3    0  502 -0.43789231537E+03 -0.67284813205E+03 -0.14379878481E+03  0.81556874585E+03  0.50400001928E-02 0.  1.
</event>
<event>
 5   0  0.1255141E-04  0.1915785E+04  0.7818609E-02  0.8647039E-01
       -1   -1    0    0    0  501  0.00000000000E+00  0.00000000000E+00  0.56615482274E+03  0.56615482276E+03  0.50400001928E-02 0. -1.
        1   -1    0    0  501    0  0.00000000000E+00  0.00000000000E+00 -0.16206843350E+04  0.16206843350E+04  0.50400001928E-02 0.  1.
    10030    2    1    2    0    0  0.00000000000E+00  0.00000000000E+00 -0.10545295122E+04  0.21868391577E+04  0.19157852201E+04 0.  0.
        2    1    3    3  502    0  0.19170273624E+03  0.69409083368E+03  0.19381221915E+03  0.74570449963E+03  0.25500000920E-02 0. -1.
       -2    1    3    3    0  502 -0.19170273624E+03 -0.69409083368E+03 -0.12483417314E+04  0.14411346581E+04  0.25500000920E-02 0.  1.
</event>
<event>
 5   0  0.1239615E-04  0.1878830E+04  0.7818609E-02  0.8665466E-01
       -1   -1    0    0    0  501  0.00000000000E+00  0.00000000000E+00  0.56702070907E+03  0.56702070909E+03  0.50400001928E-02 0. -1.
        1   -1    0    0  501    0  0.00000000000E+00  0.00000000000E+00 -0.15563822015E+04  0.15563822015E+04  0.50400001928E-02 0.  1.
    10030    2    1    2    0    0  0.00000000000E+00  0.00000000000E+00 -0.98936149245E+03  0.21234029106E+04  0.18788304229E+04 0.  0.
        3    1    3    3  502    0 -0.14646184060E+03 -0.73875453989E+03  0.13992064030E+03  0.76602032398E+03  0.10100000352E+00 0. -1.
       -3    1    3    3    0  502  0.14646184060E+03  0.73875453989E+03 -0.11292821327E+04  0.13573825866E+04  0.10100000352E+00 0.  1.
</event>
<event>
 5   0  0.2651828E-04  0.1942791E+04  0.7818609E-02  0.8633845E-01
        2   -1    0    0  501    0  0.00000000000E+00  0.00000000000E+00  0.11910372378E+04  0.11910372378E+04  0.25500000920E-02 0. -1.
       -2   -1    0    0    0  501  0.00000000000E+00  0.00000000000E+00 -0.79225830838E+03  0.79225830838E+03  0.25500000920E-02 0.  1.
    10030    2    1    2    0    0  0.00000000000E+00  0.00000000000E+00  0.39877892939E+03  0.19832955461E+04  0.19427909277E+04 0.  0.
        3    1    3    3  502    0  0.77865746676E+03 -0.38937857892E+03  0.63928642447E+03  0.10800973433E+04  0.10100000352E+00 0. -1.
       -3    1    3    3    0  502 -0.77865746676E+03  0.38937857892E+03 -0.24050749508E+03  0.90319820286E+03  0.10100000352E+00 0.  1.
</event>
<event>
 5   0  0.1239615E-04  0.1921781E+04  0.7818609E-02  0.8644090E-01
        1   -1    0    0  501    0  0.00000000000E+00  0.00000000000E+00  0.15025189413E+04  0.15025189413E+04  0.50400001928E-02 0.  1.
       -1   -1    0    0    0  501  0.00000000000E+00  0.00000000000E+00 -0.61450842784E+03  0.61450842787E+03  0.50400001928E-02 0. -1.
    10030    2    1    2    0    0  0.00000000000E+00  0.00000000000E+00  0.88801051342E+03  0.21170273691E+04  0.19217809994E+04 0.  0.
        3    1    3    3  502    0  0.39318385133E+03  0.61413702146E+03  0.11333202106E+04  0.13476544558E+04  0.10100000352E+00 0.  1.
       -3    1    3    3    0  502 -0.39318385133E+03 -0.61413702146E+03 -0.24530969723E+03  0.76937291337E+03  0.10100000352E+00 0. -1.
</event>
<event>
 5   0  0.2562925E-04  0.1936516E+04  0.7818609E-02  0.8636890E-01
       -2   -1    0    0    0  501  0.00000000000E+00  0.00000000000E+00  0.67365710438E+03  0.67365710439E+03  0.25500000920E-02 0. -1.
        2   -1    0    0  501    0  0.00000000000E+00  0.00000000000E+00 -0.13916931920E+04  0.13916931920E+04  0.25500000920E-02 0.  1.
    10030    2    1    2    0    0  0.00000000000E+00  0.00000000000E+00 -0.71803608764E+03  0.20653502964E+04  0.19365164662E+04 0.  0.
        4    1    3    3  502    0  0.28737105505E+03  0.11274999741E+03 -0.13378030089E+04  0.13729578248E+04  0.12699999809E+01 0.  1.
       -4    1    3    3    0  502 -0.28737105505E+03 -0.11274999741E+03  0.61976692124E+03  0.69239247162E+03  0.12699999809E+01 0. -1.
</event>
<event>
 5   0  0.2651828E-04  0.1909774E+04  0.7818609E-02  0.8650006E-01
       -2   -1    0    0    0  501  0.00000000000E+00  0.00000000000E+00  0.71461717665E+03  0.71461717666E+03  0.25500000920E-02 0.  1.
        2   -1    0    0  501    0  0.00000000000E+00  0.00000000000E+00 -0.12759412198E+04  0.12759412198E+04  0.25500000920E-02 0. -1.
    10030    2    1    2    0    0  0.00000000000E+00  0.00000000000E+00 -0.56132404313E+03  0.19905583964E+04  0.19097743448E+04 0.  0.
        3    1    3    3  502    0 -0.34978669282E+02  0.96869425843E+02  0.70881113299E+03  0.71625444181E+03  0.10100000352E+00 0.  1.
       -3    1    3    3    0  502  0.34978669282E+02 -0.96869425843E+02 -0.12701351761E+04  0.12743039546E+04  0.10100000352E+00 0. -1.
</event>
<event>
 5   0  0.2608744E-04  0.1880854E+04  0.7818609E-02  0.8664446E-01
        2   -1    0    0  501    0  0.00000000000E+00  0.00000000000E+00  0.78538938510E+03  0.78538938510E+03  0.25500000920E-02 0. -1.
       -2   -1    0    0    0  501  0.00000000000E+00  0.00000000000E+00 -0.11260697146E+04  0.11260697146E+04  0.25500000920E-02 0.  1.
    10030    2    1    2    0    0  0.00000000000E+00  0.00000000000E+00 -0.34068032950E+03  0.19114590997E+04  0.18808542748E+04 0.  0.
        2    1    3    3  502    0 -0.75805249113E+03 -0.11565481524E+03 -0.72360992606E+03  0.10543391014E+04  0.25500000920E-02 0.  1.
       -2    1    3    3    0  502  0.75805249113E+03  0.11565481524E+03  0.38292959656E+03  0.85711999832E+03  0.25500000920E-02 0. -1.
</event>
<event>
 5   0  0.1324058E-04  0.1902706E+04  0.7818609E-02  0.8653511E-01
       -1   -1    0    0    0  501  0.00000000000E+00  0.00000000000E+00  0.18303425488E+04  0.18303425488E+04  0.50400001928E-02 0. -1.
        1   -1    0    0  501    0  0.00000000000E+00  0.00000000000E+00 -0.49448269107E+03  0.49448269109E+03  0.50400001928E-02 0.  1.
    10030    2    1    2    0    0  0.00000000000E+00  0.00000000000E+00  0.13358598577E+04  0.23248252399E+04  0.19027061877E+04 0.  0.
        5    1    3    3  502    0 -0.34749700688E+03  0.42199857243E+03  0.16192604680E+04  0.17090533983E+04  0.46999998093E+01 0. -1.
       -5    1    3    3    0  502  0.34749700688E+03 -0.42199857243E+03 -0.28340061034E+03  0.61577184156E+03  0.46999998093E+01 0.  1.
</event>
<event>
 5   0  0.1317527E-04  0.1702959E+04  0.7818609E-02  0.8759679E-01
       -1   -1    0    0    0  501  0.00000000000E+00  0.00000000000E+00  0.55954511027E+03  0.55954511030E+03  0.50400001928E-02 0.  1.
        1   -1    0    0  501    0  0.00000000000E+00  0.00000000000E+00 -0.12957261420E+04  0.12957261420E+04  0.50400001928E-02 0. -1.
    10030    2    1    2    0    0  0.00000000000E+00  0.00000000000E+00 -0.73618103172E+03  0.18552712523E+04  0.17029588686E+04 0.  0.
        1    1    3    3  502    0 -0.11662510249E+03  0.47694073387E+02 -0.12855134259E+04  0.12916736845E+04  0.50400001928E-02 0. -1.
       -1    1    3    3    0  502  0.11662510249E+03 -0.47694073387E+02  0.54933239413E+03  0.56359756780E+03  0.50400001928E-02 0.  1.
</event>
<event>
 5   0  0.2562925E-04  0.1910943E+04  0.7818609E-02  0.8649428E-01
        2   -1    0    0  501    0  0.00000000000E+00  0.00000000000E+00  0.79116902480E+03  0.79116902480E+03  0.25500000920E-02 0.  1.
       -2   -1    0    0    0  501  0.00000000000E+00  0.00000000000E+00 -0.11538953386E+04  0.11538953386E+04  0.25500000920E-02 0. -1.
    10030    2    1    2    0    0  0.00000000000E+00  0.00000000000E+00 -0.36272631381E+03  0.19450643634E+04  0.19109434840E+04 0.  0.
        4    1    3    3  502    0 -0.61359444214E+03 -0.58010495106E+03 -0.63645356644E+03  0.10573999474E+04  0.12699999809E+01 0. -1.
       -4    1    3    3    0  502  0.61359444214E+03  0.58010495106E+03  0.27372725263E+03  0.88766441599E+03  0.12699999809E+01 0.  1.
</event>
<event>
 5   0  0.2562925E-04  0.1895361E+04  0.7818609E-02  0.8657169E-01
       -2   -1    0    0    0  501  0.00000000000E+00  0.00000000000E+00  0.78976946924E+03  0.78976946925E+03  0.25500000920E-02 0.  1.
        2   -1    0    0  501    0  0.00000000000E+00  0.00000000000E+00 -0.11371656203E+04  0.11371656203E+04  0.25500000920E-02 0. -1.
    10030    2    1    2    0    0  0.00000000000E+00  0.00000000000E+00 -0.34739615108E+03  0.19269350896E+04  0.18953613781E+04 0.  0.
        4    1    3    3  502    0  0.99731621331E+02  0.78690986980E+03 -0.70091514787E+03  0.10585165076E+04  0.12699999809E+01 0. -1.
       -4    1    3    3    0  502 -0.99731621331E+02 -0.78690986980E+03  0.35351899680E+03  0.86841858195E+03  0.12699999809E+01 0.  1.
</event>
<event>
 5   0  0.2541124E-04  0.1829241E+04  0.7818609E-02  0.8690902E-01
        2   -1    0    0  501    0  0.00000000000E+00  0.00000000000E+00  0.16640548840E+04  0.16640548840E+04  0.25500000920E-02 0. -1.
       -2   -1    0    0    0  501  0.00000000000E+00  0.00000000000E+00 -0.50270642457E+03  0.50270642458E+03  0.25500000920E-02 0.  1.
    10030    2    1    2    0    0  0.00000000000E+00  0.00000000000E+00  0.11613484595E+04  0.21667613086E+04  0.18292414614E+04 0.  0.
        5    1    3    3  502    0 -0.40879371635E+03 -0.51371119865E+03  0.13349568865E+04  0.14876637648E+04  0.46999998093E+01 0. -1.
       -5    1    3    3    0  502  0.40879371635E+03  0.51371119865E+03 -0.17360842705E+03  0.67909754386E+03  0.46999998093E+01 0.  1.
</event>
<event>
 5   0  0.2651828E-04  0.1850837E+04  0.7818609E-02  0.8679722E-01
       -2   -1    0    0    0  501  0.00000000000E+00  0.00000000000E+00  0.89594623037E+03  0.89594623038E+03  0.25500000920E-02 0. -1.
        2   -1    0    0  501    0  0.00000000000E+00  0.00000000000E+00 -0.95586028596E+03  0.95586028596E+03  0.25500000920E-02 0.  1.
    10030    2    1    2    0    0  0.00000000000E+00  0.00000000000E+00 -0.59914055586E+02  0.18518065163E+04  0.18508370214E+04 0.  0.
        3    1    3    3  502    0  0.40667241313E+03  0.24155319769E+03  0.76586455184E+03  0.90015494271E+03  0.10100000352E+00 0. -1.
       -3    1    3    3    0  502 -0.40667241313E+03 -0.24155319769E+03 -0.82577860743E+03  0.95165157363E+03  0.10100000352E+00 0.  1.
</event>
<event>
 5   0  0.2562925E-04  0.1901344E+04  0.7818609E-02  0.8654188E-01
        2   -1    0    0  501    0  0.00000000000E+00  0.00000000000E+00  0.17099475548E+04  0.17099475548E+04  0.25500000920E-02 0.  1.
       -2   -1    0    0    0  501  0.00000000000E+00  0.00000000000E+00 -0.52854078402E+03  0.52854078402E+03  0.25500000920E-02 0. -1.
    10030    2    1    2    0    0  0.00000000000E+00  0.00000000000E+00  0.11814067708E+04  0.22384883388E+04  0.19013437577E+04 0.  0.
        4    1    3    3  502    0  0.59795539192E+03 -0.35583530976E+03 -0.17192862937E+03  0.71674994587E+03  0.12699999809E+01 0. -1.
       -4    1    3    3    0  502 -0.59795539192E+03  0.35583530976E+03  0.13533354001E+04  0.15217383929E+04  0.12699999809E+01 0.  1.
</event>
<event>
 5   0  0.1324058E-04  0.1927062E+04  0.7818609E-02  0.8641502E-01
       -1   -1    0    0    0  501  0.00000000000E+00  0.00000000000E+00  0.61450257931E+03  0.61450257933E+03  0.50400001928E-02 0. -1.
        1   -1    0    0  501    0  0.00000000000E+00  0.00000000000E+00 -0.15108031546E+04  0.15108031546E+04  0.50400001928E-02 0.  1.
    10030    2    1    2    0    0  0.00000000000E+00  0.00000000000E+00 -0.89630057532E+03  0.21253057340E+04  0.19270624644E+04 0.  0.
        5    1    3    3  502    0  0.40567895863E+03 -0.48747411785E+03 -0.12481432211E+04  0.14000321508E+04  0.46999998093E+01 0.  1.
       -5    1    3    3    0  502 -0.40567895863E+03  0.48747411785E+03  0.35184264575E+03  0.72527358315E+03  0.46999998093E+01 0. -1.
</event>
<event>
 5   0  0.1255141E-04  0.1826005E+04  0.7818609E-02  0.8692591E-01
        1   -1    0    0  501    0  0.00000000000E+00  0.00000000000E+00  0.10388017202E+04  0.10388017202E+04  0.50400001928E-02 0. -1.
       -1   -1    0    0    0  501  0.00000000000E+00  0.00000000000E+00 -0.80243745501E+03  0.80243745503E+03  0.50400001928E-02 0.  1.
    10030    2    1    2    0    0  0.00000000000E+00  0.00000000000E+00  0.23636426522E+03  0.18412391753E+04  0.18260048288E+04 0.  0.
        2    1    3    3  502    0  0.30662617220E+03 -0.85542428686E+03  0.20725420462E+03  0.93205398200E+03  0.25500000920E-02 0. -1.
       -2    1    3    3    0  502 -0.30662617220E+03  0.85542428686E+03  0.29110060602E+02  0.90918519327E+03  0.25500000920E-02 0.  1.
</event>
<event>
 5   0  0.2562925E-04  0.1609609E+04  0.7818609E-02  0.8814667E-01
       -2   -1    0    0    0  501  0.00000000000E+00  0.00000000000E+00  0.39477747519E+03  0.39477747519E+03  0.25500000920E-02 0.  1.
        2   -1    0    0  501    0  0.00000000000E+00  0.00000000000E+00 -0.16406968056E+04  0.16406968056E+04  0.25500000920E-02 0. -1.
    10030    2    1    2    0    0  0.00000000000E+00  0.00000000000E+00 -0.12459193304E+04  0.20354742808E+04  0.16096088251E+04 0.  0.
        4    1    3    3  502    0  0.20190079398E+03 -0.61290994910E+03 -0.12311225902E+04  0.13899953170E+04  0.12699999809E+01 0. -1.
       -4    1    3    3    0  502 -0.20190079398E+03  0.61290994910E+03 -0.14796740265E+02  0.64547896383E+03  0.12699999809E+01 0.  1.
</event>
<event>
 5   0  0.2651828E-04  0.1899425E+04  0.7818609E-02  0.8655143E-01
        2   -1    0    0  501    0  0.00000000000E+00  0.00000000000E+00  0.13970982437E+04  0.13970982437E+04  0.25500000920E-02 0.  1.
       -2   -1    0    0    0  501  0.00000000000E+00  0.00000000000E+00 -0.64559062164E+03  0.64559062165E+03  0.25500000920E-02 0. -1.
    10030    2    1    2    0    0  0.00000000000E+00  0.00000000000E+00  0.75150762209E+03  0.20426888654E+04  0.18994246747E+04 0.  0.
        3    1    3    3  502    0 -0.74411657265E+03 -0.67837485677E+02  0.10061786817E+04  0.12532784798E+04  0.10100000352E+00 0.  1.
       -3    1    3    3    0  502  0.74411657265E+03  0.67837485677E+02 -0.25467105959E+03  0.78941038563E+03  0.10100000352E+00 0. -1.
</event>
<event>
 5   0  0.9266125E-05  0.1908888E+04  0.7818609E-02  0.8650445E-01
        3   -1    0    0  501    0  0.00000000000E+00  0.00000000000E+00  0.65115152048E+03  0.65115152832E+03  0.10100000352E+00 0. -1.
       -3   -1    0    0    0  501  0.00000000000E+00  0.00000000000E+00 -0.13990029692E+04  0.13990029728E+04  0.10100000352E+00 0.  1.
    10030    2    1    2    0    0  0.00000000000E+00  0.00000000000E+00 -0.74785144868E+03  0.20501545011E+04  0.19088875528E+04 0.  0.
        5    1    3    3  502    0 -0.58506813280E+03  0.20395886534E+03  0.40577287454E+03  0.74066028277E+03  0.46999998093E+01 0.  1.
       -5    1    3    3    0  502  0.58506813280E+03 -0.20395886534E+03 -0.11536243232E+04  0.13094942184E+04  0.46999998093E+01 0. -1.
</event>
<event>
 5   0  0.2608744E-04  0.1914979E+04  0.7818609E-02  0.8647436E-01
        2   -1    0    0  501    0  0.00000000000E+00  0.00000000000E+00  0.10157435613E+04  0.10157435613E+04  0.25500000920E-02 0. -1.
       -2   -1    0    0    0  501  0.00000000000E+00  0.00000000000E+00 -0.90257671207E+03  0.90257671208E+03  0.25500000920E-02 0.  1.
    10030    2    1    2    0    0  0.00000000000E+00  0.00000000000E+00  0.11316684923E+03  0.19183202734E+04  0.19149793564E+04 0.  0.
        2    1    3    3  502    0 -0.57674146490E+03  0.43215077797E+03  0.68808109895E+03  0.99641387534E+03  0.25500000920E-02 0. -1.
       -2    1    3    3    0  502  0.57674146490E+03 -0.43215077797E+03 -0.57491424971E+03  0.92190639805E+03  0.25500000920E-02 0.  1.
</event>
<event>
 5   0  0.2562925E-04  0.1756010E+04  0.7818609E-02  0.8730049E-01
       -2   -1    0    0    0  501  0.00000000000E+00  0.00000000000E+00  0.85898056547E+03  0.85898056547E+03  0.25500000920E-02 0.  1.
        2   -1    0    0  501    0  0.00000000000E+00  0.00000000000E+00 -0.89745033350E+03  0.89745033351E+03  0.25500000920E-02 0. -1.
    10030    2    1    2    0    0  0.00000000000E+00  0.00000000000E+00 -0.38469768037E+02  0.17564308990E+04  0.17560095614E+04 0.  0.
        4    1    3    3  502    0  0.42060796870E+03  0.70857086853E+03 -0.32246936870E+03  0.88485696342E+03  0.12699999809E+01 0.  1.
       -4    1    3    3    0  502 -0.42060796870E+03 -0.70857086853E+03  0.28399960066E+03  0.87157393556E+03  0.12699999809E+01 0. -1.
</event>
<event>
 5   0  0.1317527E-04  0.1919228E+04  0.7818609E-02  0.8645344E-01
        1   -1    0    0  501    0  0.00000000000E+00  0.00000000000E+00  0.12514952366E+04  0.12514952366E+04  0.50400001928E-02 0.  1.
       -1   -1    0    0    0  501  0.00000000000E+00  0.00000000000E+00 -0.73580673247E+03  0.73580673248E+03  0.50400001928E-02 0. -1.
    10030    2    1    2    0    0  0.00000000000E+00  0.00000000000E+00  0.51568850413E+03  0.19873019691E+04  0.19192275746E+04 0.  0.
        1    1    3    3  502    0 -0.95345861528E+03 -0.66879395379E+02  0.16935892251E+03  0.97068976982E+03  0.50400001928E-02 0. -1.
       -1    1    3    3    0  502  0.95345861528E+03  0.66879395379E+02  0.34632958162E+03  0.10166121993E+04  0.50400001928E-02 0.  1.
</event>
<event>
 5   0  0.2608744E-04  0.1890645E+04  0.7818609E-02  0.8659527E-01
        2   -1    0    0  501    0  0.00000000000E+00  0.00000000000E+00  0.75306407870E+03  0.75306407870E+03  0.25500000920E-02 0.  1.
       -2   -1    0    0    0  501  0.00000000000E+00  0.00000000000E+00 -0.11866643081E+04  0.11866643081E+04  0.25500000920E-02 0. -1.
    10030    2    1    2    0    0  0.00000000000E+00  0.00000000000E+00 -0.43360022944E+03  0.19397283868E+04  0.18906446138E+04 0.  0.
        2    1    3    3  502    0 -0.49893055411E+03 -0.50242731947E+03 -0.85937420530E+03  0.11135030013E+04  0.25500000920E-02 0. -1.
       -2    1    3    3    0  502  0.49893055411E+03  0.50242731947E+03  0.42577397586E+03  0.82622538554E+03  0.25500000920E-02 0.  1.
</event>
<event>
 5   0  0.1324058E-04  0.1895238E+04  0.7818609E-02  0.8657230E-01
        1   -1    0    0  501    0  0.00000000000E+00  0.00000000000E+00  0.18876645222E+04  0.18876645223E+04  0.50400001928E-02 0.  1.
       -1   -1    0    0    0  501  0.00000000000E+00  0.00000000000E+00 -0.47571067455E+03  0.47571067458E+03  0.50400001928E-02 0. -1.
    10030    2    1    2    0    0  0.00000000000E+00  0.00000000000E+00  0.14119538477E+04  0.23633751968E+04  0.18952384159E+04 0.  0.
        5    1    3    3  502    0  0.25857469106E+03 -0.46360526284E+03  0.16848330716E+04  0.17664867052E+04  0.46999998093E+01 0.  1.
       -5    1    3    3    0  502 -0.25857469106E+03  0.46360526284E+03 -0.27287922389E+03  0.59688849162E+03  0.46999998093E+01 0. -1.
</event>
<event>
 5   0  0.1239615E-04  0.1888381E+04  0.7818609E-02  0.8660662E-01
       -1   -1    0    0    0  501  0.00000000000E+00  0.00000000000E+00  0.77418484691E+03  0.77418484693E+03  0.50400001928E-02 0. -1.
        1   -1    0    0  501    0  0.00000000000E+00  0.00000000000E+00 -0.11515278971E+04  0.11515278971E+04  0.50400001928E-02 0.  1.
    10030    2    1    2    0    0  0.00000000000E+00  0.00000000000E+00 -0.37734305021E+03  0.19257127441E+04  0.18883807336E+04 0.  0.
        3    1    3    3  502    0 -0.56173778982E+03 -0.41319244992E+03  0.46048041300E+03  0.83565517179E+03  0.10100000352E+00 0. -1.
       -3    1    3    3    0  502  0.56173778982E+03  0.41319244992E+03 -0.83782346320E+03  0.10900575723E+04  0.10100000352E+00 0.  1.
</event>
<event>
 5   0  0.2541124E-04  0.1921220E+04  0.7818609E-02  0.8644365E-01
       -2   -1    0    0    0  501  0.00000000000E+00  0.00000000000E+00  0.88745685814E+03  0.88745685814E+03  0.25500000920E-02 0.  1.
        2   -1    0    0  501    0  0.00000000000E+00  0.00000000000E+00 -0.10397935224E+04  0.10397935224E+04  0.25500000920E-02 0. -1.
    10030    2    1    2    0    0  0.00000000000E+00  0.00000000000E+00 -0.15233666427E+03  0.19272503806E+04  0.19212203336E+04 0.  0.
        5    1    3    3  502    0 -0.50516884958E+02  0.40047977689E+03 -0.95057719891E+03  0.10327415497E+04  0.46999998093E+01 0. -1.
       -5    1    3    3    0  502  0.50516884958E+02 -0.40047977689E+03  0.79824053464E+03  0.89450883087E+03  0.46999998093E+01 0.  1.
</event>
<event>
 5   0  0.1324058E-04  0.1890279E+04  0.7818609E-02  0.8659710E-01
        1   -1    0    0  501    0  0.00000000000E+00  0.00000000000E+00  0.17689792895E+04  0.17689792895E+04  0.50400001928E-02 0. -1.
       -1   -1    0    0    0  501  0.00000000000E+00  0.00000000000E+00 -0.50497429079E+03  0.50497429082E+03  0.50400001928E-02 0.  1.
    10030    2    1    2    0    0  0.00000000000E+00  0.00000000000E+00  0.12640049987E+04  0.22739535803E+04  0.18902794102E+04 0.  0.
        5    1    3    3  502    0 -0.85490628324E+03  0.35529413825E+03  0.86078331575E+03  0.12641474141E+04  0.46999998093E+01 0. -1.
       -5    1    3    3    0  502  0.85490628324E+03 -0.35529413825E+03  0.40322168293E+03  0.10098061662E+04  0.46999998093E+01 0.  1.
</event>
<event>
 5   0  0.2651828E-04  0.1920104E+04  0.7818609E-02  0.8644913E-01
       -2   -1    0    0    0  501  0.00000000000E+00  0.00000000000E+00  0.78811813546E+03  0.78811813546E+03  0.25500000920E-02 0. -1.
        2   -1    0    0  501    0  0.00000000000E+00  0.00000000000E+00 -0.11694949031E+04  0.11694949032E+04  0.25500000920E-02 0.  1.
    10030    2    1    2    0    0  0.00000000000E+00  0.00000000000E+00 -0.38137676769E+03  0.19576130386E+04  0.19201043123E+04 0.  0.
        3    1    3    3  502    0 -0.60855470384E+03  0.49098137131E+02  0.56469719386E+03  0.83164438649E+03  0.10100000352E+00 0. -1.
       -3    1    3    3    0  502  0.60855470384E+03 -0.49098137131E+02 -0.94607396155E+03  0.11259686521E+04  0.10100000352E+00 0.  1.
</event>
<event>
 5   0  0.1317527E-04  0.1871922E+04  0.7818609E-02  0.8668960E-01
       -1   -1    0    0    0  501  0.00000000000E+00  0.00000000000E+00  0.12187169989E+04  0.12187169989E+04  0.50400001928E-02 0.  1.
        1   -1    0    0  501    0  0.00000000000E+00  0.00000000000E+00 -0.71880761258E+03  0.71880761260E+03  0.50400001928E-02 0. -1.
    10030    2    1    2    0    0  0.00000000000E+00  0.00000000000E+00  0.49990938632E+03  0.19375246115E+04  0.18719220672E+04 0.  0.
        1    1    3    3  502    0  0.84844976617E+03 -0.59616160456E+01  0.65892280297E+03  0.10742819960E+04  0.50400001928E-02 0.  1.
       -1    1    3    3    0  502 -0.84844976617E+03  0.59616160456E+01 -0.15901341665E+03  0.86324261554E+03  0.50400001928E-02 0. -1.
</event>
<event>
 5   0  0.1324058E-04  0.1883009E+04  0.7818609E-02  0.8663361E-01
        1   -1    0    0  501    0  0.00000000000E+00  0.00000000000E+00  0.14190977032E+04  0.14190977032E+04  0.50400001928E-02 0. -1.
       -1   -1    0    0    0  501  0.00000000000E+00  0.00000000000E+00 -0.62464371668E+03  0.62464371670E+03  0.50400001928E-02 0.  1.
    10030    2    1    2    0    0  0.00000000000E+00  0.00000000000E+00  0.79445398655E+03  0.20437414199E+04  0.18830087240E+04 0.  0.
        5    1    3    3  502    0 -0.25197174406E+03  0.14570504307E+03 -0.57457208616E+03  0.64410782605E+03  0.46999998093E+01 0.  1.
       -5    1    3    3    0  502  0.25197174406E+03 -0.14570504307E+03  0.13690260727E+04  0.13996335939E+04  0.46999998093E+01 0. -1.
</event>
<event>
 5   0  0.2651828E-04  0.1908999E+04  0.7818609E-02  0.8650390E-01
       -2   -1    0    0    0  501  0.00000000000E+00  0.00000000000E+00  0.40614226059E+03  0.40614226060E+03  0.25500000920E-02 0.  1.
        2   -1    0    0  501    0  0.00000000000E+00  0.00000000000E+00 -0.22432279872E+04  0.22432279872E+04  0.25500000920E-02 0. -1.
    10030    2    1    2    0    0  0.00000000000E+00  0.00000000000E+00 -0.18370857266E+04  0.26493702478E+04  0.19089994089E+04 0.  0.
        3    1    3    3  502    0  0.58609733460E+03  0.70486343389E+03 -0.12876308224E+04  0.15806124417E+04  0.10100000352E+00 0. -1.
       -3    1    3    3    0  502 -0.58609733460E+03 -0.70486343389E+03 -0.54945490428E+03  0.10687578061E+04  0.10100000352E+00 0.  1.
</event>
<event>
 5   0  0.2541124E-04  0.1870650E+04  0.7818609E-02  0.8669605E-01
        2   -1    0    0  501    0  0.00000000000E+00  0.00000000000E+00  0.19590498717E+04  0.19590498717E+04  0.25500000920E-02 0. -1.
       -2   -1    0    0    0  501  0.00000000000E+00  0.00000000000E+00 -0.44655972092E+03  0.44655972093E+03  0.25500000920E-02 0.  1.
    10030    2    1    2    0    0  0.00000000000E+00  0.00000000000E+00  0.15124901507E+04  0.24056095926E+04  0.18706499020E+04 0.  0.
        5    1    3    3  502    0 -0.77150205580E+03 -0.21790276429E+03  0.13668566207E+03  0.81326631370E+03  0.46999998093E+01 0.  1.
       -5    1    3    3    0  502  0.77150205580E+03  0.21790276429E+03  0.13758044887E+04  0.15923432789E+04  0.46999998093E+01 0. -1.
</event>
<event>
 5   0  0.2541124E-04  0.1960662E+04  0.7818609E-02  0.8625236E-01
        2   -1    0    0  501    0  0.00000000000E+00  0.00000000000E+00  0.76419667599E+03  0.76419667599E+03  0.25500000920E-02 0. -1.
       -2   -1    0    0    0  501  0.00000000000E+00  0.00000000000E+00 -0.12575942416E+04  0.12575942416E+04  0.25500000920E-02 0.  1.
    10030    2    1    2    0    0  0.00000000000E+00  0.00000000000E+00 -0.49339756556E+03  0.20217909176E+04  0.19606624790E+04 0.  0.
        5    1    3    3  502    0  0.32326101410E+03  0.59661224415E+03 -0.97627660455E+03  0.11889415258E+04  0.46999998093E+01 0.  1.
       -5    1    3    3    0  502 -0.32326101410E+03 -0.59661224415E+03  0.48287903898E+03  0.83284939178E+03  0.46999998093E+01 0. -1.
</event>
<event>
 5   0  0.1277709E-04  0.1886361E+04  0.7818609E-02  0.8661675E-01
        1   -1    0    0  501    0  0.00000000000E+00  0.00000000000E+00  0.81226908404E+03  0.81226908406E+03  0.50400001928E-02 0.  1.
       -1   -1    0    0    0  501  0.00000000000E+00  0.00000000000E+00 -0.10951904672E+04  0.10951904672E+04  0.50400001928E-02 0. -1.
    10030    2    1    2    0    0  0.00000000000E+00  0.00000000000E+00 -0.28292138312E+03  0.19074595512E+04  0.18863608962E+04 0.  0.
        4    1    3    3  502    0  0.48516781910E+03 -0.78482305350E+03 -0.33923124904E+03  0.98306382866E+03  0.12699999809E+01 0. -1.
       -4    1    3    3    0  502 -0.48516781910E+03  0.78482305350E+03  0.56309865920E+02  0.92439572257E+03  0.12699999809E+01 0.  1.
</event>
<event>
 5   0  0.9266125E-05  0.1889444E+04  0.7818609E-02  0.8660128E-01
        3   -1    0    0  501    0  0.00000000000E+00  0.00000000000E+00  0.83266114502E+03  0.83266115115E+03  0.10100000352E+00 0.  1.
       -3   -1    0    0    0  501  0.00000000000E+00  0.00000000000E+00 -0.10718647246E+04  0.10718647294E+04  0.10100000352E+00 0. -1.
    10030    2    1    2    0    0  0.00000000000E+00  0.00000000000E+00 -0.23920357963E+03  0.19045258806E+04  0.18894444891E+04 0.  0.
        1    1    3    3  502    0 -0.94014167927E+03 -0.90978908827E+01 -0.21281134746E+03  0.96396982233E+03  0.50400001928E-02 0.  1.
       -1    1    3    3    0  502  0.94014167927E+03  0.90978908827E+01 -0.26392232163E+02  0.94055605823E+03  0.50400001928E-02 0. -1.
</event>
<event>
 5   0  0.1277709E-04  0.1893243E+04  0.7818609E-02  0.8658227E-01
       -1   -1    0    0    0  501  0.00000000000E+00  0.00000000000E+00  0.10032091180E+04  0.10032091180E+04  0.50400001928E-02 0. -1.
        1   -1    0    0  501    0  0.00000000000E+00  0.00000000000E+00 -0.89322534228E+03  0.89322534229E+03  0.50400001928E-02 0.  1.
    10030    2    1    2    0    0  0.00000000000E+00  0.00000000000E+00  0.10998377570E+03  0.18964344603E+04  0.18932425178E+04 0.  0.
        4    1    3    3  502    0 -0.71334499184E+03 -0.55789658645E+03 -0.22111847677E+03  0.93220420093E+03  0.12699999809E+01 0. -1.
       -4    1    3    3    0  502  0.71334499184E+03  0.55789658645E+03  0.33110225248E+03  0.96423025935E+03  0.12699999809E+01 0.  1.
</event>
<event>
 5   0  0.1239615E-04  0.1900955E+04  0.7818609E-02  0.8654381E-01
       -1   -1    0    0    0  501  0.00000000000E+00  0.00000000000E+00  0.38430410679E+03  0.38430410682E+03  0.50400001928E-02 0.  1.
        1   -1    0    0  501    0  0.00000000000E+00  0.00000000000E+00 -0.23507617219E+04  0.23507617219E+04  0.50400001928E-02 0. -1.
    10030    2    1    2    0    0  0.00000000000E+00  0.00000000000E+00 -0.19664576151E+04  0.27350658287E+04  0.19009549009E+04 0.  0.
        3    1    3    3  502    0  0.24771746538E+03 -0.72715330711E+03 -0.17790548753E+03  0.78852155798E+03  0.10100000352E+00 0.  1.
       -3    1    3    3    0  502 -0.24771746538E+03  0.72715330711E+03 -0.17885521275E+04  0.19465442707E+04  0.10100000352E+00 0. -1.
</event>
<event>
 5   0  0.1317527E-04  0.1897022E+04  0.7818609E-02  0.8656340E-01
       -1   -1    0    0    0  501  0.00000000000E+00  0.00000000000E+00  0.62186167373E+03  0.62186167375E+03  0.50400001928E-02 0.  1.
        1   -1    0    0  501    0  0.00000000000E+00  0.00000000000E+00 -0.14467420807E+04  0.14467420808E+04  0.50400001928E-02 0. -1.
    10030    2    1    2    0    0  0.00000000000E+00  0.00000000000E+00 -0.82488040701E+03  0.20686037545E+04  0.18970223529E+04 0.  0.
        1    1    3    3  502    0 -0.47191134360E+02 -0.17623292660E+03  0.60254842316E+03  0.62956306265E+03  0.50400001928E-02 0.  1.
       -1    1    3    3    0  502  0.47191134360E+02  0.17623292660E+03 -0.14274288302E+04  0.14390406919E+04  0.50400001928E-02 0. -1.
</event>
<event>
 5   0  0.2651828E-04  0.1881067E+04  0.7818609E-02  0.8664338E-01
        2   -1    0    0  501    0  0.00000000000E+00  0.00000000000E+00  0.71528751908E+03  0.71528751908E+03  0.25500000920E-02 0. -1.
       -2   -1    0    0    0  501  0.00000000000E+00  0.00000000000E+00 -0.12367105565E+04  0.12367105565E+04  0.25500000920E-02 0.  1.
    10030    2    1    2    0    0  0.00000000000E+00  0.00000000000E+00 -0.52142303744E+03  0.19519980756E+04  0.18810673840E+04 0.  0.
        3    1    3    3  502    0 -0.65248194896E+03  0.10724915741E+03  0.43336563940E+03  0.79059525871E+03  0.10100000352E+00 0. -1.
       -3    1    3    3    0  502  0.65248194896E+03 -0.10724915741E+03 -0.95478867684E+03  0.11614028169E+04  0.10100000352E+00 0.  1.
</event>
<event>
 5   0  0.2541124E-04  0.1918361E+04  0.7818609E-02  0.8645770E-01
       -2   -1    0    0    0  501  0.00000000000E+00  0.00000000000E+00  0.17004720994E+04  0.17004720994E+04  0.25500000920E-02 0. -1.
        2   -1    0    0  501    0  0.00000000000E+00  0.00000000000E+00 -0.54104233163E+03  0.54104233164E+03  0.25500000920E-02 0.  1.
    10030    2    1    2    0    0  0.00000000000E+00  0.00000000000E+00  0.11594297678E+04  0.22415144311E+04  0.19183611647E+04 0.  0.
        5    1    3    3  502    0 -0.86625863149E+03 -0.34268500644E+03  0.31283589735E+03  0.98271329437E+03  0.46999998093E+01 0.  1.
       -5    1    3    3    0  502  0.86625863149E+03  0.34268500644E+03  0.84659387044E+03  0.12588011367E+04  0.46999998093E+01 0. -1.
</event>
<event>
 5   0  0.2541124E-04  0.2001360E+04  0.7818609E-02  0.8605985E-01
        2   -1    0    0  501    0  0.00000000000E+00  0.00000000000E+00  0.14564752250E+04  0.14564752250E+04  0.25500000920E-02 0. -1.
       -2   -1    0    0    0  501  0.00000000000E+00  0.00000000000E+00 -0.68752329063E+03  0.68752329063E+03  0.25500000920E-02 0.  1.
    10030    2    1    2    0    0  0.00000000000E+00  0.00000000000E+00  0.76895193433E+03  0.21439985156E+04  0.20013601769E+04 0.  0.
        5    1    3    3  502    0 -0.36273412130E+03  0.46967399474E+03  0.12476096424E+04  0.13815649148E+04  0.46999998093E+01 0. -1.
       -5    1    3    3    0  502  0.36273412130E+03 -0.46967399474E+03 -0.47865770806E+03  0.76243360077E+03  0.46999998093E+01 0.  1.
</event>
<event>
 5   0  0.1317527E-04  0.1536728E+04  0.7818609E-02  0.8860390E-01
        1   -1    0    0  501    0  0.00000000000E+00  0.00000000000E+00  0.95573300751E+03  0.95573300753E+03  0.50400001928E-02 0.  1.
       -1   -1    0    0    0  501  0.00000000000E+00  0.00000000000E+00 -0.61772795512E+03  0.61772795514E+03  0.50400001928E-02 0. -1.
    10030    2    1    2    0    0  0.00000000000E+00  0.00000000000E+00  0.33800505239E+03  0.15734609627E+04  0.15367276875E+04 0.  0.
        1    1    3    3  502    0 -0.28008761756E+03  0.42162181465E+03 -0.42288899039E+03  0.65958253942E+03  0.50400001928E-02 0. -1.
       -1    1    3    3    0  502  0.28008761756E+03 -0.42162181465E+03  0.76089404278E+03  0.91387842324E+03  0.50400001928E-02 0.  1.
</event>
<event>
 5   0  0.2595012E-04  0.1829776E+04  0.7818609E-02  0.8690623E-01
       -2   -1    0    0    0  501  0.00000000000E+00  0.00000000000E+00  0.67398756695E+03  0.67398756696E+03  0.25500000920E-02 0. -1.
        2   -1    0    0  501    0  0.00000000000E+00  0.00000000000E+00 -0.12418922472E+04  0.12418922472E+04  0.25500000920E-02 0.  1.
    10030    2    1    2    0    0  0.00000000000E+00  0.00000000000E+00 -0.56790468027E+03  0.19158798142E+04  0.18297758706E+04 0.  0.
        1    1    3    3  502    0 -0.24965459112E+03 -0.42333376135E+02  0.63656533678E+03  0.68508025633E+03  0.50400001928E-02 0. -1.
       -1    1    3    3    0  502  0.24965459112E+03  0.42333376135E+02 -0.12044700170E+04  0.12307995578E+04  0.50400001928E-02 0.  1.
</event>
<event>
 5   0  0.2595012E-04  0.1889402E+04  0.7818609E-02  0.8660150E-01
        2   -1    0    0  501    0  0.00000000000E+00  0.00000000000E+00  0.79158924618E+03  0.79158924618E+03  0.25500000920E-02 0. -1.
       -2   -1    0    0    0  501  0.00000000000E+00  0.00000000000E+00 -0.11274281061E+04  0.11274281061E+04  0.25500000920E-02 0.  1.
    10030    2    1    2    0    0  0.00000000000E+00  0.00000000000E+00 -0.33583885994E+03  0.19190173523E+04  0.18894019844E+04 0.  0.
        1    1    3    3  502    0 -0.39991029460E+03 -0.62892388162E+03  0.42168504095E+03  0.85632456836E+03  0.50400001928E-02 0. -1.
       -1    1    3    3    0  502  0.39991029460E+03  0.62892388162E+03 -0.75752390088E+03  0.10626927839E+04  0.50400001928E-02 0.  1.
</event>
<event>
 5   0  0.1239615E-04  0.1913878E+04  0.7818609E-02  0.8647979E-01
        1   -1    0    0  501    0  0.00000000000E+00  0.00000000000E+00  0.24374936696E+04  0.24374936696E+04  0.50400001928E-02 0.  1.
       -1   -1    0    0    0  501  0.00000000000E+00  0.00000000000E+00 -0.37568590939E+03  0.37568590943E+03  0.50400001928E-02 0. -1.
    10030    2    1    2    0    0  0.00000000000E+00  0.00000000000E+00  0.20618077602E+04  0.28131795790E+04  0.19138777661E+04 0.  0.
        3    1    3    3  502    0  0.45829397503E+03  0.27693072038E+03 -0.13486203158E+03  0.55218816467E+03  0.10100000352E+00 0. -1.
       -3    1    3    3    0  502 -0.45829397503E+03 -0.27693072038E+03  0.21966697917E+04  0.22609914143E+04  0.10100000352E+00 0.  1.
</event>
<event>
 5   0  0.2562925E-04  0.1604771E+04  0.7818609E-02  0.8817622E-01
        2   -1    0    0  501    0  0.00000000000E+00  0.00000000000E+00  0.18065367579E+04  0.18065367579E+04  0.25500000920E-02 0. -1.
       -2   -1    0    0    0  501  0.00000000000E+00  0.00000000000E+00 -0.35638499053E+03  0.35638499054E+03  0.25500000920E-02 0.  1.
    10030    2    1    2    0    0  0.00000000000E+00  0.00000000000E+00  0.14501517674E+04  0.21629217484E+04  0.16047711181E+04 0.  0.
        4    1    3    3  502    0  0.68347032446E+03 -0.96522086115E+02  0.12764801427E+04  0.14511551830E+04  0.12699999809E+01 0. -1.
       -4    1    3    3    0  502 -0.68347032446E+03  0.96522086115E+02  0.17367162463E+03  0.71176656541E+03  0.12699999809E+01 0.  1.
</event>
<event>
 5   0  0.1255141E-04  0.1901823E+04  0.7818609E-02  0.8653949E-01
        1   -1    0    0  501    0  0.00000000000E+00  0.00000000000E+00  0.84584939089E+03  0.84584939090E+03  0.50400001928E-02 0.  1.
       -1   -1    0    0    0  501  0.00000000000E+00  0.00000000000E+00 -0.10690232446E+04  0.10690232446E+04  0.50400001928E-02 0. -1.
    10030    2    1    2    0    0  0.00000000000E+00  0.00000000000E+00 -0.22317385369E+03  0.19148726355E+04  0.19018229784E+04 0.  0.
        2    1    3    3  502    0  0.15928204304E+03 -0.41111753771E+02  0.83141398357E+03  0.84753180331E+03  0.25500000920E-02 0.  1.
       -2    1    3    3    0  502 -0.15928204304E+03  0.41111753771E+02 -0.10545878373E+04  0.10673408322E+04  0.25500000920E-02 0. -1.
</event>
<event>
 5   0  0.2608744E-04  0.1918938E+04  0.7818609E-02  0.8645487E-01
       -2   -1    0    0    0  501  0.00000000000E+00  0.00000000000E+00  0.18550923217E+04  0.18550923217E+04  0.25500000920E-02 0. -1.
        2   -1    0    0  501    0  0.00000000000E+00  0.00000000000E+00 -0.49624522508E+03  0.49624522509E+03  0.25500000920E-02 0.  1.
    10030    2    1    2    0    0  0.00000000000E+00  0.00000000000E+00  0.13588470966E+04  0.23513375467E+04  0.19189379424E+04 0.  0.
        2    1    3    3  502    0  0.90850860480E+03 -0.24355896384E+03  0.91149993464E+03  0.13097866180E+04  0.25500000920E-02 0.  1.
       -2    1    3    3    0  502 -0.90850860480E+03  0.24355896384E+03  0.44734716194E+03  0.10415509287E+04  0.25500000920E-02 0. -1.
</event>
<event>
 5   0  0.1317527E-04  0.1888254E+04  0.7818609E-02  0.8660725E-01
        1   -1    0    0  501    0  0.00000000000E+00  0.00000000000E+00  0.15666561144E+04  0.15666561144E+04  0.50400001928E-02 0.  1.
       -1   -1    0    0    0  501  0.00000000000E+00  0.00000000000E+00 -0.56896690182E+03  0.56896690185E+03  0.50400001928E-02 0. -1.
    10030    2    1    2    0    0  0.00000000000E+00  0.00000000000E+00  0.99768921261E+03  0.21356230163E+04  0.18882536648E+04 0.  0.
        1    1    3    3  502    0  0.43485392841E+03 -0.81393322254E+03  0.72445160485E+03  0.11732072952E+04  0.50400001928E-02 0.  1.
       -1    1    3    3    0  502 -0.43485392841E+03  0.81393322254E+03  0.27323760776E+03  0.96241572105E+03  0.50400001928E-02 0. -1.
</event>
<event>
 5   0  0.2608744E-04  0.1905059E+04  0.7818609E-02  0.8652342E-01
       -2   -1    0    0    0  501  0.00000000000E+00  0.00000000000E+00  0.56022044988E+03  0.56022044988E+03  0.25500000920E-02 0. -1.
        2   -1    0    0  501    0  0.00000000000E+00  0.00000000000E+00 -0.16195627975E+04  0.16195627975E+04  0.25500000920E-02 0.  1.
    10030    2    1    2    0    0  0.00000000000E+00  0.00000000000E+00 -0.10593423476E+04  0.21797832474E+04  0.19050587382E+04 0.  0.
        2    1    3    3  502    0 -0.74765739016E+03  0.57717304752E+03 -0.67070100123E+03  0.11584300294E+04  0.25500000920E-02 0.  1.
       -2    1    3    3    0  502  0.74765739016E+03 -0.57717304752E+03 -0.38864134640E+03  0.10213532180E+04  0.25500000920E-02 0. -1.
</event>
<event>
 5   0  0.2541124E-04  0.1874227E+04  0.7818609E-02  0.8667792E-01
        2   -1    0    0  501    0  0.00000000000E+00  0.00000000000E+00  0.13845352358E+04  0.13845352358E+04  0.25500000920E-02 0.  1.
       -2   -1    0    0    0  501  0.00000000000E+00  0.00000000000E+00 -0.63427938301E+03  0.63427938301E+03  0.25500000920E-02 0. -1.
    10030    2    1    2    0    0  0.00000000000E+00  0.00000000000E+00  0.75025585274E+03  0.20188146188E+04  0.18742274729E+04 0.  0.
        5    1    3    3  502    0 -0.88289980794E+03 -0.31588385250E+02  0.71172523495E+03  0.11344975967E+04  0.46999998093E+01 0.  1.
       -5    1    3    3    0  502  0.88289980794E+03  0.31588385250E+02  0.38530617798E+02  0.88431702203E+03  0.46999998093E+01 0. -1.
</event>
<event>
 5   0  0.2541124E-04  0.1925282E+04  0.7818609E-02  0.8642373E-01
       -2   -1    0    0    0  501  0.00000000000E+00  0.00000000000E+00  0.46868610233E+03  0.46868610233E+03  0.25500000920E-02 0. -1.
        2   -1    0    0  501    0  0.00000000000E+00  0.00000000000E+00 -0.19771810553E+04  0.19771810553E+04  0.25500000920E-02 0.  1.
    10030    2    1    2    0    0  0.00000000000E+00  0.00000000000E+00 -0.15084949530E+04  0.24458671577E+04  0.19252815715E+04 0.  0.
        5    1    3    3  502    0  0.46452130620E+03  0.42459523052E+03 -0.16796268071E+04  0.17936636962E+04  0.46999998093E+01 0.  1.
       -5    1    3    3    0  502 -0.46452130620E+03 -0.42459523052E+03  0.17113185414E+03  0.65220346150E+03  0.46999998093E+01 0. -1.
</event>
<event>
 5   0  0.9266125E-05  0.1850688E+04  0.7818609E-02  0.8679799E-01
        4   -1    0    0  501    0  0.00000000000E+00  0.00000000000E+00  0.49329478115E+03  0.49329641597E+03  0.12699999809E+01 0. -1.
       -4   -1    0    0    0  501  0.00000000000E+00  0.00000000000E+00 -0.17357968479E+04  0.17357973125E+04  0.12699999809E+01 0.  1.
    10030    2    1    2    0    0  0.00000000000E+00  0.00000000000E+00 -0.12425020667E+04  0.22290937285E+04  0.18506883758E+04 0.  0.
        4    1    3    3  502    0 -0.20924155170E+03 -0.40888314262E+02  0.46330903235E+03  0.51001054260E+03  0.12699999809E+01 0. -1.
       -4    1    3    3    0  502  0.20924155170E+03  0.40888314262E+02 -0.17058110991E+04  0.17190831859E+04  0.12699999809E+01 0.  1.
</event>
<event>
 5   0  0.1239615E-04  0.1901712E+04  0.7818609E-02  0.8654005E-01
        1   -1    0    0  501    0  0.00000000000E+00  0.00000000000E+00  0.14440537223E+04  0.14440537223E+04  0.50400001928E-02 0. -1.
       -1   -1    0    0    0  501  0.00000000000E+00  0.00000000000E+00 -0.62610323387E+03  0.62610323389E+03  0.50400001928E-02 0.  1.
    10030    2    1    2    0    0  0.00000000000E+00  0.00000000000E+00  0.81795048846E+03  0.20701569562E+04  0.19017115506E+04 0.  0.
        3    1    3    3  502    0 -0.24978246844E+03 -0.91393625258E+03  0.49644106395E+03  0.10696375533E+04  0.10100000352E+00 0. -1.
       -3    1    3    3    0  502  0.24978246844E+03  0.91393625258E+03  0.32150942451E+03  0.10005194029E+04  0.10100000352E+00 0.  1.
</event>
<event>
 5   0  0.1239615E-04  0.1902929E+04  0.7818609E-02  0.8653400E-01
        1   -1    0    0  501    0  0.00000000000E+00  0.00000000000E+00  0.13787301161E+04  0.13787301161E+04  0.50400001928E-02 0.  1.
       -1   -1    0    0    0  501  0.00000000000E+00  0.00000000000E+00 -0.65660730848E+03  0.65660730850E+03  0.50400001928E-02 0. -1.
    10030    2    1    2    0    0  0.00000000000E+00  0.00000000000E+00  0.72212280758E+03  0.20353374246E+04  0.19029285543E+04 0.  0.
        3    1    3    3  502    0 -0.57350195379E+03 -0.62591832964E+03 -0.98492921447E+02  0.85462220434E+03  0.10100000352E+00 0.  1.
       -3    1    3    3    0  502  0.57350195379E+03  0.62591832964E+03  0.82061572903E+03  0.11807152202E+04  0.10100000352E+00 0. -1.
</event>
<event>
 5   0  0.1239615E-04  0.1842180E+04  0.7818609E-02  0.8684185E-01
       -1   -1    0    0    0  501  0.00000000000E+00  0.00000000000E+00  0.65255497237E+03  0.65255497239E+03  0.50400001928E-02 0. -1.
        1   -1    0    0  501    0  0.00000000000E+00  0.00000000000E+00 -0.13001307370E+04  0.13001307370E+04  0.50400001928E-02 0.  1.
    10030    2    1    2    0    0  0.00000000000E+00  0.00000000000E+00 -0.64757576466E+03  0.19526857094E+04  0.18421799882E+04 0.  0.
        3    1    3    3  502    0  0.50333575463E+03 -0.59770363859E+03  0.19312287274E+03  0.80491799312E+03  0.10100000352E+00 0. -1.
       -3    1    3    3    0  502 -0.50333575463E+03  0.59770363859E+03 -0.84069863739E+03  0.11477677163E+04  0.10100000352E+00 0.  1.
</event>
<event>
 5   0  0.2595012E-04  0.1989163E+04  0.7818609E-02  0.8611704E-01
        2   -1    0    0  501    0  0.00000000000E+00  0.00000000000E+00  0.11197645911E+04  0.11197645911E+04  0.25500000920E-02 0.  1.
       -2   -1    0    0    0  501  0.00000000000E+00  0.00000000000E+00 -0.88339291698E+03  0.88339291699E+03  0.25500000920E-02 0. -1.
    10030    2    1    2    0    0  0.00000000000E+00  0.00000000000E+00  0.23637167409E+03  0.20031575081E+04  0.19891627469E+04 0.  0.
        1    1    3    3  502    0  0.66745748863E+02  0.79350229502E+03 -0.48190189703E+03  0.93076867458E+03  0.50400001928E-02 0. -1.
       -1    1    3    3    0  502 -0.66745748863E+02 -0.79350229502E+03  0.71827357112E+03  0.10723888335E+04  0.50400001928E-02 0.  1.
</event>
<event>
 5   0  0.1324058E-04  0.1850573E+04  0.7818609E-02  0.8679858E-01
        1   -1    0    0  501    0  0.00000000000E+00  0.00000000000E+00  0.12523435611E+04  0.12523435611E+04  0.50400001928E-02 0.  1.
       -1   -1    0    0    0  501  0.00000000000E+00  0.00000000000E+00 -0.68364201143E+03  0.68364201145E+03  0.50400001928E-02 0. -1.
    10030    2    1    2    0    0  0.00000000000E+00  0.00000000000E+00  0.56870154962E+03  0.19359855725E+04  0.18505725288E+04 0.  0.
        5    1    3    3  502    0 -0.31118712256E+03 -0.72678201571E+03  0.78724894818E+03  0.11157206281E+04  0.46999998093E+01 0.  1.
       -5    1    3    3    0  502  0.31118712256E+03  0.72678201571E+03 -0.21854739855E+03  0.82026494440E+03  0.46999998093E+01 0. -1.
</event>
<event>
 5   0  0.2595012E-04  0.1925368E+04  0.7818609E-02  0.8642331E-01
       -2   -1    0    0    0  501  0.00000000000E+00  0.00000000000E+00  0.13492250929E+04  0.13492250929E+04  0.25500000920E-02 0. -1.
        2   -1    0    0  501    0  0.00000000000E+00  0.00000000000E+00 -0.68688367834E+03  0.68688367834E+03  0.25500000920E-02 0.  1.
    10030    2    1    2    0    0  0.00000000000E+00  0.00000000000E+00  0.66234141454E+03  0.20361087712E+04  0.19253682190E+04 0.  0.
        1    1    3    3  502    0 -0.11382469181E+03 -0.66764564806E+03  0.10546650185E+04  0.12534053906E+04  0.50400001928E-02 0. -1.
       -1    1    3    3    0  502  0.11382469181E+03  0.66764564806E+03 -0.39232360396E+03  0.78270338066E+03  0.50400001928E-02 0.  1.
</event>
<event>
 5   0  0.2651828E-04  0.1929665E+04  0.7818609E-02  0.8640229E-01
        2   -1    0    0  501    0  0.00000000000E+00  0.00000000000E+00  0.12558964385E+04  0.12558964385E+04  0.25500000920E-02 0. -1.
       -2   -1    0    0    0  501  0.00000000000E+00  0.00000000000E+00 -0.74122500652E+03  0.74122500652E+03  0.25500000920E-02 0.  1.
    10030    2    1    2    0    0  0.00000000000E+00  0.00000000000E+00  0.51467143198E+03  0.19971214450E+04  0.19296650961E+04 0.  0.
        3    1    3    3  502    0  0.51799815124E+03 -0.52983819099E+03  0.89687855086E+03  0.11633751495E+04  0.10100000352E+00 0. -1.
       -3    1    3    3    0  502 -0.51799815124E+03  0.52983819099E+03 -0.38220711889E+03  0.83374629550E+03  0.10100000352E+00 0.  1.
</event>
<event>
 5   0  0.2608744E-04  0.1813854E+04  0.7818609E-02  0.8698967E-01
       -2   -1    0    0    0  501  0.00000000000E+00  0.00000000000E+00  0.64856091034E+03  0.64856091034E+03  0.25500000920E-02 0.  1.
        2   -1    0    0  501    0  0.00000000000E+00  0.00000000000E+00 -0.12682173615E+04  0.12682173615E+04  0.25500000920E-02 0. -1.
    10030    2    1    2    0    0  0.00000000000E+00  0.00000000000E+00 -0.61965645115E+03  0.19167782718E+04  0.18138535845E+04 0.  0.
        2    1    3    3  502    0  0.75263639086E+03  0.37336134523E+03 -0.67075836139E+03  0.10750707002E+04  0.25500000920E-02 0. -1.
       -2    1    3    3    0  502 -0.75263639086E+03 -0.37336134523E+03  0.51101910246E+02  0.84170757167E+03  0.25500000920E-02 0.  1.
</event>
<event>
 5   0  0.1255141E-04  0.2017489E+04  0.7818609E-02  0.8598488E-01
       -1   -1    0    0    0  501  0.00000000000E+00  0.00000000000E+00  0.46182847801E+03  0.46182847804E+03  0.50400001928E-02 0.  1.
        1   -1    0    0  501    0  0.00000000000E+00  0.00000000000E+00 -0.22033398995E+04  0.22033398995E+04  0.50400001928E-02 0. -1.
    10030    2    1    2    0    0  0.00000000000E+00  0.00000000000E+00 -0.17415114215E+04  0.26651683775E+04  0.20174886491E+04 0.  0.
        2    1    3    3  502    0 -0.51703015038E+01 -0.21149709408E+03  0.43219196489E+03  0.48119398099E+03  0.25500000920E-02 0.  1.
       -2    1    3    3    0  502  0.51703015038E+01  0.21149709408E+03 -0.21737033864E+04  0.21839743965E+04  0.25500000920E-02 0. -1.
</event>
<event>
 5   0  0.2541124E-04  0.1879448E+04  0.7818609E-02  0.8665155E-01
       -2   -1    0    0    0  501  0.00000000000E+00  0.00000000000E+00  0.16746452596E+04  0.16746452596E+04  0.25500000920E-02 0. -1.
        2   -1    0    0  501    0  0.00000000000E+00  0.00000000000E+00 -0.52732415371E+03  0.52732415372E+03  0.25500000920E-02 0.  1.
    10030    2    1    2    0    0  0.00000000000E+00  0.00000000000E+00  0.11473211059E+04  0.22019694134E+04  0.18794476788E+04 0.  0.
        5    1    3    3  502    0  0.28145984206E+03 -0.64062524793E+03 -0.16122455050E+03  0.71807784861E+03  0.46999998093E+01 0.  1.
       -5    1    3    3    0  502 -0.28145984206E+03  0.64062524793E+03  0.13085456564E+04  0.14838915647E+04  0.46999998093E+01 0. -1.
</event>
<event>
 5   0  0.2541124E-04  0.1919062E+04  0.7818609E-02  0.8645426E-01
       -2   -1    0    0    0  501  0.00000000000E+00  0.00000000000E+00  0.73866818520E+03  0.73866818520E+03  0.25500000920E-02 0.  1.
        2   -1    0    0  501    0  0.00000000000E+00  0.00000000000E+00 -0.12464322671E+04  0.12464322671E+04  0.25500000920E-02 0. -1.
    10030    2    1    2    0    0  0.00000000000E+00  0.00000000000E+00 -0.50776408189E+03  0.19851004523E+04  0.19190621258E+04 0.  0.
        5    1    3    3  502    0  0.12407352088E+03  0.59268815629E+03  0.51604578277E+03  0.79561223539E+03  0.46999998093E+01 0.  1.
       -5    1    3    3    0  502 -0.12407352088E+03 -0.59268815629E+03 -0.10238098647E+04  0.11894882169E+04  0.46999998093E+01 0. -1.
</event>
<event>
 5   0  0.2595012E-04  0.1880584E+04  0.7818609E-02  0.8664582E-01
        2   -1    0    0  501    0  0.00000000000E+00  0.00000000000E+00  0.11490248616E+04  0.11490248616E+04  0.25500000920E-02 0.  1.
       -2   -1    0    0    0  501  0.00000000000E+00  0.00000000000E+00 -0.76947746483E+03  0.76947746483E+03  0.25500000920E-02 0. -1.
    10030    2    1    2    0    0  0.00000000000E+00  0.00000000000E+00  0.37954739677E+03  0.19185023264E+04  0.18805836727E+04 0.  0.
        1    1    3    3  502    0 -0.75682398514E+02 -0.27339391095E+03  0.11043298025E+04  0.11401826032E+04  0.50400001928E-02 0.  1.
       -1    1    3    3    0  502  0.75682398514E+02  0.27339391095E+03 -0.72478240568E+03  0.77831972325E+03  0.50400001928E-02 0. -1.
</event>
<event>
 5   0  0.2562925E-04  0.1888023E+04  0.7818609E-02  0.8660841E-01
        2   -1    0    0  501    0  0.00000000000E+00  0.00000000000E+00  0.18630288165E+04  0.18630288165E+04  0.25500000920E-02 0.  1.
       -2   -1    0    0    0  501  0.00000000000E+00  0.00000000000E+00 -0.47833832866E+03  0.47833832866E+03  0.25500000920E-02 0. -1.
    10030    2    1    2    0    0  0.00000000000E+00  0.00000000000E+00  0.13846904878E+04  0.23413671452E+04  0.18880234006E+04 0.  0.
        4    1    3    3  502    0 -0.34417073038E+03 -0.10040399932E+03 -0.39062573423E+03  0.53021178021E+03  0.12699999809E+01 0. -1.
       -4    1    3    3    0  502  0.34417073038E+03  0.10040399932E+03  0.17753162221E+04  0.18111553650E+04  0.12699999809E+01 0.  1.
</event>
<event>
 5   0  0.1255141E-04  0.1905017E+04  0.7818609E-02  0.8652363E-01
       -1   -1    0    0    0  501  0.00000000000E+00  0.00000000000E+00  0.67159743869E+03  0.67159743871E+03  0.50400001928E-02 0.  1.
        1   -1    0    0  501    0  0.00000000000E+00  0.00000000000E+00 -0.13509177708E+04  0.13509177708E+04  0.50400001928E-02 0. -1.
    10030    2    1    2    0    0  0.00000000000E+00  0.00000000000E+00 -0.67932033208E+03  0.20225152095E+04  0.19050174957E+04 0.  0.
        2    1    3    3  502    0 -0.66809510098E+03 -0.67626694542E+03 -0.40322684083E+03  0.10326083142E+04  0.25500000920E-02 0. -1.
       -2    1    3    3    0  502  0.66809510098E+03  0.67626694542E+03 -0.27609349126E+03  0.98990689528E+03  0.25500000920E-02 0.  1.
</event>
<event>
 5   0  0.1255141E-04  0.1822922E+04  0.7818609E-02  0.8694204E-01
       -1   -1    0    0    0  501  0.00000000000E+00  0.00000000000E+00  0.28045972775E+03  0.28045972779E+03  0.50400001928E-02 0.  1.
        1   -1    0    0  501    0  0.00000000000E+00  0.00000000000E+00 -0.29621412138E+04  0.29621412138E+04  0.50400001928E-02 0. -1.
    10030    2    1    2    0    0  0.00000000000E+00  0.00000000000E+00 -0.26816814861E+04  0.32426009416E+04  0.18229221799E+04 0.  0.
        2    1    3    3  502    0  0.42193511877E+03 -0.27283188663E+03 -0.26935362027E+04  0.27400006858E+04  0.25500000920E-02 0. -1.
       -2    1    3    3    0  502 -0.42193511877E+03  0.27283188663E+03  0.11854716670E+02  0.50260025579E+03  0.25500000920E-02 0.  1.
</event>
<event>
 5   0  0.2541124E-04  0.1910956E+04  0.7818609E-02  0.8649422E-01
        2   -1    0    0  501    0  0.00000000000E+00  0.00000000000E+00  0.25545164771E+04  0.25545164771E+04  0.25500000920E-02 0.  1.
       -2   -1    0    0    0  501  0.00000000000E+00  0.00000000000E+00 -0.35738215125E+03  0.35738215126E+03  0.25500000920E-02 0. -1.
    10030    2    1    2    0    0  0.00000000000E+00  0.00000000000E+00  0.21971343259E+04  0.29118986284E+04  0.19109564035E+04 0.  0.
        5    1    3    3  502    0  0.68569584008E+03  0.38943475111E+03  0.27645630759E+03  0.83563651815E+03  0.46999998093E+01 0. -1.
       -5    1    3    3    0  502 -0.68569584008E+03 -0.38943475111E+03  0.19206780183E+04  0.20762621102E+04  0.46999998093E+01 0.  1.
</event>
<event>
 5   0  0.2651828E-04  0.1902992E+04  0.7818609E-02  0.8653369E-01
       -2   -1    0    0    0  501  0.00000000000E+00  0.00000000000E+00  0.87296700723E+03  0.87296700723E+03  0.25500000920E-02 0.  1.
        2   -1    0    0  501    0  0.00000000000E+00  0.00000000000E+00 -0.10370891322E+04  0.10370891322E+04  0.25500000920E-02 0. -1.
    10030    2    1    2    0    0  0.00000000000E+00  0.00000000000E+00 -0.16412212499E+03  0.19100561395E+04  0.19029919558E+04 0.  0.
        3    1    3    3  502    0  0.38436242978E+03 -0.78801087791E+02 -0.95211247917E+03  0.10297874888E+04  0.10100000352E+00 0. -1.
       -3    1    3    3    0  502 -0.38436242978E+03  0.78801087791E+02  0.78799035419E+03  0.88026865067E+03  0.10100000352E+00 0.  1.
</event>
<event>
 5   0  0.1255141E-04  0.1894149E+04  0.7818609E-02  0.8657774E-01
        1   -1    0    0  501    0  0.00000000000E+00  0.00000000000E+00  0.14320993612E+04  0.14320993612E+04  0.50400001928E-02 0.  1.
       -1   -1    0    0    0  501  0.00000000000E+00  0.00000000000E+00 -0.62631829523E+03  0.62631829525E+03  0.50400001928E-02 0. -1.
    10030    2    1    2    0    0  0.00000000000E+00  0.00000000000E+00  0.80578106595E+03  0.20584176564E+04  0.18941489176E+04 0.  0.
        2    1    3    3  502    0 -0.55989533965E+03  0.24004682222E+03 -0.38514927142E+03  0.72072548831E+03  0.25500000920E-02 0. -1.
       -2    1    3    3    0  502  0.55989533965E+03 -0.24004682222E+03  0.11909303374E+04  0.13376921681E+04  0.25500000920E-02 0.  1.
</event>
<event>
 5   0  0.2562925E-04  0.1911269E+04  0.7818609E-02  0.8649268E-01
       -2   -1    0    0    0  501  0.00000000000E+00  0.00000000000E+00  0.82469043247E+03  0.82469043247E+03  0.25500000920E-02 0. -1.
        2   -1    0    0  501    0  0.00000000000E+00  0.00000000000E+00 -0.11073692864E+04  0.11073692864E+04  0.25500000920E-02 0.  1.
    10030    2    1    2    0    0  0.00000000000E+00  0.00000000000E+00 -0.28267885394E+03  0.19320597189E+04  0.19112685376E+04 0.  0.
        4    1    3    3  502    0  0.72769985304E+03  0.37906977932E+03  0.35388182181E+03  0.89357424449E+03  0.12699999809E+01 0. -1.
       -4    1    3    3    0  502 -0.72769985304E+03 -0.37906977932E+03 -0.63656067574E+03  0.10384854744E+04  0.12699999809E+01 0.  1.
</event>
<event>
 5   0  0.1277709E-04  0.1876118E+04  0.7818609E-02  0.8666836E-01
       -1   -1    0    0    0  501  0.00000000000E+00  0.00000000000E+00  0.12289097171E+04  0.12289097171E+04  0.50400001928E-02 0. -1.
        1   -1    0    0  501    0  0.00000000000E+00  0.00000000000E+00 -0.71604505360E+03  0.71604505362E+03  0.50400001928E-02 0.  1.
    10030    2    1    2    0    0  0.00000000000E+00  0.00000000000E+00  0.51286466352E+03  0.19449547708E+04  0.18761180392E+04 0.  0.
        4    1    3    3  502    0 -0.33822824476E+03  0.76133394605E+03  0.70344383149E+03  0.10903497420E+04  0.12699999809E+01 0. -1.
       -4    1    3    3    0  502  0.33822824476E+03 -0.76133394605E+03 -0.19057916797E+03  0.85460502873E+03  0.12699999809E+01 0.  1.
</event>
<event>
 5   0  0.1239615E-04  0.1812949E+04  0.7818609E-02  0.8699444E-01
        1   -1    0    0  501    0  0.00000000000E+00  0.00000000000E+00  0.70225317709E+03  0.70225317711E+03  0.50400001928E-02 0.  1.
       -1   -1    0    0    0  501  0.00000000000E+00  0.00000000000E+00 -0.11700848147E+04  0.11700848147E+04  0.50400001928E-02 0. -1.
    10030    2    1    2    0    0  0.00000000000E+00  0.00000000000E+00 -0.46783163760E+03  0.18723379918E+04  0.18129487346E+04 0.  0.
        3    1    3    3  502    0 -0.53893567235E+03 -0.26123854581E+02  0.51834190442E+03  0.74820615795E+03  0.10100000352E+00 0.  1.
       -3    1    3    3    0  502  0.53893567235E+03  0.26123854581E+02 -0.98617354201E+03  0.11241318339E+04  0.10100000352E+00 0. -1.
</event>
<event>
 5   0  0.2595012E-04  0.1774984E+04  0.7818609E-02  0.8719717E-01
       -2   -1    0    0    0  501  0.00000000000E+00  0.00000000000E+00  0.32915132087E+03  0.32915132088E+03  0.25500000920E-02 0.  1.
        2   -1    0    0  501    0  0.00000000000E+00  0.00000000000E+00 -0.23929494011E+04  0.23929494011E+04  0.25500000920E-02 0. -1.
    10030    2    1    2    0    0  0.00000000000E+00  0.00000000000E+00 -0.20637980802E+04  0.27221007220E+04  0.17749844576E+04 0.  0.
        1    1    3    3  502    0 -0.64875321408E+03 -0.13368649531E+03 -0.19377435900E+04  0.20478288581E+04  0.50400001928E-02 0. -1.
       -1    1    3    3    0  502  0.64875321408E+03  0.13368649531E+03 -0.12605449025E+03  0.67427186382E+03  0.50400001928E-02 0.  1.
</event>
<event>
 5   0  0.1255141E-04  0.1915256E+04  0.7818609E-02  0.8647299E-01
       -1   -1    0    0    0  501  0.00000000000E+00  0.00000000000E+00  0.94799402278E+03  0.94799402280E+03  0.50400001928E-02 0. -1.
        1   -1    0    0  501    0  0.00000000000E+00  0.00000000000E+00 -0.96736010980E+03  0.96736010981E+03  0.50400001928E-02 0.  1.
    10030    2    1    2    0    0  0.00000000000E+00  0.00000000000E+00 -0.19366087019E+02  0.19153541326E+04  0.19152562252E+04 0.  0.
        2    1    3    3  502    0 -0.92877121179E+03  0.11277878503E+03 -0.21393986466E+03  0.95974230077E+03  0.25500000920E-02 0.  1.
       -2    1    3    3    0  502  0.92877121179E+03 -0.11277878503E+03  0.19457377764E+03  0.95561183184E+03  0.25500000920E-02 0. -1.
</event>
<event>
 5   0  0.2595012E-04  0.1890812E+04  0.7818609E-02  0.8659443E-01
       -2   -1    0    0    0  501  0.00000000000E+00  0.00000000000E+00  0.10309966347E+04  0.10309966347E+04  0.25500000920E-02 0.  1.
        2   -1    0    0  501    0  0.00000000000E+00  0.00000000000E+00 -0.86692127376E+03  0.86692127377E+03  0.25500000920E-02 0. -1.
    10030    2    1    2    0    0  0.00000000000E+00  0.00000000000E+00  0.16407536098E+03  0.18979179085E+04  0.18908124347E+04 0.  0.
        1    1    3    3  502    0  0.52691605499E+03  0.56922602333E+03 -0.46048777060E+03  0.90205752673E+03  0.50400001928E-02 0. -1.
       -1    1    3    3    0  502 -0.52691605499E+03 -0.56922602333E+03  0.62456313159E+03  0.99586038178E+03  0.50400001928E-02 0.  1.
</event>
<event>
 5   0  0.2651828E-04  0.1912418E+04  0.7818609E-02  0.8648700E-01
       -2   -1    0    0    0  501  0.00000000000E+00  0.00000000000E+00  0.92023045684E+03  0.92023045685E+03  0.25500000920E-02 0.  1.
        2   -1    0    0  501    0  0.00000000000E+00  0.00000000000E+00 -0.99359417696E+03  0.99359417697E+03  0.25500000920E-02 0. -1.
    10030    2    1    2    0    0  0.00000000000E+00  0.00000000000E+00 -0.73363720120E+02  0.19138246338E+04  0.19124179704E+04 0.  0.
        3    1    3    3  502    0 -0.76148400042E+03 -0.45347901829E+03  0.32251739704E+03  0.94314292900E+03  0.10100000352E+00 0.  1.
       -3    1    3    3    0  502  0.76148400042E+03  0.45347901829E+03 -0.39588111716E+03  0.97068170481E+03  0.10100000352E+00 0. -1.
</event>
<event>
 5   0  0.1317527E-04  0.1902369E+04  0.7818609E-02  0.8653678E-01
       -1   -1    0    0    0  501  0.00000000000E+00  0.00000000000E+00  0.50370567697E+03  0.50370567700E+03  0.50400001928E-02 0.  1.
        1   -1    0    0  501    0  0.00000000000E+00  0.00000000000E+00 -0.17961920092E+04  0.17961920092E+04  0.50400001928E-02 0. -1.
    10030    2    1    2    0    0  0.00000000000E+00  0.00000000000E+00 -0.12924863323E+04  0.22998976862E+04  0.19023691671E+04 0.  0.
        1    1    3    3  502    0 -0.18597884308E+03  0.89584796443E+03 -0.96062149904E+03  0.13266217886E+04  0.50400001928E-02 0. -1.
       -1    1    3    3    0  502  0.18597884308E+03 -0.89584796443E+03 -0.33186483323E+03  0.97327589768E+03  0.50400001928E-02 0.  1.
</event>
<event>
 5   0  0.1317527E-04  0.1907762E+04  0.7818609E-02  0.8651002E-01
       -1   -1    0    0    0  501  0.00000000000E+00  0.00000000000E+00  0.93131795230E+03  0.93131795232E+03  0.50400001928E-02 0. -1.
        1   -1    0    0  501    0  0.00000000000E+00  0.00000000000E+00 -0.97699090853E+03  0.97699090854E+03  0.50400001928E-02 0.  1.
    10030    2    1    2    0    0  0.00000000000E+00  0.00000000000E+00 -0.45672956226E+02  0.19083088609E+04  0.19077622204E+04 0.  0.
        1    1    3    3  502    0  0.87916884154E+03 -0.17449154237E+03 -0.34927952833E+03  0.96196743149E+03  0.50400001928E-02 0.  1.
       -1    1    3    3    0  502 -0.87916884154E+03  0.17449154237E+03  0.30360657211E+03  0.94634142938E+03  0.50400001928E-02 0. -1.
</event>
<event>
 5   0  0.2595012E-04  0.1924927E+04  0.7818609E-02  0.8642547E-01
       -2   -1    0    0    0  501  0.00000000000E+00  0.00000000000E+00  0.85335970834E+03  0.85335970835E+03  0.25500000920E-02 0. -1.
        2   -1    0    0  501    0  0.00000000000E+00  0.00000000000E+00 -0.10855165267E+04  0.10855165267E+04  0.25500000920E-02 0.  1.
    10030    2    1    2    0    0  0.00000000000E+00  0.00000000000E+00 -0.23215681836E+03  0.19388762351E+04  0.19249270808E+04 0.  0.
        1    1    3    3  502    0 -0.29997420692E+03 -0.36950151896E+03 -0.95869311140E+03  0.10703309671E+04  0.50400001928E-02 0.  1.
       -1    1    3    3    0  502  0.29997420692E+03  0.36950151896E+03  0.72653629303E+03  0.86854526793E+03  0.50400001928E-02 0. -1.
</event>
<event>
 5   0  0.1255141E-04  0.1896007E+04  0.7818609E-02  0.8656847E-01
        1   -1    0    0  501    0  0.00000000000E+00  0.00000000000E+00  0.17928047248E+04  0.17928047248E+04  0.50400001928E-02 0.  1.
       -1   -1    0    0    0  501  0.00000000000E+00  0.00000000000E+00 -0.50128731701E+03  0.50128731703E+03  0.50400001928E-02 0. -1.
    10030    2    1    2    0    0  0.00000000000E+00  0.00000000000E+00  0.12915174078E+04  0.22940920418E+04  0.18960066144E+04 0.  0.
        2    1    3    3  502    0 -0.11554495346E+03 -0.34170719962E+03  0.17065257037E+04  0.17442317575E+04  0.25500000920E-02 0.  1.
       -2    1    3    3    0  502  0.11554495346E+03  0.34170719962E+03 -0.41500829594E+03  0.54986028430E+03  0.25500000920E-02 0. -1.
</event>
<event>
 5   0  0.1317527E-04  0.1901034E+04  0.7818609E-02  0.8654342E-01
        1   -1    0    0  501    0  0.00000000000E+00  0.00000000000E+00  0.17543279686E+04  0.17543279686E+04  0.50400001928E-02 0. -1.
       -1   -1    0    0    0  501  0.00000000000E+00  0.00000000000E+00 -0.51500230224E+03  0.51500230227E+03  0.50400001928E-02 0.  1.
    10030    2    1    2    0    0  0.00000000000E+00  0.00000000000E+00  0.12393256663E+04  0.22693302708E+04  0.19010343950E+04 0.  0.
        1    1    3    3  502    0  0.64401977500E+03  0.24815950482E+02  0.14536601339E+04  0.15901273807E+04  0.50400001928E-02 0. -1.
       -1    1    3    3    0  502 -0.64401977500E+03 -0.24815950482E+02 -0.21433446754E+03  0.67920289016E+03  0.50400001928E-02 0.  1.
</event>
<event>
 5   0  0.2651828E-04  0.1682583E+04  0.7818609E-02  0.8771361E-01
        2   -1    0    0  501    0  0.00000000000E+00  0.00000000000E+00  0.71119339043E+03  0.71119339044E+03  0.25500000920E-02 0. -1.
       -2   -1    0    0    0  501  0.00000000000E+00  0.00000000000E+00 -0.99518831043E+03  0.99518831044E+03  0.25500000920E-02 0.  1.
    10030    2    1    2    0    0  0.00000000000E+00  0.00000000000E+00 -0.28399492000E+03  0.17063817009E+04  0.16825829532E+04 0.  0.
        3    1    3    3  502    0 -0.45060290506E+03 -0.15605804481E+02 -0.86231460431E+03  0.97307399831E+03  0.10100000352E+00 0.  1.
       -3    1    3    3    0  502  0.45060290506E+03  0.15605804481E+02  0.57831968431E+03  0.73330770256E+03  0.10100000352E+00 0. -1.
</event>
<event>
 5   0  0.1277709E-04  0.1922062E+04  0.7818609E-02  0.8643952E-01
       -1   -1    0    0    0  501  0.00000000000E+00  0.00000000000E+00  0.83897996672E+03  0.83897996673E+03  0.50400001928E-02 0. -1.
        1   -1    0    0  501    0  0.00000000000E+00  0.00000000000E+00 -0.11008378363E+04  0.11008378363E+04  0.50400001928E-02 0.  1.
    10030    2    1    2    0    0  0.00000000000E+00  0.00000000000E+00 -0.26185786960E+03  0.19398178031E+04  0.19220623208E+04 0.  0.
        4    1    3    3  502    0  0.65850620123E+01 -0.93108753945E+03 -0.37105946326E+03  0.10023243524E+04  0.12699999809E+01 0.  1.
       -4    1    3    3    0  502 -0.65850620123E+01  0.93108753945E+03  0.10920159366E+03  0.93749345071E+03  0.12699999809E+01 0. -1.
</event>
<event>
 5   0  0.1317527E-04  0.1854445E+04  0.7818609E-02  0.8677870E-01
       -1   -1    0    0    0  501  0.00000000000E+00  0.00000000000E+00  0.11887886689E+04  0.11887886690E+04  0.50400001928E-02 0.  1.
        1   -1    0    0  501    0  0.00000000000E+00  0.00000000000E+00 -0.72320830182E+03  0.72320830184E+03  0.50400001928E-02 0. -1.
    10030    2    1    2    0    0  0.00000000000E+00  0.00000000000E+00  0.46558036712E+03  0.19119969708E+04  0.18544452912E+04 0.  0.
        1    1    3    3  502    0 -0.72847425978E+03 -0.42439237552E+03  0.63071899123E+03  0.10528960450E+04  0.50400001928E-02 0.  1.
       -1    1    3    3    0  502  0.72847425978E+03  0.42439237552E+03 -0.16513862412E+03  0.85910092583E+03  0.50400001928E-02 0. -1.
</event>
<event>
 5   0  0.1317527E-04  0.1869326E+04  0.7818609E-02  0.8670277E-01
        1   -1    0    0  501    0  0.00000000000E+00  0.00000000000E+00  0.23655254445E+04  0.23655254445E+04  0.50400001928E-02 0.  1.
       -1   -1    0    0    0  501  0.00000000000E+00  0.00000000000E+00 -0.36930258900E+03  0.36930258904E+03  0.50400001928E-02 0. -1.
    10030    2    1    2    0    0  0.00000000000E+00  0.00000000000E+00  0.19962228555E+04  0.27348280335E+04  0.18693257298E+04 0.  0.
        1    1    3    3  502    0 -0.73900068141E+03 -0.45279944103E+03  0.48617485991E+03  0.99373806174E+03  0.50400001928E-02 0.  1.
       -1    1    3    3    0  502  0.73900068141E+03  0.45279944103E+03  0.15100479956E+04  0.17410899718E+04  0.50400001928E-02 0. -1.
</event>
<event>
 5   0  0.2608744E-04  0.1807414E+04  0.7818609E-02  0.8702366E-01
        2   -1    0    0  501    0  0.00000000000E+00  0.00000000000E+00  0.11898033929E+04  0.11898033929E+04  0.25500000920E-02 0. -1.
       -2   -1    0    0    0  501  0.00000000000E+00  0.00000000000E+00 -0.68640482140E+03  0.68640482140E+03  0.25500000920E-02 0.  1.
    10030    2    1    2    0    0  0.00000000000E+00  0.00000000000E+00  0.50339857148E+03  0.18762082143E+04  0.18074144908E+04 0.  0.
        2    1    3    3  502    0  0.36986051244E+03  0.31203841315E+03  0.10439806575E+04  0.11506782275E+04  0.25500000920E-02 0. -1.
       -2    1    3    3    0  502 -0.36986051244E+03 -0.31203841315E+03 -0.54058208605E+03  0.72552998678E+03  0.25500000920E-02 0.  1.
</event>
<event>
 5   0  0.2562925E-04  0.1910223E+04  0.7818609E-02  0.8649784E-01
       -2   -1    0    0    0  501  0.00000000000E+00  0.00000000000E+00  0.57855242863E+03  0.57855242863E+03  0.25500000920E-02 0.  1.
        2   -1    0    0  501    0  0.00000000000E+00  0.00000000000E+00 -0.15767600158E+04  0.15767600158E+04  0.25500000920E-02 0. -1.
    10030    2    1    2    0    0  0.00000000000E+00  0.00000000000E+00 -0.99820758718E+03  0.21553124444E+04  0.19102233760E+04 0.  0.
        4    1    3    3  502    0  0.22293108179E+03  0.26195043583E+03 -0.15044475122E+04  0.15432693310E+04  0.12699999809E+01 0. -1.
       -4    1    3    3    0  502 -0.22293108179E+03 -0.26195043583E+03  0.50623992507E+03  0.61204311342E+03  0.12699999809E+01 0.  1.
</event>
<event>
 5   0  0.2651828E-04  0.1897751E+04  0.7818609E-02  0.8655976E-01
        2   -1    0    0  501    0  0.00000000000E+00  0.00000000000E+00  0.12922491875E+04  0.12922491875E+04  0.25500000920E-02 0. -1.
       -2   -1    0    0    0  501  0.00000000000E+00  0.00000000000E+00 -0.69674269140E+03  0.69674269140E+03  0.25500000920E-02 0.  1.
    10030    2    1    2    0    0  0.00000000000E+00  0.00000000000E+00  0.59550649607E+03  0.19889918789E+04  0.18977514873E+04 0.  0.
        3    1    3    3  502    0  0.91431119782E+03 -0.88208922383E+02  0.48364848632E+02  0.91982876082E+03  0.10100000352E+00 0.  1.
       -3    1    3    3    0  502 -0.91431119782E+03  0.88208922383E+02  0.54714164744E+03  0.10691631181E+04  0.10100000352E+00 0. -1.
</event>
<event>
 5   0  0.1239615E-04  0.1901996E+04  0.7818609E-02  0.8653864E-01
        1   -1    0    0  501    0  0.00000000000E+00  0.00000000000E+00  0.11062855802E+04  0.11062855802E+04  0.50400001928E-02 0. -1.
       -1   -1    0    0    0  501  0.00000000000E+00  0.00000000000E+00 -0.81750761142E+03  0.81750761143E+03  0.50400001928E-02 0.  1.
    10030    2    1    2    0    0  0.00000000000E+00  0.00000000000E+00  0.28877796878E+03  0.19237931916E+04  0.19019956701E+04 0.  0.
        3    1    3    3  502    0  0.66147787020E+03  0.63883005334E+03 -0.10075207616E+03  0.92509880600E+03  0.10100000352E+00 0.  1.
       -3    1    3    3    0  502 -0.66147787020E+03 -0.63883005334E+03  0.38953004493E+03  0.99869438564E+03  0.10100000352E+00 0. -1.
</event>
<event>
 5   0  0.2541124E-04  0.1907141E+04  0.7818609E-02  0.8651310E-01
       -2   -1    0    0    0  501  0.00000000000E+00  0.00000000000E+00  0.11676401832E+04  0.11676401832E+04  0.25500000920E-02 0. -1.
        2   -1    0    0  501    0  0.00000000000E+00  0.00000000000E+00 -0.77874762749E+03  0.77874762750E+03  0.25500000920E-02 0.  1.
    10030    2    1    2    0    0  0.00000000000E+00  0.00000000000E+00  0.38889255570E+03  0.19463878107E+04  0.19071413397E+04 0.  0.
        5    1    3    3  502    0 -0.57586681648E+03 -0.63894026500E+03 -0.22561538120E+03  0.88926466409E+03  0.46999998093E+01 0.  1.
       -5    1    3    3    0  502  0.57586681648E+03  0.63894026500E+03  0.61450793690E+03  0.10571231466E+04  0.46999998093E+01 0. -1.
</event>
<event>
 5   0  0.2608744E-04  0.1899840E+04  0.7818609E-02  0.8654936E-01
        2   -1    0    0  501    0  0.00000000000E+00  0.00000000000E+00  0.93512974111E+03  0.93512974111E+03  0.25500000920E-02 0. -1.
       -2   -1    0    0    0  501  0.00000000000E+00  0.00000000000E+00 -0.96494445045E+03  0.96494445045E+03  0.25500000920E-02 0.  1.
    10030    2    1    2    0    0  0.00000000000E+00  0.00000000000E+00 -0.29814709337E+02  0.19000741916E+04  0.18998402608E+04 0.  0.
        2    1    3    3  502    0  0.10558696019E+03  0.78454503803E+03 -0.54003269927E+03  0.95827701588E+03  0.25500000920E-02 0.  1.
       -2    1    3    3    0  502 -0.10558696019E+03 -0.78454503803E+03  0.51021798994E+03  0.94179717568E+03  0.25500000920E-02 0. -1.
</event>
<event>
 5   0  0.1239615E-04  0.1902599E+04  0.7818609E-02  0.8653564E-01
       -1   -1    0    0    0  501  0.00000000000E+00  0.00000000000E+00  0.55003200403E+03  0.55003200405E+03  0.50400001928E-02 0. -1.
        1   -1    0    0  501    0  0.00000000000E+00  0.00000000000E+00 -0.16453051093E+04  0.16453051093E+04  0.50400001928E-02 0.  1.
    10030    2    1    2    0    0  0.00000000000E+00  0.00000000000E+00 -0.10952731052E+04  0.21953371133E+04  0.19025987139E+04 0.  0.
        3    1    3    3  502    0 -0.72782722105E+02 -0.29302709415E+03 -0.15885510703E+04  0.16169900172E+04  0.10100000352E+00 0.  1.
       -3    1    3    3    0  502  0.72782722105E+02  0.29302709415E+03  0.49327796509E+03  0.57834709611E+03  0.10100000352E+00 0. -1.
</event>
<event>
 5   0  0.2541124E-04  0.1896681E+04  0.7818609E-02  0.8656510E-01
       -2   -1    0    0    0  501  0.00000000000E+00  0.00000000000E+00  0.85216984012E+03  0.85216984012E+03  0.25500000920E-02 0. -1.
        2   -1    0    0  501    0  0.00000000000E+00  0.00000000000E+00 -0.10553640468E+04  0.10553640468E+04  0.25500000920E-02 0.  1.
    10030    2    1    2    0    0  0.00000000000E+00  0.00000000000E+00 -0.20319420670E+03  0.19075338869E+04  0.18966806911E+04 0.  0.
        5    1    3    3  502    0  0.30026840993E+03 -0.17348500942E+03  0.78610253672E+03  0.85920745733E+03  0.46999998093E+01 0. -1.
       -5    1    3    3    0  502 -0.30026840993E+03  0.17348500942E+03 -0.98929674341E+03  0.10483264296E+04  0.46999998093E+01 0.  1.
</event>
<event>
 5   0  0.9266125E-05  0.1885991E+04  0.7818609E-02  0.8661861E-01
       -3   -1    0    0    0  501  0.00000000000E+00  0.00000000000E+00  0.53606530696E+03  0.53606531647E+03  0.10100000352E+00 0.  1.
        3   -1    0    0  501    0  0.00000000000E+00  0.00000000000E+00 -0.16588293448E+04  0.16588293479E+04  0.10100000352E+00 0. -1.
    10030    2    1    2    0    0  0.00000000000E+00  0.00000000000E+00 -0.11227640378E+04  0.21948946643E+04  0.18859913846E+04 0.  0.
        1    1    3    3  502    0  0.70140432742E+03  0.57349675934E+03 -0.86569498955E+03  0.12531138729E+04  0.50400001928E-02 0. -1.
       -1    1    3    3    0  502 -0.70140432742E+03 -0.57349675934E+03 -0.25706904828E+03  0.94178079143E+03  0.50400001928E-02 0.  1.
</event>
<event>
 5   0  0.2541124E-04  0.1917699E+04  0.7818609E-02  0.8646096E-01
        2   -1    0    0  501    0  0.00000000000E+00  0.00000000000E+00  0.11996419457E+04  0.11996419457E+04  0.25500000920E-02 0.  1.
       -2   -1    0    0    0  501  0.00000000000E+00  0.00000000000E+00 -0.76638931037E+03  0.76638931037E+03  0.25500000920E-02 0. -1.
    10030    2    1    2    0    0  0.00000000000E+00  0.00000000000E+00  0.43325263532E+03  0.19660312561E+04  0.19176994170E+04 0.  0.
        5    1    3    3  502    0  0.78903818401E+03 -0.52234374076E+03  0.37527274903E+03  0.10179764071E+04  0.46999998093E+01 0.  1.
       -5    1    3    3    0  502 -0.78903818401E+03  0.52234374076E+03  0.57979886288E+02  0.94805484891E+03  0.46999998093E+01 0. -1.
</event>
<event>
 5   0  0.2595012E-04  0.1900071E+04  0.7818609E-02  0.8654821E-01
       -2   -1    0    0    0  501  0.00000000000E+00  0.00000000000E+00  0.95361807504E+03  0.95361807505E+03  0.25500000920E-02 0. -1.
        2   -1    0    0  501    0  0.00000000000E+00  0.00000000000E+00 -0.94646660868E+03  0.94646660868E+03  0.25500000920E-02 0.  1.
    10030    2    1    2    0    0  0.00000000000E+00  0.00000000000E+00  0.71514663659E+01  0.19000846837E+04  0.19000712255E+04 0.  0.
        1    1    3    3  502    0  0.55383710837E+03  0.76560092604E+03  0.10200074075E+03  0.95041279016E+03  0.50400001928E-02 0.  1.
       -1    1    3    3    0  502 -0.55383710837E+03 -0.76560092604E+03 -0.94849274382E+02  0.94967189357E+03  0.50400001928E-02 0. -1.
</event>
<event>
 5   0  0.2562925E-04  0.1928130E+04  0.7818609E-02  0.8640980E-01
        2   -1    0    0  501    0  0.00000000000E+00  0.00000000000E+00  0.11718922495E+04  0.11718922495E+04  0.25500000920E-02 0.  1.
       -2   -1    0    0    0  501  0.00000000000E+00  0.00000000000E+00 -0.79309415269E+03  0.79309415269E+03  0.25500000920E-02 0. -1.
    10030    2    1    2    0    0  0.00000000000E+00  0.00000000000E+00  0.37879809683E+03  0.19649864022E+04  0.19281295503E+04 0.  0.
        4    1    3    3  502    0  0.57365697057E+03 -0.52360198135E+03  0.77143608418E+03  0.10946947518E+04  0.12699999809E+01 0.  1.
       -4    1    3    3    0  502 -0.57365697057E+03  0.52360198135E+03 -0.39263798735E+03  0.87029165041E+03  0.12699999809E+01 0. -1.
</event>
<event>
 5   0  0.1239615E-04  0.1947614E+04  0.7818609E-02  0.8631512E-01
        1   -1    0    0  501    0  0.00000000000E+00  0.00000000000E+00  0.19681747462E+04  0.19681747462E+04  0.50400001928E-02 0. -1.
       -1   -1    0    0    0  501  0.00000000000E+00  0.00000000000E+00 -0.48181693913E+03  0.48181693916E+03  0.50400001928E-02 0.  1.
    10030    2    1    2    0    0  0.00000000000E+00  0.00000000000E+00  0.14863578070E+04  0.24499916853E+04  0.19476138549E+04 0.  0.
        3    1    3    3  502    0  0.84275520009E+03 -0.47466947559E+03  0.88523475849E+03  0.13111781062E+04  0.10100000352E+00 0. -1.
       -3    1    3    3    0  502 -0.84275520009E+03  0.47466947559E+03  0.60112304856E+03  0.11388135791E+04  0.10100000352E+00 0.  1.
</event>
<event>
 5   0  0.1277709E-04  0.1898897E+04  0.7818609E-02  0.8655405E-01
        1   -1    0    0  501    0  0.00000000000E+00  0.00000000000E+00  0.21411567710E+04  0.21411567710E+04  0.50400001928E-02 0. -1.
       -1   -1    0    0    0  501  0.00000000000E+00  0.00000000000E+00 -0.42101206314E+03  0.42101206317E+03  0.50400001928E-02 0.  1.
    10030    2    1    2    0    0  0.00000000000E+00  0.00000000000E+00  0.17201447078E+04  0.25621688342E+04  0.18988973956E+04 0.  0.
        4    1    3    3  502    0 -0.34988659121E+03 -0.55592816128E+03  0.17850758594E+04  0.19020973119E+04  0.12699999809E+01 0. -1.
       -4    1    3    3    0  502  0.34988659121E+03  0.55592816128E+03 -0.64931151521E+02  0.66007152230E+03  0.12699999809E+01 0.  1.
</event>
<event>
 5   0  0.2595012E-04  0.1898482E+04  0.7818609E-02  0.8655612E-01
       -2   -1    0    0    0  501  0.00000000000E+00  0.00000000000E+00  0.40562839481E+03  0.40562839482E+03  0.25500000920E-02 0.  1.
        2   -1    0    0  501    0  0.00000000000E+00  0.00000000000E+00 -0.22213898430E+04  0.22213898430E+04  0.25500000920E-02 0. -1.
    10030    2    1    2    0    0  0.00000000000E+00  0.00000000000E+00 -0.18157614482E+04  0.26270182378E+04  0.18984823373E+04 0.  0.
        1    1    3    3  502    0  0.37271451530E+03  0.41972561441E+03 -0.19671231438E+04  0.20456439486E+04  0.50400001928E-02 0. -1.
       -1    1    3    3    0  502 -0.37271451530E+03 -0.41972561441E+03  0.15136169561E+03  0.58137428927E+03  0.50400001928E-02 0.  1.
</event>
<event>
 5   0  0.1317527E-04  0.1909434E+04  0.7818609E-02  0.8650174E-01
       -1   -1    0    0    0  501  0.00000000000E+00  0.00000000000E+00  0.53281936322E+03  0.53281936325E+03  0.50400001928E-02 0.  1.
        1   -1    0    0  501    0  0.00000000000E+00  0.00000000000E+00 -0.17106827573E+04  0.17106827573E+04  0.50400001928E-02 0. -1.
    10030    2    1    2    0    0  0.00000000000E+00  0.00000000000E+00 -0.11778633940E+04  0.22435021205E+04  0.19094343638E+04 0.  0.
        1    1    3    3  502    0  0.74300111588E+03 -0.36974757731E+03 -0.11434326580E+04  0.14128701896E+04  0.50400001928E-02 0. -1.
       -1    1    3    3    0  502 -0.74300111588E+03  0.36974757731E+03 -0.34430736040E+02  0.83063193096E+03  0.50400001928E-02 0.  1.
</event>
<event>
 5   0  0.2562925E-04  0.1846437E+04  0.7818609E-02  0.8681987E-01
       -2   -1    0    0    0  501  0.00000000000E+00  0.00000000000E+00  0.67918240065E+03  0.67918240065E+03  0.25500000920E-02 0. -1.
        2   -1    0    0  501    0  0.00000000000E+00  0.00000000000E+00 -0.12549384985E+04  0.12549384985E+04  0.25500000920E-02 0.  1.
    10030    2    1    2    0    0  0.00000000000E+00  0.00000000000E+00 -0.57575609780E+03  0.19341208991E+04  0.18464367220E+04 0.  0.
        4    1    3    3  502    0  0.62798271158E+03  0.38051953293E+01  0.42098119174E+03  0.75604466948E+03  0.12699999809E+01 0. -1.
       -4    1    3    3    0  502 -0.62798271158E+03 -0.38051953293E+01 -0.99673728954E+03  0.11780762296E+04  0.12699999809E+01 0.  1.
</event>
<event>
 5   0  0.2541124E-04  0.1904886E+04  0.7818609E-02  0.8652428E-01
       -2   -1    0    0    0  501  0.00000000000E+00  0.00000000000E+00  0.11590385492E+04  0.11590385492E+04  0.25500000920E-02 0. -1.
        2   -1    0    0  501    0  0.00000000000E+00  0.00000000000E+00 -0.78267238694E+03  0.78267238694E+03  0.25500000920E-02 0.  1.
    10030    2    1    2    0    0  0.00000000000E+00  0.00000000000E+00  0.37636616226E+03  0.19417109361E+04  0.19048857896E+04 0.  0.
        5    1    3    3  502    0  0.61161950881E+03  0.72965232015E+03  0.21425977590E+03  0.97590997199E+03  0.46999998093E+01 0. -1.
       -5    1    3    3    0  502 -0.61161950881E+03 -0.72965232015E+03  0.16210638636E+03  0.96580096415E+03  0.46999998093E+01 0.  1.
</event>
<event>
 5   0  0.2541124E-04  0.1904298E+04  0.7818609E-02  0.8652720E-01
       -2   -1    0    0    0  501  0.00000000000E+00  0.00000000000E+00  0.67049214419E+03  0.67049214419E+03  0.25500000920E-02 0. -1.
        2   -1    0    0  501    0  0.00000000000E+00  0.00000000000E+00 -0.13521230417E+04  0.13521230417E+04  0.25500000920E-02 0.  1.
    10030    2    1    2    0    0  0.00000000000E+00  0.00000000000E+00 -0.68163089754E+03  0.20226151859E+04  0.19042981673E+04 0.  0.
        5    1    3    3  502    0 -0.54099457062E+03 -0.16067375523E+02 -0.11728330069E+04  0.12917014508E+04  0.46999998093E+01 0.  1.
       -5    1    3    3    0  502  0.54099457062E+03  0.16067375523E+02  0.49120210933E+03  0.73091373513E+03  0.46999998093E+01 0. -1.
</event>
<event>
 5   0  0.1277709E-04  0.1839115E+04  0.7818609E-02  0.8685771E-01
        1   -1    0    0  501    0  0.00000000000E+00  0.00000000000E+00  0.70463244407E+03  0.70463244409E+03  0.50400001928E-02 0.  1.
       -1   -1    0    0    0  501  0.00000000000E+00  0.00000000000E+00 -0.12000384201E+04  0.12000384201E+04  0.50400001928E-02 0. -1.
    10030    2    1    2    0    0  0.00000000000E+00  0.00000000000E+00 -0.49540597601E+03  0.19046708642E+04  0.18391150099E+04 0.  0.
        4    1    3    3  502    0 -0.77608351460E+03  0.33497114273E+01 -0.75850563608E+03  0.10851954916E+04  0.12699999809E+01 0. -1.
       -4    1    3    3    0  502  0.77608351460E+03 -0.33497114273E+01  0.26309966006E+03  0.81947537255E+03  0.12699999809E+01 0.  1.
</event>
<event>
 5   0  0.1277709E-04  0.1894252E+04  0.7818609E-02  0.8657723E-01
       -1   -1    0    0    0  501  0.00000000000E+00  0.00000000000E+00  0.10556591360E+04  0.10556591361E+04  0.50400001928E-02 0. -1.
        1   -1    0    0  501    0  0.00000000000E+00  0.00000000000E+00 -0.84975082413E+03  0.84975082414E+03  0.50400001928E-02 0.  1.
    10030    2    1    2    0    0  0.00000000000E+00  0.00000000000E+00  0.20590831192E+03  0.19054099602E+04  0.18942515365E+04 0.  0.
        4    1    3    3  502    0  0.10851177806E+03  0.46648518407E+03  0.92487356174E+03  0.10415257803E+04  0.12699999809E+01 0. -1.
       -4    1    3    3    0  502 -0.10851177806E+03 -0.46648518407E+03 -0.71896524982E+03  0.86388417990E+03  0.12699999809E+01 0.  1.
</event>
<event>
 5   0  0.1317527E-04  0.1885288E+04  0.7818609E-02  0.8662215E-01
       -1   -1    0    0    0  501  0.00000000000E+00  0.00000000000E+00  0.13063985575E+04  0.13063985575E+04  0.50400001928E-02 0.  1.
        1   -1    0    0  501    0  0.00000000000E+00  0.00000000000E+00 -0.68017325327E+03  0.68017325329E+03  0.50400001928E-02 0. -1.
    10030    2    1    2    0    0  0.00000000000E+00  0.00000000000E+00  0.62622530420E+03  0.19865718108E+04  0.18852876247E+04 0.  0.
        1    1    3    3  502    0  0.11189746607E+03 -0.40399576948E+02 -0.67223102271E+03  0.68267687572E+03  0.50400001928E-02 0. -1.
       -1    1    3    3    0  502 -0.11189746607E+03  0.40399576948E+02  0.12984563269E+04  0.13038949351E+04  0.50400001928E-02 0.  1.
</event>
<event>
 5   0  0.2541124E-04  0.1924464E+04  0.7818609E-02  0.8642774E-01
        2   -1    0    0  501    0  0.00000000000E+00  0.00000000000E+00  0.15117074739E+04  0.15117074739E+04  0.25500000920E-02 0.  1.
       -2   -1    0    0    0  501  0.00000000000E+00  0.00000000000E+00 -0.61248008588E+03  0.61248008588E+03  0.25500000920E-02 0. -1.
    10030    2    1    2    0    0  0.00000000000E+00  0.00000000000E+00  0.89922738807E+03  0.21241875598E+04  0.19244643135E+04 0.  0.
        5    1    3    3  502    0 -0.44679825142E+03 -0.84891189248E+03  0.53212866594E+03  0.10970246514E+04  0.46999998093E+01 0.  1.
       -5    1    3    3    0  502  0.44679825142E+03  0.84891189248E+03  0.36709872213E+03  0.10271629084E+04  0.46999998093E+01 0. -1.
</event>
<event>
 5   0  0.2562925E-04  0.1931294E+04  0.7818609E-02  0.8639434E-01
        2   -1    0    0  501    0  0.00000000000E+00  0.00000000000E+00  0.16875064169E+04  0.16875064169E+04  0.25500000920E-02 0. -1.
       -2   -1    0    0    0  501  0.00000000000E+00  0.00000000000E+00 -0.55257509081E+03  0.55257509082E+03  0.25500000920E-02 0.  1.
    10030    2    1    2    0    0  0.00000000000E+00  0.00000000000E+00  0.11349313261E+04  0.22400815077E+04  0.19312938788E+04 0.  0.
        4    1    3    3  502    0  0.18182462715E+03 -0.13932804712E+02  0.16673524180E+04  0.16772954471E+04  0.12699999809E+01 0. -1.
       -4    1    3    3    0  502 -0.18182462715E+03  0.13932804712E+02 -0.53242109189E+03  0.56278606066E+03  0.12699999809E+01 0.  1.
</event>
<event>
 5   0  0.2595012E-04  0.1622020E+04  0.7818609E-02  0.8807133E-01
        2   -1    0    0  501    0  0.00000000000E+00  0.00000000000E+00  0.11008664619E+04  0.11008664619E+04  0.25500000920E-02 0. -1.
       -2   -1    0    0    0  501  0.00000000000E+00  0.00000000000E+00 -0.59747259188E+03  0.59747259188E+03  0.25500000920E-02 0.  1.
    10030    2    1    2    0    0  0.00000000000E+00  0.00000000000E+00  0.50339386998E+03  0.16983390537E+04  0.16220203923E+04 0.  0.
        1    1    3    3  502    0 -0.29047365177E+03 -0.64280939057E+03  0.67072521216E+03  0.97337103164E+03  0.50400001928E-02 0. -1.
       -1    1    3    3    0  502  0.29047365177E+03  0.64280939057E+03 -0.16733134218E+03  0.72496802211E+03  0.50400001928E-02 0.  1.
</event>
<event>
 5   0  0.2595012E-04  0.1833138E+04  0.7818609E-02  0.8688873E-01
       -2   -1    0    0    0  501  0.00000000000E+00  0.00000000000E+00  0.10369625517E+04  0.10369625517E+04  0.25500000920E-02 0.  1.
        2   -1    0    0  501    0  0.00000000000E+00  0.00000000000E+00 -0.81015318881E+03  0.81015318882E+03  0.25500000920E-02 0. -1.
    10030    2    1    2    0    0  0.00000000000E+00  0.00000000000E+00  0.22680936285E+03  0.18471157405E+04  0.18331377667E+04 0.  0.
        1    1    3    3  502    0  0.44809093843E+03  0.78334786079E+03 -0.48064406559E+02  0.90373090425E+03  0.50400001928E-02 0.  1.
       -1    1    3    3    0  502 -0.44809093843E+03 -0.78334786079E+03  0.27487376941E+03  0.94338483623E+03  0.50400001928E-02 0. -1.
</event>
<event>
 5   0  0.1255141E-04  0.1685728E+04  0.7818609E-02  0.8769547E-01
        1   -1    0    0  501    0  0.00000000000E+00  0.00000000000E+00  0.17691866509E+04  0.17691866509E+04  0.50400001928E-02 0. -1.
       -1   -1    0    0    0  501  0.00000000000E+00  0.00000000000E+00 -0.40155137284E+03  0.40155137288E+03  0.50400001928E-02 0.  1.
    10030    2    1    2    0    0  0.00000000000E+00  0.00000000000E+00  0.13676352780E+04  0.21707380238E+04  0.16857275326E+04 0.  0.
        2    1    3    3  502    0 -0.41848185025E+03  0.69912343520E+03  0.96155466480E+03  0.12603523357E+04  0.25500000920E-02 0. -1.
       -2    1    3    3    0  502  0.41848185025E+03 -0.69912343520E+03  0.40608061325E+03  0.91038568810E+03  0.25500000920E-02 0.  1.
</event>
<event>
 5   0  0.1324058E-04  0.1983859E+04  0.7818609E-02  0.8614205E-01
        1   -1    0    0  501    0  0.00000000000E+00  0.00000000000E+00  0.13222672122E+04  0.13222672122E+04  0.50400001928E-02 0. -1.
       -1   -1    0    0    0  501  0.00000000000E+00  0.00000000000E+00 -0.74411894974E+03  0.74411894976E+03  0.50400001928E-02 0.  1.
    10030    2    1    2    0    0  0.00000000000E+00  0.00000000000E+00  0.57814826249E+03  0.20663861620E+04  0.19838589559E+04 0.  0.
        5    1    3    3  502    0  0.62438529043E+03 -0.67898304268E+03  0.66897531773E+03  0.11394845453E+04  0.46999998093E+01 0. -1.
       -5    1    3    3    0  502 -0.62438529043E+03  0.67898304268E+03 -0.90827055239E+02  0.92690161674E+03  0.46999998093E+01 0.  1.
</event>
<event>
 5   0  0.2541124E-04  0.1900893E+04  0.7818609E-02  0.8654412E-01
        2   -1    0    0  501    0  0.00000000000E+00  0.00000000000E+00  0.19990837311E+04  0.19990837311E+04  0.25500000920E-02 0.  1.
       -2   -1    0    0    0  501  0.00000000000E+00  0.00000000000E+00 -0.45188119595E+03  0.45188119596E+03  0.25500000920E-02 0. -1.
    10030    2    1    2    0    0  0.00000000000E+00  0.00000000000E+00  0.15472025351E+04  0.24509649270E+04  0.19008927873E+04 0.  0.
        5    1    3    3  502    0 -0.25187553333E+03 -0.64530620846E+02  0.19523196924E+04  0.19695633416E+04  0.46999998093E+01 0.  1.
       -5    1    3    3    0  502  0.25187553333E+03  0.64530620846E+02 -0.40511715728E+03  0.48140158541E+03  0.46999998093E+01 0. -1.
</event>
<event>
 5   0  0.1277709E-04  0.1831460E+04  0.7818609E-02  0.8689746E-01
       -1   -1    0    0    0  501  0.00000000000E+00  0.00000000000E+00  0.46077129209E+03  0.46077129212E+03  0.50400001928E-02 0. -1.
        1   -1    0    0  501    0  0.00000000000E+00  0.00000000000E+00 -0.18199085488E+04  0.18199085488E+04  0.50400001928E-02 0.  1.
    10030    2    1    2    0    0  0.00000000000E+00  0.00000000000E+00 -0.13591372567E+04  0.22806798410E+04  0.18314601973E+04 0.  0.
        4    1    3    3  502    0  0.14425348947E+03  0.82347523612E+03 -0.21422804464E+03  0.86302711530E+03  0.12699999809E+01 0. -1.
       -4    1    3    3    0  502 -0.14425348947E+03 -0.82347523612E+03 -0.11449092121E+04  0.14176527257E+04  0.12699999809E+01 0.  1.
</event>
<event>
 5   0  0.2608744E-04  0.1892633E+04  0.7818609E-02  0.8658532E-01
        2   -1    0    0  501    0  0.00000000000E+00  0.00000000000E+00  0.24559255361E+04  0.24559255361E+04  0.25500000920E-02 0.  1.
       -2   -1    0    0    0  501  0.00000000000E+00  0.00000000000E+00 -0.36463446133E+03  0.36463446134E+03  0.25500000920E-02 0. -1.
    10030    2    1    2    0    0  0.00000000000E+00  0.00000000000E+00  0.20912910747E+04  0.28205599974E+04  0.18926331762E+04 0.  0.
        2    1    3    3  502    0  0.88234635246E+03 -0.30873238562E+03  0.82629365925E+03  0.12476425702E+04  0.25500000920E-02 0.  1.
       -2    1    3    3    0  502 -0.88234635246E+03  0.30873238562E+03  0.12649974155E+04  0.15729174272E+04  0.25500000920E-02 0. -1.
</event>
<event>
 5   0  0.1317527E-04  0.1911082E+04  0.7818609E-02  0.8649360E-01
       -1   -1    0    0    0  501  0.00000000000E+00  0.00000000000E+00  0.45787853290E+03  0.45787853293E+03  0.50400001928E-02 0. -1.
        1   -1    0    0  501    0  0.00000000000E+00  0.00000000000E+00 -0.19941063469E+04  0.19941063469E+04  0.50400001928E-02 0.  1.
    10030    2    1    2    0    0  0.00000000000E+00  0.00000000000E+00 -0.15362278140E+04  0.24519848799E+04  0.19110818806E+04 0.  0.
        1    1    3    3  502    0  0.74806244235E+03 -0.55497036993E+03 -0.10417012494E+04  0.13974015250E+04  0.50400001928E-02 0.  1.
       -1    1    3    3    0  502 -0.74806244235E+03  0.55497036993E+03 -0.49452656465E+03  0.10545833548E+04  0.50400001928E-02 0. -1.
</event>
<event>
 5   0  0.2651828E-04  0.1805579E+04  0.7818609E-02  0.8703338E-01
        2   -1    0    0  501    0  0.00000000000E+00  0.00000000000E+00  0.11058100521E+04  0.11058100521E+04  0.25500000920E-02 0.  1.
       -2   -1    0    0    0  501  0.00000000000E+00  0.00000000000E+00 -0.73704201888E+03  0.73704201888E+03  0.25500000920E-02 0. -1.
    10030    2    1    2    0    0  0.00000000000E+00  0.00000000000E+00  0.36876803318E+03  0.18428520709E+04  0.18055785480E+04 0.  0.
        3    1    3    3  502    0 -0.47123837148E+03  0.47892983885E+03 -0.43104716739E+03  0.79827380266E+03  0.10100000352E+00 0. -1.
       -3    1    3    3    0  502  0.47123837148E+03 -0.47892983885E+03  0.79981520057E+03  0.10445782683E+04  0.10100000352E+00 0.  1.
</event>
<event>
 5   0  0.2541124E-04  0.1921745E+04  0.7818609E-02  0.8644108E-01
       -2   -1    0    0    0  501  0.00000000000E+00  0.00000000000E+00  0.79054767423E+03  0.79054767424E+03  0.25500000920E-02 0. -1.
        2   -1    0    0  501    0  0.00000000000E+00  0.00000000000E+00 -0.11678935469E+04  0.11678935469E+04  0.25500000920E-02 0.  1.
    10030    2    1    2    0    0  0.00000000000E+00  0.00000000000E+00 -0.37734587266E+03  0.19584412211E+04  0.19217445483E+04 0.  0.
        5    1    3    3  502    0 -0.87241346059E+03  0.15425040514E+03 -0.56773674227E+03  0.10522573508E+04  0.46999998093E+01 0.  1.
       -5    1    3    3    0  502  0.87241346059E+03 -0.15425040514E+03  0.19039086961E+03  0.90618387038E+03  0.46999998093E+01 0. -1.
</event>
<event>
 5   0  0.1317527E-04  0.1879773E+04  0.7818609E-02  0.8664991E-01
        1   -1    0    0  501    0  0.00000000000E+00  0.00000000000E+00  0.19502183814E+04  0.19502183814E+04  0.50400001928E-02 0.  1.
       -1   -1    0    0    0  501  0.00000000000E+00  0.00000000000E+00 -0.45296796272E+03  0.45296796275E+03  0.50400001928E-02 0. -1.
    10030    2    1    2    0    0  0.00000000000E+00  0.00000000000E+00  0.14972504187E+04  0.24031863442E+04  0.18797728024E+04 0.  0.
        1    1    3    3  502    0 -0.22203713882E+03 -0.49728643120E+02 -0.41722492050E+03  0.47523684966E+03  0.50400001928E-02 0. -1.
       -1    1    3    3    0  502  0.22203713882E+03  0.49728643120E+02  0.19144753392E+04  0.19279494945E+04  0.50400001928E-02 0.  1.
</event>
<event>
 5   0  0.1277709E-04  0.1892297E+04  0.7818609E-02  0.8658700E-01
        1   -1    0    0  501    0  0.00000000000E+00  0.00000000000E+00  0.29063247833E+04  0.29063247833E+04  0.50400001928E-02 0. -1.
       -1   -1    0    0    0  501  0.00000000000E+00  0.00000000000E+00 -0.30801698326E+03  0.30801698330E+03  0.50400001928E-02 0.  1.
    10030    2    1    2    0    0  0.00000000000E+00  0.00000000000E+00  0.25983078000E+04  0.32143417666E+04  0.18922974314E+04 0.  0.
        4    1    3    3  502    0 -0.16239426665E+03 -0.66118715157E+03  0.24151720480E+04  0.25093022898E+04  0.12699999809E+01 0. -1.
       -4    1    3    3    0  502  0.16239426665E+03  0.66118715157E+03  0.18313575200E+03  0.70503947677E+03  0.12699999809E+01 0.  1.
</event>
<event>
 5   0  0.9266125E-05  0.1903204E+04  0.7818609E-02  0.8653263E-01
        3   -1    0    0  501    0  0.00000000000E+00  0.00000000000E+00  0.16390331992E+04  0.16390332023E+04  0.10100000352E+00 0.  1.
       -3   -1    0    0    0  501  0.00000000000E+00  0.00000000000E+00 -0.55248792619E+03  0.55248793542E+03  0.10100000352E+00 0. -1.
    10030    2    1    2    0    0  0.00000000000E+00  0.00000000000E+00  0.10865452730E+04  0.21915211378E+04  0.19032036851E+04 0.  0.
        1    1    3    3  502    0  0.58041438951E+03 -0.75388698732E+03  0.56385868287E+03  0.11059670282E+04  0.50400001928E-02 0. -1.
       -1    1    3    3    0  502 -0.58041438951E+03  0.75388698732E+03  0.52268659017E+03  0.10855541096E+04  0.50400001928E-02 0.  1.
</event>
<event>
 5   0  0.1324058E-04  0.1892296E+04  0.7818609E-02  0.8658701E-01
        1   -1    0    0  501    0  0.00000000000E+00  0.00000000000E+00  0.15884757122E+04  0.15884757122E+04  0.50400001928E-02 0.  1.
       -1   -1    0    0    0  501  0.00000000000E+00  0.00000000000E+00 -0.56355665414E+03  0.56355665417E+03  0.50400001928E-02 0. -1.
    10030    2    1    2    0    0  0.00000000000E+00  0.00000000000E+00  0.10249190581E+04  0.21520323664E+04  0.18922960208E+04 0.  0.
        5    1    3    3  502    0  0.10016141555E+03  0.93511479198E+03  0.39480954394E+03  0.10199846319E+04  0.46999998093E+01 0.  1.
       -5    1    3    3    0  502 -0.10016141555E+03 -0.93511479198E+03  0.63010951413E+03  0.11320477345E+04  0.46999998093E+01 0. -1.
</event>
<event>
 5   0  0.2541124E-04  0.1919892E+04  0.7818609E-02  0.8645018E-01
        2   -1    0    0  501    0  0.00000000000E+00  0.00000000000E+00  0.18373194523E+04  0.18373194523E+04  0.25500000920E-02 0.  1.
       -2   -1    0    0    0  501  0.00000000000E+00  0.00000000000E+00 -0.50154369809E+03  0.50154369810E+03  0.25500000920E-02 0. -1.
    10030    2    1    2    0    0  0.00000000000E+00  0.00000000000E+00  0.13357757542E+04  0.23388631504E+04  0.19198916560E+04 0.  0.
        5    1    3    3  502    0 -0.94681441302E+03  0.15794583872E+03  0.67804251385E+03  0.11752311097E+04  0.46999998093E+01 0. -1.
       -5    1    3    3    0  502  0.94681441302E+03 -0.15794583872E+03  0.65773324039E+03  0.11636320407E+04  0.46999998093E+01 0.  1.
</event>
<event>
 5   0  0.2541124E-04  0.1911400E+04  0.7818609E-02  0.8649203E-01
       -2   -1    0    0    0  501  0.00000000000E+00  0.00000000000E+00  0.38452998980E+03  0.38452998981E+03  0.25500000920E-02 0.  1.
        2   -1    0    0  501    0  0.00000000000E+00  0.00000000000E+00 -0.23752690190E+04  0.23752690190E+04  0.25500000920E-02 0. -1.
    10030    2    1    2    0    0  0.00000000000E+00  0.00000000000E+00 -0.19907390292E+04  0.27597990088E+04  0.19113996669E+04 0.  0.
        5    1    3    3  502    0 -0.28492195509E+03 -0.60909057834E+03 -0.19758876669E+04  0.20871813566E+04  0.46999998093E+01 0. -1.
       -5    1    3    3    0  502  0.28492195509E+03  0.60909057834E+03 -0.14851362299E+02  0.67261765222E+03  0.46999998093E+01 0.  1.
</event>
<event>
 5   0  0.2651828E-04  0.1899678E+04  0.7818609E-02  0.8655017E-01
       -2   -1    0    0    0  501  0.00000000000E+00  0.00000000000E+00  0.54327256023E+03  0.54327256023E+03  0.25500000920E-02 0.  1.
        2   -1    0    0  501    0  0.00000000000E+00  0.00000000000E+00 -0.16606659975E+04  0.16606659975E+04  0.25500000920E-02 0. -1.
    10030    2    1    2    0    0  0.00000000000E+00  0.00000000000E+00 -0.11173934373E+04  0.22039385578E+04  0.18996781498E+04 0.  0.
        3    1    3    3  502    0  0.35590928824E+03 -0.87173045258E+03 -0.70364229725E+03  0.11754564629E+04  0.10100000352E+00 0. -1.
       -3    1    3    3    0  502 -0.35590928824E+03  0.87173045258E+03 -0.41375114005E+03  0.10284820949E+04  0.10100000352E+00 0.  1.
</event>
<event>
 5   0  0.2541124E-04  0.1882078E+04  0.7818609E-02  0.8663829E-01
        2   -1    0    0  501    0  0.00000000000E+00  0.00000000000E+00  0.14073367043E+04  0.14073367043E+04  0.25500000920E-02 0. -1.
       -2   -1    0    0    0  501  0.00000000000E+00  0.00000000000E+00 -0.62924116290E+03  0.62924116291E+03  0.25500000920E-02 0.  1.
    10030    2    1    2    0    0  0.00000000000E+00  0.00000000000E+00  0.77809554141E+03  0.20365778672E+04  0.18820777714E+04 0.  0.
        5    1    3    3  502    0  0.90737456091E+03 -0.15391358305E+03  0.60140809759E+03  0.10994233828E+04  0.46999998093E+01 0. -1.
       -5    1    3    3    0  502 -0.90737456091E+03  0.15391358305E+03  0.17668744383E+03  0.93715448441E+03  0.46999998093E+01 0.  1.
</event>
<event>
 5   0  0.1255141E-04  0.1652626E+04  0.7818609E-02  0.8788855E-01
       -1   -1    0    0    0  501  0.00000000000E+00  0.00000000000E+00  0.41967054850E+03  0.41967054853E+03  0.50400001928E-02 0. -1.
        1   -1    0    0  501    0  0.00000000000E+00  0.00000000000E+00 -0.16269733194E+04  0.16269733194E+04  0.50400001928E-02 0.  1.
    10030    2    1    2    0    0  0.00000000000E+00  0.00000000000E+00 -0.12073027709E+04  0.20466438679E+04  0.16526255297E+04 0.  0.
        2    1    3    3  502    0 -0.31928040908E+03  0.75730847660E+03 -0.49757529095E+03  0.96074829093E+03  0.25500000920E-02 0. -1.
       -2    1    3    3    0  502  0.31928040908E+03 -0.75730847660E+03 -0.70972747993E+03  0.10858955770E+04  0.25500000920E-02 0.  1.
</event>
<event>
 5   0  0.2651828E-04  0.1889425E+04  0.7818609E-02  0.8660138E-01
        2   -1    0    0  501    0  0.00000000000E+00  0.00000000000E+00  0.82828913274E+03  0.82828913274E+03  0.25500000920E-02 0. -1.
       -2   -1    0    0    0  501  0.00000000000E+00  0.00000000000E+00 -0.10774999815E+04  0.10774999815E+04  0.25500000920E-02 0.  1.
    10030    2    1    2    0    0  0.00000000000E+00  0.00000000000E+00 -0.24921084880E+03  0.19057891143E+04  0.18894248069E+04 0.  0.
        3    1    3    3  502    0 -0.47493078770E+02  0.86983586610E+03  0.24408947552E+03  0.90468210369E+03  0.10100000352E+00 0. -1.
       -3    1    3    3    0  502  0.47493078770E+02 -0.86983586610E+03 -0.49330032432E+03  0.10011070106E+04  0.10100000352E+00 0.  1.
</event>
<event>
 5   0  0.2562925E-04  0.1882685E+04  0.7818609E-02  0.8663523E-01
        2   -1    0    0  501    0  0.00000000000E+00  0.00000000000E+00  0.10726017295E+04  0.10726017295E+04  0.25500000920E-02 0.  1.
       -2   -1    0    0    0  501  0.00000000000E+00  0.00000000000E+00 -0.82614633555E+03  0.82614633555E+03  0.25500000920E-02 0. -1.
    10030    2    1    2    0    0  0.00000000000E+00  0.00000000000E+00  0.24645539398E+03  0.18987480651E+04  0.18826853039E+04 0.  0.
        4    1    3    3  502    0 -0.30814992253E+03 -0.74089461817E+03  0.61960895826E+03  0.10138037700E+04  0.12699999809E+01 0.  1.
       -4    1    3    3    0  502  0.30814992253E+03  0.74089461817E+03 -0.37315356428E+03  0.88494429510E+03  0.12699999809E+01 0. -1.
</event>
<event>
 5   0  0.2651828E-04  0.1812402E+04  0.7818609E-02  0.8699732E-01
        2   -1    0    0  501    0  0.00000000000E+00  0.00000000000E+00  0.84771802099E+03  0.84771802099E+03  0.25500000920E-02 0. -1.
       -2   -1    0    0    0  501  0.00000000000E+00  0.00000000000E+00 -0.96871814090E+03  0.96871814091E+03  0.25500000920E-02 0.  1.
    10030    2    1    2    0    0  0.00000000000E+00  0.00000000000E+00 -0.12100011992E+03  0.18164361619E+04  0.18124015287E+04 0.  0.
        3    1    3    3  502    0  0.57761119671E+03 -0.68952647264E+03 -0.17082856096E+03  0.91556750623E+03  0.10100000352E+00 0. -1.
       -3    1    3    3    0  502 -0.57761119671E+03  0.68952647264E+03  0.49828441041E+02  0.90086865567E+03  0.10100000352E+00 0.  1.
</event>
<event>
 5   0  0.1255141E-04  0.1909833E+04  0.7818609E-02  0.8649977E-01
        1   -1    0    0  501    0  0.00000000000E+00  0.00000000000E+00  0.64342292207E+03  0.64342292209E+03  0.50400001928E-02 0.  1.
       -1   -1    0    0    0  501  0.00000000000E+00  0.00000000000E+00 -0.14172106386E+04  0.14172106386E+04  0.50400001928E-02 0. -1.
    10030    2    1    2    0    0  0.00000000000E+00  0.00000000000E+00 -0.77378771657E+03  0.20606335607E+04  0.19098333020E+04 0.  0.
        2    1    3    3  502    0 -0.28592248535E+03  0.33011314876E+03 -0.13031458559E+04  0.13743782159E+04  0.25500000920E-02 0. -1.
       -2    1    3    3    0  502  0.28592248535E+03 -0.33011314876E+03  0.52935813934E+03  0.68625534482E+03  0.25500000920E-02 0.  1.
</event>
<event>
 5   0  0.2608744E-04  0.1963121E+04  0.7818609E-02  0.8624059E-01
        2   -1    0    0  501    0  0.00000000000E+00  0.00000000000E+00  0.12380811312E+04  0.12380811312E+04  0.25500000920E-02 0.  1.
       -2   -1    0    0    0  501  0.00000000000E+00  0.00000000000E+00 -0.77818915844E+03  0.77818915844E+03  0.25500000920E-02 0. -1.
    10030    2    1    2    0    0  0.00000000000E+00  0.00000000000E+00  0.45989197273E+03  0.20162702896E+04  0.19631213040E+04 0.  0.
        2    1    3    3  502    0 -0.48837741450E+02  0.85815368664E+03 -0.25685709312E+03  0.89710001737E+03  0.25500000920E-02 0. -1.
       -2    1    3    3    0  502  0.48837741450E+02 -0.85815368664E+03  0.71674906585E+03  0.11191702722E+04  0.25500000920E-02 0.  1.
</event>
<event>
 5   0  0.1277709E-04  0.1898852E+04  0.7818609E-02  0.8655428E-01
       -1   -1    0    0    0  501  0.00000000000E+00  0.00000000000E+00  0.55348422276E+03  0.55348422279E+03  0.50400001928E-02 0.  1.
        1   -1    0    0  501    0  0.00000000000E+00  0.00000000000E+00 -0.16286090254E+04  0.16286090254E+04  0.50400001928E-02 0. -1.
    10030    2    1    2    0    0  0.00000000000E+00  0.00000000000E+00 -0.10751248026E+04  0.21820932482E+04  0.18988516536E+04 0.  0.
        4    1    3    3  502    0 -0.33573592249E+03  0.29290149272E+03 -0.15010106449E+04  0.15657408671E+04  0.12699999809E+01 0. -1.
       -4    1    3    3    0  502  0.33573592249E+03 -0.29290149272E+03  0.42588584225E+03  0.61635238105E+03  0.12699999809E+01 0.  1.
</event>
<event>
 5   0  0.1277709E-04  0.1899114E+04  0.7818609E-02  0.8655298E-01
        1   -1    0    0  501    0  0.00000000000E+00  0.00000000000E+00  0.20929865461E+04  0.20929865461E+04  0.50400001928E-02 0. -1.
       -1   -1    0    0    0  501  0.00000000000E+00  0.00000000000E+00 -0.43079984530E+03  0.43079984533E+03  0.50400001928E-02 0.  1.
    10030    2    1    2    0    0  0.00000000000E+00  0.00000000000E+00  0.16621867008E+04  0.25237863914E+04  0.18991137726E+04 0.  0.
        4    1    3    3  502    0  0.47870108800E+03  0.81872747127E+03  0.76894177096E+03  0.12209596488E+04  0.12699999809E+01 0. -1.
       -4    1    3    3    0  502 -0.47870108800E+03 -0.81872747127E+03  0.89324492981E+03  0.13028267427E+04  0.12699999809E+01 0.  1.
</event>
<event>
 5   0  0.2562925E-04  0.1961714E+04  0.7818609E-02  0.8624733E-01
        2   -1    0    0  501    0  0.00000000000E+00  0.00000000000E+00  0.11842567622E+04  0.11842567622E+04  0.25500000920E-02 0. -1.
       -2   -1    0    0    0  501  0.00000000000E+00  0.00000000000E+00 -0.81239197681E+03  0.81239197681E+03  0.25500000920E-02 0.  1.
    10030    2    1    2    0    0  0.00000000000E+00  0.00000000000E+00  0.37186478539E+03  0.19966487390E+04  0.19617142423E+04 0.  0.
        4    1    3    3  502    0  0.28026300286E+03  0.93491551253E+03  0.28495164534E+03  0.10167661577E+04  0.12699999809E+01 0. -1.
       -4    1    3    3    0  502 -0.28026300286E+03 -0.93491551253E+03  0.86913140047E+02  0.97988258131E+03  0.12699999809E+01 0.  1.
</event>
<event>
 5   0  0.1239615E-04  0.1746363E+04  0.7818609E-02  0.8735355E-01
       -1   -1    0    0    0  501  0.00000000000E+00  0.00000000000E+00  0.12534231292E+04  0.12534231292E+04  0.50400001928E-02 0. -1.
        1   -1    0    0  501    0  0.00000000000E+00  0.00000000000E+00 -0.60829075193E+03  0.60829075195E+03  0.50400001928E-02 0.  1.
    10030    2    1    2    0    0  0.00000000000E+00  0.00000000000E+00  0.64513237730E+03  0.18617138812E+04  0.17463627318E+04 0.  0.
        3    1    3    3  502    0 -0.11206811581E+03  0.24319681569E+03 -0.56343913287E+03  0.62383300682E+03  0.10100000352E+00 0.  1.
       -3    1    3    3    0  502  0.11206811581E+03 -0.24319681569E+03  0.12085715102E+04  0.12378808744E+04  0.10100000352E+00 0. -1.
</event>
<event>
 5   0  0.1255141E-04  0.1889902E+04  0.7818609E-02  0.8659899E-01
        1   -1    0    0  501    0  0.00000000000E+00  0.00000000000E+00  0.17914657144E+04  0.17914657144E+04  0.50400001928E-02 0.  1.
       -1   -1    0    0    0  501  0.00000000000E+00  0.00000000000E+00 -0.49843684866E+03  0.49843684868E+03  0.50400001928E-02 0. -1.
    10030    2    1    2    0    0  0.00000000000E+00  0.00000000000E+00  0.12930288657E+04  0.22899025631E+04  0.18899021405E+04 0.  0.
        2    1    3    3  502    0  0.40358394220E+03 -0.10987729972E+03 -0.38016227704E+03  0.56522241312E+03  0.25500000920E-02 0. -1.
       -2    1    3    3    0  502 -0.40358394220E+03  0.10987729972E+03  0.16731911428E+04  0.17246801500E+04  0.25500000920E-02 0.  1.
</event>
<event>
 5   0  0.2651828E-04  0.1890530E+04  0.7818609E-02  0.8659585E-01
       -2   -1    0    0    0  501  0.00000000000E+00  0.00000000000E+00  0.88607707683E+03  0.88607707683E+03  0.25500000920E-02 0.  1.
        2   -1    0    0  501    0  0.00000000000E+00  0.00000000000E+00 -0.10084063681E+04  0.10084063681E+04  0.25500000920E-02 0. -1.
    10030    2    1    2    0    0  0.00000000000E+00  0.00000000000E+00 -0.12232929127E+03  0.18944834449E+04  0.18905298378E+04 0.  0.
        3    1    3    3  502    0  0.10706355834E+03 -0.44648594141E+03 -0.88915734883E+03  0.10007063019E+04  0.10100000352E+00 0. -1.
       -3    1    3    3    0  502 -0.10706355834E+03  0.44648594141E+03  0.76682805756E+03  0.89377714307E+03  0.10100000352E+00 0.  1.
</event>
<event>
 5   0  0.2651828E-04  0.1881914E+04  0.7818609E-02  0.8663912E-01
        2   -1    0    0  501    0  0.00000000000E+00  0.00000000000E+00  0.76947096581E+03  0.76947096582E+03  0.25500000920E-02 0. -1.
       -2   -1    0    0    0  501  0.00000000000E+00  0.00000000000E+00 -0.11506609185E+04  0.11506609185E+04  0.25500000920E-02 0.  1.
    10030    2    1    2    0    0  0.00000000000E+00  0.00000000000E+00 -0.38118995270E+03  0.19201318843E+04  0.18819140982E+04 0.  0.
        3    1    3    3  502    0  0.72168584587E+03  0.54443685050E+03  0.75778122867E+02  0.90718480941E+03  0.10100000352E+00 0.  1.
       -3    1    3    3    0  502 -0.72168584587E+03 -0.54443685050E+03 -0.45696807557E+03  0.10129470749E+04  0.10100000352E+00 0. -1.
</event>
<event>
 5   0  0.2562925E-04  0.1964967E+04  0.7818609E-02  0.8623177E-01
        2   -1    0    0  501    0  0.00000000000E+00  0.00000000000E+00  0.58875978374E+03  0.58875978375E+03  0.25500000920E-02 0. -1.
       -2   -1    0    0    0  501  0.00000000000E+00  0.00000000000E+00 -0.16395030495E+04  0.16395030495E+04  0.25500000920E-02 0.  1.
    10030    2    1    2    0    0  0.00000000000E+00  0.00000000000E+00 -0.10507432657E+04  0.22282628332E+04  0.19649666265E+04 0.  0.
        4    1    3    3  502    0  0.95498344626E+03  0.22734959524E+03 -0.57059838446E+03  0.11354582116E+04  0.12699999809E+01 0.  1.
       -4    1    3    3    0  502 -0.95498344626E+03 -0.22734959524E+03 -0.48014488127E+03  0.10928046216E+04  0.12699999809E+01 0. -1.
</event>
<event>
 5   0  0.1317527E-04  0.1905375E+04  0.7818609E-02  0.8652185E-01
        1   -1    0    0  501    0  0.00000000000E+00  0.00000000000E+00  0.18644592911E+04  0.18644592911E+04  0.50400001928E-02 0.  1.
       -1   -1    0    0    0  501  0.00000000000E+00  0.00000000000E+00 -0.48679738700E+03  0.48679738703E+03  0.50400001928E-02 0. -1.
    10030    2    1    2    0    0  0.00000000000E+00  0.00000000000E+00  0.13776619041E+04  0.23512566781E+04  0.19053754602E+04 0.  0.
        1    1    3    3  502    0  0.59342056133E+03 -0.48544175541E+03 -0.90269850675E+01  0.76673538264E+03  0.50400001928E-02 0. -1.
       -1    1    3    3    0  502 -0.59342056133E+03  0.48544175541E+03  0.13866888891E+04  0.15845212955E+04  0.50400001928E-02 0.  1.
</event>
<event>
 5   0  0.2562925E-04  0.1992082E+04  0.7818609E-02  0.8610332E-01
       -2   -1    0    0    0  501  0.00000000000E+00  0.00000000000E+00  0.52616291365E+03  0.52616291366E+03  0.25500000920E-02 0.  1.
        2   -1    0    0  501    0  0.00000000000E+00  0.00000000000E+00 -0.18855326082E+04  0.18855326082E+04  0.25500000920E-02 0. -1.
    10030    2    1    2    0    0  0.00000000000E+00  0.00000000000E+00 -0.13593696945E+04  0.24116955219E+04  0.19920816559E+04 0.  0.
        4    1    3    3  502    0  0.95562393590E+03  0.58667769385E+02 -0.10121963649E+04  0.13932702925E+04  0.12699999809E+01 0. -1.
       -4    1    3    3    0  502 -0.95562393590E+03 -0.58667769385E+02 -0.34717332967E+03  0.10184252293E+04  0.12699999809E+01 0.  1.
</event>
<event>
 5   0  0.1239615E-04  0.1904809E+04  0.7818609E-02  0.8652466E-01
       -1   -1    0    0    0  501  0.00000000000E+00  0.00000000000E+00  0.85749590350E+03  0.85749590352E+03  0.50400001928E-02 0.  1.
        1   -1    0    0  501    0  0.00000000000E+00  0.00000000000E+00 -0.10578173945E+04  0.10578173945E+04  0.50400001928E-02 0. -1.
    10030    2    1    2    0    0  0.00000000000E+00  0.00000000000E+00 -0.20032149099E+03  0.19153132980E+04  0.19048087384E+04 0.  0.
        3    1    3    3  502    0  0.36173062567E+03  0.65021793329E+03 -0.69794892342E+03  0.10201789628E+04  0.10100000352E+00 0. -1.
       -3    1    3    3    0  502 -0.36173062567E+03 -0.65021793329E+03  0.49762743243E+03  0.89513433518E+03  0.10100000352E+00 0.  1.
</event>
<event>
 5   0  0.2651828E-04  0.1890076E+04  0.7818609E-02  0.8659812E-01
        2   -1    0    0  501    0  0.00000000000E+00  0.00000000000E+00  0.87980359380E+03  0.87980359381E+03  0.25500000920E-02 0. -1.
       -2   -1    0    0    0  501  0.00000000000E+00  0.00000000000E+00 -0.10151090785E+04  0.10151090785E+04  0.25500000920E-02 0.  1.
    10030    2    1    2    0    0  0.00000000000E+00  0.00000000000E+00 -0.13530548467E+03  0.18949126723E+04  0.18900757819E+04 0.  0.
        3    1    3    3  502    0  0.86686974365E+03 -0.18832946647E+03 -0.39431699782E+03  0.97078166720E+03  0.10100000352E+00 0.  1.
       -3    1    3    3    0  502 -0.86686974365E+03  0.18832946647E+03  0.25901151315E+03  0.92413100508E+03  0.10100000352E+00 0. -1.
</event>
<event>
 5   0  0.2541124E-04  0.1854828E+04  0.7818609E-02  0.8677674E-01
       -2   -1    0    0    0  501  0.00000000000E+00  0.00000000000E+00  0.10268689803E+04  0.10268689803E+04  0.25500000920E-02 0. -1.
        2   -1    0    0  501    0  0.00000000000E+00  0.00000000000E+00 -0.83759120463E+03  0.83759120463E+03  0.25500000920E-02 0.  1.
    10030    2    1    2    0    0  0.00000000000E+00  0.00000000000E+00  0.18927777564E+03  0.18644601849E+04  0.18548276752E+04 0.  0.
        5    1    3    3  502    0  0.54068619051E+03  0.15297603661E+03  0.83625836145E+03  0.10075184174E+04  0.46999998093E+01 0. -1.
       -5    1    3    3    0  502 -0.54068619051E+03 -0.15297603661E+03 -0.64698058582E+03  0.85694176745E+03  0.46999998093E+01 0.  1.
</event>
<event>
 5   0  0.1317527E-04  0.1902764E+04  0.7818609E-02  0.8653482E-01
       -1   -1    0    0    0  501  0.00000000000E+00  0.00000000000E+00  0.49145672711E+03  0.49145672714E+03  0.50400001928E-02 0. -1.
        1   -1    0    0  501    0  0.00000000000E+00  0.00000000000E+00 -0.18417238910E+04  0.18417238910E+04  0.50400001928E-02 0.  1.
    10030    2    1    2    0    0  0.00000000000E+00  0.00000000000E+00 -0.13502671639E+04  0.23331806181E+04  0.19027638800E+04 0.  0.
        1    1    3    3  502    0 -0.32740935727E+03 -0.16803379847E+03  0.40064499908E+03  0.54401163588E+03  0.50400001928E-02 0. -1.
       -1    1    3    3    0  502  0.32740935727E+03  0.16803379847E+03 -0.17509121630E+04  0.17891689823E+04  0.50400001928E-02 0.  1.
</event>
<event>
 5   0  0.1317527E-04  0.1655835E+04  0.7818609E-02  0.8786962E-01
        1   -1    0    0  501    0  0.00000000000E+00  0.00000000000E+00  0.18103199578E+04  0.18103199578E+04  0.50400001928E-02 0. -1.
       -1   -1    0    0    0  501  0.00000000000E+00  0.00000000000E+00 -0.37863307074E+03  0.37863307078E+03  0.50400001928E-02 0.  1.
    10030    2    1    2    0    0  0.00000000000E+00  0.00000000000E+00  0.14316868870E+04  0.21889530286E+04  0.16558345384E+04 0.  0.
        1    1    3    3  502    0  0.11514114595E+03 -0.53335494257E+03 -0.10730799635E+03  0.55609350325E+03  0.50400001928E-02 0.  1.
       -1    1    3    3    0  502 -0.11514114595E+03  0.53335494257E+03  0.15389948834E+04  0.16328595253E+04  0.50400001928E-02 0. -1.
</event>
<event>
 5   0  0.2595012E-04  0.1900223E+04  0.7818609E-02  0.8654745E-01
       -2   -1    0    0    0  501  0.00000000000E+00  0.00000000000E+00  0.13174228111E+04  0.13174228111E+04  0.25500000920E-02 0.  1.
        2   -1    0    0  501    0  0.00000000000E+00  0.00000000000E+00 -0.68521033425E+03  0.68521033426E+03  0.25500000920E-02 0. -1.
    10030    2    1    2    0    0  0.00000000000E+00  0.00000000000E+00  0.63221247681E+03  0.20026331453E+04  0.19002228551E+04 0.  0.
        1    1    3    3  502    0  0.48575052317E+03 -0.52654222576E+03 -0.34163787565E+03  0.79367293287E+03  0.50400001928E-02 0. -1.
       -1    1    3    3    0  502 -0.48575052317E+03  0.52654222576E+03  0.97385035246E+03  0.12089602124E+04  0.50400001928E-02 0.  1.
</event>
<event>
 5   0  0.1277709E-04  0.1788165E+04  0.7818609E-02  0.8712619E-01
        1   -1    0    0  501    0  0.00000000000E+00  0.00000000000E+00  0.85971305107E+03  0.85971305108E+03  0.50400001928E-02 0.  1.
       -1   -1    0    0    0  501  0.00000000000E+00  0.00000000000E+00 -0.92982544814E+03  0.92982544815E+03  0.50400001928E-02 0. -1.
    10030    2    1    2    0    0  0.00000000000E+00  0.00000000000E+00 -0.70112397068E+02  0.17895384992E+04  0.17881645036E+04 0.  0.
        4    1    3    3  502    0  0.37254664005E+03 -0.79573351501E+03 -0.20070871332E+03  0.90125935581E+03  0.12699999809E+01 0. -1.
       -4    1    3    3    0  502 -0.37254664005E+03  0.79573351501E+03  0.13059631625E+03  0.88827914343E+03  0.12699999809E+01 0.  1.
</event>
<event>
 5   0  0.2541124E-04  0.1918214E+04  0.7818609E-02  0.8645843E-01
       -2   -1    0    0    0  501  0.00000000000E+00  0.00000000000E+00  0.47220485062E+03  0.47220485063E+03  0.25500000920E-02 0.  1.
        2   -1    0    0  501    0  0.00000000000E+00  0.00000000000E+00 -0.19480668887E+04  0.19480668887E+04  0.25500000920E-02 0. -1.
    10030    2    1    2    0    0  0.00000000000E+00  0.00000000000E+00 -0.14758620381E+04  0.24202717393E+04  0.19182144137E+04 0.  0.
        5    1    3    3  502    0  0.46044184293E+03 -0.50837764705E+03 -0.15837712855E+04  0.17259223904E+04  0.46999998093E+01 0. -1.
       -5    1    3    3    0  502 -0.46044184293E+03  0.50837764705E+03  0.10790924743E+03  0.69434934897E+03  0.46999998093E+01 0.  1.
</event>
<event>
 5   0  0.1255141E-04  0.1943883E+04  0.7818609E-02  0.8633316E-01
       -1   -1    0    0    0  501  0.00000000000E+00  0.00000000000E+00  0.11650042277E+04  0.11650042277E+04  0.50400001928E-02 0.  1.
        1   -1    0    0  501    0  0.00000000000E+00  0.00000000000E+00 -0.81087294758E+03  0.81087294760E+03  0.50400001928E-02 0. -1.
    10030    2    1    2    0    0  0.00000000000E+00  0.00000000000E+00  0.35413128008E+03  0.19758771753E+04  0.19438831365E+04 0.  0.
        2    1    3    3  502    0 -0.37895445074E+03 -0.38723067842E+03  0.99726436287E+03  0.11349406520E+04  0.25500000920E-02 0.  1.
       -2    1    3    3    0  502  0.37895445074E+03  0.38723067842E+03 -0.64313308279E+03  0.84093652330E+03  0.25500000920E-02 0. -1.
</event>
<event>
 5   0  0.1324058E-04  0.1886428E+04  0.7818609E-02  0.8661641E-01
        1   -1    0    0  501    0  0.00000000000E+00  0.00000000000E+00  0.24086962338E+04  0.24086962338E+04  0.50400001928E-02 0. -1.
       -1   -1    0    0    0  501  0.00000000000E+00  0.00000000000E+00 -0.36935042636E+03  0.36935042639E+03  0.50400001928E-02 0.  1.
    10030    2    1    2    0    0  0.00000000000E+00  0.00000000000E+00  0.20393458074E+04  0.27780466602E+04  0.18864283511E+04 0.  0.
        5    1    3    3  502    0 -0.19560386016E+03  0.53964384845E+03 -0.82508680405E+02  0.57991906816E+03  0.46999998093E+01 0.  1.
       -5    1    3    3    0  502  0.19560386016E+03 -0.53964384845E+03  0.21218544878E+04  0.21981275920E+04  0.46999998093E+01 0. -1.
</event>
<event>
 5   0  0.1317527E-04  0.1822465E+04  0.7818609E-02  0.8694443E-01
       -1   -1    0    0    0  501  0.00000000000E+00  0.00000000000E+00  0.95311113830E+03  0.95311113832E+03  0.50400001928E-02 0.  1.
        1   -1    0    0  501    0  0.00000000000E+00  0.00000000000E+00 -0.87119427822E+03  0.87119427824E+03  0.50400001928E-02 0. -1.
    10030    2    1    2    0    0  0.00000000000E+00  0.00000000000E+00  0.81916860080E+02  0.18243054166E+04  0.18224653305E+04 0.  0.
        1    1    3    3  502    0 -0.46033743203E+03  0.19026722713E+03 -0.72285379759E+03  0.87785521685E+03  0.50400001928E-02 0.  1.
       -1    1    3    3    0  502  0.46033743203E+03 -0.19026722713E+03  0.80477065767E+03  0.94645019970E+03  0.50400001928E-02 0. -1.
</event>
<event>
 5   0  0.2541124E-04  0.1858913E+04  0.7818609E-02  0.8675583E-01
        2   -1    0    0  501    0  0.00000000000E+00  0.00000000000E+00  0.15823785046E+04  0.15823785046E+04  0.25500000920E-02 0. -1.
       -2   -1    0    0    0  501  0.00000000000E+00  0.00000000000E+00 -0.54594336276E+03  0.54594336276E+03  0.25500000920E-02 0.  1.
    10030    2    1    2    0    0  0.00000000000E+00  0.00000000000E+00  0.10364351418E+04  0.21283218674E+04  0.18589126305E+04 0.  0.
        5    1    3    3  502    0 -0.58814588986E+03 -0.69223147969E+03  0.29278892349E+03  0.95438328409E+03  0.46999998093E+01 0.  1.
       -5    1    3    3    0  502  0.58814588986E+03  0.69223147969E+03  0.74364621836E+03  0.11739385833E+04  0.46999998093E+01 0. -1.
</event>
<event>
 5   0  0.1255141E-04  0.1853871E+04  0.7818609E-02  0.8678165E-01
        1   -1    0    0  501    0  0.00000000000E+00  0.00000000000E+00  0.16944759805E+04  0.16944759805E+04  0.50400001928E-02 0. -1.
       -1   -1    0    0    0  501  0.00000000000E+00  0.00000000000E+00 -0.50706514343E+03  0.50706514346E+03  0.50400001928E-02 0.  1.
    10030    2    1    2    0    0  0.00000000000E+00  0.00000000000E+00  0.11874108371E+04  0.22015411240E+04  0.18538713074E+04 0.  0.
        2    1    3    3  502    0 -0.69730404812E+02 -0.25690679915E+03 -0.46069538674E+03  0.53207487460E+03  0.25500000920E-02 0.  1.
       -2    1    3    3    0  502  0.69730404812E+02  0.25690679915E+03  0.16481062238E+04  0.16694662494E+04  0.25500000920E-02 0. -1.
</event>
<event>
 5   0  0.1239615E-04  0.2112517E+04  0.7818609E-02  0.8555750E-01
        1   -1    0    0  501    0  0.00000000000E+00  0.00000000000E+00  0.11969492445E+04  0.11969492445E+04  0.50400001928E-02 0. -1.
       -1   -1    0    0    0  501  0.00000000000E+00  0.00000000000E+00 -0.93210433424E+03  0.93210433426E+03  0.50400001928E-02 0.  1.
    10030    2    1    2    0    0  0.00000000000E+00  0.00000000000E+00  0.26484491021E+03  0.21290535787E+04  0.21125165833E+04 0.  0.
        3    1    3    3  502    0  0.98889520789E+03  0.11526250213E+03 -0.22316008354E+03  0.10202938840E+04  0.10100000352E+00 0.  1.
       -3    1    3    3    0  502 -0.98889520789E+03 -0.11526250213E+03  0.48800499375E+03  0.11087596948E+04  0.10100000352E+00 0. -1.
</event>
<event>
 5   0  0.2651828E-04  0.2141048E+04  0.7818609E-02  0.8543374E-01
        2   -1    0    0  501    0  0.00000000000E+00  0.00000000000E+00  0.14889858320E+04  0.14889858320E+04  0.25500000920E-02 0. -1.
       -2   -1    0    0    0  501  0.00000000000E+00  0.00000000000E+00 -0.76966563419E+03  0.76966563419E+03  0.25500000920E-02 0.  1.
    10030    2    1    2    0    0  0.00000000000E+00  0.00000000000E+00  0.71932019782E+03  0.22586514662E+04  0.21410476171E+04 0.  0.
        3    1    3    3  502    0  0.83036306011E+03 -0.41729915569E+03  0.92024283682E+03  0.13078563705E+04  0.10100000352E+00 0. -1.
       -3    1    3    3    0  502 -0.83036306011E+03  0.41729915569E+03 -0.20092263900E+03  0.95079509570E+03  0.10100000352E+00 0.  1.
</event>
<event>
 5   0  0.2541124E-04  0.1940268E+04  0.7818609E-02  0.8635068E-01
       -2   -1    0    0    0  501  0.00000000000E+00  0.00000000000E+00  0.55083452284E+03  0.55083452285E+03  0.25500000920E-02 0. -1.
        2   -1    0    0  501    0  0.00000000000E+00  0.00000000000E+00 -0.17086081153E+04  0.17086081153E+04  0.25500000920E-02 0.  1.
    10030    2    1    2    0    0  0.00000000000E+00  0.00000000000E+00 -0.11577735925E+04  0.22594426382E+04  0.19402683690E+04 0.  0.
        5    1    3    3  502    0  0.27263318591E+03 -0.19762783429E+03  0.48058597897E+03  0.58683097066E+03  0.46999998093E+01 0. -1.
       -5    1    3    3    0  502 -0.27263318591E+03  0.19762783429E+03 -0.16383595715E+04  0.16726116675E+04  0.46999998093E+01 0.  1.
</event>
<event>
 5   0  0.2595012E-04  0.1905415E+04  0.7818609E-02  0.8652166E-01
        2   -1    0    0  501    0  0.00000000000E+00  0.00000000000E+00  0.12962711271E+04  0.12962711272E+04  0.25500000920E-02 0. -1.
       -2   -1    0    0    0  501  0.00000000000E+00  0.00000000000E+00 -0.70020212229E+03  0.70020212230E+03  0.25500000920E-02 0.  1.
    10030    2    1    2    0    0  0.00000000000E+00  0.00000000000E+00  0.59606900485E+03  0.19964732495E+04  0.19054152244E+04 0.  0.
        1    1    3    3  502    0 -0.15083733681E+03 -0.86219315940E+03  0.69220774902E+03  0.11159213745E+04  0.50400001928E-02 0. -1.
       -1    1    3    3    0  502  0.15083733681E+03  0.86219315940E+03 -0.96138744168E+02  0.88055187493E+03  0.50400001928E-02 0.  1.
</event>
<event>
 5   0  0.1277709E-04  0.1860473E+04  0.7818609E-02  0.8674785E-01
       -1   -1    0    0    0  501  0.00000000000E+00  0.00000000000E+00  0.69448509721E+03  0.69448509723E+03  0.50400001928E-02 0. -1.
        1   -1    0    0  501    0  0.00000000000E+00  0.00000000000E+00 -0.12460166958E+04  0.12460166958E+04  0.50400001928E-02 0.  1.
    10030    2    1    2    0    0  0.00000000000E+00  0.00000000000E+00 -0.55153159856E+03  0.19405017930E+04  0.18604730862E+04 0.  0.
        4    1    3    3  502    0  0.81739123964E+03 -0.16979067639E+03 -0.70375945236E+03  0.10918957332E+04  0.12699999809E+01 0.  1.
       -4    1    3    3    0  502 -0.81739123964E+03  0.16979067639E+03  0.15222785380E+03  0.84860605984E+03  0.12699999809E+01 0. -1.
</event>
<event>
 5   0  0.1324058E-04  0.1932205E+04  0.7818609E-02  0.8638990E-01
       -1   -1    0    0    0  501  0.00000000000E+00  0.00000000000E+00  0.16993804186E+04  0.16993804186E+04  0.50400001928E-02 0.  1.
        1   -1    0    0  501    0  0.00000000000E+00  0.00000000000E+00 -0.54923216985E+03  0.54923216987E+03  0.50400001928E-02 0. -1.
    10030    2    1    2    0    0  0.00000000000E+00  0.00000000000E+00  0.11501482488E+04  0.22486125885E+04  0.19322053667E+04 0.  0.
        5    1    3    3  502    0  0.26548284400E+02 -0.64569051662E+03  0.14108015539E+04  0.15517745226E+04  0.46999998093E+01 0.  1.
       -5    1    3    3    0  502 -0.26548284400E+02  0.64569051662E+03 -0.26065330506E+03  0.69683806591E+03  0.46999998093E+01 0. -1.
</event>
<event>
 5   0  0.1239615E-04  0.1916443E+04  0.7818609E-02  0.8646714E-01
        1   -1    0    0  501    0  0.00000000000E+00  0.00000000000E+00  0.14851816690E+04  0.14851816690E+04  0.50400001928E-02 0. -1.
       -1   -1    0    0    0  501  0.00000000000E+00  0.00000000000E+00 -0.61823338996E+03  0.61823338998E+03  0.50400001928E-02 0.  1.
    10030    2    1    2    0    0  0.00000000000E+00  0.00000000000E+00  0.86694827901E+03  0.21034150590E+04  0.19164434747E+04 0.  0.
        3    1    3    3  502    0  0.44196876659E+03 -0.64619077961E+03  0.10399105034E+04  0.13016577044E+04  0.10100000352E+00 0. -1.
       -3    1    3    3    0  502 -0.44196876659E+03  0.64619077961E+03 -0.17296222435E+03  0.80175735453E+03  0.10100000352E+00 0.  1.
</event>
<event>
 5   0  0.2608744E-04  0.1950226E+04  0.7818609E-02  0.8630252E-01
       -2   -1    0    0    0  501  0.00000000000E+00  0.00000000000E+00  0.54912971564E+03  0.54912971565E+03  0.25500000920E-02 0.  1.
        2   -1    0    0  501    0  0.00000000000E+00  0.00000000000E+00 -0.17315504060E+04  0.17315504060E+04  0.25500000920E-02 0. -1.
    10030    2    1    2    0    0  0.00000000000E+00  0.00000000000E+00 -0.11824206904E+04  0.22806801217E+04  0.19502264300E+04 0.  0.
        2    1    3    3  502    0 -0.67336006124E+02 -0.52396767245E+03  0.36728385145E+03  0.64340786989E+03  0.25500000920E-02 0.  1.
       -2    1    3    3    0  502  0.67336006124E+02  0.52396767245E+03 -0.15497045418E+04  0.16372722518E+04  0.25500000920E-02 0. -1.
</event>
<event>
 5   0  0.1239615E-04  0.1385718E+04  0.7818609E-02  0.8964222E-01
        1   -1    0    0  501    0  0.00000000000E+00  0.00000000000E+00  0.91029224132E+03  0.91029224134E+03  0.50400001928E-02 0. -1.
       -1   -1    0    0    0  501  0.00000000000E+00  0.00000000000E+00 -0.52736188369E+03  0.52736188372E+03  0.50400001928E-02 0.  1.
    10030    2    1    2    0    0  0.00000000000E+00  0.00000000000E+00  0.38293035763E+03  0.14376541251E+04  0.13857177651E+04 0.  0.
        3    1    3    3  502    0 -0.62272131331E+03  0.29769279233E+03  0.25414980734E+03  0.73552360087E+03  0.10100000352E+00 0. -1.
       -3    1    3    3    0  502  0.62272131331E+03 -0.29769279233E+03  0.12878055029E+03  0.70213052419E+03  0.10100000352E+00 0.  1.
</event>
<event>
 5   0  0.1255141E-04  0.1600245E+04  0.7818609E-02  0.8820398E-01
       -1   -1    0    0    0  501  0.00000000000E+00  0.00000000000E+00  0.48292179891E+03  0.48292179894E+03  0.50400001928E-02 0.  1.
        1   -1    0    0  501    0  0.00000000000E+00  0.00000000000E+00 -0.13256715654E+04  0.13256715654E+04  0.50400001928E-02 0. -1.
    10030    2    1    2    0    0  0.00000000000E+00  0.00000000000E+00 -0.84274976646E+03  0.18085933643E+04  0.16002446027E+04 0.  0.
        2    1    3    3  502    0 -0.54097019439E+03 -0.14832548913E+03  0.22347863565E+03  0.60381446036E+03  0.25500000920E-02 0.  1.
       -2    1    3    3    0  502  0.54097019439E+03  0.14832548913E+03 -0.10662284021E+04  0.12047789040E+04  0.25500000920E-02 0. -1.
</event>
<event>
 5   0  0.1277709E-04  0.1912397E+04  0.7818609E-02  0.8648710E-01
        1   -1    0    0  501    0  0.00000000000E+00  0.00000000000E+00  0.72558388975E+03  0.72558388977E+03  0.50400001928E-02 0. -1.
       -1   -1    0    0    0  501  0.00000000000E+00  0.00000000000E+00 -0.12601099282E+04  0.12601099282E+04  0.50400001928E-02 0.  1.
    10030    2    1    2    0    0  0.00000000000E+00  0.00000000000E+00 -0.53452603843E+03  0.19856938180E+04  0.19123968869E+04 0.  0.
        4    1    3    3  502    0  0.71887096757E+03  0.59316968708E+03 -0.48920314438E+03  0.10525906493E+04  0.12699999809E+01 0. -1.
       -4    1    3    3    0  502 -0.71887096757E+03 -0.59316968708E+03 -0.45322894055E+02  0.93310316863E+03  0.12699999809E+01 0.  1.
</event>
<event>
 5   0  0.2651828E-04  0.1907442E+04  0.7818609E-02  0.8651161E-01
       -2   -1    0    0    0  501  0.00000000000E+00  0.00000000000E+00  0.27149283539E+03  0.27149283540E+03  0.25500000920E-02 0. -1.
        2   -1    0    0  501    0  0.00000000000E+00  0.00000000000E+00 -0.33503049439E+04  0.33503049439E+04  0.25500000920E-02 0.  1.
    10030    2    1    2    0    0  0.00000000000E+00  0.00000000000E+00 -0.30788121085E+04  0.36217977793E+04  0.19074420449E+04 0.  0.
        3    1    3    3  502    0 -0.28619918863E+01  0.69341249371E+03 -0.29610215937E+03  0.75399308778E+03  0.10100000352E+00 0. -1.
       -3    1    3    3    0  502  0.28619918863E+01 -0.69341249371E+03 -0.27827099491E+04  0.28678046915E+04  0.10100000352E+00 0.  1.
</event>
<event>
 5   0  0.2651828E-04  0.1901338E+04  0.7818609E-02  0.8654190E-01
       -2   -1    0    0    0  501  0.00000000000E+00  0.00000000000E+00  0.81245852191E+03  0.81245852191E+03  0.25500000920E-02 0. -1.
        2   -1    0    0  501    0  0.00000000000E+00  0.00000000000E+00 -0.11123914176E+04  0.11123914176E+04  0.25500000920E-02 0.  1.
    10030    2    1    2    0    0  0.00000000000E+00  0.00000000000E+00 -0.29993289569E+03  0.19248499395E+04  0.19013383570E+04 0.  0.
        3    1    3    3  502    0 -0.20103992956E+03  0.45699238413E+03 -0.96899027230E+03  0.10900464442E+04  0.10100000352E+00 0.  1.
       -3    1    3    3    0  502  0.20103992956E+03 -0.45699238413E+03  0.66905737661E+03  0.83480349534E+03  0.10100000352E+00 0. -1.
</event>
<event>
 5   0  0.1255141E-04  0.1894834E+04  0.7818609E-02  0.8657432E-01
        1   -1    0    0  501    0  0.00000000000E+00  0.00000000000E+00  0.19302734090E+04  0.19302734090E+04  0.50400001928E-02 0.  1.
       -1   -1    0    0    0  501  0.00000000000E+00  0.00000000000E+00 -0.46501153618E+03  0.46501153621E+03  0.50400001928E-02 0. -1.
    10030    2    1    2    0    0  0.00000000000E+00  0.00000000000E+00  0.14652618728E+04  0.23952849452E+04  0.18948344553E+04 0.  0.
        2    1    3    3  502    0  0.29042108396E+03 -0.13593720323E+03 -0.39432855066E+03  0.50825026818E+03  0.25500000920E-02 0. -1.
       -2    1    3    3    0  502 -0.29042108396E+03  0.13593720323E+03  0.18595904235E+04  0.18870346770E+04  0.25500000920E-02 0.  1.
</event>
<event>
 5   0  0.1324058E-04  0.1911520E+04  0.7818609E-02  0.8649143E-01
        1   -1    0    0  501    0  0.00000000000E+00  0.00000000000E+00  0.45199082534E+03  0.45199082536E+03  0.50400001928E-02 0.  1.
       -1   -1    0    0    0  501  0.00000000000E+00  0.00000000000E+00 -0.20210074151E+04  0.20210074151E+04  0.50400001928E-02 0. -1.
    10030    2    1    2    0    0  0.00000000000E+00  0.00000000000E+00 -0.15690165898E+04  0.24729982405E+04  0.19115196150E+04 0.  0.
        5    1    3    3  502    0  0.28748720075E+03  0.32626473528E+03  0.31657817129E+03  0.53790463524E+03  0.46999998093E+01 0.  1.
       -5    1    3    3    0  502 -0.28748720075E+03 -0.32626473528E+03 -0.18855947611E+04  0.19350936053E+04  0.46999998093E+01 0. -1.
</event>
<event>
 5   0  0.2541124E-04  0.1893030E+04  0.7818609E-02  0.8658333E-01
       -2   -1    0    0    0  501  0.00000000000E+00  0.00000000000E+00  0.15345330318E+04  0.15345330318E+04  0.25500000920E-02 0. -1.
        2   -1    0    0  501    0  0.00000000000E+00  0.00000000000E+00 -0.58381982627E+03  0.58381982627E+03  0.25500000920E-02 0.  1.
    10030    2    1    2    0    0  0.00000000000E+00  0.00000000000E+00  0.95071320558E+03  0.21183528581E+04  0.18930301720E+04 0.  0.
        5    1    3    3  502    0  0.83456136102E+03 -0.77658531361E+02  0.96740460215E+03  0.12800067449E+04  0.46999998093E+01 0. -1.
       -5    1    3    3    0  502 -0.83456136102E+03  0.77658531361E+02 -0.16691396567E+02  0.83834611320E+03  0.46999998093E+01 0.  1.
</event>
<event>
 5   0  0.2595012E-04  0.1893868E+04  0.7818609E-02  0.8657914E-01
       -2   -1    0    0    0  501  0.00000000000E+00  0.00000000000E+00  0.88771529137E+03  0.88771529137E+03  0.25500000920E-02 0.  1.
        2   -1    0    0  501    0  0.00000000000E+00  0.00000000000E+00 -0.10101036410E+04  0.10101036410E+04  0.25500000920E-02 0. -1.
    10030    2    1    2    0    0  0.00000000000E+00  0.00000000000E+00 -0.12238834966E+03  0.18978189324E+04  0.18938684727E+04 0.  0.
        1    1    3    3  502    0  0.47942255568E+03  0.81276561678E+03  0.18030926061E+02  0.94380032266E+03  0.50400001928E-02 0.  1.
       -1    1    3    3    0  502 -0.47942255568E+03 -0.81276561678E+03 -0.14041927572E+03  0.95401860975E+03  0.50400001928E-02 0. -1.
</event>
<event>
 5   0  0.9266125E-05  0.1895613E+04  0.7818609E-02  0.8657043E-01
        3   -1    0    0  501    0  0.00000000000E+00  0.00000000000E+00  0.69875248930E+03  0.69875249660E+03  0.10100000352E+00 0.  1.
       -3   -1    0    0    0  501  0.00000000000E+00  0.00000000000E+00 -0.12856297975E+04  0.12856298015E+04  0.10100000352E+00 0. -1.
    10030    2    1    2    0    0  0.00000000000E+00  0.00000000000E+00 -0.58687730825E+03  0.19843822981E+04  0.18956128640E+04 0.  0.
        1    1    3    3  502    0 -0.52478096887E+03 -0.62971638014E+03  0.20465749803E+03  0.84488015495E+03  0.50400001928E-02 0. -1.
       -1    1    3    3    0  502  0.52478096887E+03  0.62971638014E+03 -0.79153480628E+03  0.11395021432E+04  0.50400001928E-02 0.  1.
</event>
<event>
 5   0  0.1277709E-04  0.1842832E+04  0.7818609E-02  0.8683848E-01
        1   -1    0    0  501    0  0.00000000000E+00  0.00000000000E+00  0.14489243771E+04  0.14489243771E+04  0.50400001928E-02 0. -1.
       -1   -1    0    0    0  501  0.00000000000E+00  0.00000000000E+00 -0.58595715217E+03  0.58595715219E+03  0.50400001928E-02 0.  1.
    10030    2    1    2    0    0  0.00000000000E+00  0.00000000000E+00  0.86296722495E+03  0.20348815293E+04  0.18428321701E+04 0.  0.
        4    1    3    3  502    0  0.82837498265E+03  0.16501079732E+03  0.24910318224E+02  0.84501823174E+03  0.12699999809E+01 0.  1.
       -4    1    3    3    0  502 -0.82837498265E+03 -0.16501079732E+03  0.83805690673E+03  0.11898632976E+04  0.12699999809E+01 0. -1.
</event>
<event>
 5   0  0.2562925E-04  0.1732490E+04  0.7818609E-02  0.8743048E-01
        2   -1    0    0  501    0  0.00000000000E+00  0.00000000000E+00  0.16572487092E+04  0.16572487092E+04  0.25500000920E-02 0.  1.
       -2   -1    0    0    0  501  0.00000000000E+00  0.00000000000E+00 -0.45278664737E+03  0.45278664737E+03  0.25500000920E-02 0. -1.
    10030    2    1    2    0    0  0.00000000000E+00  0.00000000000E+00  0.12044620618E+04  0.21100353566E+04  0.17324896385E+04 0.  0.
        4    1    3    3  502    0 -0.77648598935E+03 -0.20648299071E+03  0.20793159222E+03  0.82994149014E+03  0.12699999809E+01 0. -1.
       -4    1    3    3    0  502  0.77648598935E+03  0.20648299071E+03  0.99653046961E+03  0.12800938664E+04  0.12699999809E+01 0.  1.
</event>
<event>
 5   0  0.2651828E-04  0.1906779E+04  0.7818609E-02  0.8651489E-01
       -2   -1    0    0    0  501  0.00000000000E+00  0.00000000000E+00  0.11083201618E+04  0.11083201618E+04  0.25500000920E-02 0.  1.
        2   -1    0    0  501    0  0.00000000000E+00  0.00000000000E+00 -0.82011654795E+03  0.82011654795E+03  0.25500000920E-02 0. -1.
    10030    2    1    2    0    0  0.00000000000E+00  0.00000000000E+00  0.28820361385E+03  0.19284367098E+04  0.19067791745E+04 0.  0.
        3    1    3    3  502    0  0.88741258379E+03  0.11267879781E+03  0.47762634293E+03  0.10140633802E+04  0.10100000352E+00 0. -1.
       -3    1    3    3    0  502 -0.88741258379E+03 -0.11267879781E+03 -0.18942272908E+03  0.91437332958E+03  0.10100000352E+00 0.  1.
</event>
<event>
 5   0  0.2541124E-04  0.1893928E+04  0.7818609E-02  0.8657885E-01
        2   -1    0    0  501    0  0.00000000000E+00  0.00000000000E+00  0.11942622420E+04  0.11942622420E+04  0.25500000920E-02 0. -1.
       -2   -1    0    0    0  501  0.00000000000E+00  0.00000000000E+00 -0.75087432024E+03  0.75087432024E+03  0.25500000920E-02 0.  1.
    10030    2    1    2    0    0  0.00000000000E+00  0.00000000000E+00  0.44338792171E+03  0.19451365622E+04  0.18939280336E+04 0.  0.
        5    1    3    3  502    0 -0.15883608625E+03  0.93174047800E+03  0.28113400337E+03  0.98611745674E+03  0.46999998093E+01 0. -1.
       -5    1    3    3    0  502  0.15883608625E+03 -0.93174047800E+03  0.16225391835E+03  0.95901910547E+03  0.46999998093E+01 0.  1.
</event>
<event>
 5   0  0.2541124E-04  0.1898868E+04  0.7818609E-02  0.8655420E-01
       -2   -1    0    0    0  501  0.00000000000E+00  0.00000000000E+00  0.47001037443E+03  0.47001037444E+03  0.25500000920E-02 0. -1.
        2   -1    0    0  501    0  0.00000000000E+00  0.00000000000E+00 -0.19178826195E+04  0.19178826195E+04  0.25500000920E-02 0.  1.
    10030    2    1    2    0    0  0.00000000000E+00  0.00000000000E+00 -0.14478722451E+04  0.23878929940E+04  0.18988677975E+04 0.  0.
        5    1    3    3  502    0 -0.53161588349E+03  0.68687414022E+03 -0.12060677933E+04  0.14862816503E+04  0.46999998093E+01 0.  1.
       -5    1    3    3    0  502  0.53161588349E+03 -0.68687414022E+03 -0.24180445180E+03  0.90161134364E+03  0.46999998093E+01 0. -1.
</event>
<event>
 5   0  0.2541124E-04  0.1901121E+04  0.7818609E-02  0.8654299E-01
        2   -1    0    0  501    0  0.00000000000E+00  0.00000000000E+00  0.10188469986E+04  0.10188469986E+04  0.25500000920E-02 0.  1.
       -2   -1    0    0    0  501  0.00000000000E+00  0.00000000000E+00 -0.88685050641E+03  0.88685050641E+03  0.25500000920E-02 0. -1.
    10030    2    1    2    0    0  0.00000000000E+00  0.00000000000E+00  0.13199649215E+03  0.19056975050E+04  0.19011206975E+04 0.  0.
        5    1    3    3  502    0  0.52999838958E+03 -0.73978563398E+03  0.34118018985E+03  0.97190899221E+03  0.46999998093E+01 0.  1.
       -5    1    3    3    0  502 -0.52999838958E+03  0.73978563398E+03 -0.20918369770E+03  0.93378851276E+03  0.46999998093E+01 0. -1.
</event>
<event>
 5   0  0.1324058E-04  0.1897799E+04  0.7818609E-02  0.8655953E-01
       -1   -1    0    0    0  501  0.00000000000E+00  0.00000000000E+00  0.10693073045E+04  0.10693073045E+04  0.50400001928E-02 0. -1.
        1   -1    0    0  501    0  0.00000000000E+00  0.00000000000E+00 -0.84205006241E+03  0.84205006242E+03  0.50400001928E-02 0.  1.
    10030    2    1    2    0    0  0.00000000000E+00  0.00000000000E+00  0.22725724212E+03  0.19113573670E+04  0.18977990226E+04 0.  0.
        5    1    3    3  502    0  0.36911001816E+03  0.27737982950E+03  0.94853019415E+03  0.10549471051E+04  0.46999998093E+01 0. -1.
       -5    1    3    3    0  502 -0.36911001816E+03 -0.27737982950E+03 -0.72127295203E+03  0.85641026188E+03  0.46999998093E+01 0.  1.
</event>
<event>
 5   0  0.2595012E-04  0.1805382E+04  0.7818609E-02  0.8703442E-01
       -2   -1    0    0    0  501  0.00000000000E+00  0.00000000000E+00  0.14176783645E+04  0.14176783645E+04  0.25500000920E-02 0.  1.
        2   -1    0    0  501    0  0.00000000000E+00  0.00000000000E+00 -0.57477869963E+03  0.57477869964E+03  0.25500000920E-02 0. -1.
    10030    2    1    2    0    0  0.00000000000E+00  0.00000000000E+00  0.84289966486E+03  0.19924570641E+04  0.18053823161E+04 0.  0.
        1    1    3    3  502    0  0.44143806971E+03 -0.23123045023E+03  0.12521149395E+04  0.13476375300E+04  0.50400001928E-02 0.  1.
       -1    1    3    3    0  502 -0.44143806971E+03  0.23123045023E+03 -0.40921527468E+03  0.64481953410E+03  0.50400001928E-02 0. -1.
</event>
<event>
 5   0  0.1255141E-04  0.1884556E+04  0.7818609E-02  0.8662582E-01
       -1   -1    0    0    0  501  0.00000000000E+00  0.00000000000E+00  0.12033157916E+04  0.12033157916E+04  0.50400001928E-02 0. -1.
        1   -1    0    0  501    0  0.00000000000E+00  0.00000000000E+00 -0.73786752195E+03  0.73786752197E+03  0.50400001928E-02 0.  1.
    10030    2    1    2    0    0  0.00000000000E+00  0.00000000000E+00  0.46544826966E+03  0.19411833136E+04  0.18845558005E+04 0.  0.
        2    1    3    3  502    0  0.44712631907E+03  0.28621723421E+03 -0.56915723696E+03  0.77832012100E+03  0.25500000920E-02 0.  1.
       -2    1    3    3    0  502 -0.44712631907E+03 -0.28621723421E+03  0.10346055066E+04  0.11628631926E+04  0.25500000920E-02 0. -1.
</event>
<event>
 5   0  0.1255141E-04  0.1866101E+04  0.7818609E-02  0.8671916E-01
       -1   -1    0    0    0  501  0.00000000000E+00  0.00000000000E+00  0.88649544373E+03  0.88649544374E+03  0.50400001928E-02 0.  1.
        1   -1    0    0  501    0  0.00000000000E+00  0.00000000000E+00 -0.98205086012E+03  0.98205086014E+03  0.50400001928E-02 0. -1.
    10030    2    1    2    0    0  0.00000000000E+00  0.00000000000E+00 -0.95555416398E+02  0.18685463039E+04  0.18661014046E+04 0.  0.
        2    1    3    3  502    0 -0.16439896434E+03 -0.25369210502E+03  0.83610011071E+03  0.88907260601E+03  0.25500000920E-02 0.  1.
       -2    1    3    3    0  502  0.16439896434E+03  0.25369210502E+03 -0.93165552711E+03  0.97947369787E+03  0.25500000920E-02 0. -1.
</event>
<event>
 5   0  0.1239615E-04  0.1895950E+04  0.7818609E-02  0.8656875E-01
        1   -1    0    0  501    0  0.00000000000E+00  0.00000000000E+00  0.85561120008E+03  0.85561120009E+03  0.50400001928E-02 0. -1.
       -1   -1    0    0    0  501  0.00000000000E+00  0.00000000000E+00 -0.10503095863E+04  0.10503095863E+04  0.50400001928E-02 0.  1.
    10030    2    1    2    0    0  0.00000000000E+00  0.00000000000E+00 -0.19469838625E+03  0.19059207864E+04  0.18959500475E+04 0.  0.
        3    1    3    3  502    0  0.45414783381E+03 -0.49214366139E+03 -0.77184799417E+03  0.10218634814E+04  0.10100000352E+00 0.  1.
       -3    1    3    3    0  502 -0.45414783381E+03  0.49214366139E+03  0.57714960792E+03  0.88405730500E+03  0.10100000352E+00 0. -1.
</event>
<event>
 5   0  0.2595012E-04  0.1904938E+04  0.7818609E-02  0.8652402E-01
       -2   -1    0    0    0  501  0.00000000000E+00  0.00000000000E+00  0.33087658411E+03  0.33087658412E+03  0.25500000920E-02 0. -1.
        2   -1    0    0  501    0  0.00000000000E+00  0.00000000000E+00 -0.27417984124E+04  0.27417984124E+04  0.25500000920E-02 0.  1.
    10030    2    1    2    0    0  0.00000000000E+00  0.00000000000E+00 -0.24109218283E+04  0.30726749966E+04  0.19049376820E+04 0.  0.
        1    1    3    3  502    0  0.67764887091E+03  0.30277156799E+03 -0.24261918459E+03  0.78086022013E+03  0.50400001928E-02 0. -1.
       -1    1    3    3    0  502 -0.67764887091E+03 -0.30277156799E+03 -0.21683026437E+04  0.22918147764E+04  0.50400001928E-02 0.  1.
</event>
<event>
 5   0  0.1277709E-04  0.1886552E+04  0.7818609E-02  0.8661579E-01
        1   -1    0    0  501    0  0.00000000000E+00  0.00000000000E+00  0.44754650880E+03  0.44754650883E+03  0.50400001928E-02 0.  1.
       -1   -1    0    0    0  501  0.00000000000E+00  0.00000000000E+00 -0.19881057746E+04  0.19881057746E+04  0.50400001928E-02 0. -1.
    10030    2    1    2    0    0  0.00000000000E+00  0.00000000000E+00 -0.15405592658E+04  0.24356522834E+04  0.18865521976E+04 0.  0.
        4    1    3    3  502    0  0.49563559495E+03  0.64906523210E+03 -0.16083927014E+03  0.83235281115E+03  0.12699999809E+01 0.  1.
       -4    1    3    3    0  502 -0.49563559495E+03 -0.64906523210E+03 -0.13797199957E+04  0.16032994723E+04  0.12699999809E+01 0. -1.
</event>
<event>
 5   0  0.1277709E-04  0.1906937E+04  0.7818609E-02  0.8651411E-01
       -1   -1    0    0    0  501  0.00000000000E+00  0.00000000000E+00  0.43740976625E+03  0.43740976628E+03  0.50400001928E-02 0.  1.
        1   -1    0    0  501    0  0.00000000000E+00  0.00000000000E+00 -0.20783755674E+04  0.20783755674E+04  0.50400001928E-02 0. -1.
    10030    2    1    2    0    0  0.00000000000E+00  0.00000000000E+00 -0.16409658011E+04  0.25157853336E+04  0.19069365707E+04 0.  0.
        4    1    3    3  502    0  0.34098798612E+03 -0.73169716275E+03 -0.14898755285E+04  0.16945159332E+04  0.12699999809E+01 0. -1.
       -4    1    3    3    0  502 -0.34098798612E+03  0.73169716275E+03 -0.15109027259E+03  0.82126940039E+03  0.12699999809E+01 0.  1.
</event>
<event>
 5   0  0.1324058E-04  0.1890844E+04  0.7818609E-02  0.8659427E-01
       -1   -1    0    0    0  501  0.00000000000E+00  0.00000000000E+00  0.96756874672E+03  0.96756874673E+03  0.50400001928E-02 0. -1.
        1   -1    0    0  501    0  0.00000000000E+00  0.00000000000E+00 -0.92378197300E+03  0.92378197301E+03  0.50400001928E-02 0.  1.
    10030    2    1    2    0    0  0.00000000000E+00  0.00000000000E+00  0.43786773719E+02  0.18913507197E+04  0.18908437967E+04 0.  0.
        5    1    3    3  502    0 -0.14276138075E+03 -0.35313384618E+03 -0.84362244575E+03  0.92563775102E+03  0.46999998093E+01 0.  1.
       -5    1    3    3    0  502  0.14276138075E+03  0.35313384618E+03  0.88740921947E+03  0.96571296872E+03  0.46999998093E+01 0. -1.
</event>
<event>
 5   0  0.2608744E-04  0.1903752E+04  0.7818609E-02  0.8652991E-01
        2   -1    0    0  501    0  0.00000000000E+00  0.00000000000E+00  0.13238994068E+04  0.13238994068E+04  0.25500000920E-02 0. -1.
       -2   -1    0    0    0  501  0.00000000000E+00  0.00000000000E+00 -0.68439326033E+03  0.68439326033E+03  0.25500000920E-02 0.  1.
    10030    2    1    2    0    0  0.00000000000E+00  0.00000000000E+00  0.63950614645E+03  0.20082926671E+04  0.19037519075E+04 0.  0.
        2    1    3    3  502    0 -0.30034016300E+03 -0.16018121716E+03 -0.61799612464E+03  0.70553628250E+03  0.25500000920E-02 0.  1.
       -2    1    3    3    0  502  0.30034016300E+03  0.16018121716E+03  0.12575022711E+04  0.13027563846E+04  0.25500000920E-02 0. -1.
</event>
<event>
 5   0  0.2562925E-04  0.1904426E+04  0.7818609E-02  0.8652656E-01
       -2   -1    0    0    0  501  0.00000000000E+00  0.00000000000E+00  0.67953169979E+03  0.67953169979E+03  0.25500000920E-02 0. -1.
        2   -1    0    0  501    0  0.00000000000E+00  0.00000000000E+00 -0.13343160170E+04  0.13343160170E+04  0.25500000920E-02 0.  1.
    10030    2    1    2    0    0  0.00000000000E+00  0.00000000000E+00 -0.65478431725E+03  0.20138477168E+04  0.19044264555E+04 0.  0.
        4    1    3    3  502    0 -0.23093367627E+02  0.91176282983E+03 -0.38059179137E+02  0.91284986471E+03  0.12699999809E+01 0.  1.
       -4    1    3    3    0  502  0.23093367627E+02 -0.91176282983E+03 -0.61672513812E+03  0.11009978521E+04  0.12699999809E+01 0. -1.
</event>
<event>
 5   0  0.2541124E-04  0.1903198E+04  0.7818609E-02  0.8653266E-01
        2   -1    0    0  501    0  0.00000000000E+00  0.00000000000E+00  0.14512900629E+04  0.14512900629E+04  0.25500000920E-02 0.  1.
       -2   -1    0    0    0  501  0.00000000000E+00  0.00000000000E+00 -0.62395584410E+03  0.62395584410E+03  0.25500000920E-02 0. -1.
    10030    2    1    2    0    0  0.00000000000E+00  0.00000000000E+00  0.82733421880E+03  0.20752459070E+04  0.19031982726E+04 0.  0.
        5    1    3    3  502    0  0.34539632237E+03  0.14546028086E+03 -0.54008104100E+03  0.65739404748E+03  0.46999998093E+01 0. -1.
       -5    1    3    3    0  502 -0.34539632237E+03 -0.14546028086E+03  0.13674152598E+04  0.14178518595E+04  0.46999998093E+01 0.  1.
</event>
<event>
 5   0  0.2651828E-04  0.1900581E+04  0.7818609E-02  0.8654567E-01
       -2   -1    0    0    0  501  0.00000000000E+00  0.00000000000E+00  0.70496031152E+03  0.70496031152E+03  0.25500000920E-02 0. -1.
        2   -1    0    0  501    0  0.00000000000E+00  0.00000000000E+00 -0.12809975810E+04  0.12809975810E+04  0.25500000920E-02 0.  1.
    10030    2    1    2    0    0  0.00000000000E+00  0.00000000000E+00 -0.57603726945E+03  0.19859578925E+04  0.19005814413E+04 0.  0.
        3    1    3    3  502    0  0.82336584236E+03 -0.28018949040E+03 -0.68812248302E+03  0.11090311189E+04  0.10100000352E+00 0.  1.
       -3    1    3    3    0  502 -0.82336584236E+03  0.28018949040E+03  0.11208521358E+03  0.87692677357E+03  0.10100000352E+00 0. -1.
</event>
<event>
 5   0  0.2541124E-04  0.1849256E+04  0.7818609E-02  0.8680536E-01
       -2   -1    0    0    0  501  0.00000000000E+00  0.00000000000E+00  0.36812637092E+03  0.36812637093E+03  0.25500000920E-02 0. -1.
        2   -1    0    0  501    0  0.00000000000E+00  0.00000000000E+00 -0.23224006595E+04  0.23224006595E+04  0.25500000920E-02 0.  1.
    10030    2    1    2    0    0  0.00000000000E+00  0.00000000000E+00 -0.19542742885E+04  0.26905270304E+04  0.18492559873E+04 0.  0.
        5    1    3    3  502    0  0.35615581309E+03 -0.54804865754E+03 -0.25622879200E+02  0.65412759929E+03  0.46999998093E+01 0. -1.
       -5    1    3    3    0  502 -0.35615581309E+03  0.54804865754E+03 -0.19286514093E+04  0.20363994311E+04  0.46999998093E+01 0.  1.
</event>
<event>
 5   0  0.2608744E-04  0.1941391E+04  0.7818609E-02  0.8634523E-01
       -2   -1    0    0    0  501  0.00000000000E+00  0.00000000000E+00  0.53974156105E+03  0.53974156105E+03  0.25500000920E-02 0.  1.
        2   -1    0    0  501    0  0.00000000000E+00  0.00000000000E+00 -0.17457422687E+04  0.17457422687E+04  0.25500000920E-02 0. -1.
    10030    2    1    2    0    0  0.00000000000E+00  0.00000000000E+00 -0.12060007077E+04  0.22854838298E+04  0.19413909007E+04 0.  0.
        2    1    3    3  502    0 -0.43951770417E+03  0.41008922792E+03 -0.15002557976E+04  0.16162043328E+04  0.25500000920E-02 0. -1.
       -2    1    3    3    0  502  0.43951770417E+03 -0.41008922792E+03  0.29425508992E+03  0.66927949698E+03  0.25500000920E-02 0.  1.
</event>
<event>
 5   0  0.1317527E-04  0.1872144E+04  0.7818609E-02  0.8668848E-01
        1   -1    0    0  501    0  0.00000000000E+00  0.00000000000E+00  0.12449368005E+04  0.12449368005E+04  0.50400001928E-02 0. -1.
       -1   -1    0    0    0  501  0.00000000000E+00  0.00000000000E+00 -0.70383545516E+03  0.70383545517E+03  0.50400001928E-02 0.  1.
    10030    2    1    2    0    0  0.00000000000E+00  0.00000000000E+00  0.54110134530E+03  0.19487722556E+04  0.18721438616E+04 0.  0.
        1    1    3    3  502    0  0.88270078833E+02 -0.84150129336E+03 -0.14623083650E+03  0.85866145315E+03  0.50400001928E-02 0. -1.
       -1    1    3    3    0  502 -0.88270078833E+02  0.84150129336E+03  0.68733218179E+03  0.10901108025E+04  0.50400001928E-02 0.  1.
</event>
<event>
 5   0  0.1277709E-04  0.2033874E+04  0.7818609E-02  0.8590945E-01
        1   -1    0    0  501    0  0.00000000000E+00  0.00000000000E+00  0.14484717961E+04  0.14484717961E+04  0.50400001928E-02 0.  1.
       -1   -1    0    0    0  501  0.00000000000E+00  0.00000000000E+00 -0.71396664173E+03  0.71396664175E+03  0.50400001928E-02 0. -1.
    10030    2    1    2    0    0  0.00000000000E+00  0.00000000000E+00  0.73450515435E+03  0.21624384378E+04  0.20338736872E+04 0.  0.
        4    1    3    3  502    0  0.42626442704E+03 -0.88248835685E+03  0.78669659888E+02  0.98319763528E+03  0.12699999809E+01 0.  1.
       -4    1    3    3    0  502 -0.42626442704E+03  0.88248835685E+03  0.65583549446E+03  0.11792408026E+04  0.12699999809E+01 0. -1.
</event>
<event>
 5   0  0.2562925E-04  0.1899896E+04  0.7818609E-02  0.8654908E-01
       -2   -1    0    0    0  501  0.00000000000E+00  0.00000000000E+00  0.68265626792E+03  0.68265626793E+03  0.25500000920E-02 0. -1.
        2   -1    0    0  501    0  0.00000000000E+00  0.00000000000E+00 -0.13218965083E+04  0.13218965083E+04  0.25500000920E-02 0.  1.
    10030    2    1    2    0    0  0.00000000000E+00  0.00000000000E+00 -0.63924024039E+03  0.20045527762E+04  0.18998957202E+04 0.  0.
        4    1    3    3  502    0  0.33707942994E+03  0.10290754960E+03 -0.12503628777E+04  0.12990848489E+04  0.12699999809E+01 0.  1.
       -4    1    3    3    0  502 -0.33707942994E+03 -0.10290754960E+03  0.61112263727E+03  0.70546792736E+03  0.12699999809E+01 0. -1.
</event>
<event>
 5   0  0.2562925E-04  0.1904569E+04  0.7818609E-02  0.8652586E-01
        2   -1    0    0  501    0  0.00000000000E+00  0.00000000000E+00  0.26854065881E+04  0.26854065881E+04  0.25500000920E-02 0. -1.
       -2   -1    0    0    0  501  0.00000000000E+00  0.00000000000E+00 -0.33769391089E+03  0.33769391090E+03  0.25500000920E-02 0.  1.
    10030    2    1    2    0    0  0.00000000000E+00  0.00000000000E+00  0.23477126772E+04  0.30231004990E+04  0.19045686683E+04 0.  0.
        4    1    3    3  502    0  0.49885035448E+03  0.29373853504E+03 -0.26316466676E+02  0.57950683555E+03  0.12699999809E+01 0.  1.
       -4    1    3    3    0  502 -0.49885035448E+03 -0.29373853504E+03  0.23740291439E+04  0.24435936635E+04  0.12699999809E+01 0. -1.
</event>
<event>
 5   0  0.1255141E-04  0.1879335E+04  0.7818609E-02  0.8665212E-01
       -1   -1    0    0    0  501  0.00000000000E+00  0.00000000000E+00  0.73938409977E+03  0.73938409979E+03  0.50400001928E-02 0.  1.
        1   -1    0    0  501    0  0.00000000000E+00  0.00000000000E+00 -0.11942029614E+04  0.11942029614E+04  0.50400001928E-02 0. -1.
    10030    2    1    2    0    0  0.00000000000E+00  0.00000000000E+00 -0.45481886166E+03  0.19335870612E+04  0.18793346499E+04 0.  0.
        2    1    3    3  502    0  0.26145066726E+03 -0.86677560452E+03 -0.48630473318E+03  0.10276909523E+04  0.25500000920E-02 0. -1.
       -2    1    3    3    0  502 -0.26145066726E+03  0.86677560452E+03  0.31485871522E+02  0.90589610889E+03  0.25500000920E-02 0.  1.
</event>
<event>
 5   0  0.1255141E-04  0.1903148E+04  0.7818609E-02  0.8653291E-01
       -1   -1    0    0    0  501  0.00000000000E+00  0.00000000000E+00  0.10189092867E+04  0.10189092867E+04  0.50400001928E-02 0.  1.
        1   -1    0    0  501    0  0.00000000000E+00  0.00000000000E+00 -0.88868853230E+03  0.88868853231E+03  0.50400001928E-02 0. -1.
    10030    2    1    2    0    0  0.00000000000E+00  0.00000000000E+00  0.13022075443E+03  0.19075978191E+04  0.19031479171E+04 0.  0.
        2    1    3    3  502    0  0.19367385359E+03 -0.86885067824E+03  0.40217322887E+03  0.97680825584E+03  0.25500000920E-02 0.  1.
       -2    1    3    3    0  502 -0.19367385359E+03  0.86885067824E+03 -0.27195247444E+03  0.93078956322E+03  0.25500000920E-02 0. -1.
</event>
<event>
 5   0  0.2608744E-04  0.1903461E+04  0.7818609E-02  0.8653135E-01
        2   -1    0    0  501    0  0.00000000000E+00  0.00000000000E+00  0.10850644662E+04  0.10850644662E+04  0.25500000920E-02 0.  1.
       -2   -1    0    0    0  501  0.00000000000E+00  0.00000000000E+00 -0.83478107864E+03  0.83478107865E+03  0.25500000920E-02 0. -1.
    10030    2    1    2    0    0  0.00000000000E+00  0.00000000000E+00  0.25028338755E+03  0.19198455448E+04  0.19034613582E+04 0.  0.
        2    1    3    3  502    0 -0.70892468430E+02 -0.94775536108E+03  0.17582679811E+03  0.96653040794E+03  0.25500000920E-02 0. -1.
       -2    1    3    3    0  502  0.70892468430E+02  0.94775536108E+03  0.74456589439E+02  0.95331513690E+03  0.25500000920E-02 0.  1.
</event>
<event>
 5   0  0.2651828E-04  0.1904412E+04  0.7818609E-02  0.8652663E-01
        2   -1    0    0  501    0  0.00000000000E+00  0.00000000000E+00  0.99743070369E+03  0.99743070369E+03  0.25500000920E-02 0. -1.
       -2   -1    0    0    0  501  0.00000000000E+00  0.00000000000E+00 -0.90903191924E+03  0.90903191924E+03  0.25500000920E-02 0.  1.
    10030    2    1    2    0    0  0.00000000000E+00  0.00000000000E+00  0.88398784449E+02  0.19064626229E+04  0.19044120845E+04 0.  0.
        3    1    3    3  502    0  0.17318504017E+03 -0.75997897445E+03 -0.50332207747E+03  0.92784385734E+03  0.10100000352E+00 0.  1.
       -3    1    3    3    0  502 -0.17318504017E+03  0.75997897445E+03  0.59172086192E+03  0.97861876559E+03  0.10100000352E+00 0. -1.
</event>
<event>
 5   0  0.2608744E-04  0.1899723E+04  0.7818609E-02  0.8654994E-01
        2   -1    0    0  501    0  0.00000000000E+00  0.00000000000E+00  0.10756663538E+04  0.10756663538E+04  0.25500000920E-02 0.  1.
       -2   -1    0    0    0  501  0.00000000000E+00  0.00000000000E+00 -0.83876998829E+03  0.83876998829E+03  0.25500000920E-02 0. -1.
    10030    2    1    2    0    0  0.00000000000E+00  0.00000000000E+00  0.23689636548E+03  0.19144363421E+04  0.18997227745E+04 0.  0.
        2    1    3    3  502    0 -0.67896746093E+03  0.60511774089E+03 -0.15766728733E+03  0.92305106405E+03  0.25500000920E-02 0. -1.
       -2    1    3    3    0  502  0.67896746093E+03 -0.60511774089E+03  0.39456365281E+03  0.99138527802E+03  0.25500000920E-02 0.  1.
</event>
<event>
 5   0  0.2595012E-04  0.1866566E+04  0.7818609E-02  0.8671680E-01
       -2   -1    0    0    0  501  0.00000000000E+00  0.00000000000E+00  0.79754911571E+03  0.79754911571E+03  0.25500000920E-02 0. -1.
        2   -1    0    0  501    0  0.00000000000E+00  0.00000000000E+00 -0.10921171359E+04  0.10921171359E+04  0.25500000920E-02 0.  1.
    10030    2    1    2    0    0  0.00000000000E+00  0.00000000000E+00 -0.29456802018E+03  0.18896662516E+04  0.18665658906E+04 0.  0.
        1    1    3    3  502    0  0.28444318139E+03  0.18908255841E+03  0.73200211566E+03  0.80776681951E+03  0.50400001928E-02 0. -1.
       -1    1    3    3    0  502 -0.28444318139E+03 -0.18908255841E+03 -0.10265701358E+04  0.10818994321E+04  0.50400001928E-02 0.  1.
</event>
<event>
 5   0  0.1324058E-04  0.1936769E+04  0.7818609E-02  0.8636768E-01
       -1   -1    0    0    0  501  0.00000000000E+00  0.00000000000E+00  0.34330017345E+03  0.34330017349E+03  0.50400001928E-02 0. -1.
        1   -1    0    0  501    0  0.00000000000E+00  0.00000000000E+00 -0.27316283849E+04  0.27316283849E+04  0.50400001928E-02 0.  1.
    10030    2    1    2    0    0  0.00000000000E+00  0.00000000000E+00 -0.23883282114E+04  0.30749285584E+04  0.19367689572E+04 0.  0.
        5    1    3    3  502    0 -0.72982182368E+03  0.54696695671E+01 -0.22046396120E+04  0.23223108578E+04  0.46999998093E+01 0.  1.
       -5    1    3    3    0  502  0.72982182368E+03 -0.54696695671E+01 -0.18368859943E+03  0.75261770054E+03  0.46999998093E+01 0. -1.
</event>
<event>
 5   0  0.2541124E-04  0.1932516E+04  0.7818609E-02  0.8638838E-01
        2   -1    0    0  501    0  0.00000000000E+00  0.00000000000E+00  0.19084011441E+04  0.19084011441E+04  0.25500000920E-02 0. -1.
       -2   -1    0    0    0  501  0.00000000000E+00  0.00000000000E+00 -0.48923409290E+03  0.48923409291E+03  0.25500000920E-02 0.  1.
    10030    2    1    2    0    0  0.00000000000E+00  0.00000000000E+00  0.14191670512E+04  0.23976352370E+04  0.19325163934E+04 0.  0.
        5    1    3    3  502    0  0.36617504451E+03 -0.76851138515E+03  0.14247055764E+03  0.86314185515E+03  0.46999998093E+01 0.  1.
       -5    1    3    3    0  502 -0.36617504451E+03  0.76851138515E+03  0.12766964936E+04  0.15344933819E+04  0.46999998093E+01 0. -1.
</event>
<event>
 5   0  0.2562925E-04  0.1600340E+04  0.7818609E-02  0.8820339E-01
       -2   -1    0    0    0  501  0.00000000000E+00  0.00000000000E+00  0.50752231350E+03  0.50752231351E+03  0.25500000920E-02 0. -1.
        2   -1    0    0  501    0  0.00000000000E+00  0.00000000000E+00 -0.12615641681E+04  0.12615641681E+04  0.25500000920E-02 0.  1.
    10030    2    1    2    0    0  0.00000000000E+00  0.00000000000E+00 -0.75404185462E+03  0.17690864816E+04  0.16003399204E+04 0.  0.
        4    1    3    3  502    0 -0.58050610268E+03  0.48444791215E+03 -0.87501656852E+02  0.76114076733E+03  0.12699999809E+01 0.  1.
       -4    1    3    3    0  502  0.58050610268E+03 -0.48444791215E+03 -0.66654019777E+03  0.10079457143E+04  0.12699999809E+01 0. -1.
</event>
<event>
 5   0  0.2608744E-04  0.1895872E+04  0.7818609E-02  0.8656914E-01
        2   -1    0    0  501    0  0.00000000000E+00  0.00000000000E+00  0.53383622825E+03  0.53383622826E+03  0.25500000920E-02 0.  1.
       -2   -1    0    0    0  501  0.00000000000E+00  0.00000000000E+00 -0.16832555826E+04  0.16832555826E+04  0.25500000920E-02 0. -1.
    10030    2    1    2    0    0  0.00000000000E+00  0.00000000000E+00 -0.11494193543E+04  0.22170918108E+04  0.18958721596E+04 0.  0.
        2    1    3    3  502    0 -0.16424189996E+03  0.62957134651E+02 -0.16640043126E+04  0.16732750386E+04  0.25500000920E-02 0. -1.
       -2    1    3    3    0  502  0.16424189996E+03 -0.62957134651E+02  0.51458495825E+03  0.54381677224E+03  0.25500000920E-02 0.  1.
</event>
<event>
 5   0  0.1324058E-04  0.1915663E+04  0.7818609E-02  0.8647099E-01
        1   -1    0    0  501    0  0.00000000000E+00  0.00000000000E+00  0.10675756100E+04  0.10675756100E+04  0.50400001928E-02 0. -1.
       -1   -1    0    0    0  501  0.00000000000E+00  0.00000000000E+00 -0.85936850712E+03  0.85936850714E+03  0.50400001928E-02 0.  1.
    10030    2    1    2    0    0  0.00000000000E+00  0.00000000000E+00  0.20820710288E+03  0.19269441171E+04  0.19156626616E+04 0.  0.
        5    1    3    3  502    0 -0.11628301944E+03 -0.86370432397E+03  0.50382501746E+03  0.10066621271E+04  0.46999998093E+01 0. -1.
       -5    1    3    3    0  502  0.11628301944E+03  0.86370432397E+03 -0.29561791458E+03  0.92028199008E+03  0.46999998093E+01 0.  1.
</event>
<event>
 5   0  0.1324058E-04  0.1891178E+04  0.7818609E-02  0.8659260E-01
        1   -1    0    0  501    0  0.00000000000E+00  0.00000000000E+00  0.17519595149E+04  0.17519595149E+04  0.50400001928E-02 0.  1.
       -1   -1    0    0    0  501  0.00000000000E+00  0.00000000000E+00 -0.51036461892E+03  0.51036461895E+03  0.50400001928E-02 0. -1.
    10030    2    1    2    0    0  0.00000000000E+00  0.00000000000E+00  0.12415948959E+04  0.22623241338E+04  0.18911775699E+04 0.  0.
        5    1    3    3  502    0  0.26620193675E+03  0.43796312953E+03  0.15713778796E+04  0.16528538062E+04  0.46999998093E+01 0.  1.
       -5    1    3    3    0  502 -0.26620193675E+03 -0.43796312953E+03 -0.32978298369E+03  0.60947032765E+03  0.46999998093E+01 0. -1.
</event>
<event>
 5   0  0.2595012E-04  0.1899649E+04  0.7818609E-02  0.8655031E-01
       -2   -1    0    0    0  501  0.00000000000E+00  0.00000000000E+00  0.10120344855E+04  0.10120344855E+04  0.25500000920E-02 0. -1.
        2   -1    0    0  501    0  0.00000000000E+00  0.00000000000E+00 -0.89143893969E+03  0.89143893970E+03  0.25500000920E-02 0.  1.
    10030    2    1    2    0    0  0.00000000000E+00  0.00000000000E+00  0.12059554579E+03  0.19034734252E+04  0.18996493873E+04 0.  0.
        1    1    3    3  502    0 -0.28602158704E+02  0.68708243311E+03 -0.59620552628E+03  0.91014360568E+03  0.50400001928E-02 0.  1.
       -1    1    3    3    0  502  0.28602158704E+02 -0.68708243311E+03  0.71680107207E+03  0.99332981950E+03  0.50400001928E-02 0. -1.
</event>
<event>
 5   0  0.2541124E-04  0.1878933E+04  0.7818609E-02  0.8665414E-01
       -2   -1    0    0    0  501  0.00000000000E+00  0.00000000000E+00  0.35616019804E+03  0.35616019805E+03  0.25500000920E-02 0.  1.
        2   -1    0    0  501    0  0.00000000000E+00  0.00000000000E+00 -0.24780911447E+04  0.24780911447E+04  0.25500000920E-02 0. -1.
    10030    2    1    2    0    0  0.00000000000E+00  0.00000000000E+00 -0.21219309466E+04  0.28342513427E+04  0.18789331365E+04 0.  0.
        5    1    3    3  502    0  0.59672069414E+03  0.25113069706E+03 -0.34083396552E+02  0.64832552144E+03  0.46999998093E+01 0.  1.
       -5    1    3    3    0  502 -0.59672069414E+03 -0.25113069706E+03 -0.20878475501E+04  0.21859258213E+04  0.46999998093E+01 0. -1.
</event>
<event>
 5   0  0.2541124E-04  0.1869453E+04  0.7818609E-02  0.8670213E-01
        2   -1    0    0  501    0  0.00000000000E+00  0.00000000000E+00  0.11257812602E+04  0.11257812602E+04  0.25500000920E-02 0.  1.
       -2   -1    0    0    0  501  0.00000000000E+00  0.00000000000E+00 -0.77609532627E+03  0.77609532627E+03  0.25500000920E-02 0. -1.
    10030    2    1    2    0    0  0.00000000000E+00  0.00000000000E+00  0.34968593392E+03  0.19018765865E+04  0.18694529408E+04 0.  0.
        5    1    3    3  502    0  0.27761598512E+03  0.81827518822E+03 -0.18777495053E+03  0.88426604644E+03  0.46999998093E+01 0. -1.
       -5    1    3    3    0  502 -0.27761598512E+03 -0.81827518822E+03  0.53746088445E+03  0.10176105400E+04  0.46999998093E+01 0.  1.
</event>
<event>
 5   0  0.1277709E-04  0.1882798E+04  0.7818609E-02  0.8663466E-01
        1   -1    0    0  501    0  0.00000000000E+00  0.00000000000E+00  0.18585795993E+04  0.18585795993E+04  0.50400001928E-02 0. -1.
       -1   -1    0    0    0  501  0.00000000000E+00  0.00000000000E+00 -0.47683313252E+03  0.47683313255E+03  0.50400001928E-02 0.  1.
    10030    2    1    2    0    0  0.00000000000E+00  0.00000000000E+00  0.13817464667E+04  0.23354127318E+04  0.18827982711E+04 0.  0.
        4    1    3    3  502    0  0.77834286654E+03  0.26763033648E+03  0.12409692458E+03  0.83237327834E+03  0.12699999809E+01 0.  1.
       -4    1    3    3    0  502 -0.77834286654E+03 -0.26763033648E+03  0.12576495422E+04  0.15030394535E+04  0.12699999809E+01 0. -1.
</event>
<event>
 5   0  0.1277709E-04  0.1888250E+04  0.7818609E-02  0.8660727E-01
        1   -1    0    0  501    0  0.00000000000E+00  0.00000000000E+00  0.11593358119E+04  0.11593358119E+04  0.50400001928E-02 0.  1.
       -1   -1    0    0    0  501  0.00000000000E+00  0.00000000000E+00 -0.76886446200E+03  0.76886446202E+03  0.50400001928E-02 0. -1.
    10030    2    1    2    0    0  0.00000000000E+00  0.00000000000E+00  0.39047134987E+03  0.19282002739E+04  0.18882500950E+04 0.  0.
        4    1    3    3  502    0 -0.70284250079E+03  0.18920684320E+03  0.80927620287E+03  0.10884467814E+04  0.12699999809E+01 0. -1.
       -4    1    3    3    0  502  0.70284250079E+03 -0.18920684320E+03 -0.41880485300E+03  0.83975349254E+03  0.12699999809E+01 0.  1.
</event>
<event>
 5   0  0.1255141E-04  0.1897755E+04  0.7818609E-02  0.8655975E-01
        1   -1    0    0  501    0  0.00000000000E+00  0.00000000000E+00  0.30185388784E+04  0.30185388784E+04  0.50400001928E-02 0. -1.
       -1   -1    0    0    0  501  0.00000000000E+00  0.00000000000E+00 -0.29827963915E+03  0.29827963919E+03  0.50400001928E-02 0.  1.
    10030    2    1    2    0    0  0.00000000000E+00  0.00000000000E+00  0.27202592392E+04  0.33168185176E+04  0.18977551870E+04 0.  0.
        2    1    3    3  502    0 -0.15346188992E+03 -0.38939072649E+03 -0.12823152359E+03  0.43774309039E+03  0.25500000920E-02 0.  1.
       -2    1    3    3    0  502  0.15346188992E+03  0.38939072649E+03  0.28484907628E+04  0.28790754272E+04  0.25500000920E-02 0. -1.
</event>
<event>
 5   0  0.2595012E-04  0.1908986E+04  0.7818609E-02  0.8650396E-01
        2   -1    0    0  501    0  0.00000000000E+00  0.00000000000E+00  0.10113158245E+04  0.10113158245E+04  0.25500000920E-02 0. -1.
       -2   -1    0    0    0  501  0.00000000000E+00  0.00000000000E+00 -0.90086300849E+03  0.90086300849E+03  0.25500000920E-02 0.  1.
    10030    2    1    2    0    0  0.00000000000E+00  0.00000000000E+00  0.11045281602E+03  0.19121788330E+04  0.19089861353E+04 0.  0.
        1    1    3    3  502    0  0.33437879441E+03  0.86799415797E+03  0.26967318161E+03  0.96847646400E+03  0.50400001928E-02 0. -1.
       -1    1    3    3    0  502 -0.33437879441E+03 -0.86799415797E+03 -0.15922036559E+03  0.94370236900E+03  0.50400001928E-02 0.  1.
</event>
<event>
 5   0  0.2541124E-04  0.1890537E+04  0.7818609E-02  0.8659581E-01
       -2   -1    0    0    0  501  0.00000000000E+00  0.00000000000E+00  0.92940626758E+03  0.92940626758E+03  0.25500000920E-02 0.  1.
        2   -1    0    0  501    0  0.00000000000E+00  0.00000000000E+00 -0.96140122440E+03  0.96140122440E+03  0.25500000920E-02 0. -1.
    10030    2    1    2    0    0  0.00000000000E+00  0.00000000000E+00 -0.31994956822E+02  0.18908074920E+04  0.18905367742E+04 0.  0.
        5    1    3    3  502    0 -0.68795177887E+03  0.22320800265E+03  0.59270348396E+03  0.93510372281E+03  0.46999998093E+01 0. -1.
       -5    1    3    3    0  502  0.68795177887E+03 -0.22320800265E+03 -0.62469844079E+03  0.95570376918E+03  0.46999998093E+01 0.  1.
</event>
<event>
 5   0  0.2651828E-04  0.1962881E+04  0.7818609E-02  0.8624174E-01
        2   -1    0    0  501    0  0.00000000000E+00  0.00000000000E+00  0.11393256762E+04  0.11393256762E+04  0.25500000920E-02 0.  1.
       -2   -1    0    0    0  501  0.00000000000E+00  0.00000000000E+00 -0.84543477255E+03  0.84543477255E+03  0.25500000920E-02 0. -1.
    10030    2    1    2    0    0  0.00000000000E+00  0.00000000000E+00  0.29389090365E+03  0.19847604488E+04  0.19628810906E+04 0.  0.
        3    1    3    3  502    0  0.46582419442E+03 -0.60965955129E+03  0.76577093007E+03  0.10840120277E+04  0.10100000352E+00 0.  1.
       -3    1    3    3    0  502 -0.46582419442E+03  0.60965955129E+03 -0.47188002642E+03  0.90074842110E+03  0.10100000352E+00 0. -1.
</event>
<event>
 5   0  0.1277709E-04  0.1881833E+04  0.7818609E-02  0.8663953E-01
        1   -1    0    0  501    0  0.00000000000E+00  0.00000000000E+00  0.11943994385E+04  0.11943994385E+04  0.50400001928E-02 0.  1.
       -1   -1    0    0    0  501  0.00000000000E+00  0.00000000000E+00 -0.74122893639E+03  0.74122893640E+03  0.50400001928E-02 0. -1.
    10030    2    1    2    0    0  0.00000000000E+00  0.00000000000E+00  0.45317050214E+03  0.19356283749E+04  0.18818325382E+04 0.  0.
        4    1    3    3  502    0  0.39806837033E+03 -0.18110002949E+03  0.10835075475E+04  0.11684373610E+04  0.12699999809E+01 0.  1.
       -4    1    3    3    0  502 -0.39806837033E+03  0.18110002949E+03 -0.63033704540E+03  0.76719101392E+03  0.12699999809E+01 0. -1.
</event>
<event>
 5   0  0.2595012E-04  0.2001880E+04  0.7818609E-02  0.8605742E-01
       -2   -1    0    0    0  501  0.00000000000E+00  0.00000000000E+00  0.11148026960E+04  0.11148026960E+04  0.25500000920E-02 0.  1.
        2   -1    0    0  501    0  0.00000000000E+00  0.00000000000E+00 -0.89870725682E+03  0.89870725683E+03  0.25500000920E-02 0. -1.
    10030    2    1    2    0    0  0.00000000000E+00  0.00000000000E+00  0.21609543918E+03  0.20135099528E+04  0.20018803889E+04 0.  0.
        1    1    3    3  502    0 -0.35524282737E+03  0.13772671713E+03 -0.82291841059E+03  0.90684112474E+03  0.50400001928E-02 0. -1.
       -1    1    3    3    0  502  0.35524282737E+03 -0.13772671713E+03  0.10390138498E+04  0.11066688281E+04  0.50400001928E-02 0.  1.
</event>
<event>
 5   0  0.1277709E-04  0.1890045E+04  0.7818609E-02  0.8659828E-01
       -1   -1    0    0    0  501  0.00000000000E+00  0.00000000000E+00  0.15301444995E+04  0.15301444995E+04  0.50400001928E-02 0. -1.
        1   -1    0    0  501    0  0.00000000000E+00  0.00000000000E+00 -0.58364886565E+03  0.58364886567E+03  0.50400001928E-02 0.  1.
    10030    2    1    2    0    0  0.00000000000E+00  0.00000000000E+00  0.94649563381E+03  0.21137933651E+04  0.18900445513E+04 0.  0.
        4    1    3    3  502    0 -0.57599713418E+03  0.61936444039E+03  0.94467036224E+03  0.12679860862E+04  0.12699999809E+01 0.  1.
       -4    1    3    3    0  502  0.57599713418E+03 -0.61936444039E+03  0.18252715704E+01  0.84580727895E+03  0.12699999809E+01 0. -1.
</event>
<event>
 5   0  0.2651828E-04  0.1914225E+04  0.7818609E-02  0.8647808E-01
        2   -1    0    0  501    0  0.00000000000E+00  0.00000000000E+00  0.78329411425E+03  0.78329411426E+03  0.25500000920E-02 0.  1.
       -2   -1    0    0    0  501  0.00000000000E+00  0.00000000000E+00 -0.11695023928E+04  0.11695023929E+04  0.25500000920E-02 0. -1.
    10030    2    1    2    0    0  0.00000000000E+00  0.00000000000E+00 -0.38620827859E+03  0.19527965071E+04  0.19142250034E+04 0.  0.
        3    1    3    3  502    0 -0.51557892567E+03  0.80081077596E+03 -0.28958682870E+03  0.99547981851E+03  0.10100000352E+00 0. -1.
       -3    1    3    3    0  502  0.51557892567E+03 -0.80081077596E+03 -0.96621449894E+02  0.95731668860E+03  0.10100000352E+00 0.  1.
</event>
<event>
 5   0  0.2562925E-04  0.1904555E+04  0.7818609E-02  0.8652593E-01
       -2   -1    0    0    0  501  0.00000000000E+00  0.00000000000E+00  0.71058895074E+03  0.71058895074E+03  0.25500000920E-02 0.  1.
        2   -1    0    0  501    0  0.00000000000E+00  0.00000000000E+00 -0.12761696594E+04  0.12761696594E+04  0.25500000920E-02 0. -1.
    10030    2    1    2    0    0  0.00000000000E+00  0.00000000000E+00 -0.56558070867E+03  0.19867586101E+04  0.19045546033E+04 0.  0.
        4    1    3    3  502    0 -0.82801131098E+03  0.33749716612E+03  0.58952027880E+02  0.89609375779E+03  0.12699999809E+01 0. -1.
       -4    1    3    3    0  502  0.82801131098E+03 -0.33749716612E+03 -0.62453273655E+03  0.10906648524E+04  0.12699999809E+01 0.  1.
</event>
<event>
 5   0  0.1317527E-04  0.1780201E+04  0.7818609E-02  0.8716900E-01
        1   -1    0    0  501    0  0.00000000000E+00  0.00000000000E+00  0.13952768966E+04  0.13952768967E+04  0.50400001928E-02 0.  1.
       -1   -1    0    0    0  501  0.00000000000E+00  0.00000000000E+00 -0.56782908626E+03  0.56782908628E+03  0.50400001928E-02 0. -1.
    10030    2    1    2    0    0  0.00000000000E+00  0.00000000000E+00  0.82744781039E+03  0.19631059829E+04  0.17802008935E+04 0.  0.
        1    1    3    3  502    0 -0.14447816151E+03  0.60349114661E+03  0.11174122819E+04  0.12781571542E+04  0.50400001928E-02 0.  1.
       -1    1    3    3    0  502  0.14447816151E+03 -0.60349114661E+03 -0.28996447149E+03  0.68494882870E+03  0.50400001928E-02 0. -1.
</event>
<event>
 5   0  0.2595012E-04  0.1525758E+04  0.7818609E-02  0.8867503E-01
        2   -1    0    0  501    0  0.00000000000E+00  0.00000000000E+00  0.36433138290E+03  0.36433138291E+03  0.25500000920E-02 0. -1.
       -2   -1    0    0    0  501  0.00000000000E+00  0.00000000000E+00 -0.15974040427E+04  0.15974040427E+04  0.25500000920E-02 0.  1.
    10030    2    1    2    0    0  0.00000000000E+00  0.00000000000E+00 -0.12330726598E+04  0.19617354256E+04  0.15257580725E+04 0.  0.
        1    1    3    3  502    0  0.34829382790E+02  0.22246743297E+03 -0.15537018893E+04  0.15699345227E+04  0.50400001928E-02 0.  1.
       -1    1    3    3    0  502 -0.34829382790E+02 -0.22246743297E+03  0.32062922955E+03  0.39180090289E+03  0.50400001928E-02 0. -1.
</event>
<event>
 5   0  0.1324058E-04  0.1890963E+04  0.7818609E-02  0.8659368E-01
        1   -1    0    0  501    0  0.00000000000E+00  0.00000000000E+00  0.12718724094E+04  0.12718724094E+04  0.50400001928E-02 0.  1.
       -1   -1    0    0    0  501  0.00000000000E+00  0.00000000000E+00 -0.70284958536E+03  0.70284958538E+03  0.50400001928E-02 0. -1.
    10030    2    1    2    0    0  0.00000000000E+00  0.00000000000E+00  0.56902282407E+03  0.19747219948E+04  0.18909627132E+04 0.  0.
        5    1    3    3  502    0 -0.34313202125E+03 -0.64532219495E+03  0.91085536400E+03  0.11678441263E+04  0.46999998093E+01 0.  1.
       -5    1    3    3    0  502  0.34313202125E+03  0.64532219495E+03 -0.34183253993E+03  0.80687786849E+03  0.46999998093E+01 0. -1.
</event>
<event>
 5   0  0.1324058E-04  0.1899046E+04  0.7818609E-02  0.8655331E-01
       -1   -1    0    0    0  501  0.00000000000E+00  0.00000000000E+00  0.36602506122E+03  0.36602506125E+03  0.50400001928E-02 0.  1.
        1   -1    0    0  501    0  0.00000000000E+00  0.00000000000E+00 -0.24632035026E+04  0.24632035026E+04  0.50400001928E-02 0. -1.
    10030    2    1    2    0    0  0.00000000000E+00  0.00000000000E+00 -0.20971784414E+04  0.28292285638E+04  0.18990463005E+04 0.  0.
        5    1    3    3  502    0 -0.87889446173E+03 -0.35606544691E+03 -0.11205651271E+04  0.14679667474E+04  0.46999998093E+01 0. -1.
       -5    1    3    3    0  502  0.87889446173E+03  0.35606544691E+03 -0.97661331426E+03  0.13612618164E+04  0.46999998093E+01 0.  1.
</event>
<event>
 5   0  0.1317527E-04  0.1885246E+04  0.7818609E-02  0.8662235E-01
       -1   -1    0    0    0  501  0.00000000000E+00  0.00000000000E+00  0.14755321739E+04  0.14755321739E+04  0.50400001928E-02 0. -1.
        1   -1    0    0  501    0  0.00000000000E+00  0.00000000000E+00 -0.60218144117E+03  0.60218144119E+03  0.50400001928E-02 0.  1.
    10030    2    1    2    0    0  0.00000000000E+00  0.00000000000E+00  0.87335073274E+03  0.20777136151E+04  0.18852459691E+04 0.  0.
        1    1    3    3  502    0  0.18336518714E+03  0.87727070239E+02  0.14510901620E+04  0.14652581646E+04  0.50400001928E-02 0. -1.
       -1    1    3    3    0  502 -0.18336518714E+03 -0.87727070239E+02 -0.57773942926E+03  0.61245545050E+03  0.50400001928E-02 0.  1.
</event>
<event>
 5   0  0.1239615E-04  0.2066898E+04  0.7818609E-02  0.8575967E-01
        1   -1    0    0  501    0  0.00000000000E+00  0.00000000000E+00  0.74138428067E+03  0.74138428069E+03  0.50400001928E-02 0. -1.
       -1   -1    0    0    0  501  0.00000000000E+00  0.00000000000E+00 -0.14405705304E+04  0.14405705304E+04  0.50400001928E-02 0.  1.
    10030    2    1    2    0    0  0.00000000000E+00  0.00000000000E+00 -0.69918624974E+03  0.21819548111E+04  0.20668975267E+04 0.  0.
        3    1    3    3  502    0 -0.92303969205E+03  0.31041121977E+03  0.15580479486E+02  0.97396106698E+03  0.10100000352E+00 0. -1.
       -3    1    3    3    0  502  0.92303969205E+03 -0.31041121977E+03 -0.71476672922E+03  0.12079937441E+04  0.10100000352E+00 0.  1.
</event>
<event>
 5   0  0.1239615E-04  0.1906689E+04  0.7818609E-02  0.8651534E-01
        1   -1    0    0  501    0  0.00000000000E+00  0.00000000000E+00  0.15637529714E+04  0.15637529714E+04  0.50400001928E-02 0.  1.
       -1   -1    0    0    0  501  0.00000000000E+00  0.00000000000E+00 -0.58120790227E+03  0.58120790229E+03  0.50400001928E-02 0. -1.
    10030    2    1    2    0    0  0.00000000000E+00  0.00000000000E+00  0.98254506916E+03  0.21449608737E+04  0.19066888411E+04 0.  0.
        3    1    3    3  502    0 -0.52077292896E+03  0.79849977291E+03  0.49993135237E+03  0.10764467930E+04  0.10100000352E+00 0. -1.
       -3    1    3    3    0  502  0.52077292896E+03 -0.79849977291E+03  0.48261371679E+03  0.10685140807E+04  0.10100000352E+00 0.  1.
</event>
<event>
 5   0  0.1277709E-04  0.1939278E+04  0.7818609E-02  0.8635548E-01
       -1   -1    0    0    0  501  0.00000000000E+00  0.00000000000E+00  0.12452696441E+04  0.12452696441E+04  0.50400001928E-02 0.  1.
        1   -1    0    0  501    0  0.00000000000E+00  0.00000000000E+00 -0.75501715571E+03  0.75501715573E+03  0.50400001928E-02 0. -1.
    10030    2    1    2    0    0  0.00000000000E+00  0.00000000000E+00  0.49025248838E+03  0.20002867998E+04  0.19392781593E+04 0.  0.
        4    1    3    3  502    0  0.23536327925E+03 -0.88227875490E+03  0.58155704121E+03  0.10825995934E+04  0.12699999809E+01 0.  1.
       -4    1    3    3    0  502 -0.23536327925E+03  0.88227875490E+03 -0.91304552825E+02  0.91768720642E+03  0.12699999809E+01 0. -1.
</event>
<event>
 5   0  0.1239615E-04  0.1939717E+04  0.7818609E-02  0.8635335E-01
       -1   -1    0    0    0  501  0.00000000000E+00  0.00000000000E+00  0.67055151238E+03  0.67055151240E+03  0.50400001928E-02 0.  1.
        1   -1    0    0  501    0  0.00000000000E+00  0.00000000000E+00 -0.14027637565E+04  0.14027637565E+04  0.50400001928E-02 0. -1.
    10030    2    1    2    0    0  0.00000000000E+00  0.00000000000E+00 -0.73221224412E+03  0.20733152689E+04  0.19397168437E+04 0.  0.
        3    1    3    3  502    0 -0.49136233602E+03  0.71511591472E+03  0.97097625447E+02  0.87307254900E+03  0.10100000352E+00 0.  1.
       -3    1    3    3    0  502  0.49136233602E+03 -0.71511591472E+03 -0.82930986957E+03  0.12002427199E+04  0.10100000352E+00 0. -1.
</event>
<event>
 5   0  0.1317527E-04  0.1867093E+04  0.7818609E-02  0.8671412E-01
        1   -1    0    0  501    0  0.00000000000E+00  0.00000000000E+00  0.10596977311E+04  0.10596977311E+04  0.50400001928E-02 0. -1.
       -1   -1    0    0    0  501  0.00000000000E+00  0.00000000000E+00 -0.82241320580E+03  0.82241320581E+03  0.50400001928E-02 0.  1.
    10030    2    1    2    0    0  0.00000000000E+00  0.00000000000E+00  0.23728452533E+03  0.18821109370E+04  0.18670933648E+04 0.  0.
        1    1    3    3  502    0  0.33903167677E+03  0.61654336527E+03  0.73712525670E+03  0.10190298539E+04  0.50400001928E-02 0.  1.
       -1    1    3    3    0  502 -0.33903167677E+03 -0.61654336527E+03 -0.49984073137E+03  0.86308108302E+03  0.50400001928E-02 0. -1.
</event>
<event>
 5   0  0.1324058E-04  0.1980569E+04  0.7818609E-02  0.8615760E-01
        1   -1    0    0  501    0  0.00000000000E+00  0.00000000000E+00  0.13470310271E+04  0.13470310271E+04  0.50400001928E-02 0. -1.
       -1   -1    0    0    0  501  0.00000000000E+00  0.00000000000E+00 -0.72801827109E+03  0.72801827111E+03  0.50400001928E-02 0.  1.
    10030    2    1    2    0    0  0.00000000000E+00  0.00000000000E+00  0.61901275604E+03  0.20750492982E+04  0.19805688067E+04 0.  0.
        5    1    3    3  502    0  0.28269687518E+03 -0.16948356869E+03  0.12878613452E+04  0.13293799825E+04  0.46999998093E+01 0. -1.
       -5    1    3    3    0  502 -0.28269687518E+03  0.16948356869E+03 -0.66884858916E+03  0.74566931579E+03  0.46999998093E+01 0.  1.
</event>
<event>
 5   0  0.2651828E-04  0.1907524E+04  0.7818609E-02  0.8651120E-01
       -2   -1    0    0    0  501  0.00000000000E+00  0.00000000000E+00  0.93123184965E+03  0.93123184966E+03  0.25500000920E-02 0.  1.
        2   -1    0    0  501    0  0.00000000000E+00  0.00000000000E+00 -0.97683749283E+03  0.97683749284E+03  0.25500000920E-02 0. -1.
    10030    2    1    2    0    0  0.00000000000E+00  0.00000000000E+00 -0.45605643179E+02  0.19080693425E+04  0.19075242439E+04 0.  0.
        3    1    3    3  502    0 -0.57732933506E+03 -0.58224143884E+03  0.46452005950E+03  0.94238694287E+03  0.10100000352E+00 0.  1.
       -3    1    3    3    0  502  0.57732933506E+03  0.58224143884E+03 -0.51012570268E+03  0.96568239963E+03  0.10100000352E+00 0. -1.
</event>
<event>
 5   0  0.2608744E-04  0.1834343E+04  0.7818609E-02  0.8688246E-01
       -2   -1    0    0    0  501  0.00000000000E+00  0.00000000000E+00  0.58361297280E+03  0.58361297281E+03  0.25500000920E-02 0.  1.
        2   -1    0    0  501    0  0.00000000000E+00  0.00000000000E+00 -0.14413725953E+04  0.14413725953E+04  0.25500000920E-02 0. -1.
    10030    2    1    2    0    0  0.00000000000E+00  0.00000000000E+00 -0.85775962246E+03  0.20249855681E+04  0.18343432015E+04 0.  0.
        2    1    3    3  502    0 -0.83307245869E+03 -0.88259827175E+02 -0.84105259245E+03  0.11870842353E+04  0.25500000920E-02 0. -1.
       -2    1    3    3    0  502  0.83307245869E+03  0.88259827175E+02 -0.16707030005E+02  0.83790133272E+03  0.25500000920E-02 0.  1.
</event>
<event>
 5   0  0.1324058E-04  0.1907724E+04  0.7818609E-02  0.8651021E-01
       -1   -1    0    0    0  501  0.00000000000E+00  0.00000000000E+00  0.66158213263E+03  0.66158213265E+03  0.50400001928E-02 0. -1.
        1   -1    0    0  501    0  0.00000000000E+00  0.00000000000E+00 -0.13752676851E+04  0.13752676851E+04  0.50400001928E-02 0.  1.
    10030    2    1    2    0    0  0.00000000000E+00  0.00000000000E+00 -0.71368555248E+03  0.20368498178E+04  0.19077238040E+04 0.  0.
        5    1    3    3  502    0 -0.38427519860E+03 -0.46609090311E+03  0.43131069432E+03  0.74226623475E+03  0.46999998093E+01 0. -1.
       -5    1    3    3    0  502  0.38427519860E+03  0.46609090311E+03 -0.11449962468E+04  0.12945835830E+04  0.46999998093E+01 0.  1.
</event>
<event>
 5   0  0.2651828E-04  0.1877170E+04  0.7818609E-02  0.8666304E-01
        2   -1    0    0  501    0  0.00000000000E+00  0.00000000000E+00  0.13218102216E+04  0.13218102216E+04  0.25500000920E-02 0. -1.
       -2   -1    0    0    0  501  0.00000000000E+00  0.00000000000E+00 -0.66646638626E+03  0.66646638627E+03  0.25500000920E-02 0.  1.
    10030    2    1    2    0    0  0.00000000000E+00  0.00000000000E+00  0.65534383535E+03  0.19882766079E+04  0.18771702978E+04 0.  0.
        3    1    3    3  502    0  0.80039844766E+03 -0.38088840431E+03  0.81595007657E+00  0.88640528401E+03  0.10100000352E+00 0.  1.
       -3    1    3    3    0  502 -0.80039844766E+03  0.38088840431E+03  0.65452788527E+03  0.11018713239E+04  0.10100000352E+00 0. -1.
</event>
<event>
 5   0  0.2595012E-04  0.1751604E+04  0.7818609E-02  0.8732468E-01
        2   -1    0    0  501    0  0.00000000000E+00  0.00000000000E+00  0.18072711165E+04  0.18072711165E+04  0.25500000920E-02 0.  1.
       -2   -1    0    0    0  501  0.00000000000E+00  0.00000000000E+00 -0.42441291896E+03  0.42441291896E+03  0.25500000920E-02 0. -1.
    10030    2    1    2    0    0  0.00000000000E+00  0.00000000000E+00  0.13828581975E+04  0.22316840354E+04  0.17516040761E+04 0.  0.
        1    1    3    3  502    0  0.81144590824E+03 -0.31797533141E+03  0.58126398596E+03  0.10475784433E+04  0.50400001928E-02 0.  1.
       -1    1    3    3    0  502 -0.81144590824E+03  0.31797533141E+03  0.80159421154E+03  0.11841055922E+04  0.50400001928E-02 0. -1.
</event>
<event>
 5   0  0.2562925E-04  0.1945190E+04  0.7818609E-02  0.8632684E-01
       -2   -1    0    0    0  501  0.00000000000E+00  0.00000000000E+00  0.70862990821E+03  0.70862990821E+03  0.25500000920E-02 0.  1.
        2   -1    0    0  501    0  0.00000000000E+00  0.00000000000E+00 -0.13348868781E+04  0.13348868781E+04  0.25500000920E-02 0. -1.
    10030    2    1    2    0    0  0.00000000000E+00  0.00000000000E+00 -0.62625696986E+03  0.20435167863E+04  0.19451897243E+04 0.  0.
        4    1    3    3  502    0 -0.85903272485E+02  0.38471905083E+03 -0.12472023008E+04  0.13080150275E+04  0.12699999809E+01 0. -1.
       -4    1    3    3    0  502  0.85903272485E+02 -0.38471905083E+03  0.62094533090E+03  0.73550175877E+03  0.12699999809E+01 0.  1.
</event>
<event>
 5   0  0.2608744E-04  0.1885132E+04  0.7818609E-02  0.8662293E-01
       -2   -1    0    0    0  501  0.00000000000E+00  0.00000000000E+00  0.13371417891E+04  0.13371417891E+04  0.25500000920E-02 0. -1.
        2   -1    0    0  501    0  0.00000000000E+00  0.00000000000E+00 -0.66442531527E+03  0.66442531528E+03  0.25500000920E-02 0.  1.
    10030    2    1    2    0    0  0.00000000000E+00  0.00000000000E+00  0.67271647378E+03  0.20015671043E+04  0.18851322020E+04 0.  0.
        2    1    3    3  502    0 -0.72433753634E+03 -0.50096221366E+03 -0.20247541623E+02  0.88093017261E+03  0.25500000920E-02 0.  1.
       -2    1    3    3    0  502  0.72433753634E+03  0.50096221366E+03  0.69296401540E+03  0.11206369317E+04  0.25500000920E-02 0. -1.
</event>
<event>
 5   0  0.1324058E-04  0.1942166E+04  0.7818609E-02  0.8634148E-01
       -1   -1    0    0    0  501  0.00000000000E+00  0.00000000000E+00  0.15356471233E+04  0.15356471233E+04  0.50400001928E-02 0.  1.
        1   -1    0    0  501    0  0.00000000000E+00  0.00000000000E+00 -0.61407498720E+03  0.61407498722E+03  0.50400001928E-02 0. -1.
    10030    2    1    2    0    0  0.00000000000E+00  0.00000000000E+00  0.92157213611E+03  0.21497221105E+04  0.19421663035E+04 0.  0.
        5    1    3    3  502    0  0.35326019397E+03  0.40403789835E+03 -0.43498493736E+03  0.69084974753E+03  0.46999998093E+01 0. -1.
       -5    1    3    3    0  502 -0.35326019397E+03 -0.40403789835E+03  0.13565570735E+04  0.14588723630E+04  0.46999998093E+01 0.  1.
</event>
<event>
 5   0  0.2608744E-04  0.1898412E+04  0.7818609E-02  0.8655647E-01
        2   -1    0    0  501    0  0.00000000000E+00  0.00000000000E+00  0.73722281541E+03  0.73722281541E+03  0.25500000920E-02 0. -1.
       -2   -1    0    0    0  501  0.00000000000E+00  0.00000000000E+00 -0.12221431066E+04  0.12221431066E+04  0.25500000920E-02 0.  1.
    10030    2    1    2    0    0  0.00000000000E+00  0.00000000000E+00 -0.48492029121E+03  0.19593659220E+04  0.18984117382E+04 0.  0.
        2    1    3    3  502    0 -0.51034074664E+02  0.41917719913E+03 -0.11198598646E+04  0.11968291931E+04  0.25500000920E-02 0.  1.
       -2    1    3    3    0  502  0.51034074664E+02 -0.41917719913E+03  0.63493957343E+03  0.76253672893E+03  0.25500000920E-02 0. -1.
</event>
<event>
 5   0  0.1324058E-04  0.1860345E+04  0.7818609E-02  0.8674851E-01
       -1   -1    0    0    0  501  0.00000000000E+00  0.00000000000E+00  0.80613721659E+03  0.80613721661E+03  0.50400001928E-02 0.  1.
        1   -1    0    0  501    0  0.00000000000E+00  0.00000000000E+00 -0.10732923748E+04  0.10732923748E+04  0.50400001928E-02 0. -1.
    10030    2    1    2    0    0  0.00000000000E+00  0.00000000000E+00 -0.26715515819E+03  0.18794295914E+04  0.18603450515E+04 0.  0.
        5    1    3    3  502    0  0.55819891244E+02 -0.18336876216E+03 -0.10531120921E+04  0.10704238094E+04  0.46999998093E+01 0. -1.
       -5    1    3    3    0  502 -0.55819891244E+02  0.18336876216E+03  0.78595693396E+03  0.80900578195E+03  0.46999998093E+01 0.  1.
</event>
<event>
 5   0  0.1277709E-04  0.1913736E+04  0.7818609E-02  0.8648049E-01
        1   -1    0    0  501    0  0.00000000000E+00  0.00000000000E+00  0.10294887958E+04  0.10294887958E+04  0.50400001928E-02 0.  1.
       -1   -1    0    0    0  501  0.00000000000E+00  0.00000000000E+00 -0.88936954419E+03  0.88936954421E+03  0.50400001928E-02 0. -1.
    10030    2    1    2    0    0  0.00000000000E+00  0.00000000000E+00  0.14011925156E+03  0.19188583400E+04  0.19137355941E+04 0.  0.
        4    1    3    3  502    0 -0.30353415970E+03 -0.30165109941E+02  0.97943358833E+03  0.10258336546E+04  0.12699999809E+01 0.  1.
       -4    1    3    3    0  502  0.30353415970E+03  0.30165109941E+02 -0.83931433677E+03  0.89302468542E+03  0.12699999809E+01 0. -1.
</event>
<event>
 5   0  0.1255141E-04  0.1892550E+04  0.7818609E-02  0.8658574E-01
       -1   -1    0    0    0  501  0.00000000000E+00  0.00000000000E+00  0.11772514790E+04  0.11772514790E+04  0.50400001928E-02 0.  1.
        1   -1    0    0  501    0  0.00000000000E+00  0.00000000000E+00 -0.76061579468E+03  0.76061579469E+03  0.50400001928E-02 0. -1.
    10030    2    1    2    0    0  0.00000000000E+00  0.00000000000E+00  0.41663568431E+03  0.19378672737E+04  0.18925496762E+04 0.  0.
        2    1    3    3  502    0 -0.10334681071E+03  0.12089282358E+03 -0.74683179495E+03  0.76357931352E+03  0.25500000920E-02 0. -1.
       -2    1    3    3    0  502  0.10334681071E+03 -0.12089282358E+03  0.11634674793E+04  0.11742879602E+04  0.25500000920E-02 0.  1.
</event>
<event>
 5   0  0.1277709E-04  0.1944807E+04  0.7818609E-02  0.8632869E-01
        1   -1    0    0  501    0  0.00000000000E+00  0.00000000000E+00  0.14242406632E+04  0.14242406632E+04  0.50400001928E-02 0.  1.
       -1   -1    0    0    0  501  0.00000000000E+00  0.00000000000E+00 -0.66391057788E+03  0.66391057790E+03  0.50400001928E-02 0. -1.
    10030    2    1    2    0    0  0.00000000000E+00  0.00000000000E+00  0.76033008536E+03  0.20881512411E+04  0.19448068714E+04 0.  0.
        4    1    3    3  502    0  0.27380559488E+03 -0.68747852064E+03 -0.29718158056E+03  0.79744261540E+03  0.12699999809E+01 0. -1.
       -4    1    3    3    0  502 -0.27380559488E+03  0.68747852064E+03  0.10575116659E+04  0.12907086257E+04  0.12699999809E+01 0.  1.
</event>
<event>
 5   0  0.2595012E-04  0.1801172E+04  0.7818609E-02  0.8705676E-01
        2   -1    0    0  501    0  0.00000000000E+00  0.00000000000E+00  0.12902520822E+04  0.12902520822E+04  0.25500000920E-02 0. -1.
       -2   -1    0    0    0  501  0.00000000000E+00  0.00000000000E+00 -0.62860237516E+03  0.62860237517E+03  0.25500000920E-02 0.  1.
    10030    2    1    2    0    0  0.00000000000E+00  0.00000000000E+00  0.66164970704E+03  0.19188544574E+04  0.18011724220E+04 0.  0.
        1    1    3    3  502    0 -0.47202378502E+02 -0.58813172661E+03 -0.39401776474E+03  0.70949065628E+03  0.50400001928E-02 0.  1.
       -1    1    3    3    0  502  0.47202378502E+02  0.58813172661E+03  0.10556674718E+04  0.12093638011E+04  0.50400001928E-02 0. -1.
</event>
<event>
 5   0  0.2562925E-04  0.1914753E+04  0.7818609E-02  0.8647547E-01
       -2   -1    0    0    0  501  0.00000000000E+00  0.00000000000E+00  0.66350548382E+03  0.66350548383E+03  0.25500000920E-02 0. -1.
        2   -1    0    0  501    0  0.00000000000E+00  0.00000000000E+00 -0.13814053965E+04  0.13814053965E+04  0.25500000920E-02 0.  1.
    10030    2    1    2    0    0  0.00000000000E+00  0.00000000000E+00 -0.71789991271E+03  0.20449108804E+04  0.19147533063E+04 0.  0.
        4    1    3    3  502    0  0.74000465580E+03  0.42449372132E+03  0.10505665901E+03  0.85955821475E+03  0.12699999809E+01 0. -1.
       -4    1    3    3    0  502 -0.74000465580E+03 -0.42449372132E+03 -0.82295657172E+03  0.11853526656E+04  0.12699999809E+01 0.  1.
</event>
<event>
 5   0  0.1239615E-04  0.1911756E+04  0.7818609E-02  0.8649027E-01
        1   -1    0    0  501    0  0.00000000000E+00  0.00000000000E+00  0.14000783965E+04  0.14000783965E+04  0.50400001928E-02 0. -1.
       -1   -1    0    0    0  501  0.00000000000E+00  0.00000000000E+00 -0.65260847260E+03  0.65260847262E+03  0.50400001928E-02 0.  1.
    10030    2    1    2    0    0  0.00000000000E+00  0.00000000000E+00  0.74746992391E+03  0.20526868691E+04  0.19117562856E+04 0.  0.
        3    1    3    3  502    0 -0.15061867288E+03 -0.86085778902E+03 -0.42032241679E+02  0.87494504803E+03  0.10100000352E+00 0.  1.
       -3    1    3    3    0  502  0.15061867288E+03  0.86085778902E+03  0.78950216559E+03  0.11777418211E+04  0.10100000352E+00 0. -1.
</event>
<event>
 5   0  0.2651828E-04  0.1918291E+04  0.7818609E-02  0.8645805E-01
       -2   -1    0    0    0  501  0.00000000000E+00  0.00000000000E+00  0.10664237528E+04  0.10664237528E+04  0.25500000920E-02 0. -1.
        2   -1    0    0  501    0  0.00000000000E+00  0.00000000000E+00 -0.86265947599E+03  0.86265947599E+03  0.25500000920E-02 0.  1.
    10030    2    1    2    0    0  0.00000000000E+00  0.00000000000E+00  0.20376427680E+03  0.19290832288E+04  0.19182914854E+04 0.  0.
        3    1    3    3  502    0  0.85210635198E+03 -0.21345499383E+03  0.48916200155E+03  0.10054490258E+04  0.10100000352E+00 0. -1.
       -3    1    3    3    0  502 -0.85210635198E+03  0.21345499383E+03 -0.28539772474E+03  0.92363420301E+03  0.10100000352E+00 0.  1.
</event>
<event>
 5   0  0.1239615E-04  0.1894518E+04  0.7818609E-02  0.8657590E-01
        1   -1    0    0  501    0  0.00000000000E+00  0.00000000000E+00  0.49116867550E+03  0.49116867553E+03  0.50400001928E-02 0. -1.
       -1   -1    0    0    0  501  0.00000000000E+00  0.00000000000E+00 -0.18268668103E+04  0.18268668103E+04  0.50400001928E-02 0.  1.
    10030    2    1    2    0    0  0.00000000000E+00  0.00000000000E+00 -0.13356981348E+04  0.23180354858E+04  0.18945181462E+04 0.  0.
        3    1    3    3  502    0  0.77401627783E+03  0.52912764921E+03 -0.83301671315E+03  0.12541906243E+04  0.10100000352E+00 0.  1.
       -3    1    3    3    0  502 -0.77401627783E+03 -0.52912764921E+03 -0.50268142162E+03  0.10638448615E+04  0.10100000352E+00 0. -1.
</event>
<event>
 5   0  0.1255141E-04  0.1892251E+04  0.7818609E-02  0.8658723E-01
       -1   -1    0    0    0  501  0.00000000000E+00  0.00000000000E+00  0.61908480247E+03  0.61908480249E+03  0.50400001928E-02 0.  1.
        1   -1    0    0  501    0  0.00000000000E+00  0.00000000000E+00 -0.14459300959E+04  0.14459300959E+04  0.50400001928E-02 0. -1.
    10030    2    1    2    0    0  0.00000000000E+00  0.00000000000E+00 -0.82684529344E+03  0.20650148984E+04  0.18922508796E+04 0.  0.
        2    1    3    3  502    0  0.65957935644E+03 -0.67825717251E+03 -0.40393219836E+03  0.10287074124E+04  0.25500000920E-02 0.  1.
       -2    1    3    3    0  502 -0.65957935644E+03  0.67825717251E+03 -0.42291309508E+03  0.10363074860E+04  0.25500000920E-02 0. -1.
</event>
<event>
 5   0  0.2608744E-04  0.1614591E+04  0.7818609E-02  0.8811634E-01
       -2   -1    0    0    0  501  0.00000000000E+00  0.00000000000E+00  0.48305040009E+03  0.48305040009E+03  0.25500000920E-02 0. -1.
        2   -1    0    0  501    0  0.00000000000E+00  0.00000000000E+00 -0.13491881747E+04  0.13491881747E+04  0.25500000920E-02 0.  1.
    10030    2    1    2    0    0  0.00000000000E+00  0.00000000000E+00 -0.86613777458E+03  0.18322385748E+04  0.16145908306E+04 0.  0.
        2    1    3    3  502    0 -0.45146877302E+03 -0.66066456810E+03 -0.31177700490E+03  0.85878205928E+03  0.25500000920E-02 0.  1.
       -2    1    3    3    0  502  0.45146877302E+03  0.66066456810E+03 -0.55436076968E+03  0.97345651548E+03  0.25500000920E-02 0. -1.
</event>
<event>
 5   0  0.9266125E-05  0.1922584E+04  0.7818609E-02  0.8643696E-01
        3   -1    0    0  501    0  0.00000000000E+00  0.00000000000E+00  0.93559906138E+03  0.93559906684E+03  0.10100000352E+00 0. -1.
       -3   -1    0    0    0  501  0.00000000000E+00  0.00000000000E+00 -0.98769097654E+03  0.98769098170E+03  0.10100000352E+00 0.  1.
    10030    2    1    2    0    0  0.00000000000E+00  0.00000000000E+00 -0.52091915155E+02  0.19232900485E+04  0.19225844697E+04 0.  0.
        4    1    3    3  502    0  0.30598736914E+02  0.33946052463E+03  0.87312283919E+03  0.93729122246E+03  0.12699999809E+01 0. -1.
       -4    1    3    3    0  502 -0.30598736914E+02 -0.33946052463E+03 -0.92521475434E+03  0.98599882608E+03  0.12699999809E+01 0.  1.
</event>
<event>
 5   0  0.1317527E-04  0.1470104E+04  0.7818609E-02  0.8904580E-01
       -1   -1    0    0    0  501  0.00000000000E+00  0.00000000000E+00  0.77306177649E+03  0.77306177651E+03  0.50400001928E-02 0. -1.
        1   -1    0    0  501    0  0.00000000000E+00  0.00000000000E+00 -0.69891110313E+03  0.69891110315E+03  0.50400001928E-02 0.  1.
    10030    2    1    2    0    0  0.00000000000E+00  0.00000000000E+00  0.74150673365E+02  0.14719728797E+04  0.14701040222E+04 0.  0.
        1    1    3    3  502    0 -0.72193850416E+03  0.77686048385E+02  0.15154973277E+03  0.74175309061E+03  0.50400001928E-02 0.  1.
       -1    1    3    3    0  502  0.72193850416E+03 -0.77686048385E+02 -0.77399059406E+02  0.73021978905E+03  0.50400001928E-02 0. -1.
</event>
<event>
 5   0  0.2562925E-04  0.1959191E+04  0.7818609E-02  0.8625941E-01
        2   -1    0    0  501    0  0.00000000000E+00  0.00000000000E+00  0.25488284109E+04  0.25488284109E+04  0.25500000920E-02 0. -1.
       -2   -1    0    0    0  501  0.00000000000E+00  0.00000000000E+00 -0.37648972877E+03  0.37648972878E+03  0.25500000920E-02 0.  1.
    10030    2    1    2    0    0  0.00000000000E+00  0.00000000000E+00  0.21723386821E+04  0.29253181397E+04  0.19591913813E+04 0.  0.
        4    1    3    3  502    0  0.64591532699E+03  0.73271958775E+03  0.97521998337E+03  0.13802681742E+04  0.12699999809E+01 0. -1.
       -4    1    3    3    0  502 -0.64591532699E+03 -0.73271958775E+03  0.11971186988E+04  0.15450499654E+04  0.12699999809E+01 0.  1.
</event>
<event>
 5   0  0.1317527E-04  0.1580677E+04  0.7818609E-02  0.8832507E-01
       -1   -1    0    0    0  501  0.00000000000E+00  0.00000000000E+00  0.41790612848E+03  0.41790612851E+03  0.50400001928E-02 0.  1.
        1   -1    0    0  501    0  0.00000000000E+00  0.00000000000E+00 -0.14946785316E+04  0.14946785316E+04  0.50400001928E-02 0. -1.
    10030    2    1    2    0    0  0.00000000000E+00  0.00000000000E+00 -0.10767724031E+04  0.19125846601E+04  0.15806774731E+04 0.  0.
        1    1    3    3  502    0 -0.21449250425E+02 -0.60577891370E+02  0.41473964190E+03  0.41968883933E+03  0.50400001928E-02 0.  1.
       -1    1    3    3    0  502  0.21449250425E+02  0.60577891370E+02 -0.14915120450E+04  0.14928958208E+04  0.50400001928E-02 0. -1.
</event>
<event>
 5   0  0.2562925E-04  0.1929801E+04  0.7818609E-02  0.8640163E-01
        2   -1    0    0  501    0  0.00000000000E+00  0.00000000000E+00  0.16266018796E+04  0.16266018796E+04  0.25500000920E-02 0. -1.
       -2   -1    0    0    0  501  0.00000000000E+00  0.00000000000E+00 -0.57237940053E+03  0.57237940054E+03  0.25500000920E-02 0.  1.
    10030    2    1    2    0    0  0.00000000000E+00  0.00000000000E+00  0.10542224791E+04  0.21989812802E+04  0.19298014497E+04 0.  0.
        4    1    3    3  502    0 -0.54147512363E+03 -0.55348218789E+03  0.11831759985E+04  0.14140172906E+04  0.12699999809E+01 0. -1.
       -4    1    3    3    0  502  0.54147512363E+03  0.55348218789E+03 -0.12895351941E+03  0.78496398955E+03  0.12699999809E+01 0.  1.
</event>
<event>
 5   0  0.2541124E-04  0.1917773E+04  0.7818609E-02  0.8646060E-01
       -2   -1    0    0    0  501  0.00000000000E+00  0.00000000000E+00  0.10381072650E+04  0.10381072650E+04  0.25500000920E-02 0. -1.
        2   -1    0    0  501    0  0.00000000000E+00  0.00000000000E+00 -0.88571166749E+03  0.88571166750E+03  0.25500000920E-02 0.  1.
    10030    2    1    2    0    0  0.00000000000E+00  0.00000000000E+00  0.15239559754E+03  0.19238189325E+04  0.19177734139E+04 0.  0.
        5    1    3    3  502    0 -0.29238800756E+03 -0.53121158999E+03  0.82134834591E+03  0.10209366756E+04  0.46999998093E+01 0. -1.
       -5    1    3    3    0  502  0.29238800756E+03  0.53121158999E+03 -0.66895274837E+03  0.90288225691E+03  0.46999998093E+01 0.  1.
</event>
<event>
 5   0  0.1277709E-04  0.1895814E+04  0.7818609E-02  0.8656943E-01
        1   -1    0    0  501    0  0.00000000000E+00  0.00000000000E+00  0.96517319927E+03  0.96517319928E+03  0.50400001928E-02 0.  1.
       -1   -1    0    0    0  501  0.00000000000E+00  0.00000000000E+00 -0.93095004988E+03  0.93095004989E+03  0.50400001928E-02 0. -1.
    10030    2    1    2    0    0  0.00000000000E+00  0.00000000000E+00  0.34223149386E+02  0.18961232492E+04  0.18958143770E+04 0.  0.
        4    1    3    3  502    0  0.65166521985E+03  0.71081114585E+02 -0.66769431957E+03  0.93570155547E+03  0.12699999809E+01 0. -1.
       -4    1    3    3    0  502 -0.65166521985E+03 -0.71081114585E+02  0.70191746896E+03  0.96042169371E+03  0.12699999809E+01 0.  1.
</event>
<event>
 5   0  0.2541124E-04  0.1891779E+04  0.7818609E-02  0.8658959E-01
        2   -1    0    0  501    0  0.00000000000E+00  0.00000000000E+00  0.22495834047E+04  0.22495834047E+04  0.25500000920E-02 0. -1.
       -2   -1    0    0    0  501  0.00000000000E+00  0.00000000000E+00 -0.39772124335E+03  0.39772124335E+03  0.25500000920E-02 0.  1.
    10030    2    1    2    0    0  0.00000000000E+00  0.00000000000E+00  0.18518621613E+04  0.26473046480E+04  0.18917791718E+04 0.  0.
        5    1    3    3  502    0 -0.38527983759E+02 -0.59912937979E+03 -0.96899143779E+02  0.60815454724E+03  0.46999998093E+01 0.  1.
       -5    1    3    3    0  502  0.38527983759E+02  0.59912937979E+03  0.19487613051E+04  0.20391501008E+04  0.46999998093E+01 0. -1.
</event>
<event>
 5   0  0.1255141E-04  0.1878802E+04  0.7818609E-02  0.8665480E-01
       -1   -1    0    0    0  501  0.00000000000E+00  0.00000000000E+00  0.62636355988E+03  0.62636355990E+03  0.50400001928E-02 0.  1.
        1   -1    0    0  501    0  0.00000000000E+00  0.00000000000E+00 -0.14088857353E+04  0.14088857353E+04  0.50400001928E-02 0. -1.
    10030    2    1    2    0    0  0.00000000000E+00  0.00000000000E+00 -0.78252217541E+03  0.20352492952E+04  0.18788024746E+04 0.  0.
        2    1    3    3  502    0 -0.40739465566E+03 -0.84582925131E+03 -0.42681406340E+03  0.10312942221E+04  0.25500000920E-02 0.  1.
       -2    1    3    3    0  502  0.40739465566E+03  0.84582925131E+03 -0.35570811200E+03  0.10039550731E+04  0.25500000920E-02 0. -1.
</event>
<event>
 5   0  0.2608744E-04  0.1913317E+04  0.7818609E-02  0.8648256E-01
        2   -1    0    0  501    0  0.00000000000E+00  0.00000000000E+00  0.11114441512E+04  0.11114441512E+04  0.25500000920E-02 0.  1.
       -2   -1    0    0    0  501  0.00000000000E+00  0.00000000000E+00 -0.82342889163E+03  0.82342889163E+03  0.25500000920E-02 0. -1.
    10030    2    1    2    0    0  0.00000000000E+00  0.00000000000E+00  0.28801525960E+03  0.19348730429E+04  0.19133167281E+04 0.  0.
        2    1    3    3  502    0 -0.83134312381E+03 -0.42573936313E+03  0.35324408835E+03  0.99858238557E+03  0.25500000920E-02 0.  1.
       -2    1    3    3    0  502  0.83134312381E+03  0.42573936313E+03 -0.65228828755E+02  0.93629065729E+03  0.25500000920E-02 0. -1.
</event>
<event>
 5   0  0.1324058E-04  0.1857287E+04  0.7818609E-02  0.8676414E-01
        1   -1    0    0  501    0  0.00000000000E+00  0.00000000000E+00  0.23903700542E+04  0.23903700542E+04  0.50400001928E-02 0. -1.
       -1   -1    0    0    0  501  0.00000000000E+00  0.00000000000E+00 -0.36077215611E+03  0.36077215614E+03  0.50400001928E-02 0.  1.
    10030    2    1    2    0    0  0.00000000000E+00  0.00000000000E+00  0.20295978981E+04  0.27511422103E+04  0.18572872243E+04 0.  0.
        5    1    3    3  502    0  0.23930317011E+03  0.29690509747E+03  0.22690221690E+04  0.23008481779E+04  0.46999998093E+01 0. -1.
       -5    1    3    3    0  502 -0.23930317011E+03 -0.29690509747E+03 -0.23942427096E+03  0.45029403244E+03  0.46999998093E+01 0.  1.
</event>
</LesHouchesEvents>
