<LesHouchesEvents version="3.0">
<header>
<!--
#*********************************************************************
#                                                                    *
#                        MadGraph5_aMC@NLO                           *
#                                                                    *
#                           Going Beyond                             *
#                                                                    *
#                   http://madgraph.hep.uiuc.edu                     *
#                   http://madgraph.phys.ucl.ac.be                   *
#                   http://amcatnlo.cern.ch                          *
#                                                                    *
#                     The MadGraph5_aMC@NLO team                     *
#                                                                    *
#....................................................................*
#                                                                    *
# This file contains all the information necessary to reproduce      *
# the events generated:                                              *
#                                                                    *
# 1. software version                                                *
# 2. proc_card          : code generation info including model       *
# 3. param_card         : model primary parameters in the LH format  *
# 4. run_card           : running parameters (collider and cuts)     *
# 5. pythia_card        : present only if pythia has been run        *
# 6. pgs_card           : present only if pgs has been run           *
# 7. delphes_cards      : present only if delphes has been run       *
#                                                                    *
#                                                                    *
#*********************************************************************
-->
<MGVersion>
#5.2.2.3
</MGVersion>
<MG5ProcCard>
#************************************************************
#*                     MadGraph5_aMC@NLO                    *
#*                                                          *
#*                *                       *                 *
#*                  *        * *        *                   *
#*                    * * * * 5 * * * *                     *
#*                  *        * *        *                   *
#*                *                       *                 *
#*                                                          *
#*                                                          *
#*         VERSION 2.2.3                 2015-02-10         *
#*                                                          *
#*    The MadGraph5_aMC@NLO Development Team - Find us at   *
#*    https://server06.fynu.ucl.ac.be/projects/madgraph     *
#*                                                          *
#************************************************************
#*                                                          *
#*               Command File for MadGraph5_aMC@NLO         *
#*                                                          *
#*     run as ./bin/mg5_aMC  filename                       *
#*                                                          *
#************************************************************
set group_subprocesses Auto
set ignore_six_quark_processes False
set loop_optimized_output True
set gauge unitary
set complex_mass_scheme False
import model sm
define p = g u c d s u~ c~ d~ s~
define j = g u c d s u~ c~ d~ s~
define l+ = e+ mu+
define l- = e- mu-
define vl = ve vm vt
define vl~ = ve~ vm~ vt~
import model Zprime_UFO
generate p p > zph, zph > j j
add process p p > zph, zph > b b~
output Dijet_signal
</MG5ProcCard>
<MGProcCard>
#*********************************************************************
#                        MadGraph/MadEvent                           *
#                   http://madgraph.hep.uiuc.edu                     *
#                                                                    *
#                          proc_card.dat                             *
#*********************************************************************
#                                                                    *
#            This Files is generated by MADGRAPH 5                   *
#                                                                    *
# WARNING: This Files is generated for MADEVENT (compatibility issue)*
#          This files is NOT a valid MG4 proc_card.dat               *
#          Running this in MG4 will NEVER reproduce the result of MG5*
#                                                                    *
#*********************************************************************
#*********************************************************************
# Process(es) requested : mg2 input                                  *
#*********************************************************************
# Begin PROCESS # This is TAG. Do not modify this line
p p > zph , zph > j j           #Process
# Be carefull the coupling are here in MG5 convention
          
end_coup           # End the couplings input

done               # this tells MG there are no more procs
# End PROCESS  # This is TAG. Do not modify this line
#*********************************************************************
# Model information                                                  *
#*********************************************************************
# Begin MODEL  # This is TAG. Do not modify this line
Zprime_UFO
# End   MODEL  # This is TAG. Do not modify this line
#*********************************************************************
# Start multiparticle definitions                                    *
#*********************************************************************
# Begin MULTIPARTICLES # This is TAG. Do not modify this line

# End  MULTIPARTICLES # This is TAG. Do not modify this line
</MGProcCard>
<MGRunCard>
#*********************************************************************
#                       MadGraph5_aMC@NLO                            *
#                                                                    *
#                     run_card.dat MadEvent                          *
#                                                                    *
#  This file is used to set the parameters of the run.               *
#                                                                    *
#  Some notation/conventions:                                        *
#                                                                    *
#   Lines starting with a '# ' are info or comments                  *
#                                                                    *
#   mind the format:   value    = variable     ! comment             *
#*********************************************************************
#
#*******************                                                 
# Running parameters
#*******************                                                 
#                                                                    
#*********************************************************************
# Tag name for the run (one word)                                    *
#*********************************************************************
  tag_1     = run_tag ! name of the run 
#*********************************************************************
# Run to generate the grid pack                                      *
#*********************************************************************
  .false.     = gridpack  !True = setting up the grid pack
#*********************************************************************
# Number of events and rnd seed                                      *
# Warning: Do not generate more than 1M events in a single run       *
# If you want to run Pythia, avoid more than 50k events in a run.    *
#*********************************************************************
  2000 = nevents ! Number of unweighted events requested 
 2514 = iseed   ! rnd seed (0=assigned automatically=default))
#*********************************************************************
# Collider type and energy                                           *
# lpp: 0=No PDF, 1=proton, -1=antiproton, 2=photon from proton,      *
#                                         3=photon from electron     *
#*********************************************************************
        1     = lpp1    ! beam 1 type 
        1     = lpp2    ! beam 2 type
     4000     = ebeam1  ! beam 1 total energy in GeV
     4000     = ebeam2  ! beam 2 total energy in GeV
#*********************************************************************
# Beam polarization from -100 (left-handed) to 100 (right-handed)    *
#*********************************************************************
        0     = polbeam1 ! beam polarization for beam 1
        0     = polbeam2 ! beam polarization for beam 2
#*********************************************************************
# PDF CHOICE: this automatically fixes also alpha_s and its evol.    *
#*********************************************************************
 'nn23lo1'    = pdlabel     ! PDF set                                     
 230000    = lhaid     ! if pdlabel=lhapdf, this is the lhapdf number
#*********************************************************************
# Renormalization and factorization scales                           *
#*********************************************************************
 F        = fixed_ren_scale  ! if .true. use fixed ren scale
 F        = fixed_fac_scale  ! if .true. use fixed fac scale
 91.1880  = scale            ! fixed ren scale
 91.1880  = dsqrt_q2fact1    ! fixed fact scale for pdf1
 91.1880  = dsqrt_q2fact2    ! fixed fact scale for pdf2
 1        = scalefact        ! scale factor for event-by-event scales
#*********************************************************************
# Matching - Warning! ickkw > 1 is still beta
#*********************************************************************
 0        = ickkw            ! 0 no matching, 1 MLM, 2 CKKW matching
 1        = highestmult      ! for ickkw=2, highest mult group
 1        = ktscheme         ! for ickkw=1, 1 Durham kT, 2 Pythia pTE
 1        = alpsfact         ! scale factor for QCD emission vx
 F        = chcluster        ! cluster only according to channel diag
 T        = pdfwgt           ! for ickkw=1, perform pdf reweighting
 5        = asrwgtflavor     ! highest quark flavor for a_s reweight
 T        = clusinfo         ! include clustering tag in output
 3.0      = lhe_version       ! Change the way clustering information pass to shower.        
#*********************************************************************
#**********************************************************
#
#**********************************************************
# Automatic ptj and mjj cuts if xqcut > 0
# (turn off for VBF and single top processes)
#**********************************************************
   T  = auto_ptj_mjj  ! Automatic setting of ptj and mjj
#**********************************************************
#                                                                    
#**********************************
# BW cutoff (M+/-bwcutoff*Gamma)
#**********************************
  15  = bwcutoff      ! (M+/-bwcutoff*Gamma)
#**********************************************************
# Apply pt/E/eta/dr/mij cuts on decay products or not
# (note that etmiss/ptll/ptheavy/ht/sorted cuts always apply)
#**********************************************************
   T  = cut_decays    ! Cut decay products 
#*************************************************************
# Number of helicities to sum per event (0 = all helicities)
# 0 gives more stable result, but longer run time (needed for
# long decay chains e.g.).
# Use >=2 if most helicities contribute, e.g. pure QCD.
#*************************************************************
   0  = nhel          ! Number of helicities used per event
#*******************                                                 
# Standard Cuts
#*******************                                                 
#                                                                    
#*********************************************************************
# Minimum and maximum pt's (for max, -1 means no cut)                *
#*********************************************************************
 20  = ptj       ! minimum pt for the jets 
  0  = ptb       ! minimum pt for the b 
 10  = pta       ! minimum pt for the photons 
 10  = ptl       ! minimum pt for the charged leptons 
  0  = misset    ! minimum missing Et (sum of neutrino's momenta)
  0  = ptheavy   ! minimum pt for one heavy final state
 1.0 = ptonium   ! minimum pt for the quarkonium states
 -1  = ptjmax    ! maximum pt for the jets
 -1  = ptbmax    ! maximum pt for the b
 -1  = ptamax    ! maximum pt for the photons
 -1  = ptlmax    ! maximum pt for the charged leptons
 -1  = missetmax ! maximum missing Et (sum of neutrino's momenta)
#*********************************************************************
# Minimum and maximum E's (in the center of mass frame)              *
#*********************************************************************
  0  = ej     ! minimum E for the jets 
  0  = eb     ! minimum E for the b 
  0  = ea     ! minimum E for the photons 
  0  = el     ! minimum E for the charged leptons 
 -1   = ejmax ! maximum E for the jets
 -1   = ebmax ! maximum E for the b
 -1   = eamax ! maximum E for the photons
 -1   = elmax ! maximum E for the charged leptons
#*********************************************************************
# Maximum and minimum absolute rapidity (for max, -1 means no cut)   *
#*********************************************************************
   5  = etaj    ! max rap for the jets 
  -1  = etab    ! max rap for the b
 2.5  = etaa    ! max rap for the photons 
 2.5  = etal    ! max rap for the charged leptons 
 0.6  = etaonium ! max rap for the quarkonium states
   0  = etajmin ! min rap for the jets
   0  = etabmin ! min rap for the b
   0  = etaamin ! min rap for the photons
   0  = etalmin ! main rap for the charged leptons
#*********************************************************************
# Minimum and maximum DeltaR distance                                *
#*********************************************************************
 0.4 = drjj    ! min distance between jets 
 0   = drbb    ! min distance between b's 
 0.4 = drll    ! min distance between leptons 
 0.4 = draa    ! min distance between gammas 
 0   = drbj    ! min distance between b and jet 
 0.4 = draj    ! min distance between gamma and jet 
 0.4 = drjl    ! min distance between jet and lepton 
 0   = drab    ! min distance between gamma and b 
 0   = drbl    ! min distance between b and lepton 
 0.4 = dral    ! min distance between gamma and lepton 
 -1  = drjjmax ! max distance between jets
 -1  = drbbmax ! max distance between b's
 -1  = drllmax ! max distance between leptons
 -1  = draamax ! max distance between gammas
 -1  = drbjmax ! max distance between b and jet
 -1  = drajmax ! max distance between gamma and jet
 -1  = drjlmax ! max distance between jet and lepton
 -1  = drabmax ! max distance between gamma and b
 -1  = drblmax ! max distance between b and lepton
 -1  = dralmax ! maxdistance between gamma and lepton
#*********************************************************************
# Minimum and maximum invariant mass for pairs                       *
# WARNING: for four lepton final state mmll cut require to have      *
#          different lepton masses for each flavor!                  *           
#*********************************************************************
 0   = mmjj    ! min invariant mass of a jet pair 
 0   = mmbb    ! min invariant mass of a b pair 
 0   = mmaa    ! min invariant mass of gamma gamma pair
 0   = mmll    ! min invariant mass of l+l- (same flavour) lepton pair
 -1  = mmjjmax ! max invariant mass of a jet pair
 -1  = mmbbmax ! max invariant mass of a b pair
 -1  = mmaamax ! max invariant mass of gamma gamma pair
 -1  = mmllmax ! max invariant mass of l+l- (same flavour) lepton pair
#*********************************************************************
# Minimum and maximum invariant mass for all letpons                 *
#*********************************************************************
 0   = mmnl    ! min invariant mass for all letpons (l+- and vl) 
 -1  = mmnlmax ! max invariant mass for all letpons (l+- and vl) 
#*********************************************************************
# Minimum and maximum pt for 4-momenta sum of leptons                *
#*********************************************************************
 0   = ptllmin  ! Minimum pt for 4-momenta sum of leptons(l and vl)
 -1  = ptllmax  ! Maximum pt for 4-momenta sum of leptons(l and vl)
#*********************************************************************
# Inclusive cuts                                                     *
#*********************************************************************
 0  = xptj ! minimum pt for at least one jet  
 0  = xptb ! minimum pt for at least one b 
 0  = xpta ! minimum pt for at least one photon 
 0  = xptl ! minimum pt for at least one charged lepton 
#*********************************************************************
# Control the pt's of the jets sorted by pt                          *
#*********************************************************************
 0   = ptj1min ! minimum pt for the leading jet in pt
 0   = ptj2min ! minimum pt for the second jet in pt
 0   = ptj3min ! minimum pt for the third jet in pt
 0   = ptj4min ! minimum pt for the fourth jet in pt
 -1  = ptj1max ! maximum pt for the leading jet in pt 
 -1  = ptj2max ! maximum pt for the second jet in pt
 -1  = ptj3max ! maximum pt for the third jet in pt
 -1  = ptj4max ! maximum pt for the fourth jet in pt
 0   = cutuse  ! reject event if fails any (0) / all (1) jet pt cuts
#*********************************************************************
# Control the pt's of leptons sorted by pt                           *
#*********************************************************************
 0   = ptl1min ! minimum pt for the leading lepton in pt
 0   = ptl2min ! minimum pt for the second lepton in pt
 0   = ptl3min ! minimum pt for the third lepton in pt
 0   = ptl4min ! minimum pt for the fourth lepton in pt
 -1  = ptl1max ! maximum pt for the leading lepton in pt 
 -1  = ptl2max ! maximum pt for the second lepton in pt
 -1  = ptl3max ! maximum pt for the third lepton in pt
 -1  = ptl4max ! maximum pt for the fourth lepton in pt
#*********************************************************************
# Control the Ht(k)=Sum of k leading jets                            *
#*********************************************************************
 0   = htjmin ! minimum jet HT=Sum(jet pt)
 -1  = htjmax ! maximum jet HT=Sum(jet pt)
 0   = ihtmin  !inclusive Ht for all partons (including b)
 -1  = ihtmax  !inclusive Ht for all partons (including b)
 0   = ht2min ! minimum Ht for the two leading jets
 0   = ht3min ! minimum Ht for the three leading jets
 0   = ht4min ! minimum Ht for the four leading jets
 -1  = ht2max ! maximum Ht for the two leading jets
 -1  = ht3max ! maximum Ht for the three leading jets
 -1  = ht4max ! maximum Ht for the four leading jets
#***********************************************************************
# Photon-isolation cuts, according to hep-ph/9801442                   *
# When ptgmin=0, all the other parameters are ignored                  *
# When ptgmin>0, pta and draj are not going to be used                 *
#***********************************************************************
   0 = ptgmin ! Min photon transverse momentum
 0.4 = R0gamma ! Radius of isolation code
 1.0 = xn ! n parameter of eq.(3.4) in hep-ph/9801442
 1.0 = epsgamma ! epsilon_gamma parameter of eq.(3.4) in hep-ph/9801442
 .true. = isoEM ! isolate photons from EM energy (photons and leptons)
#*********************************************************************
# WBF cuts                                                           *
#*********************************************************************
 0   = xetamin ! minimum rapidity for two jets in the WBF case  
 0   = deltaeta ! minimum rapidity for two jets in the WBF case 
#*********************************************************************
# KT DURHAM CUT                                                      *
#*********************************************************************
 -1    =  ktdurham        
 0.4  =  dparameter 
#*********************************************************************
# maximal pdg code for quark to be considered as a light jet         *
# (otherwise b cuts are applied)                                     *
#*********************************************************************
 4 = maxjetflavor    ! Maximum jet pdg code
#*********************************************************************
# Jet measure cuts                                                   *
#*********************************************************************
 0   = xqcut   ! minimum kt jet measure between partons
#*********************************************************************
#
#*********************************************************************
# Store info for systematics studies                                 *
# WARNING: If use_syst is T, matched Pythia output is                *
#          meaningful ONLY if plotted taking matchscale              *
#          reweighting into account!                                 *
#*********************************************************************
   F  = use_syst      ! Enable systematics studies
#
#**************************************
# Parameter of the systematics study
#  will be used by SysCalc (if installed)
#**************************************                                  
#
0.5 1 2 = sys_scalefact  # factorization/renormalization scale factor
0.5 1 2 = sys_alpsfact  # \alpha_s emission scale factors
30 50 = sys_matchscale # variation of merging scale
# PDF sets and number of members (0 or none for all members).
CT10nlo.LHgrid = sys_pdf # matching scales
# MSTW2008nlo68cl.LHgrid 1  = sys_pdf
</MGRunCard>
<slha>
######################################################################
## PARAM_CARD AUTOMATICALY GENERATED BY MG5 FOLLOWING UFO MODEL   ####
######################################################################
##                                                                  ##
##  Width set on Auto will be computed following the information    ##
##        present in the decay.py files of the model.               ##
##        See  arXiv:1402.1178 for more details.                    ##
##                                                                  ##
######################################################################

###################################
## INFORMATION FOR CKMBLOCK
###################################
Block ckmblock 
    1 2.277360e-01 # cabi 

###################################
## INFORMATION FOR FRBLOCK
###################################
Block frblock 
    1 1.400000e+00 # gz 

###################################
## INFORMATION FOR MASS
###################################
Block mass 
    1 5.040000e-03 # MD 
    2 2.550000e-03 # MU 
    3 1.010000e-01 # MS 
    4 1.270000e+00 # MC 
    5 4.700000e+00 # MB 
    6 1.720000e+02 # MT 
   11 5.110000e-04 # Me 
   13 1.056600e-01 # MM 
   15 1.777000e+00 # MTA 
   23 9.118760e+01 # MZ 
   25 1.200000e+02 # MH 
  10030 1.300000e+03 # MZph 
  10031 3.000000e+02 # MZpl 
## Dependent parameters, given by model restrictions.
## Those values should be edited following the 
## analytical expression. MG5 ignores those values 
## but they are important for interfacing the output of MG5
## to external program such as Pythia.
  12 0.000000 # ve : 0.0 
  14 0.000000 # vm : 0.0 
  16 0.000000 # vt : 0.0 
  21 0.000000 # g : 0.0 
  22 0.000000 # a : 0.0 
  24 79.824360 # w+ : cmath.sqrt(MZ__exp__2/2. + cmath.sqrt(MZ__exp__4/4. - (aEW*cmath.pi*MZ__exp__2)/(Gf*sqrt__2))) 

###################################
## INFORMATION FOR SMINPUTS
###################################
Block sminputs 
    1 1.279000e+02 # aEWM1 
    2 1.166370e-05 # Gf 
    3 1.184000e-01 # aS 

###################################
## INFORMATION FOR YUKAWA
###################################
Block yukawa 
    1 5.040000e-03 # ymdo 
    2 2.550000e-03 # ymup 
    3 1.010000e-01 # yms 
    4 1.270000e+00 # ymc 
    5 4.700000e+00 # ymb 
    6 1.720000e+02 # ymt 
   11 5.110000e-04 # yme 
   13 1.056600e-01 # ymm 
   15 1.777000e+00 # ymtau 

###################################
## INFORMATION FOR DECAY
###################################
DECAY   6 1.508336e+00 # WT 
DECAY  23 2.495200e+00 # WZ 
DECAY  24 2.085000e+00 # WW 
DECAY  25 5.753088e-03 # WH 
## Dependent parameters, given by model restrictions.
## Those values should be edited following the 
## analytical expression. MG5 ignores those values 
## but they are important for interfacing the output of MG5
## to external program such as Pythia.
DECAY  1 0.000000 # d : 0.0 
DECAY  2 0.000000 # u : 0.0 
DECAY  3 0.000000 # s : 0.0 
DECAY  4 0.000000 # c : 0.0 
DECAY  5 0.000000 # b : 0.0 
DECAY  11 0.000000 # e- : 0.0 
DECAY  12 0.000000 # ve : 0.0 
DECAY  13 0.000000 # mu- : 0.0 
DECAY  14 0.000000 # vm : 0.0 
DECAY  15 0.000000 # ta- : 0.0 
DECAY  16 0.000000 # vt : 0.0 
DECAY  21 0.000000 # g : 0.0 
DECAY  22 0.000000 # a : 0.0 
DECAY  10030 0.308725 # zph : (gz__exp__2*MZph*(5 + cmath.sqrt(1 - (4*MT__exp__2)/MZph__exp__2)))/(144.*cmath.pi) 
DECAY  10031 0.132629 # zpl : (5*gz__exp__2*MZpl)/(144.*cmath.pi) 
#===========================================================
# QUANTUM NUMBERS OF NEW STATE(S) (NON SM PDG CODE)
#===========================================================

Block QNUMBERS 10030  # zph 
        1 0  # 3 times electric charge
        2 3  # number of spin states (2S+1)
        3 1  # colour rep (1: singlet, 3: triplet, 8: octet)
        4 0  # Particle/Antiparticle distinction (0=own anti)
Block QNUMBERS 10031  # zpl 
        1 0  # 3 times electric charge
        2 3  # number of spin states (2S+1)
        3 1  # colour rep (1: singlet, 3: triplet, 8: octet)
        4 0  # Particle/Antiparticle distinction (0=own anti)
</slha>
## END BANNER##
<MGGenerationInfo>
#  Number of Events        :         4020
#  Integrated weight (pb)  :  0.10033E+01
#  Max wgt                 :  0.33366E-03
#  Average wgt             :  0.24958E-03
</MGGenerationInfo>
</header>
<init>
     2212     2212  0.40000000000E+04  0.40000000000E+04 0 0  247000  247000 2   1
  0.10035920885E+01  0.21555273512E-02  0.33366090000E-03   0
</init>
<event>
 5   0  0.3336609E-03  0.1274639E+04  0.7818609E-02  0.9049922E-01
        2   -1    0    0  501    0  0.00000000000E+00  0.00000000000E+00  0.55641447576E+03  0.55641447576E+03  0.25500000920E-02 0. -1.
       -2   -1    0    0    0  501  0.00000000000E+00  0.00000000000E+00 -0.72998865718E+03  0.72998865718E+03  0.25500000920E-02 0.  1.
    10030    2    1    2    0    0  0.00000000000E+00  0.00000000000E+00 -0.17357418142E+03  0.12864031329E+04  0.12746391740E+04 0.  0.
        1    1    3    3  502    0 -0.48003899153E+03  0.40583309341E+03 -0.19282017005E+03  0.65750859394E+03  0.50400001928E-02 0. -1.
       -1    1    3    3    0  502  0.48003899153E+03 -0.40583309341E+03  0.19245988626E+02  0.62889453901E+03  0.50400001928E-02 0.  1.
</event>
<event>
 5   0  0.3336609E-03  0.1247205E+04  0.7818609E-02  0.9072512E-01
       -2   -1    0    0    0  501  0.00000000000E+00  0.00000000000E+00  0.12609819665E+04  0.12609819665E+04  0.25500000920E-02 0.  1.
        2   -1    0    0  501    0  0.00000000000E+00  0.00000000000E+00 -0.30839487396E+03  0.30839487397E+03  0.25500000920E-02 0. -1.
    10030    2    1    2    0    0  0.00000000000E+00  0.00000000000E+00  0.95258709251E+03  0.15693768404E+04  0.12472054757E+04 0.  0.
        1    1    3    3  502    0 -0.61694261238E+03 -0.88341500678E+02  0.50322168090E+03  0.80103337500E+03  0.50400001928E-02 0.  1.
       -1    1    3    3    0  502  0.61694261238E+03  0.88341500678E+02  0.44936541161E+03  0.76834346544E+03  0.50400001928E-02 0. -1.
</event>
<event>
 5   0  0.3262927E-03  0.1319762E+04  0.7818609E-02  0.9014039E-01
       -2   -1    0    0    0  501  0.00000000000E+00  0.00000000000E+00  0.17865283120E+03  0.17865283122E+03  0.25500000920E-02 0. -1.
        2   -1    0    0  501    0  0.00000000000E+00  0.00000000000E+00 -0.24373705525E+04  0.24373705525E+04  0.25500000920E-02 0.  1.
    10030    2    1    2    0    0  0.00000000000E+00  0.00000000000E+00 -0.22587177213E+04  0.26160233837E+04  0.13197623269E+04 0.  0.
        3    1    3    3  502    0 -0.31927343928E+03  0.57715438337E+03 -0.10896937797E+04  0.12737642070E+04  0.10100000352E+00 0.  1.
       -3    1    3    3    0  502  0.31927343928E+03 -0.57715438337E+03 -0.11690239415E+04  0.13422591767E+04  0.10100000352E+00 0. -1.
</event>
<event>
 5   0  0.3336609E-03  0.1346407E+04  0.7818609E-02  0.8993552E-01
        2   -1    0    0  501    0  0.00000000000E+00  0.00000000000E+00  0.69549909299E+03  0.69549909300E+03  0.25500000920E-02 0.  1.
       -2   -1    0    0    0  501  0.00000000000E+00  0.00000000000E+00 -0.65162257724E+03  0.65162257724E+03  0.25500000920E-02 0. -1.
    10030    2    1    2    0    0  0.00000000000E+00  0.00000000000E+00  0.43876515755E+02  0.13471216702E+04  0.13464069392E+04 0.  0.
        1    1    3    3  502    0 -0.34818105112E+03 -0.12715067312E+03  0.58420238524E+03  0.69187409619E+03  0.50400001928E-02 0.  1.
       -1    1    3    3    0  502  0.34818105112E+03  0.12715067312E+03 -0.54032586949E+03  0.65524757405E+03  0.50400001928E-02 0. -1.
</event>
<event>
 5   0  0.3262927E-03  0.1101991E+04  0.7818609E-02  0.9203254E-01
       -2   -1    0    0    0  501  0.00000000000E+00  0.00000000000E+00  0.34732287882E+03  0.34732287883E+03  0.25500000920E-02 0.  1.
        2   -1    0    0  501    0  0.00000000000E+00  0.00000000000E+00 -0.87410271509E+03  0.87410271509E+03  0.25500000920E-02 0. -1.
    10030    2    1    2    0    0  0.00000000000E+00  0.00000000000E+00 -0.52677983626E+03  0.12214255939E+04  0.11019906922E+04 0.  0.
        3    1    3    3  502    0 -0.50561687382E+03  0.16795615781E+03 -0.41910923902E+03  0.67787185992E+03  0.10100000352E+00 0. -1.
       -3    1    3    3    0  502  0.50561687382E+03 -0.16795615781E+03 -0.10767059725E+03  0.54355373400E+03  0.10100000352E+00 0.  1.
</event>
<event>
 5   0  0.1857986E-03  0.1313158E+04  0.7818609E-02  0.9019195E-01
        1   -1    0    0  501    0  0.00000000000E+00  0.00000000000E+00  0.54415257229E+03  0.54415257232E+03  0.50400001928E-02 0.  1.
       -1   -1    0    0    0  501  0.00000000000E+00  0.00000000000E+00 -0.79223411284E+03  0.79223411286E+03  0.50400001928E-02 0. -1.
    10030    2    1    2    0    0  0.00000000000E+00  0.00000000000E+00 -0.24808154055E+03  0.13363866852E+04  0.13131583764E+04 0.  0.
        1    1    3    3  502    0  0.13112651102E+03 -0.61259294515E+03 -0.32406764901E+03  0.70532554151E+03  0.50400001928E-02 0. -1.
       -1    1    3    3    0  502 -0.13112651102E+03  0.61259294515E+03  0.75986108458E+02  0.63106114367E+03  0.50400001928E-02 0.  1.
</event>
<event>
 5   0  0.1873488E-03  0.1309709E+04  0.7818609E-02  0.9021901E-01
       -1   -1    0    0    0  501  0.00000000000E+00  0.00000000000E+00  0.28226541629E+03  0.28226541633E+03  0.50400001928E-02 0.  1.
        1   -1    0    0  501    0  0.00000000000E+00  0.00000000000E+00 -0.15192586823E+04  0.15192586823E+04  0.50400001928E-02 0. -1.
    10030    2    1    2    0    0  0.00000000000E+00  0.00000000000E+00 -0.12369932660E+04  0.18015240986E+04  0.13097086461E+04 0.  0.
        3    1    3    3  502    0  0.28301414988E+03  0.58113637134E+03 -0.47411547516E+03  0.80162459113E+03  0.10100000352E+00 0.  1.
       -3    1    3    3    0  502 -0.28301414988E+03 -0.58113637134E+03 -0.76287779082E+03  0.99989950747E+03  0.10100000352E+00 0. -1.
</event>
<event>
 5   0  0.3336609E-03  0.1294286E+04  0.7818609E-02  0.9034109E-01
       -2   -1    0    0    0  501  0.00000000000E+00  0.00000000000E+00  0.28052447130E+03  0.28052447131E+03  0.25500000920E-02 0.  1.
        2   -1    0    0  501    0  0.00000000000E+00  0.00000000000E+00 -0.14928966720E+04  0.14928966720E+04  0.25500000920E-02 0. -1.
    10030    2    1    2    0    0  0.00000000000E+00  0.00000000000E+00 -0.12123722007E+04  0.17734211433E+04  0.12942859802E+04 0.  0.
        1    1    3    3  502    0  0.11809150706E+03  0.12527916756E+03  0.24856987939E+03  0.30236973861E+03  0.50400001928E-02 0.  1.
       -1    1    3    3    0  502 -0.11809150706E+03 -0.12527916756E+03 -0.14609420801E+04  0.14710514047E+04  0.50400001928E-02 0. -1.
</event>
<event>
 5   0  0.1823154E-03  0.1310795E+04  0.7818609E-02  0.9021048E-01
       -1   -1    0    0    0  501  0.00000000000E+00  0.00000000000E+00  0.57136756234E+03  0.57136756236E+03  0.50400001928E-02 0.  1.
        1   -1    0    0  501    0  0.00000000000E+00  0.00000000000E+00 -0.75178523932E+03  0.75178523934E+03  0.50400001928E-02 0. -1.
    10030    2    1    2    0    0  0.00000000000E+00  0.00000000000E+00 -0.18041767698E+03  0.13231528017E+04  0.13107947202E+04 0.  0.
        2    1    3    3  502    0 -0.16363463420E+03  0.64721840100E+01  0.55038236329E+03  0.57422898612E+03  0.25500000920E-02 0.  1.
       -2    1    3    3    0  502  0.16363463420E+03 -0.64721840100E+01 -0.73080004027E+03  0.74892381558E+03  0.25500000920E-02 0. -1.
</event>
<event>
 5   0  0.3336609E-03  0.1307849E+04  0.7818609E-02  0.9023364E-01
       -2   -1    0    0    0  501  0.00000000000E+00  0.00000000000E+00  0.80290898715E+03  0.80290898715E+03  0.25500000920E-02 0. -1.
        2   -1    0    0  501    0  0.00000000000E+00  0.00000000000E+00 -0.53258532352E+03  0.53258532352E+03  0.25500000920E-02 0.  1.
    10030    2    1    2    0    0  0.00000000000E+00  0.00000000000E+00  0.27032366363E+03  0.13354943107E+04  0.13078494450E+04 0.  0.
        1    1    3    3  502    0 -0.25923461643E+03  0.15185958928E+03 -0.45793687638E+03  0.54769526563E+03  0.50400001928E-02 0.  1.
       -1    1    3    3    0  502  0.25923461643E+03 -0.15185958928E+03  0.72826054001E+03  0.78779904505E+03  0.50400001928E-02 0. -1.
</event>
<event>
 5   0  0.1254125E-03  0.1178498E+04  0.7818609E-02  0.9131888E-01
        4   -1    0    0  501    0  0.00000000000E+00  0.00000000000E+00  0.72111129803E+03  0.72111241638E+03  0.12699999809E+01 0.  1.
       -4   -1    0    0    0  501  0.00000000000E+00  0.00000000000E+00 -0.48149645646E+03  0.48149813134E+03  0.12699999809E+01 0. -1.
    10030    2    1    2    0    0  0.00000000000E+00  0.00000000000E+00  0.23961484157E+03  0.12026105477E+04  0.11784977120E+04 0.  0.
        4    1    3    3  502    0  0.48641979223E+03  0.31939979022E+03  0.21439790993E+03  0.62015201116E+03  0.12699999809E+01 0. -1.
       -4    1    3    3    0  502 -0.48641979223E+03 -0.31939979022E+03  0.25216931643E+02  0.58245853656E+03  0.12699999809E+01 0.  1.
</event>
<event>
 5   0  0.3294720E-03  0.1288391E+04  0.7818609E-02  0.9038822E-01
        2   -1    0    0  501    0  0.00000000000E+00  0.00000000000E+00  0.14456102825E+04  0.14456102825E+04  0.25500000920E-02 0. -1.
       -2   -1    0    0    0  501  0.00000000000E+00  0.00000000000E+00 -0.28706760164E+03  0.28706760166E+03  0.25500000920E-02 0.  1.
    10030    2    1    2    0    0  0.00000000000E+00  0.00000000000E+00  0.11585426809E+04  0.17326778842E+04  0.12883910536E+04 0.  0.
        5    1    3    3  502    0  0.23586759558E+03  0.25008281635E+03 -0.15337668715E+03  0.37645907591E+03  0.46999998093E+01 0.  1.
       -5    1    3    3    0  502 -0.23586759558E+03 -0.25008281635E+03  0.13119193681E+04  0.13562188083E+04  0.46999998093E+01 0. -1.
</event>
<event>
 5   0  0.1814770E-03  0.1325710E+04  0.7818609E-02  0.9009421E-01
        1   -1    0    0  501    0  0.00000000000E+00  0.00000000000E+00  0.12190520196E+04  0.12190520196E+04  0.50400001928E-02 0. -1.
       -1   -1    0    0    0  501  0.00000000000E+00  0.00000000000E+00 -0.36042517456E+03  0.36042517460E+03  0.50400001928E-02 0.  1.
    10030    2    1    2    0    0  0.00000000000E+00  0.00000000000E+00  0.85862684503E+03  0.15794771942E+04  0.13257104314E+04 0.  0.
        5    1    3    3  502    0 -0.51348070265E+03  0.27792465174E+03  0.55484038564E+02  0.58651949036E+03  0.46999998093E+01 0. -1.
       -5    1    3    3    0  502  0.51348070265E+03 -0.27792465174E+03  0.80314280646E+03  0.99295770384E+03  0.46999998093E+01 0.  1.
</event>
<event>
 5   0  0.1254125E-03  0.1287161E+04  0.7818609E-02  0.9039809E-01
       -3   -1    0    0    0  501  0.00000000000E+00  0.00000000000E+00  0.71327267459E+03  0.71327268174E+03  0.10100000352E+00 0.  1.
        3   -1    0    0  501    0  0.00000000000E+00  0.00000000000E+00 -0.58069764392E+03  0.58069765271E+03  0.10100000352E+00 0. -1.
    10030    2    1    2    0    0  0.00000000000E+00  0.00000000000E+00  0.13257503066E+03  0.12939703344E+04  0.12871608632E+04 0.  0.
        1    1    3    3  502    0 -0.35958438138E+03  0.53080686000E+03  0.12260999301E+03  0.65275574326E+03  0.50400001928E-02 0. -1.
       -1    1    3    3    0  502  0.35958438138E+03 -0.53080686000E+03  0.99650376481E+01  0.64121459119E+03  0.50400001928E-02 0.  1.
</event>
<event>
 5   0  0.1857986E-03  0.1302642E+04  0.7818609E-02  0.9027472E-01
       -1   -1    0    0    0  501  0.00000000000E+00  0.00000000000E+00  0.83034680484E+03  0.83034680486E+03  0.50400001928E-02 0.  1.
        1   -1    0    0  501    0  0.00000000000E+00  0.00000000000E+00 -0.51089402076E+03  0.51089402078E+03  0.50400001928E-02 0. -1.
    10030    2    1    2    0    0  0.00000000000E+00  0.00000000000E+00  0.31945278408E+03  0.13412408256E+04  0.13026422652E+04 0.  0.
        1    1    3    3  502    0 -0.62153221738E+03 -0.86175355451E+02  0.33951637884E+03  0.71344226162E+03  0.50400001928E-02 0.  1.
       -1    1    3    3    0  502  0.62153221738E+03  0.86175355451E+02 -0.20063594758E+02  0.62779856402E+03  0.50400001928E-02 0. -1.
</event>
<event>
 5   0  0.1873488E-03  0.1310441E+04  0.7818609E-02  0.9021326E-01
       -1   -1    0    0    0  501  0.00000000000E+00  0.00000000000E+00  0.25652548385E+03  0.25652548390E+03  0.50400001928E-02 0. -1.
        1   -1    0    0  501    0  0.00000000000E+00  0.00000000000E+00 -0.16735711495E+04  0.16735711495E+04  0.50400001928E-02 0.  1.
    10030    2    1    2    0    0  0.00000000000E+00  0.00000000000E+00 -0.14170456657E+04  0.19300966334E+04  0.13104406113E+04 0.  0.
        3    1    3    3  502    0  0.48967298088E+03 -0.40674072692E+03 -0.47989236182E+03  0.79719153049E+03  0.10100000352E+00 0. -1.
       -3    1    3    3    0  502 -0.48967298088E+03  0.40674072692E+03 -0.93715330386E+03  0.11329051029E+04  0.10100000352E+00 0.  1.
</event>
<event>
 5   0  0.1873488E-03  0.1641321E+04  0.7818609E-02  0.8795558E-01
       -1   -1    0    0    0  501  0.00000000000E+00  0.00000000000E+00  0.83802051283E+03  0.83802051285E+03  0.50400001928E-02 0. -1.
        1   -1    0    0  501    0  0.00000000000E+00  0.00000000000E+00 -0.80365976075E+03  0.80365976076E+03  0.50400001928E-02 0.  1.
    10030    2    1    2    0    0  0.00000000000E+00  0.00000000000E+00  0.34360752088E+02  0.16416802736E+04  0.16413206449E+04 0.  0.
        3    1    3    3  502    0  0.35685737815E+03 -0.65479425577E+03 -0.32550328707E+03  0.81366768759E+03  0.10100000352E+00 0.  1.
       -3    1    3    3    0  502 -0.35685737815E+03  0.65479425577E+03  0.35986403916E+03  0.82801258602E+03  0.10100000352E+00 0. -1.
</event>
<event>
 5   0  0.3336609E-03  0.1307237E+04  0.7818609E-02  0.9023846E-01
       -2   -1    0    0    0  501  0.00000000000E+00  0.00000000000E+00  0.38233663738E+03  0.38233663739E+03  0.25500000920E-02 0.  1.
        2   -1    0    0  501    0  0.00000000000E+00  0.00000000000E+00 -0.11173851327E+04  0.11173851327E+04  0.25500000920E-02 0. -1.
    10030    2    1    2    0    0  0.00000000000E+00  0.00000000000E+00 -0.73504849529E+03  0.14997217701E+04  0.13072372000E+04 0.  0.
        1    1    3    3  502    0  0.27272080208E+03  0.19715620377E+03 -0.10103605915E+04  0.10649299176E+04  0.50400001928E-02 0. -1.
       -1    1    3    3    0  502 -0.27272080208E+03 -0.19715620377E+03  0.27531209623E+03  0.43479185242E+03  0.50400001928E-02 0.  1.
</event>
<event>
 5   0  0.1803959E-03  0.1325341E+04  0.7818609E-02  0.9009708E-01
        1   -1    0    0  501    0  0.00000000000E+00  0.00000000000E+00  0.14820525840E+04  0.14820525840E+04  0.50400001928E-02 0. -1.
       -1   -1    0    0    0  501  0.00000000000E+00  0.00000000000E+00 -0.29629993660E+03  0.29629993664E+03  0.50400001928E-02 0.  1.
    10030    2    1    2    0    0  0.00000000000E+00  0.00000000000E+00  0.11857526474E+04  0.17783525206E+04  0.13253408418E+04 0.  0.
        4    1    3    3  502    0  0.29213365244E+03  0.50483137208E+03  0.10149248366E+04  0.11705856747E+04  0.12699999809E+01 0. -1.
       -4    1    3    3    0  502 -0.29213365244E+03 -0.50483137208E+03  0.17082781083E+03  0.60776684590E+03  0.12699999809E+01 0.  1.
</event>
<event>
 5   0  0.1857986E-03  0.1324212E+04  0.7818609E-02  0.9010582E-01
       -1   -1    0    0    0  501  0.00000000000E+00  0.00000000000E+00  0.11172124307E+04  0.11172124307E+04  0.50400001928E-02 0. -1.
        1   -1    0    0  501    0  0.00000000000E+00  0.00000000000E+00 -0.39239150518E+03  0.39239150521E+03  0.50400001928E-02 0.  1.
    10030    2    1    2    0    0  0.00000000000E+00  0.00000000000E+00  0.72482092549E+03  0.15096039359E+04  0.13242124713E+04 0.  0.
        1    1    3    3  502    0  0.34277384135E+03 -0.32046414654E+03  0.89491859180E+03  0.10104803123E+04  0.50400001928E-02 0. -1.
       -1    1    3    3    0  502 -0.34277384135E+03  0.32046414654E+03 -0.17009766631E+03  0.49912362361E+03  0.50400001928E-02 0.  1.
</event>
<event>
 5   0  0.3299104E-03  0.1298153E+04  0.7818609E-02  0.9031031E-01
       -2   -1    0    0    0  501  0.00000000000E+00  0.00000000000E+00  0.11055396840E+04  0.11055396840E+04  0.25500000920E-02 0.  1.
        2   -1    0    0  501    0  0.00000000000E+00  0.00000000000E+00 -0.38108107362E+03  0.38108107363E+03  0.25500000920E-02 0. -1.
    10030    2    1    2    0    0  0.00000000000E+00  0.00000000000E+00  0.72445861037E+03  0.14866207576E+04  0.12981529181E+04 0.  0.
        2    1    3    3  502    0 -0.40180526931E+03 -0.39218781808E+03 -0.10687753868E+02  0.56158079311E+03  0.25500000920E-02 0. -1.
       -2    1    3    3    0  502  0.40180526931E+03  0.39218781808E+03  0.73514636424E+03  0.92503996452E+03  0.25500000920E-02 0.  1.
</event>
<event>
 5   0  0.1873488E-03  0.1283984E+04  0.7818609E-02  0.9042364E-01
        1   -1    0    0  501    0  0.00000000000E+00  0.00000000000E+00  0.17146657090E+04  0.17146657090E+04  0.50400001928E-02 0. -1.
       -1   -1    0    0    0  501  0.00000000000E+00  0.00000000000E+00 -0.24036962319E+03  0.24036962325E+03  0.50400001928E-02 0.  1.
    10030    2    1    2    0    0  0.00000000000E+00  0.00000000000E+00  0.14742960858E+04  0.19550353323E+04  0.12839837233E+04 0.  0.
        3    1    3    3  502    0 -0.19059871493E+03 -0.40870585112E+03  0.41411292438E+02  0.45286117985E+03  0.10100000352E+00 0.  1.
       -3    1    3    3    0  502  0.19059871493E+03  0.40870585112E+03  0.14328847934E+04  0.15021741524E+04  0.10100000352E+00 0. -1.
</event>
<event>
 5   0  0.1254125E-03  0.1329911E+04  0.7818609E-02  0.9006176E-01
        3   -1    0    0  501    0  0.00000000000E+00  0.00000000000E+00  0.56650895619E+03  0.56650896519E+03  0.10100000352E+00 0.  1.
       -3   -1    0    0    0  501  0.00000000000E+00  0.00000000000E+00 -0.78050926485E+03  0.78050927139E+03  0.10100000352E+00 0. -1.
    10030    2    1    2    0    0  0.00000000000E+00  0.00000000000E+00 -0.21400030867E+03  0.13470182366E+04  0.13299105224E+04 0.  0.
        3    1    3    3  502    0  0.52817622765E+03 -0.12841153316E+03  0.28094895065E+03  0.61187578181E+03  0.10100000352E+00 0. -1.
       -3    1    3    3    0  502 -0.52817622765E+03  0.12841153316E+03 -0.49494925931E+03  0.73514245476E+03  0.10100000352E+00 0.  1.
</event>
<event>
 5   0  0.3262927E-03  0.1308077E+04  0.7818609E-02  0.9023184E-01
       -2   -1    0    0    0  501  0.00000000000E+00  0.00000000000E+00  0.90047384610E+03  0.90047384611E+03  0.25500000920E-02 0. -1.
        2   -1    0    0  501    0  0.00000000000E+00  0.00000000000E+00 -0.47504606922E+03  0.47504606922E+03  0.25500000920E-02 0.  1.
    10030    2    1    2    0    0  0.00000000000E+00  0.00000000000E+00  0.42542777689E+03  0.13755199153E+04  0.13080773082E+04 0.  0.
        3    1    3    3  502    0 -0.56092361311E+03  0.12043368761E+03  0.54295514942E+03  0.78989865004E+03  0.10100000352E+00 0. -1.
       -3    1    3    3    0  502  0.56092361311E+03 -0.12043368761E+03 -0.11752737253E+03  0.58562126529E+03  0.10100000352E+00 0.  1.
</event>
<event>
 5   0  0.1857986E-03  0.1301555E+04  0.7818609E-02  0.9028333E-01
       -1   -1    0    0    0  501  0.00000000000E+00  0.00000000000E+00  0.12467226070E+04  0.12467226070E+04  0.50400001928E-02 0.  1.
        1   -1    0    0  501    0  0.00000000000E+00  0.00000000000E+00 -0.33969974314E+03  0.33969974318E+03  0.50400001928E-02 0. -1.
    10030    2    1    2    0    0  0.00000000000E+00  0.00000000000E+00  0.90702286388E+03  0.15864223502E+04  0.13015549922E+04 0.  0.
        1    1    3    3  502    0  0.26040550202E+03 -0.59421553223E+03  0.39126293954E+03  0.75762115342E+03  0.50400001928E-02 0.  1.
       -1    1    3    3    0  502 -0.26040550202E+03  0.59421553223E+03  0.51575992433E+03  0.82880119679E+03  0.50400001928E-02 0. -1.
</event>
<event>
 5   0  0.3299104E-03  0.1299063E+04  0.7818609E-02  0.9030309E-01
       -2   -1    0    0    0  501  0.00000000000E+00  0.00000000000E+00  0.48196727506E+03  0.48196727507E+03  0.25500000920E-02 0. -1.
        2   -1    0    0  501    0  0.00000000000E+00  0.00000000000E+00 -0.87535208311E+03  0.87535208312E+03  0.25500000920E-02 0.  1.
    10030    2    1    2    0    0  0.00000000000E+00  0.00000000000E+00 -0.39338480805E+03  0.13573193582E+04  0.12990628287E+04 0.  0.
        2    1    3    3  502    0  0.50787257772E+03 -0.10048288985E+03 -0.60653237883E+03  0.79744146678E+03  0.25500000920E-02 0.  1.
       -2    1    3    3    0  502 -0.50787257772E+03  0.10048288985E+03  0.21314757078E+03  0.55987789141E+03  0.25500000920E-02 0. -1.
</event>
<event>
 5   0  0.1823154E-03  0.1303995E+04  0.7818609E-02  0.9026403E-01
       -1   -1    0    0    0  501  0.00000000000E+00  0.00000000000E+00  0.37572538590E+03  0.37572538593E+03  0.50400001928E-02 0. -1.
        1   -1    0    0  501    0  0.00000000000E+00  0.00000000000E+00 -0.11314139906E+04  0.11314139907E+04  0.50400001928E-02 0.  1.
    10030    2    1    2    0    0  0.00000000000E+00  0.00000000000E+00 -0.75568860474E+03  0.15071393766E+04  0.13039953348E+04 0.  0.
        2    1    3    3  502    0  0.22451231182E+03 -0.23716000333E+03  0.27438186540E+03  0.42653962701E+03  0.25500000920E-02 0. -1.
       -2    1    3    3    0  502 -0.22451231182E+03  0.23716000333E+03 -0.10300704701E+04  0.10805997496E+04  0.25500000920E-02 0.  1.
</event>
<event>
 5   0  0.3262927E-03  0.1250243E+04  0.7818609E-02  0.9069981E-01
        2   -1    0    0  501    0  0.00000000000E+00  0.00000000000E+00  0.43175820921E+03  0.43175820922E+03  0.25500000920E-02 0.  1.
       -2   -1    0    0    0  501  0.00000000000E+00  0.00000000000E+00 -0.90508303586E+03  0.90508303586E+03  0.25500000920E-02 0. -1.
    10030    2    1    2    0    0  0.00000000000E+00  0.00000000000E+00 -0.47332482664E+03  0.13368412451E+04  0.12502432256E+04 0.  0.
        3    1    3    3  502    0 -0.26820454271E+03 -0.13770877679E+03  0.34888061460E+03  0.46110202491E+03  0.10100000352E+00 0.  1.
       -3    1    3    3    0  502  0.26820454271E+03  0.13770877679E+03 -0.82220544124E+03  0.87573922017E+03  0.10100000352E+00 0. -1.
</event>
<event>
 5   0  0.3294720E-03  0.1298869E+04  0.7818609E-02  0.9030463E-01
       -2   -1    0    0    0  501  0.00000000000E+00  0.00000000000E+00  0.12171400562E+04  0.12171400562E+04  0.25500000920E-02 0. -1.
        2   -1    0    0  501    0  0.00000000000E+00  0.00000000000E+00 -0.34652138058E+03  0.34652138059E+03  0.25500000920E-02 0.  1.
    10030    2    1    2    0    0  0.00000000000E+00  0.00000000000E+00  0.87061867565E+03  0.15636614368E+04  0.12988688196E+04 0.  0.
        5    1    3    3  502    0  0.37609681122E+03 -0.40133315539E+03  0.19625970662E+02  0.55038566637E+03  0.46999998093E+01 0.  1.
       -5    1    3    3    0  502 -0.37609681122E+03  0.40133315539E+03  0.85099270499E+03  0.10132757704E+04  0.46999998093E+01 0. -1.
</event>
<event>
 5   0  0.1823154E-03  0.1181864E+04  0.7818609E-02  0.9128880E-01
        1   -1    0    0  501    0  0.00000000000E+00  0.00000000000E+00  0.13520528689E+04  0.13520528689E+04  0.50400001928E-02 0.  1.
       -1   -1    0    0    0  501  0.00000000000E+00  0.00000000000E+00 -0.25827458191E+03  0.25827458196E+03  0.50400001928E-02 0. -1.
    10030    2    1    2    0    0  0.00000000000E+00  0.00000000000E+00  0.10937782870E+04  0.16103274509E+04  0.11818644414E+04 0.  0.
        2    1    3    3  502    0  0.54549177007E+03 -0.11715906343E+03  0.81219249528E+03  0.98536499165E+03  0.25500000920E-02 0.  1.
       -2    1    3    3    0  502 -0.54549177007E+03  0.11715906343E+03  0.28158579174E+03  0.62496245925E+03  0.25500000920E-02 0. -1.
</event>
<event>
 5   0  0.3262927E-03  0.1297454E+04  0.7818609E-02  0.9031587E-01
        2   -1    0    0  501    0  0.00000000000E+00  0.00000000000E+00  0.19858686838E+04  0.19858686838E+04  0.25500000920E-02 0.  1.
       -2   -1    0    0    0  501  0.00000000000E+00  0.00000000000E+00 -0.21192063915E+03  0.21192063916E+03  0.25500000920E-02 0. -1.
    10030    2    1    2    0    0  0.00000000000E+00  0.00000000000E+00  0.17739480447E+04  0.21977893230E+04  0.12974537537E+04 0.  0.
        3    1    3    3  502    0  0.11317470545E+03  0.39904832332E+03  0.17318987628E+04  0.17808765856E+04  0.10100000352E+00 0.  1.
       -3    1    3    3    0  502 -0.11317470545E+03 -0.39904832332E+03  0.42049281882E+02  0.41691273740E+03  0.10100000352E+00 0. -1.
</event>
<event>
 5   0  0.3336609E-03  0.1307681E+04  0.7818609E-02  0.9023496E-01
        2   -1    0    0  501    0  0.00000000000E+00  0.00000000000E+00  0.11823654731E+04  0.11823654731E+04  0.25500000920E-02 0. -1.
       -2   -1    0    0    0  501  0.00000000000E+00  0.00000000000E+00 -0.36156935124E+03  0.36156935125E+03  0.25500000920E-02 0.  1.
    10030    2    1    2    0    0  0.00000000000E+00  0.00000000000E+00  0.82079612188E+03  0.15439348244E+04  0.13076805681E+04 0.  0.
        1    1    3    3  502    0 -0.51673718145E+03 -0.17524892315E+03  0.83572921154E+03  0.99808457297E+03  0.50400001928E-02 0. -1.
       -1    1    3    3    0  502  0.51673718145E+03  0.17524892315E+03 -0.14933089658E+02  0.54585025140E+03  0.50400001928E-02 0.  1.
</event>
<event>
 5   0  0.1873488E-03  0.1275423E+04  0.7818609E-02  0.9049286E-01
        1   -1    0    0  501    0  0.00000000000E+00  0.00000000000E+00  0.28919151616E+04  0.28919151616E+04  0.50400001928E-02 0.  1.
       -1   -1    0    0    0  501  0.00000000000E+00  0.00000000000E+00 -0.14062504278E+03  0.14062504287E+03  0.50400001928E-02 0. -1.
    10030    2    1    2    0    0  0.00000000000E+00  0.00000000000E+00  0.27512901189E+04  0.30325402045E+04  0.12754225864E+04 0.  0.
        3    1    3    3  502    0 -0.60244361497E+03  0.10647091773E+03  0.94765488377E+03  0.11279734724E+04  0.10100000352E+00 0. -1.
       -3    1    3    3    0  502  0.60244361497E+03 -0.10647091773E+03  0.18036352351E+04  0.19045667321E+04  0.10100000352E+00 0.  1.
</event>
<event>
 5   0  0.3262927E-03  0.1299266E+04  0.7818609E-02  0.9030147E-01
       -2   -1    0    0    0  501  0.00000000000E+00  0.00000000000E+00  0.42475816307E+03  0.42475816308E+03  0.25500000920E-02 0.  1.
        2   -1    0    0  501    0  0.00000000000E+00  0.00000000000E+00 -0.99356149342E+03  0.99356149342E+03  0.25500000920E-02 0. -1.
    10030    2    1    2    0    0  0.00000000000E+00  0.00000000000E+00 -0.56880333034E+03  0.14183196565E+04  0.12992664928E+04 0.  0.
        3    1    3    3  502    0  0.42639896467E+03  0.47904701894E+03 -0.17137055009E+03  0.66382979676E+03  0.10100000352E+00 0.  1.
       -3    1    3    3    0  502 -0.42639896467E+03 -0.47904701894E+03 -0.39743278025E+03  0.75448985974E+03  0.10100000352E+00 0. -1.
</event>
<event>
 5   0  0.1803959E-03  0.1293179E+04  0.7818609E-02  0.9034992E-01
        1   -1    0    0  501    0  0.00000000000E+00  0.00000000000E+00  0.12640411665E+04  0.12640411666E+04  0.50400001928E-02 0.  1.
       -1   -1    0    0    0  501  0.00000000000E+00  0.00000000000E+00 -0.33074687950E+03  0.33074687954E+03  0.50400001928E-02 0. -1.
    10030    2    1    2    0    0  0.00000000000E+00  0.00000000000E+00  0.93329428705E+03  0.15947880461E+04  0.12931785204E+04 0.  0.
        4    1    3    3  502    0 -0.49297543285E+03 -0.39204531478E+02  0.98035015046E+03  0.10980208573E+04  0.12699999809E+01 0.  1.
       -4    1    3    3    0  502  0.49297543285E+03  0.39204531478E+02 -0.47055863414E+02  0.49676718879E+03  0.12699999809E+01 0. -1.
</event>
<event>
 5   0  0.1857986E-03  0.1295941E+04  0.7818609E-02  0.9032790E-01
       -1   -1    0    0    0  501  0.00000000000E+00  0.00000000000E+00  0.81541379612E+03  0.81541379614E+03  0.50400001928E-02 0.  1.
        1   -1    0    0  501    0  0.00000000000E+00  0.00000000000E+00 -0.51491160567E+03  0.51491160570E+03  0.50400001928E-02 0. -1.
    10030    2    1    2    0    0  0.00000000000E+00  0.00000000000E+00  0.30050219045E+03  0.13303254018E+04  0.12959413985E+04 0.  0.
        1    1    3    3  502    0 -0.33906008721E+03  0.49158983248E+03  0.40840650304E+03  0.72347645289E+03  0.50400001928E-02 0.  1.
       -1    1    3    3    0  502  0.33906008721E+03 -0.49158983248E+03 -0.10790431259E+03  0.60684894895E+03  0.50400001928E-02 0. -1.
</event>
<event>
 5   0  0.1873488E-03  0.1273699E+04  0.7818609E-02  0.9050686E-01
        1   -1    0    0  501    0  0.00000000000E+00  0.00000000000E+00  0.12970941246E+04  0.12970941246E+04  0.50400001928E-02 0. -1.
       -1   -1    0    0    0  501  0.00000000000E+00  0.00000000000E+00 -0.31268160102E+03  0.31268160107E+03  0.50400001928E-02 0.  1.
    10030    2    1    2    0    0  0.00000000000E+00  0.00000000000E+00  0.98441252353E+03  0.16097757256E+04  0.12736992857E+04 0.  0.
        3    1    3    3  502    0 -0.44969364728E+03 -0.20573421239E+03  0.99936879878E+03  0.11150286762E+04  0.10100000352E+00 0. -1.
       -3    1    3    3    0  502  0.44969364728E+03  0.20573421239E+03 -0.14956275252E+02  0.49474704944E+03  0.10100000352E+00 0.  1.
</event>
<event>
 5   0  0.3259968E-03  0.1306162E+04  0.7818609E-02  0.9024693E-01
       -2   -1    0    0    0  501  0.00000000000E+00  0.00000000000E+00  0.12005030563E+04  0.12005030563E+04  0.25500000920E-02 0. -1.
        2   -1    0    0  501    0  0.00000000000E+00  0.00000000000E+00 -0.35528027585E+03  0.35528027586E+03  0.25500000920E-02 0.  1.
    10030    2    1    2    0    0  0.00000000000E+00  0.00000000000E+00  0.84522278042E+03  0.15557833321E+04  0.13061624049E+04 0.  0.
        4    1    3    3  502    0  0.48678778471E+03  0.21398511322E+03 -0.29008628640E+02  0.53253646772E+03  0.12699999809E+01 0. -1.
       -4    1    3    3    0  502 -0.48678778471E+03 -0.21398511322E+03  0.87423140906E+03  0.10232468644E+04  0.12699999809E+01 0.  1.
</event>
<event>
 5   0  0.3259968E-03  0.1303760E+04  0.7818609E-02  0.9026589E-01
        2   -1    0    0  501    0  0.00000000000E+00  0.00000000000E+00  0.10198694258E+04  0.10198694258E+04  0.25500000920E-02 0.  1.
       -2   -1    0    0    0  501  0.00000000000E+00  0.00000000000E+00 -0.41666826555E+03  0.41666826556E+03  0.25500000920E-02 0. -1.
    10030    2    1    2    0    0  0.00000000000E+00  0.00000000000E+00  0.60320116023E+03  0.14365376913E+04  0.13037595250E+04 0.  0.
        4    1    3    3  502    0 -0.46770417949E+03  0.34499937674E+02  0.80049093979E+03  0.92775255473E+03  0.12699999809E+01 0.  1.
       -4    1    3    3    0  502  0.46770417949E+03 -0.34499937674E+02 -0.19728977957E+03  0.50878513661E+03  0.12699999809E+01 0. -1.
</event>
<event>
 5   0  0.1254125E-03  0.1300707E+04  0.7818609E-02  0.9029005E-01
        4   -1    0    0  501    0  0.00000000000E+00  0.00000000000E+00  0.94993607895E+03  0.94993692790E+03  0.12699999809E+01 0. -1.
       -4   -1    0    0    0  501  0.00000000000E+00  0.00000000000E+00 -0.44524845394E+03  0.44525026517E+03  0.12699999809E+01 0.  1.
    10030    2    1    2    0    0  0.00000000000E+00  0.00000000000E+00  0.50468762501E+03  0.13951871931E+04  0.13007066175E+04 0.  0.
        3    1    3    3  502    0  0.26436147909E+03  0.14755391769E+03 -0.36505248884E+03  0.47425992879E+03  0.10100000352E+00 0.  1.
       -3    1    3    3    0  502 -0.26436147909E+03 -0.14755391769E+03  0.86974011385E+03  0.92092726428E+03  0.10100000352E+00 0. -1.
</event>
<event>
 5   0  0.1873488E-03  0.1300903E+04  0.7818609E-02  0.9028849E-01
        1   -1    0    0  501    0  0.00000000000E+00  0.00000000000E+00  0.52600827762E+03  0.52600827765E+03  0.50400001928E-02 0. -1.
       -1   -1    0    0    0  501  0.00000000000E+00  0.00000000000E+00 -0.80433539687E+03  0.80433539689E+03  0.50400001928E-02 0.  1.
    10030    2    1    2    0    0  0.00000000000E+00  0.00000000000E+00 -0.27832711925E+03  0.13303436745E+04  0.13009028815E+04 0.  0.
        3    1    3    3  502    0 -0.50132971204E+03 -0.31682397232E+03  0.13404961541E+03  0.60801169331E+03  0.10100000352E+00 0.  1.
       -3    1    3    3    0  502  0.50132971204E+03  0.31682397232E+03 -0.41237673466E+03  0.72233198123E+03  0.10100000352E+00 0. -1.
</event>
<event>
 5   0  0.1814770E-03  0.1312426E+04  0.7818609E-02  0.9019769E-01
        1   -1    0    0  501    0  0.00000000000E+00  0.00000000000E+00  0.86045505998E+03  0.86045506000E+03  0.50400001928E-02 0.  1.
       -1   -1    0    0    0  501  0.00000000000E+00  0.00000000000E+00 -0.50045112479E+03  0.50045112481E+03  0.50400001928E-02 0. -1.
    10030    2    1    2    0    0  0.00000000000E+00  0.00000000000E+00  0.36000393519E+03  0.13609061848E+04  0.13124263067E+04 0.  0.
        5    1    3    3  502    0 -0.28390818037E+02  0.34875042199E+03  0.75562995172E+03  0.83272541051E+03  0.46999998093E+01 0.  1.
       -5    1    3    3    0  502  0.28390818037E+02 -0.34875042199E+03 -0.39562601652E+03  0.52818077430E+03  0.46999998093E+01 0. -1.
</event>
<event>
 5   0  0.3299104E-03  0.1293911E+04  0.7818609E-02  0.9034408E-01
        2   -1    0    0  501    0  0.00000000000E+00  0.00000000000E+00  0.96414568831E+03  0.96414568831E+03  0.25500000920E-02 0.  1.
       -2   -1    0    0    0  501  0.00000000000E+00  0.00000000000E+00 -0.43411612027E+03  0.43411612028E+03  0.25500000920E-02 0. -1.
    10030    2    1    2    0    0  0.00000000000E+00  0.00000000000E+00  0.53002956804E+03  0.13982618086E+04  0.12939106393E+04 0.  0.
        2    1    3    3  502    0 -0.37676885328E+02  0.45275596850E+03  0.76275101125E+03  0.88780438154E+03  0.25500000920E-02 0. -1.
       -2    1    3    3    0  502  0.37676885328E+02 -0.45275596850E+03 -0.23272144322E+03  0.51045742706E+03  0.25500000920E-02 0.  1.
</event>
<event>
 5   0  0.3262927E-03  0.1003952E+04  0.7818609E-02  0.9304221E-01
       -2   -1    0    0    0  501  0.00000000000E+00  0.00000000000E+00  0.69766974139E+03  0.69766974140E+03  0.25500000920E-02 0.  1.
        2   -1    0    0  501    0  0.00000000000E+00  0.00000000000E+00 -0.36117339255E+03  0.36117339256E+03  0.25500000920E-02 0. -1.
    10030    2    1    2    0    0  0.00000000000E+00  0.00000000000E+00  0.33649634884E+03  0.10588431340E+04  0.10039516869E+04 0.  0.
        3    1    3    3  502    0  0.11510371373E+03  0.26447743123E+03  0.60154209609E+03  0.66712073878E+03  0.10100000352E+00 0.  1.
       -3    1    3    3    0  502 -0.11510371373E+03 -0.26447743123E+03 -0.26504574725E+03  0.39172239517E+03  0.10100000352E+00 0. -1.
</event>
<event>
 5   0  0.3336609E-03  0.1294261E+04  0.7818609E-02  0.9034128E-01
        2   -1    0    0  501    0  0.00000000000E+00  0.00000000000E+00  0.23267844029E+04  0.23267844029E+04  0.25500000920E-02 0. -1.
       -2   -1    0    0    0  501  0.00000000000E+00  0.00000000000E+00 -0.17998152401E+03  0.17998152403E+03  0.25500000920E-02 0.  1.
    10030    2    1    2    0    0  0.00000000000E+00  0.00000000000E+00  0.21468028789E+04  0.25067659269E+04  0.12942614928E+04 0.  0.
        1    1    3    3  502    0  0.15218477290E+03 -0.45333274477E+03  0.19178851702E+04  0.19766017071E+04  0.50400001928E-02 0. -1.
       -1    1    3    3    0  502 -0.15218477290E+03  0.45333274477E+03  0.22891770871E+03  0.53016421981E+03  0.50400001928E-02 0.  1.
</event>
<event>
 5   0  0.3299104E-03  0.1297926E+04  0.7818609E-02  0.9031212E-01
       -2   -1    0    0    0  501  0.00000000000E+00  0.00000000000E+00  0.37170127283E+03  0.37170127284E+03  0.25500000920E-02 0.  1.
        2   -1    0    0  501    0  0.00000000000E+00  0.00000000000E+00 -0.11330410954E+04  0.11330410954E+04  0.25500000920E-02 0. -1.
    10030    2    1    2    0    0  0.00000000000E+00  0.00000000000E+00 -0.76133982258E+03  0.15047423682E+04  0.12979257565E+04 0.  0.
        2    1    3    3  502    0  0.38900210886E+03  0.20171229892E+03  0.17429427344E+03  0.47158136731E+03  0.25500000920E-02 0.  1.
       -2    1    3    3    0  502 -0.38900210886E+03 -0.20171229892E+03 -0.93563409602E+03  0.10331610009E+04  0.25500000920E-02 0. -1.
</event>
<event>
 5   0  0.3262927E-03  0.1310424E+04  0.7818609E-02  0.9021340E-01
       -2   -1    0    0    0  501  0.00000000000E+00  0.00000000000E+00  0.39773133639E+03  0.39773133640E+03  0.25500000920E-02 0.  1.
        2   -1    0    0  501    0  0.00000000000E+00  0.00000000000E+00 -0.10793779884E+04  0.10793779884E+04  0.25500000920E-02 0. -1.
    10030    2    1    2    0    0  0.00000000000E+00  0.00000000000E+00 -0.68164665198E+03  0.14771093248E+04  0.13104235190E+04 0.  0.
        3    1    3    3  502    0  0.55434121793E+02 -0.13561851100E+03  0.37903052926E+03  0.40636126132E+03  0.10100000352E+00 0.  1.
       -3    1    3    3    0  502 -0.55434121793E+02  0.13561851100E+03 -0.10606771812E+04  0.10707480635E+04  0.10100000352E+00 0. -1.
</event>
<event>
 5   0  0.1873488E-03  0.1265839E+04  0.7818609E-02  0.9057103E-01
       -1   -1    0    0    0  501  0.00000000000E+00  0.00000000000E+00  0.30983456556E+03  0.30983456560E+03  0.50400001928E-02 0. -1.
        1   -1    0    0  501    0  0.00000000000E+00  0.00000000000E+00 -0.12929058999E+04  0.12929058999E+04  0.50400001928E-02 0.  1.
    10030    2    1    2    0    0  0.00000000000E+00  0.00000000000E+00 -0.98307133437E+03  0.16027404655E+04  0.12658387541E+04 0.  0.
        3    1    3    3  502    0  0.25586296625E+03 -0.17397417173E+03  0.20755065384E+03  0.37257234739E+03  0.10100000352E+00 0. -1.
       -3    1    3    3    0  502 -0.25586296625E+03  0.17397417173E+03 -0.11906219882E+04  0.12301681182E+04  0.10100000352E+00 0.  1.
</event>
<event>
 5   0  0.3294720E-03  0.1309394E+04  0.7818609E-02  0.9022149E-01
       -2   -1    0    0    0  501  0.00000000000E+00  0.00000000000E+00  0.58827159592E+03  0.58827159593E+03  0.25500000920E-02 0. -1.
        2   -1    0    0  501    0  0.00000000000E+00  0.00000000000E+00 -0.72862287678E+03  0.72862287679E+03  0.25500000920E-02 0.  1.
    10030    2    1    2    0    0  0.00000000000E+00  0.00000000000E+00 -0.14035128086E+03  0.13168944727E+04  0.13093939706E+04 0.  0.
        5    1    3    3  502    0  0.66626341979E+02  0.47773377329E+03  0.37500814312E+03  0.61100067512E+03  0.46999998093E+01 0. -1.
       -5    1    3    3    0  502 -0.66626341979E+02 -0.47773377329E+03 -0.51535942399E+03  0.70589379759E+03  0.46999998093E+01 0.  1.
</event>
<event>
 5   0  0.1814770E-03  0.1289629E+04  0.7818609E-02  0.9037830E-01
        1   -1    0    0  501    0  0.00000000000E+00  0.00000000000E+00  0.90475384654E+03  0.90475384655E+03  0.50400001928E-02 0. -1.
       -1   -1    0    0    0  501  0.00000000000E+00  0.00000000000E+00 -0.45955648222E+03  0.45955648224E+03  0.50400001928E-02 0.  1.
    10030    2    1    2    0    0  0.00000000000E+00  0.00000000000E+00  0.44519736432E+03  0.13643103288E+04  0.12896286210E+04 0.  0.
        5    1    3    3  502    0 -0.17169735034E+02 -0.82716040912E+02  0.89885580740E+03  0.90282921737E+03  0.46999998093E+01 0. -1.
       -5    1    3    3    0  502  0.17169735034E+02  0.82716040912E+02 -0.45365844308E+03  0.46148111143E+03  0.46999998093E+01 0.  1.
</event>
<event>
 5   0  0.1873488E-03  0.1306543E+04  0.7818609E-02  0.9024393E-01
        1   -1    0    0  501    0  0.00000000000E+00  0.00000000000E+00  0.10615104996E+04  0.10615104996E+04  0.50400001928E-02 0. -1.
       -1   -1    0    0    0  501  0.00000000000E+00  0.00000000000E+00 -0.40203426894E+03  0.40203426897E+03  0.50400001928E-02 0.  1.
    10030    2    1    2    0    0  0.00000000000E+00  0.00000000000E+00  0.65947623067E+03  0.14635447686E+04  0.13065429158E+04 0.  0.
        3    1    3    3  502    0 -0.54608781904E+03  0.30797647396E+03  0.53537986166E+03  0.82443497081E+03  0.10100000352E+00 0. -1.
       -3    1    3    3    0  502  0.54608781904E+03 -0.30797647396E+03  0.12409636901E+03  0.63910979778E+03  0.10100000352E+00 0.  1.
</event>
<event>
 5   0  0.3262927E-03  0.1281962E+04  0.7818609E-02  0.9043993E-01
       -2   -1    0    0    0  501  0.00000000000E+00  0.00000000000E+00  0.21269267431E+03  0.21269267432E+03  0.25500000920E-02 0. -1.
        2   -1    0    0  501    0  0.00000000000E+00  0.00000000000E+00 -0.19316909454E+04  0.19316909454E+04  0.25500000920E-02 0.  1.
    10030    2    1    2    0    0  0.00000000000E+00  0.00000000000E+00 -0.17189982711E+04  0.21443836197E+04  0.12819617984E+04 0.  0.
        3    1    3    3  502    0  0.60950902937E+03  0.74242155020E+02 -0.11672250424E+04  0.13188735589E+04  0.10100000352E+00 0.  1.
       -3    1    3    3    0  502 -0.60950902937E+03 -0.74242155020E+02 -0.55177322865E+03  0.82551006083E+03  0.10100000352E+00 0. -1.
</event>
<event>
 5   0  0.1857986E-03  0.1321668E+04  0.7818609E-02  0.9012556E-01
       -1   -1    0    0    0  501  0.00000000000E+00  0.00000000000E+00  0.84189517007E+03  0.84189517009E+03  0.50400001928E-02 0.  1.
        1   -1    0    0  501    0  0.00000000000E+00  0.00000000000E+00 -0.51871268689E+03  0.51871268691E+03  0.50400001928E-02 0. -1.
    10030    2    1    2    0    0  0.00000000000E+00  0.00000000000E+00  0.32318248319E+03  0.13606078570E+04  0.13216681970E+04 0.  0.
        1    1    3    3  502    0 -0.29551405334E+03 -0.29407129392E+03 -0.36624825377E+03  0.55492726104E+03  0.50400001928E-02 0. -1.
       -1    1    3    3    0  502  0.29551405334E+03  0.29407129392E+03  0.68943073696E+03  0.80568059596E+03  0.50400001928E-02 0.  1.
</event>
<event>
 5   0  0.1873488E-03  0.1309341E+04  0.7818609E-02  0.9022190E-01
        1   -1    0    0  501    0  0.00000000000E+00  0.00000000000E+00  0.22381424197E+04  0.22381424197E+04  0.50400001928E-02 0.  1.
       -1   -1    0    0    0  501  0.00000000000E+00  0.00000000000E+00 -0.19149525114E+03  0.19149525121E+03  0.50400001928E-02 0. -1.
    10030    2    1    2    0    0  0.00000000000E+00  0.00000000000E+00  0.20466471685E+04  0.24296376709E+04  0.13093412769E+04 0.  0.
        3    1    3    3  502    0  0.60865318798E+03  0.19003148476E+03  0.12986998837E+04  0.14467868076E+04  0.10100000352E+00 0. -1.
       -3    1    3    3    0  502 -0.60865318798E+03 -0.19003148476E+03  0.74794728482E+03  0.98285086331E+03  0.10100000352E+00 0.  1.
</event>
<event>
 5   0  0.1823154E-03  0.1287310E+04  0.7818609E-02  0.9039690E-01
        1   -1    0    0  501    0  0.00000000000E+00  0.00000000000E+00  0.74264536149E+03  0.74264536151E+03  0.50400001928E-02 0.  1.
       -1   -1    0    0    0  501  0.00000000000E+00  0.00000000000E+00 -0.55785932468E+03  0.55785932471E+03  0.50400001928E-02 0. -1.
    10030    2    1    2    0    0  0.00000000000E+00  0.00000000000E+00  0.18478603681E+03  0.13005046862E+04  0.12873098149E+04 0.  0.
        2    1    3    3  502    0  0.29525350995E+03  0.56946404802E+03  0.14611421988E+03  0.65788547816E+03  0.25500000920E-02 0.  1.
       -2    1    3    3    0  502 -0.29525350995E+03 -0.56946404802E+03  0.38671816932E+02  0.64261920805E+03  0.25500000920E-02 0. -1.
</event>
<event>
 5   0  0.1814770E-03  0.1303190E+04  0.7818609E-02  0.9027040E-01
       -1   -1    0    0    0  501  0.00000000000E+00  0.00000000000E+00  0.38373073223E+03  0.38373073227E+03  0.50400001928E-02 0.  1.
        1   -1    0    0  501    0  0.00000000000E+00  0.00000000000E+00 -0.11064419261E+04  0.11064419261E+04  0.50400001928E-02 0. -1.
    10030    2    1    2    0    0  0.00000000000E+00  0.00000000000E+00 -0.72271119383E+03  0.14901726583E+04  0.13031895802E+04 0.  0.
        5    1    3    3  502    0  0.64379936454E+02 -0.27993230781E+03  0.30740667173E+03  0.42074674687E+03  0.46999998093E+01 0.  1.
       -5    1    3    3    0  502 -0.64379936454E+02  0.27993230781E+03 -0.10301178656E+04  0.10694259115E+04  0.46999998093E+01 0. -1.
</event>
<event>
 5   0  0.3259968E-03  0.1307376E+04  0.7818609E-02  0.9023736E-01
       -2   -1    0    0    0  501  0.00000000000E+00  0.00000000000E+00  0.52833320216E+03  0.52833320216E+03  0.25500000920E-02 0. -1.
        2   -1    0    0  501    0  0.00000000000E+00  0.00000000000E+00 -0.80878494722E+03  0.80878494722E+03  0.25500000920E-02 0.  1.
    10030    2    1    2    0    0  0.00000000000E+00  0.00000000000E+00 -0.28045174506E+03  0.13371181494E+04  0.13073759077E+04 0.  0.
        4    1    3    3  502    0 -0.12879081343E+03 -0.32194389876E+03  0.42652079737E+03  0.54968768501E+03  0.12699999809E+01 0. -1.
       -4    1    3    3    0  502  0.12879081343E+03  0.32194389876E+03 -0.70697254242E+03  0.78743046437E+03  0.12699999809E+01 0.  1.
</event>
<event>
 5   0  0.3336609E-03  0.1298780E+04  0.7818609E-02  0.9030533E-01
       -2   -1    0    0    0  501  0.00000000000E+00  0.00000000000E+00  0.44849008458E+03  0.44849008459E+03  0.25500000920E-02 0.  1.
        2   -1    0    0  501    0  0.00000000000E+00  0.00000000000E+00 -0.94028214733E+03  0.94028214733E+03  0.25500000920E-02 0. -1.
    10030    2    1    2    0    0  0.00000000000E+00  0.00000000000E+00 -0.49179206275E+03  0.13887722319E+04  0.12987797655E+04 0.  0.
        1    1    3    3  502    0  0.11177960081E+03  0.49162380279E+03  0.19175403459E+03  0.53940546200E+03  0.50400001928E-02 0.  1.
       -1    1    3    3    0  502 -0.11177960081E+03 -0.49162380279E+03 -0.68354609735E+03  0.84936676992E+03  0.50400001928E-02 0. -1.
</event>
<event>
 5   0  0.1803959E-03  0.1322568E+04  0.7818609E-02  0.9011857E-01
       -1   -1    0    0    0  501  0.00000000000E+00  0.00000000000E+00  0.42589121874E+03  0.42589121877E+03  0.50400001928E-02 0. -1.
        1   -1    0    0  501    0  0.00000000000E+00  0.00000000000E+00 -0.10267806232E+04  0.10267806232E+04  0.50400001928E-02 0.  1.
    10030    2    1    2    0    0  0.00000000000E+00  0.00000000000E+00 -0.60088940441E+03  0.14526718419E+04  0.13225684875E+04 0.  0.
        4    1    3    3  502    0  0.20075215041E+03 -0.21903681563E+03  0.34844733192E+03  0.45792543991E+03  0.12699999809E+01 0. -1.
       -4    1    3    3    0  502 -0.20075215041E+03  0.21903681563E+03 -0.94933673633E+03  0.99474640202E+03  0.12699999809E+01 0.  1.
</event>
<event>
 5   0  0.3299104E-03  0.1309703E+04  0.7818609E-02  0.9021906E-01
        2   -1    0    0  501    0  0.00000000000E+00  0.00000000000E+00  0.60192204988E+03  0.60192204989E+03  0.25500000920E-02 0.  1.
       -2   -1    0    0    0  501  0.00000000000E+00  0.00000000000E+00 -0.71243503590E+03  0.71243503591E+03  0.25500000920E-02 0. -1.
    10030    2    1    2    0    0  0.00000000000E+00  0.00000000000E+00 -0.11051298602E+03  0.13143570858E+04  0.13097028018E+04 0.  0.
        2    1    3    3  502    0  0.44151017558E+03 -0.43392978227E+03 -0.26956647395E+03  0.67519802648E+03  0.25500000920E-02 0.  1.
       -2    1    3    3    0  502 -0.44151017558E+03  0.43392978227E+03  0.15905348793E+03  0.63915905932E+03  0.25500000920E-02 0. -1.
</event>
<event>
 5   0  0.1814770E-03  0.1318270E+04  0.7818609E-02  0.9015201E-01
        1   -1    0    0  501    0  0.00000000000E+00  0.00000000000E+00  0.13705158899E+04  0.13705158899E+04  0.50400001928E-02 0.  1.
       -1   -1    0    0    0  501  0.00000000000E+00  0.00000000000E+00 -0.31700405291E+03  0.31700405295E+03  0.50400001928E-02 0. -1.
    10030    2    1    2    0    0  0.00000000000E+00  0.00000000000E+00  0.10535118369E+04  0.16875199428E+04  0.13182702177E+04 0.  0.
        5    1    3    3  502    0 -0.64929707093E+03  0.11335412757E+03  0.52537889778E+03  0.84290030299E+03  0.46999998093E+01 0. -1.
       -5    1    3    3    0  502  0.64929707093E+03 -0.11335412757E+03  0.52813293916E+03  0.84461963982E+03  0.46999998093E+01 0.  1.
</event>
<event>
 5   0  0.3299104E-03  0.1323070E+04  0.7818609E-02  0.9011468E-01
       -2   -1    0    0    0  501  0.00000000000E+00  0.00000000000E+00  0.39601278245E+03  0.39601278246E+03  0.25500000920E-02 0. -1.
        2   -1    0    0  501    0  0.00000000000E+00  0.00000000000E+00 -0.11050874700E+04  0.11050874700E+04  0.25500000920E-02 0.  1.
    10030    2    1    2    0    0  0.00000000000E+00  0.00000000000E+00 -0.70907468750E+03  0.15011002524E+04  0.13230703138E+04 0.  0.
        2    1    3    3  502    0  0.26031918426E+03 -0.36232138671E+03 -0.90871518792E+03  0.10123271002E+04  0.25500000920E-02 0.  1.
       -2    1    3    3    0  502 -0.26031918426E+03  0.36232138671E+03  0.19964050042E+03  0.48877315226E+03  0.25500000920E-02 0. -1.
</event>
<event>
 5   0  0.1823154E-03  0.1329938E+04  0.7818609E-02  0.9006155E-01
        1   -1    0    0  501    0  0.00000000000E+00  0.00000000000E+00  0.76342446015E+03  0.76342446017E+03  0.50400001928E-02 0.  1.
       -1   -1    0    0    0  501  0.00000000000E+00  0.00000000000E+00 -0.57921112052E+03  0.57921112054E+03  0.50400001928E-02 0. -1.
    10030    2    1    2    0    0  0.00000000000E+00  0.00000000000E+00  0.18421333964E+03  0.13426355807E+04  0.13299382497E+04 0.  0.
        2    1    3    3  502    0 -0.30981664799E+03  0.52585901982E+03 -0.17436385945E+03  0.63475729187E+03  0.25500000920E-02 0. -1.
       -2    1    3    3    0  502  0.30981664799E+03 -0.52585901982E+03  0.35857719909E+03  0.70787828884E+03  0.25500000920E-02 0.  1.
</event>
<event>
 5   0  0.1823154E-03  0.1280938E+04  0.7818609E-02  0.9044819E-01
        1   -1    0    0  501    0  0.00000000000E+00  0.00000000000E+00  0.18842233324E+04  0.18842233324E+04  0.50400001928E-02 0.  1.
       -1   -1    0    0    0  501  0.00000000000E+00  0.00000000000E+00 -0.21770286018E+03  0.21770286024E+03  0.50400001928E-02 0. -1.
    10030    2    1    2    0    0  0.00000000000E+00  0.00000000000E+00  0.16665204722E+04  0.21019261927E+04  0.12809384197E+04 0.  0.
        2    1    3    3  502    0 -0.40631800625E+03  0.11478444383E+03  0.43002734028E+02  0.42440431888E+03  0.25500000920E-02 0. -1.
       -2    1    3    3    0  502  0.40631800625E+03 -0.11478444383E+03  0.16235177382E+04  0.16775218738E+04  0.25500000920E-02 0.  1.
</event>
<event>
 5   0  0.1823154E-03  0.1281950E+04  0.7818609E-02  0.9044003E-01
        1   -1    0    0  501    0  0.00000000000E+00  0.00000000000E+00  0.81513958791E+03  0.81513958792E+03  0.50400001928E-02 0. -1.
       -1   -1    0    0    0  501  0.00000000000E+00  0.00000000000E+00 -0.50402284993E+03  0.50402284995E+03  0.50400001928E-02 0.  1.
    10030    2    1    2    0    0  0.00000000000E+00  0.00000000000E+00  0.31111673798E+03  0.13191624379E+04  0.12819500430E+04 0.  0.
        2    1    3    3  502    0  0.49016404080E+03 -0.23200140621E+03 -0.19606748491E+03  0.57665231988E+03  0.25500000920E-02 0. -1.
       -2    1    3    3    0  502 -0.49016404080E+03  0.23200140621E+03  0.50718422289E+03  0.74251011800E+03  0.25500000920E-02 0.  1.
</event>
<event>
 5   0  0.3299104E-03  0.1315164E+04  0.7818609E-02  0.9017625E-01
        2   -1    0    0  501    0  0.00000000000E+00  0.00000000000E+00  0.98223901862E+03  0.98223901862E+03  0.25500000920E-02 0. -1.
       -2   -1    0    0    0  501  0.00000000000E+00  0.00000000000E+00 -0.44023336378E+03  0.44023336379E+03  0.25500000920E-02 0.  1.
    10030    2    1    2    0    0  0.00000000000E+00  0.00000000000E+00  0.54200565484E+03  0.14224723824E+04  0.13151644570E+04 0.  0.
        2    1    3    3  502    0 -0.54604595938E+02  0.57456350274E+03 -0.69843949865E+02  0.58136310333E+03  0.25500000920E-02 0.  1.
       -2    1    3    3    0  502  0.54604595938E+02 -0.57456350274E+03  0.61184960470E+03  0.84110927908E+03  0.25500000920E-02 0. -1.
</event>
<event>
 5   0  0.1814770E-03  0.1147358E+04  0.7818609E-02  0.9160224E-01
        1   -1    0    0  501    0  0.00000000000E+00  0.00000000000E+00  0.10273092001E+04  0.10273092001E+04  0.50400001928E-02 0. -1.
       -1   -1    0    0    0  501  0.00000000000E+00  0.00000000000E+00 -0.32035878616E+03  0.32035878620E+03  0.50400001928E-02 0.  1.
    10030    2    1    2    0    0  0.00000000000E+00  0.00000000000E+00  0.70695041395E+03  0.13476679863E+04  0.11473578838E+04 0.  0.
        5    1    3    3  502    0  0.50757668739E+03 -0.32332562990E+01  0.66742300294E+03  0.83852257118E+03  0.46999998093E+01 0.  1.
       -5    1    3    3    0  502 -0.50757668739E+03  0.32332562990E+01  0.39527411010E+02  0.50914541513E+03  0.46999998093E+01 0. -1.
</event>
<event>
 5   0  0.3294720E-03  0.1304088E+04  0.7818609E-02  0.9026330E-01
       -2   -1    0    0    0  501  0.00000000000E+00  0.00000000000E+00  0.43011589986E+03  0.43011589987E+03  0.25500000920E-02 0.  1.
        2   -1    0    0  501    0  0.00000000000E+00  0.00000000000E+00 -0.98848023129E+03  0.98848023129E+03  0.25500000920E-02 0. -1.
    10030    2    1    2    0    0  0.00000000000E+00  0.00000000000E+00 -0.55836433142E+03  0.14185961312E+04  0.13040875188E+04 0.  0.
        5    1    3    3  502    0 -0.69215871118E+02 -0.44065459897E+02 -0.98282323186E+03  0.98625361680E+03  0.46999998093E+01 0. -1.
       -5    1    3    3    0  502  0.69215871118E+02  0.44065459897E+02  0.42445890043E+03  0.43234251436E+03  0.46999998093E+01 0.  1.
</event>
<event>
 5   0  0.3294720E-03  0.1393233E+04  0.7818609E-02  0.8958731E-01
        2   -1    0    0  501    0  0.00000000000E+00  0.00000000000E+00  0.72551099800E+03  0.72551099801E+03  0.25500000920E-02 0. -1.
       -2   -1    0    0    0  501  0.00000000000E+00  0.00000000000E+00 -0.66887315930E+03  0.66887315930E+03  0.25500000920E-02 0.  1.
    10030    2    1    2    0    0  0.00000000000E+00  0.00000000000E+00  0.56637838708E+02  0.13943841573E+04  0.13932334095E+04 0.  0.
        5    1    3    3  502    0  0.16631677998E+03  0.22614830540E+03 -0.60974072466E+03  0.67127503204E+03  0.46999998093E+01 0.  1.
       -5    1    3    3    0  502 -0.16631677998E+03 -0.22614830540E+03  0.66637856337E+03  0.72310912527E+03  0.46999998093E+01 0. -1.
</event>
<event>
 5   0  0.3259968E-03  0.1297203E+04  0.7818609E-02  0.9031786E-01
       -2   -1    0    0    0  501  0.00000000000E+00  0.00000000000E+00  0.36478393264E+03  0.36478393265E+03  0.25500000920E-02 0.  1.
        2   -1    0    0  501    0  0.00000000000E+00  0.00000000000E+00 -0.11532406640E+04  0.11532406641E+04  0.25500000920E-02 0. -1.
    10030    2    1    2    0    0  0.00000000000E+00  0.00000000000E+00 -0.78845673141E+03  0.15180245967E+04  0.12972026283E+04 0.  0.
        4    1    3    3  502    0 -0.45130803536E+03 -0.63733901772E+02 -0.93423703740E+03  0.10394909369E+04  0.12699999809E+01 0. -1.
       -4    1    3    3    0  502  0.45130803536E+03  0.63733901772E+02  0.14578030599E+03  0.47853365977E+03  0.12699999809E+01 0.  1.
</event>
<event>
 5   0  0.1803959E-03  0.1276389E+04  0.7818609E-02  0.9048501E-01
        1   -1    0    0  501    0  0.00000000000E+00  0.00000000000E+00  0.97641330690E+03  0.97641330691E+03  0.50400001928E-02 0. -1.
       -1   -1    0    0    0  501  0.00000000000E+00  0.00000000000E+00 -0.41713116699E+03  0.41713116702E+03  0.50400001928E-02 0.  1.
    10030    2    1    2    0    0  0.00000000000E+00  0.00000000000E+00  0.55928213991E+03  0.13935444739E+04  0.12763893171E+04 0.  0.
        4    1    3    3  502    0  0.77317248013E+02 -0.48898737723E+02 -0.40993397949E+03  0.42001967077E+03  0.12699999809E+01 0.  1.
       -4    1    3    3    0  502 -0.77317248013E+02  0.48898737723E+02  0.96921611940E+03  0.97352480317E+03  0.12699999809E+01 0. -1.
</event>
<event>
 5   0  0.1823154E-03  0.1266147E+04  0.7818609E-02  0.9056850E-01
        1   -1    0    0  501    0  0.00000000000E+00  0.00000000000E+00  0.37462638062E+03  0.37462638065E+03  0.50400001928E-02 0. -1.
       -1   -1    0    0    0  501  0.00000000000E+00  0.00000000000E+00 -0.10698175417E+04  0.10698175418E+04  0.50400001928E-02 0.  1.
    10030    2    1    2    0    0  0.00000000000E+00  0.00000000000E+00 -0.69519116112E+03  0.14444439224E+04  0.12661467113E+04 0.  0.
        2    1    3    3  502    0 -0.49324671450E+02 -0.15503412141E+03  0.35037051283E+03  0.38630039902E+03  0.25500000920E-02 0. -1.
       -2    1    3    3    0  502  0.49324671450E+02  0.15503412141E+03 -0.10455616740E+04  0.10581435234E+04  0.25500000920E-02 0.  1.
</event>
<event>
 5   0  0.3299104E-03  0.1304914E+04  0.7818609E-02  0.9025677E-01
        2   -1    0    0  501    0  0.00000000000E+00  0.00000000000E+00  0.82185579689E+03  0.82185579689E+03  0.25500000920E-02 0. -1.
       -2   -1    0    0    0  501  0.00000000000E+00  0.00000000000E+00 -0.51797438844E+03  0.51797438844E+03  0.25500000920E-02 0.  1.
    10030    2    1    2    0    0  0.00000000000E+00  0.00000000000E+00  0.30388140845E+03  0.13398301853E+04  0.13049141792E+04 0.  0.
        2    1    3    3  502    0 -0.64141776080E+03 -0.86863027238E+02  0.23622443780E+03  0.68903114181E+03  0.25500000920E-02 0. -1.
       -2    1    3    3    0  502  0.64141776080E+03  0.86863027238E+02  0.67656970654E+02  0.65079904352E+03  0.25500000920E-02 0.  1.
</event>
<event>
 5   0  0.1823154E-03  0.1305502E+04  0.7818609E-02  0.9025214E-01
        1   -1    0    0  501    0  0.00000000000E+00  0.00000000000E+00  0.11918206405E+04  0.11918206405E+04  0.50400001928E-02 0.  1.
       -1   -1    0    0    0  501  0.00000000000E+00  0.00000000000E+00 -0.35750643083E+03  0.35750643086E+03  0.50400001928E-02 0. -1.
    10030    2    1    2    0    0  0.00000000000E+00  0.00000000000E+00  0.83431420962E+03  0.15493270713E+04  0.13055015027E+04 0.  0.
        2    1    3    3  502    0  0.23664634616E+03  0.42957362358E+03  0.92836142835E+03  0.10499475858E+04  0.25500000920E-02 0.  1.
       -2    1    3    3    0  502 -0.23664634616E+03 -0.42957362358E+03 -0.94047218729E+02  0.49937948555E+03  0.25500000920E-02 0. -1.
</event>
<event>
 5   0  0.3262927E-03  0.1305587E+04  0.7818609E-02  0.9025146E-01
       -2   -1    0    0    0  501  0.00000000000E+00  0.00000000000E+00  0.31696707569E+03  0.31696707570E+03  0.25500000920E-02 0.  1.
        2   -1    0    0  501    0  0.00000000000E+00  0.00000000000E+00 -0.13444273973E+04  0.13444273973E+04  0.25500000920E-02 0. -1.
    10030    2    1    2    0    0  0.00000000000E+00  0.00000000000E+00 -0.10274603216E+04  0.16613944730E+04  0.13055867962E+04 0.  0.
        3    1    3    3  502    0  0.58923968333E+03 -0.16771000858E+03 -0.80056903910E+03  0.10080877184E+04  0.10100000352E+00 0. -1.
       -3    1    3    3    0  502 -0.58923968333E+03  0.16771000858E+03 -0.22689128253E+03  0.65330675465E+03  0.10100000352E+00 0.  1.
</event>
<event>
 5   0  0.3294720E-03  0.1350471E+04  0.7818609E-02  0.8990471E-01
        2   -1    0    0  501    0  0.00000000000E+00  0.00000000000E+00  0.18534566909E+04  0.18534566909E+04  0.25500000920E-02 0.  1.
       -2   -1    0    0    0  501  0.00000000000E+00  0.00000000000E+00 -0.24599617209E+03  0.24599617210E+03  0.25500000920E-02 0. -1.
    10030    2    1    2    0    0  0.00000000000E+00  0.00000000000E+00  0.16074605188E+04  0.20994528630E+04  0.13504714008E+04 0.  0.
        5    1    3    3  502    0 -0.25559442660E+03 -0.36261007409E+02 -0.16622242554E+03  0.30707548961E+03  0.46999998093E+01 0. -1.
       -5    1    3    3    0  502  0.25559442660E+03  0.36261007409E+02  0.17736829443E+04  0.17923773734E+04  0.46999998093E+01 0.  1.
</event>
<event>
 5   0  0.1814770E-03  0.1278245E+04  0.7818609E-02  0.9046998E-01
       -1   -1    0    0    0  501  0.00000000000E+00  0.00000000000E+00  0.44056347676E+03  0.44056347679E+03  0.50400001928E-02 0. -1.
        1   -1    0    0  501    0  0.00000000000E+00  0.00000000000E+00 -0.92717016785E+03  0.92717016786E+03  0.50400001928E-02 0.  1.
    10030    2    1    2    0    0  0.00000000000E+00  0.00000000000E+00 -0.48660669109E+03  0.13677336447E+04  0.12782445974E+04 0.  0.
        5    1    3    3  502    0  0.31718219663E+02 -0.27128287146E+03  0.37494984220E+03  0.46390722777E+03  0.46999998093E+01 0. -1.
       -5    1    3    3    0  502 -0.31718219663E+02  0.27128287146E+03 -0.86155653329E+03  0.90382641689E+03  0.46999998093E+01 0.  1.
</event>
<event>
 5   0  0.1873488E-03  0.1278053E+04  0.7818609E-02  0.9047153E-01
        1   -1    0    0  501    0  0.00000000000E+00  0.00000000000E+00  0.11489090386E+04  0.11489090386E+04  0.50400001928E-02 0.  1.
       -1   -1    0    0    0  501  0.00000000000E+00  0.00000000000E+00 -0.35542839247E+03  0.35542839251E+03  0.50400001928E-02 0. -1.
    10030    2    1    2    0    0  0.00000000000E+00  0.00000000000E+00  0.79348064609E+03  0.15043374311E+04  0.12780530391E+04 0.  0.
        3    1    3    3  502    0  0.38512779599E+03 -0.38180865811E+03  0.79460130802E+03  0.96202521773E+03  0.10100000352E+00 0.  1.
       -3    1    3    3    0  502 -0.38512779599E+03  0.38180865811E+03 -0.11206619310E+01  0.54231221334E+03  0.10100000352E+00 0. -1.
</event>
<event>
 5   0  0.3262927E-03  0.1258093E+04  0.7818609E-02  0.9063475E-01
       -2   -1    0    0    0  501  0.00000000000E+00  0.00000000000E+00  0.74405985484E+03  0.74405985485E+03  0.25500000920E-02 0. -1.
        2   -1    0    0  501    0  0.00000000000E+00  0.00000000000E+00 -0.53181102630E+03  0.53181102631E+03  0.25500000920E-02 0.  1.
    10030    2    1    2    0    0  0.00000000000E+00  0.00000000000E+00  0.21224882854E+03  0.12758708812E+04  0.12580925801E+04 0.  0.
        3    1    3    3  502    0 -0.70699465622E+02 -0.81106818210E+02 -0.52240990346E+03  0.53337495989E+03  0.10100000352E+00 0.  1.
       -3    1    3    3    0  502  0.70699465622E+02  0.81106818210E+02  0.73465873200E+03  0.74249592127E+03  0.10100000352E+00 0. -1.
</event>
<event>
 5   0  0.3336609E-03  0.1302662E+04  0.7818609E-02  0.9027457E-01
        2   -1    0    0  501    0  0.00000000000E+00  0.00000000000E+00  0.50193351067E+03  0.50193351068E+03  0.25500000920E-02 0.  1.
       -2   -1    0    0    0  501  0.00000000000E+00  0.00000000000E+00 -0.84519569662E+03  0.84519569663E+03  0.25500000920E-02 0. -1.
    10030    2    1    2    0    0  0.00000000000E+00  0.00000000000E+00 -0.34326218595E+03  0.13471292073E+04  0.13026619565E+04 0.  0.
        1    1    3    3  502    0 -0.12307240838E+03  0.13972304645E+03 -0.81708644087E+03  0.83803317315E+03  0.50400001928E-02 0. -1.
       -1    1    3    3    0  502  0.12307240838E+03 -0.13972304645E+03  0.47382425492E+03  0.50909603416E+03  0.50400001928E-02 0.  1.
</event>
<event>
 5   0  0.3336609E-03  0.1266421E+04  0.7818609E-02  0.9056626E-01
       -2   -1    0    0    0  501  0.00000000000E+00  0.00000000000E+00  0.17442830096E+03  0.17442830098E+03  0.25500000920E-02 0.  1.
        2   -1    0    0  501    0  0.00000000000E+00  0.00000000000E+00 -0.22986845020E+04  0.22986845020E+04  0.25500000920E-02 0. -1.
    10030    2    1    2    0    0  0.00000000000E+00  0.00000000000E+00 -0.21242562010E+04  0.24731128030E+04  0.12664211498E+04 0.  0.
        1    1    3    3  502    0 -0.38882010477E+03 -0.18439422217E+03 -0.15500828907E+03  0.45739465754E+03  0.50400001928E-02 0.  1.
       -1    1    3    3    0  502  0.38882010477E+03  0.18439422217E+03 -0.19692479120E+04  0.20157181454E+04  0.50400001928E-02 0. -1.
</event>
<event>
 5   0  0.3299104E-03  0.1251688E+04  0.7818609E-02  0.9068779E-01
       -2   -1    0    0    0  501  0.00000000000E+00  0.00000000000E+00  0.31077752409E+03  0.31077752410E+03  0.25500000920E-02 0. -1.
        2   -1    0    0  501    0  0.00000000000E+00  0.00000000000E+00 -0.12603260850E+04  0.12603260850E+04  0.25500000920E-02 0.  1.
    10030    2    1    2    0    0  0.00000000000E+00  0.00000000000E+00 -0.94954856094E+03  0.15711036091E+04  0.12516884920E+04 0.  0.
        2    1    3    3  502    0 -0.26494605545E+03 -0.50518727900E+03 -0.79789769690E+03  0.98084215544E+03  0.25500000920E-02 0.  1.
       -2    1    3    3    0  502  0.26494605545E+03  0.50518727900E+03 -0.15165086404E+03  0.59026145370E+03  0.25500000920E-02 0. -1.
</event>
<event>
 5   0  0.1857986E-03  0.1287809E+04  0.7818609E-02  0.9039289E-01
        1   -1    0    0  501    0  0.00000000000E+00  0.00000000000E+00  0.98259992941E+03  0.98259992942E+03  0.50400001928E-02 0. -1.
       -1   -1    0    0    0  501  0.00000000000E+00  0.00000000000E+00 -0.42195517659E+03  0.42195517662E+03  0.50400001928E-02 0.  1.
    10030    2    1    2    0    0  0.00000000000E+00  0.00000000000E+00  0.56064475282E+03  0.14045551060E+04  0.12878091889E+04 0.  0.
        1    1    3    3  502    0  0.11024769766E+03 -0.21507074076E+03  0.93125515290E+03  0.96210505570E+03  0.50400001928E-02 0. -1.
       -1    1    3    3    0  502 -0.11024769766E+03  0.21507074076E+03 -0.37061040008E+03  0.44245005034E+03  0.50400001928E-02 0.  1.
</event>
<event>
 5   0  0.3336609E-03  0.1319572E+04  0.7818609E-02  0.9014187E-01
        2   -1    0    0  501    0  0.00000000000E+00  0.00000000000E+00  0.12872577084E+04  0.12872577084E+04  0.25500000920E-02 0.  1.
       -2   -1    0    0    0  501  0.00000000000E+00  0.00000000000E+00 -0.33817455183E+03  0.33817455184E+03  0.25500000920E-02 0. -1.
    10030    2    1    2    0    0  0.00000000000E+00  0.00000000000E+00  0.94908315661E+03  0.16254322603E+04  0.13195723529E+04 0.  0.
        1    1    3    3  502    0  0.47515445990E+03 -0.20870238870E+03 -0.27310561683E+02  0.51968674663E+03  0.50400001928E-02 0. -1.
       -1    1    3    3    0  502 -0.47515445990E+03  0.20870238870E+03  0.97639371829E+03  0.11057455136E+04  0.50400001928E-02 0.  1.
</event>
<event>
 5   0  0.3259968E-03  0.1283579E+04  0.7818609E-02  0.9042690E-01
       -2   -1    0    0    0  501  0.00000000000E+00  0.00000000000E+00  0.76317059529E+03  0.76317059529E+03  0.25500000920E-02 0. -1.
        2   -1    0    0  501    0  0.00000000000E+00  0.00000000000E+00 -0.53971381088E+03  0.53971381088E+03  0.25500000920E-02 0.  1.
    10030    2    1    2    0    0  0.00000000000E+00  0.00000000000E+00  0.22345678441E+03  0.13028844062E+04  0.12835789190E+04 0.  0.
        4    1    3    3  502    0  0.91954567009E+02  0.11421347900E+03  0.74593917032E+03  0.76021524577E+03  0.12699999809E+01 0. -1.
       -4    1    3    3    0  502 -0.91954567009E+02 -0.11421347900E+03 -0.52248238591E+03  0.54266916041E+03  0.12699999809E+01 0.  1.
</event>
<event>
 5   0  0.3262927E-03  0.1304895E+04  0.7818609E-02  0.9025692E-01
       -2   -1    0    0    0  501  0.00000000000E+00  0.00000000000E+00  0.41997145293E+03  0.41997145294E+03  0.25500000920E-02 0. -1.
        2   -1    0    0  501    0  0.00000000000E+00  0.00000000000E+00 -0.10136109909E+04  0.10136109909E+04  0.25500000920E-02 0.  1.
    10030    2    1    2    0    0  0.00000000000E+00  0.00000000000E+00 -0.59363953795E+03  0.14335824438E+04  0.13048949085E+04 0.  0.
        3    1    3    3  502    0  0.39318702554E+03 -0.39682955366E+03  0.73494622305E+02  0.56344582829E+03  0.10100000352E+00 0. -1.
       -3    1    3    3    0  502 -0.39318702554E+03  0.39682955366E+03 -0.66713416025E+03  0.87013661553E+03  0.10100000352E+00 0.  1.
</event>
<event>
 5   0  0.1873488E-03  0.1320136E+04  0.7818609E-02  0.9013748E-01
        1   -1    0    0  501    0  0.00000000000E+00  0.00000000000E+00  0.10518069708E+04  0.10518069708E+04  0.50400001928E-02 0. -1.
       -1   -1    0    0    0  501  0.00000000000E+00  0.00000000000E+00 -0.41422973299E+03  0.41422973302E+03  0.50400001928E-02 0.  1.
    10030    2    1    2    0    0  0.00000000000E+00  0.00000000000E+00  0.63757723782E+03  0.14660367038E+04  0.13201359335E+04 0.  0.
        3    1    3    3  502    0 -0.20682824460E+02 -0.54151645483E+03 -0.99719405677E+02  0.55100981855E+03  0.10100000352E+00 0.  1.
       -3    1    3    3    0  502  0.20682824460E+02  0.54151645483E+03  0.73729664350E+03  0.91502688528E+03  0.10100000352E+00 0. -1.
</event>
<event>
 5   0  0.1254125E-03  0.1300455E+04  0.7818609E-02  0.9029205E-01
        4   -1    0    0  501    0  0.00000000000E+00  0.00000000000E+00  0.67045645321E+03  0.67045765605E+03  0.12699999809E+01 0. -1.
       -4   -1    0    0    0  501  0.00000000000E+00  0.00000000000E+00 -0.63060629002E+03  0.63060756887E+03  0.12699999809E+01 0.  1.
    10030    2    1    2    0    0  0.00000000000E+00  0.00000000000E+00  0.39850163194E+02  0.13010652249E+04  0.13004547989E+04 0.  0.
        5    1    3    3  502    0  0.44021925476E+03 -0.93996568324E+02  0.48934168996E+03  0.66491031474E+03  0.46999998093E+01 0. -1.
       -5    1    3    3    0  502 -0.44021925476E+03  0.93996568324E+02 -0.44949152677E+03  0.63615491018E+03  0.46999998093E+01 0.  1.
</event>
<event>
 5   0  0.3336609E-03  0.1341028E+04  0.7818609E-02  0.8997647E-01
        2   -1    0    0  501    0  0.00000000000E+00  0.00000000000E+00  0.14119157015E+04  0.14119157015E+04  0.25500000920E-02 0.  1.
       -2   -1    0    0    0  501  0.00000000000E+00  0.00000000000E+00 -0.31842497233E+03  0.31842497234E+03  0.25500000920E-02 0. -1.
    10030    2    1    2    0    0  0.00000000000E+00  0.00000000000E+00  0.10934907292E+04  0.17303406738E+04  0.13410282893E+04 0.  0.
        1    1    3    3  502    0  0.44088633619E+03 -0.44772396824E+03  0.24482493486E+03  0.67437138279E+03  0.50400001928E-02 0. -1.
       -1    1    3    3    0  502 -0.44088633619E+03  0.44772396824E+03  0.84866579430E+03  0.10559692910E+04  0.50400001928E-02 0.  1.
</event>
<event>
 5   0  0.3259968E-03  0.1292678E+04  0.7818609E-02  0.9035392E-01
        2   -1    0    0  501    0  0.00000000000E+00  0.00000000000E+00  0.11081172987E+04  0.11081172987E+04  0.25500000920E-02 0. -1.
       -2   -1    0    0    0  501  0.00000000000E+00  0.00000000000E+00 -0.37699440054E+03  0.37699440055E+03  0.25500000920E-02 0.  1.
    10030    2    1    2    0    0  0.00000000000E+00  0.00000000000E+00  0.73112289817E+03  0.14851116993E+04  0.12926778667E+04 0.  0.
        4    1    3    3  502    0  0.89495541013E+02  0.26582752130E+03 -0.30342766205E+03  0.41321142523E+03  0.12699999809E+01 0.  1.
       -4    1    3    3    0  502 -0.89495541013E+02 -0.26582752130E+03  0.10345505602E+04  0.10719002740E+04  0.12699999809E+01 0. -1.
</event>
<event>
 5   0  0.3262927E-03  0.1284665E+04  0.7818609E-02  0.9041815E-01
        2   -1    0    0  501    0  0.00000000000E+00  0.00000000000E+00  0.21919598584E+04  0.21919598584E+04  0.25500000920E-02 0.  1.
       -2   -1    0    0    0  501  0.00000000000E+00  0.00000000000E+00 -0.18822926752E+03  0.18822926754E+03  0.25500000920E-02 0. -1.
    10030    2    1    2    0    0  0.00000000000E+00  0.00000000000E+00  0.20037305908E+04  0.23801891259E+04  0.12846649347E+04 0.  0.
        3    1    3    3  502    0  0.20984561860E+03  0.10035860492E+03 -0.10745372104E+03  0.25622908811E+03  0.10100000352E+00 0. -1.
       -3    1    3    3    0  502 -0.20984561860E+03 -0.10035860492E+03  0.21111843119E+04  0.21239600378E+04  0.10100000352E+00 0.  1.
</event>
<event>
 5   0  0.1857986E-03  0.1296029E+04  0.7818609E-02  0.9032720E-01
        1   -1    0    0  501    0  0.00000000000E+00  0.00000000000E+00  0.24557451821E+03  0.24557451826E+03  0.50400001928E-02 0.  1.
       -1   -1    0    0    0  501  0.00000000000E+00  0.00000000000E+00 -0.17099618603E+04  0.17099618603E+04  0.50400001928E-02 0. -1.
    10030    2    1    2    0    0  0.00000000000E+00  0.00000000000E+00 -0.14643873421E+04  0.19555363786E+04  0.12960294134E+04 0.  0.
        1    1    3    3  502    0 -0.55582426435E+03 -0.17136153634E+03 -0.30112829531E+03  0.65496842614E+03  0.50400001928E-02 0.  1.
       -1    1    3    3    0  502  0.55582426435E+03  0.17136153634E+03 -0.11632590468E+04  0.13005679525E+04  0.50400001928E-02 0. -1.
</event>
<event>
 5   0  0.3299104E-03  0.1281470E+04  0.7818609E-02  0.9044390E-01
       -2   -1    0    0    0  501  0.00000000000E+00  0.00000000000E+00  0.59823438258E+03  0.59823438259E+03  0.25500000920E-02 0.  1.
        2   -1    0    0  501    0  0.00000000000E+00  0.00000000000E+00 -0.68625550403E+03  0.68625550403E+03  0.25500000920E-02 0. -1.
    10030    2    1    2    0    0  0.00000000000E+00  0.00000000000E+00 -0.88021121448E+02  0.12844898866E+04  0.12814704644E+04 0.  0.
        2    1    3    3  502    0  0.11118701037E+03  0.17263523479E+03  0.56435952034E+03  0.60055569581E+03  0.25500000920E-02 0.  1.
       -2    1    3    3    0  502 -0.11118701037E+03 -0.17263523479E+03 -0.65238064179E+03  0.68393419081E+03  0.25500000920E-02 0. -1.
</event>
<event>
 5   0  0.1857986E-03  0.1369435E+04  0.7818609E-02  0.8976245E-01
        1   -1    0    0  501    0  0.00000000000E+00  0.00000000000E+00  0.15519728909E+04  0.15519728909E+04  0.50400001928E-02 0. -1.
       -1   -1    0    0    0  501  0.00000000000E+00  0.00000000000E+00 -0.30209144407E+03  0.30209144411E+03  0.50400001928E-02 0.  1.
    10030    2    1    2    0    0  0.00000000000E+00  0.00000000000E+00  0.12498814469E+04  0.18540643351E+04  0.13694345283E+04 0.  0.
        1    1    3    3  502    0  0.42402627362E+03 -0.39729958856E+03  0.11153266638E+04  0.12576163210E+04  0.50400001928E-02 0. -1.
       -1    1    3    3    0  502 -0.42402627362E+03  0.39729958856E+03  0.13455478302E+03  0.59644801404E+03  0.50400001928E-02 0.  1.
</event>
<event>
 5   0  0.1823154E-03  0.1206751E+04  0.7818609E-02  0.9106968E-01
       -1   -1    0    0    0  501  0.00000000000E+00  0.00000000000E+00  0.45413649308E+03  0.45413649310E+03  0.50400001928E-02 0.  1.
        1   -1    0    0  501    0  0.00000000000E+00  0.00000000000E+00 -0.80165732398E+03  0.80165732400E+03  0.50400001928E-02 0. -1.
    10030    2    1    2    0    0  0.00000000000E+00  0.00000000000E+00 -0.34752083090E+03  0.12557938171E+04  0.12067507544E+04 0.  0.
        2    1    3    3  502    0  0.32481533657E+03  0.27670355140E+02 -0.70212633945E+03  0.77411371773E+03  0.25500000920E-02 0. -1.
       -2    1    3    3    0  502 -0.32481533657E+03 -0.27670355140E+02  0.35460550855E+03  0.48168009937E+03  0.25500000920E-02 0.  1.
</event>
<event>
 5   0  0.3294720E-03  0.1286095E+04  0.7818609E-02  0.9040665E-01
        2   -1    0    0  501    0  0.00000000000E+00  0.00000000000E+00  0.18509207814E+04  0.18509207814E+04  0.25500000920E-02 0.  1.
       -2   -1    0    0    0  501  0.00000000000E+00  0.00000000000E+00 -0.22340769853E+03  0.22340769854E+03  0.25500000920E-02 0. -1.
    10030    2    1    2    0    0  0.00000000000E+00  0.00000000000E+00  0.16275130828E+04  0.20743284799E+04  0.12860947896E+04 0.  0.
        5    1    3    3  502    0  0.78861660098E+02  0.61848996110E+03  0.56007172906E+03  0.83812375286E+03  0.46999998093E+01 0. -1.
       -5    1    3    3    0  502 -0.78861660098E+02 -0.61848996110E+03  0.10674413538E+04  0.12362047271E+04  0.46999998093E+01 0.  1.
</event>
<event>
 5   0  0.1857986E-03  0.1297191E+04  0.7818609E-02  0.9031796E-01
       -1   -1    0    0    0  501  0.00000000000E+00  0.00000000000E+00  0.10050006079E+04  0.10050006079E+04  0.50400001928E-02 0.  1.
        1   -1    0    0  501    0  0.00000000000E+00  0.00000000000E+00 -0.41858302741E+03  0.41858302744E+03  0.50400001928E-02 0. -1.
    10030    2    1    2    0    0  0.00000000000E+00  0.00000000000E+00  0.58641758052E+03  0.14235836354E+04  0.12971911148E+04 0.  0.
        1    1    3    3  502    0 -0.85351677671E+02  0.14482848244E+03  0.98067661101E+03  0.99498081067E+03  0.50400001928E-02 0.  1.
       -1    1    3    3    0  502  0.85351677671E+02 -0.14482848244E+03 -0.39425903049E+03  0.42860282471E+03  0.50400001928E-02 0. -1.
</event>
<event>
 5   0  0.3259968E-03  0.1285412E+04  0.7818609E-02  0.9041214E-01
        2   -1    0    0  501    0  0.00000000000E+00  0.00000000000E+00  0.94503392788E+03  0.94503392788E+03  0.25500000920E-02 0. -1.
       -2   -1    0    0    0  501  0.00000000000E+00  0.00000000000E+00 -0.43709665503E+03  0.43709665503E+03  0.25500000920E-02 0.  1.
    10030    2    1    2    0    0  0.00000000000E+00  0.00000000000E+00  0.50793727285E+03  0.13821305829E+04  0.12854122588E+04 0.  0.
        4    1    3    3  502    0 -0.35869010331E+03 -0.32827491275E+03 -0.19794892275E+03  0.52498418783E+03  0.12699999809E+01 0.  1.
       -4    1    3    3    0  502  0.35869010331E+03  0.32827491275E+03  0.70588619560E+03  0.85714639508E+03  0.12699999809E+01 0. -1.
</event>
<event>
 5   0  0.1814770E-03  0.1367426E+04  0.7818609E-02  0.8977741E-01
       -1   -1    0    0    0  501  0.00000000000E+00  0.00000000000E+00  0.78620047495E+03  0.78620047496E+03  0.50400001928E-02 0.  1.
        1   -1    0    0  501    0  0.00000000000E+00  0.00000000000E+00 -0.59458577049E+03  0.59458577051E+03  0.50400001928E-02 0. -1.
    10030    2    1    2    0    0  0.00000000000E+00  0.00000000000E+00  0.19161470446E+03  0.13807862455E+04  0.13674262177E+04 0.  0.
        5    1    3    3  502    0  0.50604000564E+03  0.13517432820E+03 -0.34790931888E+03  0.62881759714E+03  0.46999998093E+01 0.  1.
       -5    1    3    3    0  502 -0.50604000564E+03 -0.13517432820E+03  0.53952402334E+03  0.75196864833E+03  0.46999998093E+01 0. -1.
</event>
<event>
 5   0  0.3262927E-03  0.1356054E+04  0.7818609E-02  0.8986258E-01
        2   -1    0    0  501    0  0.00000000000E+00  0.00000000000E+00  0.38355374681E+03  0.38355374682E+03  0.25500000920E-02 0. -1.
       -2   -1    0    0    0  501  0.00000000000E+00  0.00000000000E+00 -0.11985823167E+04  0.11985823167E+04  0.25500000920E-02 0.  1.
    10030    2    1    2    0    0  0.00000000000E+00  0.00000000000E+00 -0.81502856988E+03  0.15821360635E+04  0.13560541854E+04 0.  0.
        3    1    3    3  502    0 -0.50649878551E+03  0.61590082135E+02 -0.92848645023E+03  0.10594439374E+04  0.10100000352E+00 0.  1.
       -3    1    3    3    0  502  0.50649878551E+03 -0.61590082135E+02  0.11345788035E+03  0.52269212617E+03  0.10100000352E+00 0. -1.
</event>
<event>
 5   0  0.3262927E-03  0.1332070E+04  0.7818609E-02  0.9004513E-01
       -2   -1    0    0    0  501  0.00000000000E+00  0.00000000000E+00  0.28438344876E+03  0.28438344877E+03  0.25500000920E-02 0. -1.
        2   -1    0    0  501    0  0.00000000000E+00  0.00000000000E+00 -0.15598758286E+04  0.15598758286E+04  0.25500000920E-02 0.  1.
    10030    2    1    2    0    0  0.00000000000E+00  0.00000000000E+00 -0.12754923799E+04  0.18442592774E+04  0.13320703702E+04 0.  0.
        3    1    3    3  502    0 -0.81926015615E+02  0.36994883539E+03  0.12061537393E+03  0.39764568585E+03  0.10100000352E+00 0. -1.
       -3    1    3    3    0  502  0.81926015615E+02 -0.36994883539E+03 -0.13961077538E+04  0.14466135915E+04  0.10100000352E+00 0.  1.
</event>
<event>
 5   0  0.1873488E-03  0.1265121E+04  0.7818609E-02  0.9057691E-01
       -1   -1    0    0    0  501  0.00000000000E+00  0.00000000000E+00  0.25965884130E+03  0.25965884135E+03  0.50400001928E-02 0. -1.
        1   -1    0    0  501    0  0.00000000000E+00  0.00000000000E+00 -0.15409941633E+04  0.15409941633E+04  0.50400001928E-02 0.  1.
    10030    2    1    2    0    0  0.00000000000E+00  0.00000000000E+00 -0.12813353220E+04  0.18006530047E+04  0.12651209570E+04 0.  0.
        3    1    3    3  502    0  0.46829632717E+03 -0.49243106639E+02 -0.39489475305E+02  0.47253122908E+03  0.10100000352E+00 0. -1.
       -3    1    3    3    0  502 -0.46829632717E+03  0.49243106639E+02 -0.12418458467E+04  0.13281217756E+04  0.10100000352E+00 0.  1.
</event>
<event>
 5   0  0.3299104E-03  0.1308238E+04  0.7818609E-02  0.9023057E-01
        2   -1    0    0  501    0  0.00000000000E+00  0.00000000000E+00  0.18758191738E+04  0.18758191738E+04  0.25500000920E-02 0. -1.
       -2   -1    0    0    0  501  0.00000000000E+00  0.00000000000E+00 -0.22809871424E+03  0.22809871425E+03  0.25500000920E-02 0.  1.
    10030    2    1    2    0    0  0.00000000000E+00  0.00000000000E+00  0.16477204595E+04  0.21039178880E+04  0.13082384212E+04 0.  0.
        2    1    3    3  502    0 -0.59819291815E+03 -0.23551975957E+03  0.10179649726E+04  0.12039755022E+04  0.25500000920E-02 0.  1.
       -2    1    3    3    0  502  0.59819291815E+03  0.23551975957E+03  0.62975548698E+03  0.89994238586E+03  0.25500000920E-02 0. -1.
</event>
<event>
 5   0  0.3259968E-03  0.1186462E+04  0.7818609E-02  0.9124789E-01
       -2   -1    0    0    0  501  0.00000000000E+00  0.00000000000E+00  0.14419845357E+03  0.14419845360E+03  0.25500000920E-02 0.  1.
        2   -1    0    0  501    0  0.00000000000E+00  0.00000000000E+00 -0.24405479190E+04  0.24405479190E+04  0.25500000920E-02 0. -1.
    10030    2    1    2    0    0  0.00000000000E+00  0.00000000000E+00 -0.22963494654E+04  0.25847463726E+04  0.11864623649E+04 0.  0.
        4    1    3    3  502    0 -0.10271040024E+03 -0.12472260431E+03  0.95338708232E+02  0.18760660044E+03  0.12699999809E+01 0.  1.
       -4    1    3    3    0  502  0.10271040024E+03  0.12472260431E+03 -0.23916881737E+04  0.23971397722E+04  0.12699999809E+01 0. -1.
</event>
<event>
 5   0  0.3259968E-03  0.1297396E+04  0.7818609E-02  0.9031633E-01
        2   -1    0    0  501    0  0.00000000000E+00  0.00000000000E+00  0.59094495912E+03  0.59094495912E+03  0.25500000920E-02 0. -1.
       -2   -1    0    0    0  501  0.00000000000E+00  0.00000000000E+00 -0.71209534171E+03  0.71209534172E+03  0.25500000920E-02 0.  1.
    10030    2    1    2    0    0  0.00000000000E+00  0.00000000000E+00 -0.12115038259E+03  0.13030403008E+04  0.12973960885E+04 0.  0.
        4    1    3    3  502    0  0.12859284399E+03 -0.21459813182E+03 -0.66169302116E+03  0.70740917782E+03  0.12699999809E+01 0.  1.
       -4    1    3    3    0  502 -0.12859284399E+03  0.21459813182E+03  0.54054263857E+03  0.59563112302E+03  0.12699999809E+01 0. -1.
</event>
<event>
 5   0  0.1803959E-03  0.1250285E+04  0.7818609E-02  0.9069946E-01
        1   -1    0    0  501    0  0.00000000000E+00  0.00000000000E+00  0.15610531867E+04  0.15610531867E+04  0.50400001928E-02 0.  1.
       -1   -1    0    0    0  501  0.00000000000E+00  0.00000000000E+00 -0.25034562872E+03  0.25034562877E+03  0.50400001928E-02 0. -1.
    10030    2    1    2    0    0  0.00000000000E+00  0.00000000000E+00  0.13107075580E+04  0.18113988155E+04  0.12502845141E+04 0.  0.
        4    1    3    3  502    0 -0.36982747742E+03 -0.43482594901E+03  0.10245968794E+04  0.11728795109E+04  0.12699999809E+01 0. -1.
       -4    1    3    3    0  502  0.36982747742E+03  0.43482594901E+03  0.28611067858E+03  0.63851930455E+03  0.12699999809E+01 0.  1.
</event>
<event>
 5   0  0.1873488E-03  0.1292624E+04  0.7818609E-02  0.9035435E-01
        1   -1    0    0  501    0  0.00000000000E+00  0.00000000000E+00  0.58532666639E+03  0.58532666641E+03  0.50400001928E-02 0.  1.
       -1   -1    0    0    0  501  0.00000000000E+00  0.00000000000E+00 -0.71365171877E+03  0.71365171879E+03  0.50400001928E-02 0. -1.
    10030    2    1    2    0    0  0.00000000000E+00  0.00000000000E+00 -0.12832505239E+03  0.12989783852E+04  0.12926242788E+04 0.  0.
        3    1    3    3  502    0  0.25106696045E+03  0.56164033919E+03 -0.26323954570E+03  0.66915585468E+03  0.10100000352E+00 0. -1.
       -3    1    3    3    0  502 -0.25106696045E+03 -0.56164033919E+03  0.13491449331E+03  0.62982253051E+03  0.10100000352E+00 0.  1.
</event>
<event>
 5   0  0.1857986E-03  0.1304499E+04  0.7818609E-02  0.9026005E-01
       -1   -1    0    0    0  501  0.00000000000E+00  0.00000000000E+00  0.42514572150E+03  0.42514572153E+03  0.50400001928E-02 0. -1.
        1   -1    0    0  501    0  0.00000000000E+00  0.00000000000E+00 -0.10006666139E+04  0.10006666139E+04  0.50400001928E-02 0.  1.
    10030    2    1    2    0    0  0.00000000000E+00  0.00000000000E+00 -0.57552089237E+03  0.14258123354E+04  0.13044985697E+04 0.  0.
        1    1    3    3  502    0 -0.10616800596E+03  0.41379193301E+03  0.25095901031E+03  0.49545517880E+03  0.50400001928E-02 0. -1.
       -1    1    3    3    0  502  0.10616800596E+03 -0.41379193301E+03 -0.82647990268E+03  0.93035715662E+03  0.50400001928E-02 0.  1.
</event>
<event>
 5   0  0.1823154E-03  0.1297516E+04  0.7818609E-02  0.9031537E-01
       -1   -1    0    0    0  501  0.00000000000E+00  0.00000000000E+00  0.58469515426E+03  0.58469515429E+03  0.50400001928E-02 0.  1.
        1   -1    0    0  501    0  0.00000000000E+00  0.00000000000E+00 -0.71983996960E+03  0.71983996962E+03  0.50400001928E-02 0. -1.
    10030    2    1    2    0    0  0.00000000000E+00  0.00000000000E+00 -0.13514481533E+03  0.13045351239E+04  0.12975159993E+04 0.  0.
        2    1    3    3  502    0 -0.25865246877E+03  0.10445339582E+03  0.52132250191E+03  0.59126031703E+03  0.25500000920E-02 0.  1.
       -2    1    3    3    0  502  0.25865246877E+03 -0.10445339582E+03 -0.65646731724E+03  0.71327480687E+03  0.25500000920E-02 0. -1.
</event>
<event>
 5   0  0.1857986E-03  0.1097455E+04  0.7818609E-02  0.9207676E-01
       -1   -1    0    0    0  501  0.00000000000E+00  0.00000000000E+00  0.33663002009E+03  0.33663002012E+03  0.50400001928E-02 0.  1.
        1   -1    0    0  501    0  0.00000000000E+00  0.00000000000E+00 -0.89445856519E+03  0.89445856520E+03  0.50400001928E-02 0. -1.
    10030    2    1    2    0    0  0.00000000000E+00  0.00000000000E+00 -0.55782854510E+03  0.12310885853E+04  0.10974545181E+04 0.  0.
        1    1    3    3  502    0  0.24564219436E+03 -0.36463639611E+03 -0.64722622411E+03  0.78243311166E+03  0.50400001928E-02 0. -1.
       -1    1    3    3    0  502 -0.24564219436E+03  0.36463639611E+03  0.89397679009E+02  0.44865547367E+03  0.50400001928E-02 0.  1.
</event>
<event>
 5   0  0.3299104E-03  0.1304517E+04  0.7818609E-02  0.9025991E-01
       -2   -1    0    0    0  501  0.00000000000E+00  0.00000000000E+00  0.34927904005E+03  0.34927904006E+03  0.25500000920E-02 0. -1.
        2   -1    0    0  501    0  0.00000000000E+00  0.00000000000E+00 -0.12180549285E+04  0.12180549285E+04  0.25500000920E-02 0.  1.
    10030    2    1    2    0    0  0.00000000000E+00  0.00000000000E+00 -0.86877588843E+03  0.15673339685E+04  0.13045168549E+04 0.  0.
        2    1    3    3  502    0  0.14016780249E+03 -0.59886011099E+03 -0.69530445481E+03  0.92829345052E+03  0.25500000920E-02 0.  1.
       -2    1    3    3    0  502 -0.14016780249E+03  0.59886011099E+03 -0.17347143362E+03  0.63904051803E+03  0.25500000920E-02 0. -1.
</event>
<event>
 5   0  0.1803959E-03  0.1336979E+04  0.7818609E-02  0.9000744E-01
        1   -1    0    0  501    0  0.00000000000E+00  0.00000000000E+00  0.14287463224E+04  0.14287463224E+04  0.50400001928E-02 0. -1.
       -1   -1    0    0    0  501  0.00000000000E+00  0.00000000000E+00 -0.31277659332E+03  0.31277659336E+03  0.50400001928E-02 0.  1.
    10030    2    1    2    0    0  0.00000000000E+00  0.00000000000E+00  0.11159697290E+04  0.17415229157E+04  0.13369792930E+04 0.  0.
        4    1    3    3  502    0 -0.29003533179E+03 -0.36958166763E+03 -0.61481706687E+02  0.47380662289E+03  0.12699999809E+01 0.  1.
       -4    1    3    3    0  502  0.29003533179E+03  0.36958166763E+03  0.11774514357E+04  0.12677162928E+04  0.12699999809E+01 0. -1.
</event>
<event>
 5   0  0.3299104E-03  0.1323811E+04  0.7818609E-02  0.9010893E-01
       -2   -1    0    0    0  501  0.00000000000E+00  0.00000000000E+00  0.11293748951E+04  0.11293748951E+04  0.25500000920E-02 0.  1.
        2   -1    0    0  501    0  0.00000000000E+00  0.00000000000E+00 -0.38793031480E+03  0.38793031480E+03  0.25500000920E-02 0. -1.
    10030    2    1    2    0    0  0.00000000000E+00  0.00000000000E+00  0.74144458034E+03  0.15173052099E+04  0.13238108001E+04 0.  0.
        2    1    3    3  502    0 -0.15778069308E+03 -0.63040473281E+02  0.11039541470E+04  0.11169528223E+04  0.25500000920E-02 0.  1.
       -2    1    3    3    0  502  0.15778069308E+03  0.63040473281E+02 -0.36250956669E+03  0.40035238769E+03  0.25500000920E-02 0. -1.
</event>
<event>
 5   0  0.1857986E-03  0.1420769E+04  0.7818609E-02  0.8938921E-01
        1   -1    0    0  501    0  0.00000000000E+00  0.00000000000E+00  0.68837059129E+03  0.68837059131E+03  0.50400001928E-02 0. -1.
       -1   -1    0    0    0  501  0.00000000000E+00  0.00000000000E+00 -0.73310232168E+03  0.73310232170E+03  0.50400001928E-02 0.  1.
    10030    2    1    2    0    0  0.00000000000E+00  0.00000000000E+00 -0.44731730396E+02  0.14214729130E+04  0.14207689167E+04 0.  0.
        1    1    3    3  502    0 -0.24010998324E+03  0.66821428884E+03 -0.37910753617E+00  0.71004456452E+03  0.50400001928E-02 0.  1.
       -1    1    3    3    0  502  0.24010998324E+03 -0.66821428884E+03 -0.44352622860E+02  0.71142834849E+03  0.50400001928E-02 0. -1.
</event>
<event>
 5   0  0.1873488E-03  0.1308411E+04  0.7818609E-02  0.9022922E-01
       -1   -1    0    0    0  501  0.00000000000E+00  0.00000000000E+00  0.41150134596E+03  0.41150134599E+03  0.50400001928E-02 0. -1.
        1   -1    0    0  501    0  0.00000000000E+00  0.00000000000E+00 -0.10400566336E+04  0.10400566336E+04  0.50400001928E-02 0.  1.
    10030    2    1    2    0    0  0.00000000000E+00  0.00000000000E+00 -0.62855528764E+03  0.14515579796E+04  0.13084107989E+04 0.  0.
        3    1    3    3  502    0  0.25104032203E+03  0.41996967888E+03 -0.79605718573E+03  0.93439971512E+03  0.10100000352E+00 0.  1.
       -3    1    3    3    0  502 -0.25104032203E+03 -0.41996967888E+03  0.16750189809E+03  0.51715826449E+03  0.10100000352E+00 0. -1.
</event>
<event>
 5   0  0.3299104E-03  0.1289720E+04  0.7818609E-02  0.9037757E-01
       -2   -1    0    0    0  501  0.00000000000E+00  0.00000000000E+00  0.22907024806E+03  0.22907024808E+03  0.25500000920E-02 0.  1.
        2   -1    0    0  501    0  0.00000000000E+00  0.00000000000E+00 -0.18153575309E+04  0.18153575309E+04  0.25500000920E-02 0. -1.
    10030    2    1    2    0    0  0.00000000000E+00  0.00000000000E+00 -0.15862872829E+04  0.20444277790E+04  0.12897199695E+04 0.  0.
        2    1    3    3  502    0  0.58685203163E+03  0.21248503891E+03 -0.10502114099E+04  0.12216747539E+04  0.25500000920E-02 0.  1.
       -2    1    3    3    0  502 -0.58685203163E+03 -0.21248503891E+03 -0.53607587299E+03  0.82275302515E+03  0.25500000920E-02 0. -1.
</event>
<event>
 5   0  0.3336609E-03  0.1297214E+04  0.7818609E-02  0.9031777E-01
        2   -1    0    0  501    0  0.00000000000E+00  0.00000000000E+00  0.12468654549E+04  0.12468654549E+04  0.25500000920E-02 0. -1.
       -2   -1    0    0    0  501  0.00000000000E+00  0.00000000000E+00 -0.33739886785E+03  0.33739886786E+03  0.25500000920E-02 0.  1.
    10030    2    1    2    0    0  0.00000000000E+00  0.00000000000E+00  0.90946658706E+03  0.15842643228E+04  0.12972139266E+04 0.  0.
        1    1    3    3  502    0  0.16190440098E+03 -0.21613550283E+02 -0.31186899147E+03  0.35205461008E+03  0.50400001928E-02 0.  1.
       -1    1    3    3    0  502 -0.16190440098E+03  0.21613550283E+02  0.12213355785E+04  0.12322097127E+04  0.50400001928E-02 0. -1.
</event>
<event>
 5   0  0.3294720E-03  0.1323024E+04  0.7818609E-02  0.9011504E-01
        2   -1    0    0  501    0  0.00000000000E+00  0.00000000000E+00  0.19934246017E+04  0.19934246017E+04  0.25500000920E-02 0. -1.
       -2   -1    0    0    0  501  0.00000000000E+00  0.00000000000E+00 -0.21952072295E+03  0.21952072297E+03  0.25500000920E-02 0.  1.
    10030    2    1    2    0    0  0.00000000000E+00  0.00000000000E+00  0.17739038788E+04  0.22129453247E+04  0.13230238240E+04 0.  0.
        5    1    3    3  502    0 -0.11552107547E+03 -0.45581015101E+03  0.16651672634E+04  0.17302924948E+04  0.46999998093E+01 0. -1.
       -5    1    3    3    0  502  0.11552107547E+03  0.45581015101E+03  0.10873661539E+03  0.48265282986E+03  0.46999998093E+01 0.  1.
</event>
<event>
 5   0  0.1803959E-03  0.1455556E+04  0.7818609E-02  0.8914558E-01
       -1   -1    0    0    0  501  0.00000000000E+00  0.00000000000E+00  0.10295254404E+04  0.10295254404E+04  0.50400001928E-02 0. -1.
        1   -1    0    0  501    0  0.00000000000E+00  0.00000000000E+00 -0.51447084000E+03  0.51447084003E+03  0.50400001928E-02 0.  1.
    10030    2    1    2    0    0  0.00000000000E+00  0.00000000000E+00  0.51505460042E+03  0.15439962805E+04  0.14555560012E+04 0.  0.
        4    1    3    3  502    0 -0.63297904521E+03 -0.29173436414E+03  0.35304196823E+02  0.69786775976E+03  0.12699999809E+01 0. -1.
       -4    1    3    3    0  502  0.63297904521E+03  0.29173436414E+03  0.47975040360E+03  0.84612852071E+03  0.12699999809E+01 0.  1.
</event>
<event>
 5   0  0.1857986E-03  0.1309995E+04  0.7818609E-02  0.9021676E-01
       -1   -1    0    0    0  501  0.00000000000E+00  0.00000000000E+00  0.23753324349E+03  0.23753324354E+03  0.50400001928E-02 0. -1.
        1   -1    0    0  501    0  0.00000000000E+00  0.00000000000E+00 -0.18061547173E+04  0.18061547174E+04  0.50400001928E-02 0.  1.
    10030    2    1    2    0    0  0.00000000000E+00  0.00000000000E+00 -0.15686214739E+04  0.20436879609E+04  0.13099950967E+04 0.  0.
        1    1    3    3  502    0 -0.35486368185E+03 -0.49623469566E+03 -0.41235621852E+03  0.73635233200E+03  0.50400001928E-02 0. -1.
       -1    1    3    3    0  502  0.35486368185E+03  0.49623469566E+03 -0.11562652553E+04  0.13073356289E+04  0.50400001928E-02 0.  1.
</event>
<event>
 5   0  0.1873488E-03  0.1306827E+04  0.7818609E-02  0.9024169E-01
       -1   -1    0    0    0  501  0.00000000000E+00  0.00000000000E+00  0.54376260273E+03  0.54376260276E+03  0.50400001928E-02 0. -1.
        1   -1    0    0  501    0  0.00000000000E+00  0.00000000000E+00 -0.78517533508E+03  0.78517533510E+03  0.50400001928E-02 0.  1.
    10030    2    1    2    0    0  0.00000000000E+00  0.00000000000E+00 -0.24141273235E+03  0.13289379379E+04  0.13068266661E+04 0.  0.
        3    1    3    3  502    0  0.66795611176E+02 -0.38089325781E+03 -0.65631297296E+03  0.76176640527E+03  0.10100000352E+00 0.  1.
       -3    1    3    3    0  502 -0.66795611176E+02  0.38089325781E+03  0.41490024061E+03  0.56717153259E+03  0.10100000352E+00 0. -1.
</event>
<event>
 5   0  0.3262927E-03  0.1310190E+04  0.7818609E-02  0.9021523E-01
       -2   -1    0    0    0  501  0.00000000000E+00  0.00000000000E+00  0.38190213622E+03  0.38190213623E+03  0.25500000920E-02 0.  1.
        2   -1    0    0  501    0  0.00000000000E+00  0.00000000000E+00 -0.11237165020E+04  0.11237165020E+04  0.25500000920E-02 0. -1.
    10030    2    1    2    0    0  0.00000000000E+00  0.00000000000E+00 -0.74181436579E+03  0.15056186382E+04  0.13101904177E+04 0.  0.
        3    1    3    3  502    0 -0.16290761109E+03 -0.53964700405E+03  0.12629982811E+02  0.56384156055E+03  0.10100000352E+00 0.  1.
       -3    1    3    3    0  502  0.16290761109E+03  0.53964700405E+03 -0.75444434860E+03  0.94177707769E+03  0.10100000352E+00 0. -1.
</event>
<event>
 5   0  0.3299104E-03  0.1308458E+04  0.7818609E-02  0.9022885E-01
        2   -1    0    0  501    0  0.00000000000E+00  0.00000000000E+00  0.69981753998E+03  0.69981753998E+03  0.25500000920E-02 0. -1.
       -2   -1    0    0    0  501  0.00000000000E+00  0.00000000000E+00 -0.61161029813E+03  0.61161029814E+03  0.25500000920E-02 0.  1.
    10030    2    1    2    0    0  0.00000000000E+00  0.00000000000E+00  0.88207241845E+02  0.13114278381E+04  0.13084580456E+04 0.  0.
        2    1    3    3  502    0  0.43671871866E+03  0.48336678660E+03  0.10464705399E+03  0.65978609832E+03  0.25500000920E-02 0.  1.
       -2    1    3    3    0  502 -0.43671871866E+03 -0.48336678660E+03 -0.16439812146E+02  0.65164173980E+03  0.25500000920E-02 0. -1.
</event>
<event>
 5   0  0.1254125E-03  0.1292151E+04  0.7818609E-02  0.9035813E-01
        4   -1    0    0  501    0  0.00000000000E+00  0.00000000000E+00  0.57946019764E+03  0.57946158937E+03  0.12699999809E+01 0. -1.
       -4   -1    0    0    0  501  0.00000000000E+00  0.00000000000E+00 -0.72034621989E+03  0.72034733942E+03  0.12699999809E+01 0.  1.
    10030    2    1    2    0    0  0.00000000000E+00  0.00000000000E+00 -0.14088602225E+03  0.12998089288E+04  0.12921510671E+04 0.  0.
        3    1    3    3  502    0  0.24388011317E+03  0.13620541768E+02  0.53122425486E+03  0.58468987328E+03  0.10100000352E+00 0. -1.
       -3    1    3    3    0  502 -0.24388011317E+03 -0.13620541768E+02 -0.67211027711E+03  0.71511905551E+03  0.10100000352E+00 0.  1.
</event>
<event>
 5   0  0.1823154E-03  0.1370602E+04  0.7818609E-02  0.8975377E-01
        1   -1    0    0  501    0  0.00000000000E+00  0.00000000000E+00  0.11223147714E+04  0.11223147714E+04  0.50400001928E-02 0.  1.
       -1   -1    0    0    0  501  0.00000000000E+00  0.00000000000E+00 -0.41845443339E+03  0.41845443342E+03  0.50400001928E-02 0. -1.
    10030    2    1    2    0    0  0.00000000000E+00  0.00000000000E+00  0.70386033801E+03  0.15407692048E+04  0.13706021914E+04 0.  0.
        2    1    3    3  502    0 -0.33557374725E+03  0.46324415435E+03 -0.72328797356E+02  0.57657292801E+03  0.25500000920E-02 0. -1.
       -2    1    3    3    0  502  0.33557374725E+03 -0.46324415435E+03  0.77618913536E+03  0.96419627683E+03  0.25500000920E-02 0.  1.
</event>
<event>
 5   0  0.3259968E-03  0.1301466E+04  0.7818609E-02  0.9028403E-01
        2   -1    0    0  501    0  0.00000000000E+00  0.00000000000E+00  0.10455154585E+04  0.10455154585E+04  0.25500000920E-02 0.  1.
       -2   -1    0    0    0  501  0.00000000000E+00  0.00000000000E+00 -0.40501888309E+03  0.40501888310E+03  0.25500000920E-02 0. -1.
    10030    2    1    2    0    0  0.00000000000E+00  0.00000000000E+00  0.64049657545E+03  0.14505343416E+04  0.13014661014E+04 0.  0.
        4    1    3    3  502    0 -0.46120722559E+03 -0.73100477980E+02 -0.18486786525E+03  0.50222855885E+03  0.12699999809E+01 0. -1.
       -4    1    3    3    0  502  0.46120722559E+03  0.73100477980E+02  0.82536444070E+03  0.94830578280E+03  0.12699999809E+01 0.  1.
</event>
<event>
 5   0  0.1873488E-03  0.1293652E+04  0.7818609E-02  0.9034615E-01
       -1   -1    0    0    0  501  0.00000000000E+00  0.00000000000E+00  0.32565650528E+03  0.32565650532E+03  0.50400001928E-02 0. -1.
        1   -1    0    0  501    0  0.00000000000E+00  0.00000000000E+00 -0.12847391746E+04  0.12847391746E+04  0.50400001928E-02 0.  1.
    10030    2    1    2    0    0  0.00000000000E+00  0.00000000000E+00 -0.95908266932E+03  0.16103956799E+04  0.12936516839E+04 0.  0.
        3    1    3    3  502    0  0.20495544907E+02  0.48907456404E+03  0.46793542929E+02  0.49173533777E+03  0.10100000352E+00 0. -1.
       -3    1    3    3    0  502 -0.20495544907E+02 -0.48907456404E+03 -0.10058762123E+04  0.11186603422E+04  0.10100000352E+00 0.  1.
</event>
<event>
 5   0  0.3336609E-03  0.1313879E+04  0.7818609E-02  0.9018631E-01
        2   -1    0    0  501    0  0.00000000000E+00  0.00000000000E+00  0.11250921207E+04  0.11250921207E+04  0.25500000920E-02 0.  1.
       -2   -1    0    0    0  501  0.00000000000E+00  0.00000000000E+00 -0.38358586484E+03  0.38358586485E+03  0.25500000920E-02 0. -1.
    10030    2    1    2    0    0  0.00000000000E+00  0.00000000000E+00  0.74150625589E+03  0.15086779856E+04  0.13138788897E+04 0.  0.
        1    1    3    3  502    0 -0.50986426170E+03  0.60827081210E+02  0.84127176318E+03  0.98559610324E+03  0.50400001928E-02 0.  1.
       -1    1    3    3    0  502  0.50986426170E+03 -0.60827081210E+02 -0.99765507292E+02  0.52308188235E+03  0.50400001928E-02 0. -1.
</event>
<event>
 5   0  0.1254125E-03  0.1246026E+04  0.7818609E-02  0.9073497E-01
        4   -1    0    0  501    0  0.00000000000E+00  0.00000000000E+00  0.51622987966E+03  0.51623144185E+03  0.12699999809E+01 0. -1.
       -4   -1    0    0    0  501  0.00000000000E+00  0.00000000000E+00 -0.75188175819E+03  0.75188283077E+03  0.12699999809E+01 0.  1.
    10030    2    1    2    0    0  0.00000000000E+00  0.00000000000E+00 -0.23565187853E+03  0.12681142726E+04  0.12460264847E+04 0.  0.
        5    1    3    3  502    0 -0.19266837227E+03 -0.29936412561E+03 -0.63814548736E+03  0.73074738071E+03  0.46999998093E+01 0.  1.
       -5    1    3    3    0  502  0.19266837227E+03  0.29936412561E+03  0.40249360883E+03  0.53736689191E+03  0.46999998093E+01 0. -1.
</event>
<event>
 5   0  0.1803959E-03  0.1261516E+04  0.7818609E-02  0.9060653E-01
       -1   -1    0    0    0  501  0.00000000000E+00  0.00000000000E+00  0.84507498236E+03  0.84507498237E+03  0.50400001928E-02 0. -1.
        1   -1    0    0  501    0  0.00000000000E+00  0.00000000000E+00 -0.47079305053E+03  0.47079305056E+03  0.50400001928E-02 0.  1.
    10030    2    1    2    0    0  0.00000000000E+00  0.00000000000E+00  0.37428193182E+03  0.13158680329E+04  0.12615156422E+04 0.  0.
        4    1    3    3  502    0  0.59920009920E+03  0.46511293277E+02  0.38683047282E+03  0.71473315782E+03  0.12699999809E+01 0.  1.
       -4    1    3    3    0  502 -0.59920009920E+03 -0.46511293277E+02 -0.12548540999E+02  0.60113487511E+03  0.12699999809E+01 0. -1.
</event>
<event>
 5   0  0.3259968E-03  0.1330730E+04  0.7818609E-02  0.9005544E-01
        2   -1    0    0  501    0  0.00000000000E+00  0.00000000000E+00  0.10163953931E+04  0.10163953931E+04  0.25500000920E-02 0.  1.
       -2   -1    0    0    0  501  0.00000000000E+00  0.00000000000E+00 -0.43556954513E+03  0.43556954513E+03  0.25500000920E-02 0. -1.
    10030    2    1    2    0    0  0.00000000000E+00  0.00000000000E+00  0.58082584798E+03  0.14519649382E+04  0.13307304446E+04 0.  0.
        4    1    3    3  502    0  0.42626766701E+03  0.51076100298E+03  0.27805210850E+03  0.72103780348E+03  0.12699999809E+01 0. -1.
       -4    1    3    3    0  502 -0.42626766701E+03 -0.51076100298E+03  0.30277373948E+03  0.73092713476E+03  0.12699999809E+01 0.  1.
</event>
<event>
 5   0  0.3299104E-03  0.1320070E+04  0.7818609E-02  0.9013799E-01
        2   -1    0    0  501    0  0.00000000000E+00  0.00000000000E+00  0.15577630070E+04  0.15577630070E+04  0.25500000920E-02 0. -1.
       -2   -1    0    0    0  501  0.00000000000E+00  0.00000000000E+00 -0.27966139106E+03  0.27966139107E+03  0.25500000920E-02 0.  1.
    10030    2    1    2    0    0  0.00000000000E+00  0.00000000000E+00  0.12781016159E+04  0.18374243980E+04  0.13200699519E+04 0.  0.
        2    1    3    3  502    0 -0.45067877827E+03  0.20085245066E+03  0.12492637730E+04  0.13431727523E+04  0.25500000920E-02 0. -1.
       -2    1    3    3    0  502  0.45067877827E+03 -0.20085245066E+03  0.28837842955E+02  0.49425164573E+03  0.25500000920E-02 0.  1.
</event>
<event>
 5   0  0.1814770E-03  0.1301347E+04  0.7818609E-02  0.9028498E-01
        1   -1    0    0  501    0  0.00000000000E+00  0.00000000000E+00  0.41522271912E+03  0.41522271915E+03  0.50400001928E-02 0. -1.
       -1   -1    0    0    0  501  0.00000000000E+00  0.00000000000E+00 -0.10196353428E+04  0.10196353428E+04  0.50400001928E-02 0.  1.
    10030    2    1    2    0    0  0.00000000000E+00  0.00000000000E+00 -0.60441262370E+03  0.14348580620E+04  0.13013466250E+04 0.  0.
        5    1    3    3  502    0 -0.54920367141E+03  0.34568451029E+03 -0.25012441620E+03  0.69549030685E+03  0.46999998093E+01 0. -1.
       -5    1    3    3    0  502  0.54920367141E+03 -0.34568451029E+03 -0.35428820750E+03  0.73936775513E+03  0.46999998093E+01 0.  1.
</event>
<event>
 5   0  0.3294720E-03  0.1267197E+04  0.7818609E-02  0.9055991E-01
        2   -1    0    0  501    0  0.00000000000E+00  0.00000000000E+00  0.41148344175E+03  0.41148344176E+03  0.25500000920E-02 0.  1.
       -2   -1    0    0    0  501  0.00000000000E+00  0.00000000000E+00 -0.97560919583E+03  0.97560919584E+03  0.25500000920E-02 0. -1.
    10030    2    1    2    0    0  0.00000000000E+00  0.00000000000E+00 -0.56412575408E+03  0.13870926376E+04  0.12671969535E+04 0.  0.
        5    1    3    3  502    0  0.13668890518E+03  0.31220602569E+03 -0.86670249358E+03  0.93131721860E+03  0.46999998093E+01 0. -1.
       -5    1    3    3    0  502 -0.13668890518E+03 -0.31220602569E+03  0.30257673950E+03  0.45577541900E+03  0.46999998093E+01 0.  1.
</event>
<event>
 5   0  0.3299104E-03  0.1267828E+04  0.7818609E-02  0.9055474E-01
        2   -1    0    0  501    0  0.00000000000E+00  0.00000000000E+00  0.26841344323E+03  0.26841344324E+03  0.25500000920E-02 0.  1.
       -2   -1    0    0    0  501  0.00000000000E+00  0.00000000000E+00 -0.14971204466E+04  0.14971204466E+04  0.25500000920E-02 0. -1.
    10030    2    1    2    0    0  0.00000000000E+00  0.00000000000E+00 -0.12287070034E+04  0.17655338899E+04  0.12678284648E+04 0.  0.
        2    1    3    3  502    0  0.34420636109E+03 -0.47905308768E+03 -0.93758879252E+03  0.11077195600E+04  0.25500000920E-02 0. -1.
       -2    1    3    3    0  502 -0.34420636109E+03  0.47905308768E+03 -0.29111821090E+03  0.65781432985E+03  0.25500000920E-02 0.  1.
</event>
<event>
 5   0  0.1254125E-03  0.1287858E+04  0.7818609E-02  0.9039250E-01
       -4   -1    0    0    0  501  0.00000000000E+00  0.00000000000E+00  0.47512046448E+03  0.47512216184E+03  0.12699999809E+01 0.  1.
        4   -1    0    0  501    0  0.00000000000E+00  0.00000000000E+00 -0.87271107498E+03  0.87271199905E+03  0.12699999809E+01 0. -1.
    10030    2    1    2    0    0  0.00000000000E+00  0.00000000000E+00 -0.39759061049E+03  0.13478341609E+04  0.12878581567E+04 0.  0.
        2    1    3    3  502    0 -0.20927645661E+03 -0.46019012790E+03 -0.61620906022E+03  0.79704779970E+03  0.25500000920E-02 0. -1.
       -2    1    3    3    0  502  0.20927645661E+03  0.46019012790E+03  0.21861844973E+03  0.55078636119E+03  0.25500000920E-02 0.  1.
</event>
<event>
 5   0  0.1873488E-03  0.9623942E+03  0.7818609E-02  0.9350780E-01
       -1   -1    0    0    0  501  0.00000000000E+00  0.00000000000E+00  0.50448804445E+03  0.50448804448E+03  0.50400001928E-02 0.  1.
        1   -1    0    0  501    0  0.00000000000E+00  0.00000000000E+00 -0.45898148720E+03  0.45898148723E+03  0.50400001928E-02 0. -1.
    10030    2    1    2    0    0  0.00000000000E+00  0.00000000000E+00  0.45506557251E+02  0.96346953170E+03  0.96239424965E+03 0.  0.
        3    1    3    3  502    0 -0.13295324523E+03  0.51078648818E+02  0.48290262955E+03  0.50346852296E+03  0.10100000352E+00 0.  1.
       -3    1    3    3    0  502  0.13295324523E+03 -0.51078648818E+02 -0.43739607230E+03  0.46000100874E+03  0.10100000352E+00 0. -1.
</event>
<event>
 5   0  0.3336609E-03  0.1326249E+04  0.7818609E-02  0.9009005E-01
       -2   -1    0    0    0  501  0.00000000000E+00  0.00000000000E+00  0.31968657912E+03  0.31968657913E+03  0.25500000920E-02 0.  1.
        2   -1    0    0  501    0  0.00000000000E+00  0.00000000000E+00 -0.13755155131E+04  0.13755155131E+04  0.25500000920E-02 0. -1.
    10030    2    1    2    0    0  0.00000000000E+00  0.00000000000E+00 -0.10558289340E+04  0.16952020922E+04  0.13262486176E+04 0.  0.
        1    1    3    3  502    0  0.51412137679E+01 -0.14275261824E+03 -0.13556165345E+04  0.13631217593E+04  0.50400001928E-02 0. -1.
       -1    1    3    3    0  502 -0.51412137679E+01  0.14275261824E+03  0.29978760050E+03  0.33208033295E+03  0.50400001928E-02 0.  1.
</event>
<event>
 5   0  0.1873488E-03  0.1603043E+04  0.7818609E-02  0.8818681E-01
       -1   -1    0    0    0  501  0.00000000000E+00  0.00000000000E+00  0.55482453175E+03  0.55482453177E+03  0.50400001928E-02 0. -1.
        1   -1    0    0  501    0  0.00000000000E+00  0.00000000000E+00 -0.11579093128E+04  0.11579093128E+04  0.50400001928E-02 0.  1.
    10030    2    1    2    0    0  0.00000000000E+00  0.00000000000E+00 -0.60308478106E+03  0.17127338446E+04  0.16030427222E+04 0.  0.
        3    1    3    3  502    0 -0.45231698182E+03  0.52600073885E+02 -0.10062823139E+04  0.11045186849E+04  0.10100000352E+00 0.  1.
       -3    1    3    3    0  502  0.45231698182E+03 -0.52600073885E+02  0.40319753283E+03  0.60821515970E+03  0.10100000352E+00 0. -1.
</event>
<event>
 5   0  0.3299104E-03  0.1336637E+04  0.7818609E-02  0.9001006E-01
        2   -1    0    0  501    0  0.00000000000E+00  0.00000000000E+00  0.72769571278E+03  0.72769571278E+03  0.25500000920E-02 0.  1.
       -2   -1    0    0    0  501  0.00000000000E+00  0.00000000000E+00 -0.61378615047E+03  0.61378615047E+03  0.25500000920E-02 0. -1.
    10030    2    1    2    0    0  0.00000000000E+00  0.00000000000E+00  0.11390956231E+03  0.13414818633E+04  0.13366368995E+04 0.  0.
        2    1    3    3  502    0 -0.42011242500E+03  0.29579095246E+03 -0.37198510289E+03  0.63431825922E+03  0.25500000920E-02 0. -1.
       -2    1    3    3    0  502  0.42011242500E+03 -0.29579095246E+03  0.48589466520E+03  0.70716360404E+03  0.25500000920E-02 0.  1.
</event>
<event>
 5   0  0.3262927E-03  0.1293010E+04  0.7818609E-02  0.9035127E-01
        2   -1    0    0  501    0  0.00000000000E+00  0.00000000000E+00  0.18809832316E+04  0.18809832316E+04  0.25500000920E-02 0. -1.
       -2   -1    0    0    0  501  0.00000000000E+00  0.00000000000E+00 -0.22220740768E+03  0.22220740770E+03  0.25500000920E-02 0.  1.
    10030    2    1    2    0    0  0.00000000000E+00  0.00000000000E+00  0.16587758240E+04  0.21031906393E+04  0.12930095248E+04 0.  0.
        3    1    3    3  502    0  0.29294830284E+03 -0.29121191299E+03  0.16383510958E+04  0.16896204928E+04  0.10100000352E+00 0. -1.
       -3    1    3    3    0  502 -0.29294830284E+03  0.29121191299E+03  0.20424728186E+02  0.41357014656E+03  0.10100000352E+00 0.  1.
</event>
<event>
 5   0  0.3336609E-03  0.1267755E+04  0.7818609E-02  0.9055534E-01
       -2   -1    0    0    0  501  0.00000000000E+00  0.00000000000E+00  0.29152346371E+03  0.29152346372E+03  0.25500000920E-02 0. -1.
        2   -1    0    0  501    0  0.00000000000E+00  0.00000000000E+00 -0.13782784574E+04  0.13782784574E+04  0.25500000920E-02 0.  1.
    10030    2    1    2    0    0  0.00000000000E+00  0.00000000000E+00 -0.10867549937E+04  0.16698019211E+04  0.12677547237E+04 0.  0.
        1    1    3    3  502    0  0.27578582068E+03 -0.41853976040E+03 -0.10544645131E+04  0.11675310529E+04  0.50400001928E-02 0.  1.
       -1    1    3    3    0  502 -0.27578582068E+03  0.41853976040E+03 -0.32290480532E+02  0.50227086824E+03  0.50400001928E-02 0. -1.
</event>
<event>
 5   0  0.3294720E-03  0.1224009E+04  0.7818609E-02  0.9092097E-01
        2   -1    0    0  501    0  0.00000000000E+00  0.00000000000E+00  0.83296541416E+03  0.83296541416E+03  0.25500000920E-02 0. -1.
       -2   -1    0    0    0  501  0.00000000000E+00  0.00000000000E+00 -0.44965784132E+03  0.44965784133E+03  0.25500000920E-02 0.  1.
    10030    2    1    2    0    0  0.00000000000E+00  0.00000000000E+00  0.38330757283E+03  0.12826232555E+04  0.12240088726E+04 0.  0.
        5    1    3    3  502    0  0.42186566314E+03  0.30468381248E+03  0.52913932687E+03  0.74216802718E+03  0.46999998093E+01 0. -1.
       -5    1    3    3    0  502 -0.42186566314E+03 -0.30468381248E+03 -0.14583175403E+03  0.54045522831E+03  0.46999998093E+01 0.  1.
</event>
<event>
 5   0  0.1803959E-03  0.1252395E+04  0.7818609E-02  0.9068192E-01
       -1   -1    0    0    0  501  0.00000000000E+00  0.00000000000E+00  0.21572592984E+03  0.21572592990E+03  0.50400001928E-02 0.  1.
        1   -1    0    0  501    0  0.00000000000E+00  0.00000000000E+00 -0.18176913555E+04  0.18176913555E+04  0.50400001928E-02 0. -1.
    10030    2    1    2    0    0  0.00000000000E+00  0.00000000000E+00 -0.16019654256E+04  0.20334172854E+04  0.12523947587E+04 0.  0.
        4    1    3    3  502    0  0.81168789090E+02  0.43199811159E+03 -0.76856187531E+02  0.44622777503E+03  0.12699999809E+01 0.  1.
       -4    1    3    3    0  502 -0.81168789090E+02 -0.43199811159E+03 -0.15251092381E+04  0.15871895104E+04  0.12699999809E+01 0. -1.
</event>
<event>
 5   0  0.1814770E-03  0.1231480E+04  0.7818609E-02  0.9085740E-01
       -1   -1    0    0    0  501  0.00000000000E+00  0.00000000000E+00  0.69091848060E+03  0.69091848062E+03  0.50400001928E-02 0. -1.
        1   -1    0    0  501    0  0.00000000000E+00  0.00000000000E+00 -0.54874183125E+03  0.54874183128E+03  0.50400001928E-02 0.  1.
    10030    2    1    2    0    0  0.00000000000E+00  0.00000000000E+00  0.14217664935E+03  0.12396603119E+04  0.12314802025E+04 0.  0.
        5    1    3    3  502    0 -0.48704522419E+03 -0.56761743462E+02  0.44595804085E+03  0.66282396617E+03  0.46999998093E+01 0. -1.
       -5    1    3    3    0  502  0.48704522419E+03  0.56761743462E+02 -0.30378139151E+03  0.57683634573E+03  0.46999998093E+01 0.  1.
</event>
<event>
 5   0  0.1254125E-03  0.1298501E+04  0.7818609E-02  0.9030755E-01
       -3   -1    0    0    0  501  0.00000000000E+00  0.00000000000E+00  0.11754337097E+04  0.11754337140E+04  0.10100000352E+00 0. -1.
        3   -1    0    0  501    0  0.00000000000E+00  0.00000000000E+00 -0.35861339983E+03  0.35861341405E+03  0.10100000352E+00 0.  1.
    10030    2    1    2    0    0  0.00000000000E+00  0.00000000000E+00  0.81682030988E+03  0.15340471281E+04  0.12985011254E+04 0.  0.
        5    1    3    3  502    0  0.26958754174E+03 -0.55895006952E+03  0.18300881652E+03  0.64700613582E+03  0.46999998093E+01 0.  1.
       -5    1    3    3    0  502 -0.26958754174E+03  0.55895006952E+03  0.63381149336E+03  0.88704099228E+03  0.46999998093E+01 0. -1.
</event>
<event>
 5   0  0.3259968E-03  0.1148569E+04  0.7818609E-02  0.9159105E-01
       -2   -1    0    0    0  501  0.00000000000E+00  0.00000000000E+00  0.37782246566E+03  0.37782246566E+03  0.25500000920E-02 0. -1.
        2   -1    0    0  501    0  0.00000000000E+00  0.00000000000E+00 -0.87290317094E+03  0.87290317094E+03  0.25500000920E-02 0.  1.
    10030    2    1    2    0    0  0.00000000000E+00  0.00000000000E+00 -0.49508070528E+03  0.12507256366E+04  0.11485685497E+04 0.  0.
        4    1    3    3  502    0 -0.51519091843E+02 -0.46622818189E+03  0.11325634471E+03  0.48254693754E+03  0.12699999809E+01 0.  1.
       -4    1    3    3    0  502  0.51519091843E+02  0.46622818189E+03 -0.60833705000E+03  0.76817869907E+03  0.12699999809E+01 0. -1.
</event>
<event>
 5   0  0.1803959E-03  0.1320792E+04  0.7818609E-02  0.9013237E-01
        1   -1    0    0  501    0  0.00000000000E+00  0.00000000000E+00  0.41129146015E+03  0.41129146018E+03  0.50400001928E-02 0. -1.
       -1   -1    0    0    0  501  0.00000000000E+00  0.00000000000E+00 -0.10603745988E+04  0.10603745988E+04  0.50400001928E-02 0.  1.
    10030    2    1    2    0    0  0.00000000000E+00  0.00000000000E+00 -0.64908313862E+03  0.14716660590E+04  0.13207922124E+04 0.  0.
        4    1    3    3  502    0  0.43185014241E+03 -0.37708995566E+03  0.40664184021E+02  0.57475783503E+03  0.12699999809E+01 0. -1.
       -4    1    3    3    0  502 -0.43185014241E+03  0.37708995566E+03 -0.68974732264E+03  0.89690822393E+03  0.12699999809E+01 0.  1.
</event>
<event>
 5   0  0.1254125E-03  0.1316156E+04  0.7818609E-02  0.9016851E-01
        3   -1    0    0  501    0  0.00000000000E+00  0.00000000000E+00  0.82573962686E+03  0.82573963303E+03  0.10100000352E+00 0. -1.
       -3   -1    0    0    0  501  0.00000000000E+00  0.00000000000E+00 -0.52445877105E+03  0.52445878078E+03  0.10100000352E+00 0.  1.
    10030    2    1    2    0    0  0.00000000000E+00  0.00000000000E+00  0.30128085580E+03  0.13501984138E+04  0.13161556149E+04 0.  0.
        5    1    3    3  502    0 -0.22506350965E+03  0.48541294063E+03 -0.24236776900E+03  0.58740406174E+03  0.46999998093E+01 0.  1.
       -5    1    3    3    0  502  0.22506350965E+03 -0.48541294063E+03  0.54364862480E+03  0.76279435207E+03  0.46999998093E+01 0. -1.
</event>
<event>
 5   0  0.1857986E-03  0.1321000E+04  0.7818609E-02  0.9013075E-01
        1   -1    0    0  501    0  0.00000000000E+00  0.00000000000E+00  0.59410371060E+03  0.59410371062E+03  0.50400001928E-02 0.  1.
       -1   -1    0    0    0  501  0.00000000000E+00  0.00000000000E+00 -0.73431708210E+03  0.73431708212E+03  0.50400001928E-02 0. -1.
    10030    2    1    2    0    0  0.00000000000E+00  0.00000000000E+00 -0.14021337150E+03  0.13284207927E+04  0.13210003834E+04 0.  0.
        1    1    3    3  502    0 -0.22338927505E+03  0.48420306688E+03  0.32183272401E+03  0.62284161746E+03  0.50400001928E-02 0.  1.
       -1    1    3    3    0  502  0.22338927505E+03 -0.48420306688E+03 -0.46204609551E+03  0.70557917528E+03  0.50400001928E-02 0. -1.
</event>
<event>
 5   0  0.3336609E-03  0.1227384E+04  0.7818609E-02  0.9089219E-01
        2   -1    0    0  501    0  0.00000000000E+00  0.00000000000E+00  0.82518543731E+03  0.82518543731E+03  0.25500000920E-02 0. -1.
       -2   -1    0    0    0  501  0.00000000000E+00  0.00000000000E+00 -0.45640411953E+03  0.45640411953E+03  0.25500000920E-02 0.  1.
    10030    2    1    2    0    0  0.00000000000E+00  0.00000000000E+00  0.36878131778E+03  0.12815895568E+04  0.12273842641E+04 0.  0.
        1    1    3    3  502    0  0.61932560636E+02 -0.51264854309E+03 -0.16187797009E+03  0.54115492054E+03  0.50400001928E-02 0.  1.
       -1    1    3    3    0  502 -0.61932560636E+02  0.51264854309E+03  0.53065928788E+03  0.74043463630E+03  0.50400001928E-02 0. -1.
</event>
<event>
 5   0  0.1814770E-03  0.1307984E+04  0.7818609E-02  0.9023258E-01
        1   -1    0    0  501    0  0.00000000000E+00  0.00000000000E+00  0.12982794378E+04  0.12982794379E+04  0.50400001928E-02 0. -1.
       -1   -1    0    0    0  501  0.00000000000E+00  0.00000000000E+00 -0.32944015555E+03  0.32944015559E+03  0.50400001928E-02 0.  1.
    10030    2    1    2    0    0  0.00000000000E+00  0.00000000000E+00  0.96883928230E+03  0.16277195934E+04  0.13079837613E+04 0.  0.
        5    1    3    3  502    0 -0.15601043871E+03 -0.49193023626E+03  0.98429294276E+03  0.11113907060E+04  0.46999998093E+01 0. -1.
       -5    1    3    3    0  502  0.15601043871E+03  0.49193023626E+03 -0.15453660461E+02  0.51632888739E+03  0.46999998093E+01 0.  1.
</event>
<event>
 5   0  0.3259968E-03  0.1293529E+04  0.7818609E-02  0.9034713E-01
       -2   -1    0    0    0  501  0.00000000000E+00  0.00000000000E+00  0.83439715858E+03  0.83439715859E+03  0.25500000920E-02 0. -1.
        2   -1    0    0  501    0  0.00000000000E+00  0.00000000000E+00 -0.50132489492E+03  0.50132489492E+03  0.25500000920E-02 0.  1.
    10030    2    1    2    0    0  0.00000000000E+00  0.00000000000E+00  0.33307226367E+03  0.13357220535E+04  0.12935286125E+04 0.  0.
        4    1    3    3  502    0 -0.28715744688E+03 -0.56234080759E+03  0.31116129562E+03  0.70392439080E+03  0.12699999809E+01 0. -1.
       -4    1    3    3    0  502  0.28715744688E+03  0.56234080759E+03  0.21910968050E+02  0.63179766271E+03  0.12699999809E+01 0.  1.
</event>
<event>
 5   0  0.3336609E-03  0.1266700E+04  0.7818609E-02  0.9056397E-01
        2   -1    0    0  501    0  0.00000000000E+00  0.00000000000E+00  0.80993247083E+03  0.80993247083E+03  0.25500000920E-02 0.  1.
       -2   -1    0    0    0  501  0.00000000000E+00  0.00000000000E+00 -0.49526644521E+03  0.49526644522E+03  0.25500000920E-02 0. -1.
    10030    2    1    2    0    0  0.00000000000E+00  0.00000000000E+00  0.31466602561E+03  0.13051989160E+04  0.12667002419E+04 0.  0.
        1    1    3    3  502    0  0.24130714541E+03  0.43898916867E+03 -0.24199142185E+03  0.55632767045E+03  0.50400001928E-02 0. -1.
       -1    1    3    3    0  502 -0.24130714541E+03 -0.43898916867E+03  0.55665744747E+03  0.74887124560E+03  0.50400001928E-02 0.  1.
</event>
<event>
 5   0  0.3262927E-03  0.1292953E+04  0.7818609E-02  0.9035172E-01
       -2   -1    0    0    0  501  0.00000000000E+00  0.00000000000E+00  0.20159848636E+03  0.20159848637E+03  0.25500000920E-02 0. -1.
        2   -1    0    0  501    0  0.00000000000E+00  0.00000000000E+00 -0.20730911963E+04  0.20730911963E+04  0.25500000920E-02 0.  1.
    10030    2    1    2    0    0  0.00000000000E+00  0.00000000000E+00 -0.18714927100E+04  0.22746896827E+04  0.12929532819E+04 0.  0.
        3    1    3    3  502    0  0.16947482055E+03 -0.24138063340E+03  0.76340313403E+02  0.30465419517E+03  0.10100000352E+00 0. -1.
       -3    1    3    3    0  502 -0.16947482055E+03  0.24138063340E+03 -0.19478330234E+04  0.19700354875E+04  0.10100000352E+00 0.  1.
</event>
<event>
 5   0  0.3299104E-03  0.1344225E+04  0.7818609E-02  0.8995211E-01
        2   -1    0    0  501    0  0.00000000000E+00  0.00000000000E+00  0.74475283710E+03  0.74475283711E+03  0.25500000920E-02 0.  1.
       -2   -1    0    0    0  501  0.00000000000E+00  0.00000000000E+00 -0.60655729261E+03  0.60655729262E+03  0.25500000920E-02 0. -1.
    10030    2    1    2    0    0  0.00000000000E+00  0.00000000000E+00  0.13819554449E+03  0.13513101297E+04  0.13442250772E+04 0.  0.
        2    1    3    3  502    0 -0.65009025685E+03 -0.16779323393E+03  0.10029929555E+03  0.67884597671E+03  0.25500000920E-02 0. -1.
       -2    1    3    3    0  502  0.65009025685E+03  0.16779323393E+03  0.37896248940E+02  0.67246415301E+03  0.25500000920E-02 0.  1.
</event>
<event>
 5   0  0.3336609E-03  0.1276442E+04  0.7818609E-02  0.9048458E-01
       -2   -1    0    0    0  501  0.00000000000E+00  0.00000000000E+00  0.58860686742E+03  0.58860686743E+03  0.25500000920E-02 0.  1.
        2   -1    0    0  501    0  0.00000000000E+00  0.00000000000E+00 -0.69201713092E+03  0.69201713093E+03  0.25500000920E-02 0. -1.
    10030    2    1    2    0    0  0.00000000000E+00  0.00000000000E+00 -0.10341026350E+03  0.12806239984E+04  0.12764419856E+04 0.  0.
        1    1    3    3  502    0 -0.40676230903E+03 -0.32286802912E+03  0.32049103508E+03  0.61025719485E+03  0.50400001928E-02 0.  1.
       -1    1    3    3    0  502  0.40676230903E+03  0.32286802912E+03 -0.42390129858E+03  0.67036680351E+03  0.50400001928E-02 0. -1.
</event>
<event>
 5   0  0.3294720E-03  0.1309026E+04  0.7818609E-02  0.9022438E-01
        2   -1    0    0  501    0  0.00000000000E+00  0.00000000000E+00  0.51060755476E+03  0.51060755477E+03  0.25500000920E-02 0.  1.
       -2   -1    0    0    0  501  0.00000000000E+00  0.00000000000E+00 -0.83897539761E+03  0.83897539761E+03  0.25500000920E-02 0. -1.
    10030    2    1    2    0    0  0.00000000000E+00  0.00000000000E+00 -0.32836784285E+03  0.13495829524E+04  0.13090258611E+04 0.  0.
        5    1    3    3  502    0 -0.40636279008E+03 -0.13462589559E+03 -0.67460909179E+03  0.79898333252E+03  0.46999998093E+01 0. -1.
       -5    1    3    3    0  502  0.40636279008E+03  0.13462589559E+03  0.34624124894E+03  0.55059961986E+03  0.46999998093E+01 0.  1.
</event>
<event>
 5   0  0.3299104E-03  0.1287818E+04  0.7818609E-02  0.9039282E-01
        2   -1    0    0  501    0  0.00000000000E+00  0.00000000000E+00  0.76127070800E+03  0.76127070800E+03  0.25500000920E-02 0.  1.
       -2   -1    0    0    0  501  0.00000000000E+00  0.00000000000E+00 -0.54464065920E+03  0.54464065920E+03  0.25500000920E-02 0. -1.
    10030    2    1    2    0    0  0.00000000000E+00  0.00000000000E+00  0.21663004880E+03  0.13059113672E+04  0.12878182795E+04 0.  0.
        2    1    3    3  502    0  0.30540226959E+03  0.56299306102E+03  0.41148145183E+02  0.64181376028E+03  0.25500000920E-02 0. -1.
       -2    1    3    3    0  502 -0.30540226959E+03 -0.56299306102E+03  0.17548190362E+03  0.66409760693E+03  0.25500000920E-02 0.  1.
</event>
<event>
 5   0  0.1873488E-03  0.1305124E+04  0.7818609E-02  0.9025512E-01
        1   -1    0    0  501    0  0.00000000000E+00  0.00000000000E+00  0.20469625444E+04  0.20469625444E+04  0.50400001928E-02 0. -1.
       -1   -1    0    0    0  501  0.00000000000E+00  0.00000000000E+00 -0.20803368820E+03  0.20803368826E+03  0.50400001928E-02 0.  1.
    10030    2    1    2    0    0  0.00000000000E+00  0.00000000000E+00  0.18389288562E+04  0.22549962327E+04  0.13051240061E+04 0.  0.
        3    1    3    3  502    0 -0.60799455053E+03  0.17737169347E+03  0.64781419915E+03  0.90596983279E+03  0.10100000352E+00 0.  1.
       -3    1    3    3    0  502  0.60799455053E+03 -0.17737169347E+03  0.11911146570E+04  0.13490263999E+04  0.10100000352E+00 0. -1.
</event>
<event>
 5   0  0.1857986E-03  0.1292729E+04  0.7818609E-02  0.9035351E-01
       -1   -1    0    0    0  501  0.00000000000E+00  0.00000000000E+00  0.26375845071E+03  0.26375845076E+03  0.50400001928E-02 0.  1.
        1   -1    0    0  501    0  0.00000000000E+00  0.00000000000E+00 -0.15839750871E+04  0.15839750871E+04  0.50400001928E-02 0. -1.
    10030    2    1    2    0    0  0.00000000000E+00  0.00000000000E+00 -0.13202166364E+04  0.18477335379E+04  0.12927286103E+04 0.  0.
        1    1    3    3  502    0 -0.37083992920E+03 -0.51405355360E+03 -0.47923471380E+03  0.79463149950E+03  0.50400001928E-02 0.  1.
       -1    1    3    3    0  502  0.37083992920E+03  0.51405355360E+03 -0.84098192260E+03  0.10531020384E+04  0.50400001928E-02 0. -1.
</event>
<event>
 5   0  0.3299104E-03  0.1286679E+04  0.7818609E-02  0.9040196E-01
        2   -1    0    0  501    0  0.00000000000E+00  0.00000000000E+00  0.11653719206E+04  0.11653719206E+04  0.25500000920E-02 0.  1.
       -2   -1    0    0    0  501  0.00000000000E+00  0.00000000000E+00 -0.35515331061E+03  0.35515331062E+03  0.25500000920E-02 0. -1.
    10030    2    1    2    0    0  0.00000000000E+00  0.00000000000E+00  0.81021861001E+03  0.15205252312E+04  0.12866789743E+04 0.  0.
        2    1    3    3  502    0  0.48816261127E+03  0.39199079789E+03  0.23012267586E+03  0.66702021456E+03  0.25500000920E-02 0. -1.
       -2    1    3    3    0  502 -0.48816261127E+03 -0.39199079789E+03  0.58009593415E+03  0.85350501668E+03  0.25500000920E-02 0.  1.
</event>
<event>
 5   0  0.3294720E-03  0.1302432E+04  0.7818609E-02  0.9027638E-01
       -2   -1    0    0    0  501  0.00000000000E+00  0.00000000000E+00  0.75828146221E+03  0.75828146222E+03  0.25500000920E-02 0.  1.
        2   -1    0    0  501    0  0.00000000000E+00  0.00000000000E+00 -0.55926795894E+03  0.55926795895E+03  0.25500000920E-02 0. -1.
    10030    2    1    2    0    0  0.00000000000E+00  0.00000000000E+00  0.19901350327E+03  0.13175494212E+04  0.13024323793E+04 0.  0.
        5    1    3    3  502    0  0.75404136275E+02 -0.73644526187E+02 -0.55056465259E+03  0.56058257794E+03  0.46999998093E+01 0. -1.
       -5    1    3    3    0  502 -0.75404136275E+02  0.73644526187E+02  0.74957815586E+03  0.75696684323E+03  0.46999998093E+01 0.  1.
</event>
<event>
 5   0  0.3294720E-03  0.1294061E+04  0.7818609E-02  0.9034288E-01
       -2   -1    0    0    0  501  0.00000000000E+00  0.00000000000E+00  0.13442765905E+04  0.13442765905E+04  0.25500000920E-02 0. -1.
        2   -1    0    0  501    0  0.00000000000E+00  0.00000000000E+00 -0.31143033233E+03  0.31143033234E+03  0.25500000920E-02 0.  1.
    10030    2    1    2    0    0  0.00000000000E+00  0.00000000000E+00  0.10328462581E+04  0.16557069228E+04  0.12940610578E+04 0.  0.
        5    1    3    3  502    0 -0.22058629558E+03  0.24767771784E+03 -0.19437035603E+03  0.38445349655E+03  0.46999998093E+01 0.  1.
       -5    1    3    3    0  502  0.22058629558E+03 -0.24767771784E+03  0.12272166142E+04  0.12712534263E+04  0.46999998093E+01 0. -1.
</event>
<event>
 5   0  0.1803959E-03  0.1163318E+04  0.7818609E-02  0.9145584E-01
       -1   -1    0    0    0  501  0.00000000000E+00  0.00000000000E+00  0.35013129089E+03  0.35013129093E+03  0.50400001928E-02 0.  1.
        1   -1    0    0  501    0  0.00000000000E+00  0.00000000000E+00 -0.96628680166E+03  0.96628680167E+03  0.50400001928E-02 0. -1.
    10030    2    1    2    0    0  0.00000000000E+00  0.00000000000E+00 -0.61615551077E+03  0.13164180926E+04  0.11633180911E+04 0.  0.
        4    1    3    3  502    0 -0.36481593130E+03 -0.33689346322E+03  0.34665907433E+02  0.49778630689E+03  0.12699999809E+01 0.  1.
       -4    1    3    3    0  502  0.36481593130E+03  0.33689346322E+03 -0.65082141820E+03  0.81863178571E+03  0.12699999809E+01 0. -1.
</event>
<event>
 5   0  0.1814770E-03  0.1235710E+04  0.7818609E-02  0.9082161E-01
        1   -1    0    0  501    0  0.00000000000E+00  0.00000000000E+00  0.14666248599E+04  0.14666248599E+04  0.50400001928E-02 0. -1.
       -1   -1    0    0    0  501  0.00000000000E+00  0.00000000000E+00 -0.26028797567E+03  0.26028797572E+03  0.50400001928E-02 0.  1.
    10030    2    1    2    0    0  0.00000000000E+00  0.00000000000E+00  0.12063368843E+04  0.17269128357E+04  0.12357100241E+04 0.  0.
        5    1    3    3  502    0  0.26124021707E+03 -0.46054975882E+02 -0.17662920294E+03  0.31872790457E+03  0.46999998093E+01 0.  1.
       -5    1    3    3    0  502 -0.26124021707E+03  0.46054975882E+02  0.13829660872E+04  0.14081849311E+04  0.46999998093E+01 0. -1.
</event>
<event>
 5   0  0.3336609E-03  0.1319381E+04  0.7818609E-02  0.9014336E-01
       -2   -1    0    0    0  501  0.00000000000E+00  0.00000000000E+00  0.43370831988E+03  0.43370831989E+03  0.25500000920E-02 0.  1.
        2   -1    0    0  501    0  0.00000000000E+00  0.00000000000E+00 -0.10034195149E+04  0.10034195149E+04  0.25500000920E-02 0. -1.
    10030    2    1    2    0    0  0.00000000000E+00  0.00000000000E+00 -0.56971119505E+03  0.14371278348E+04  0.13193807517E+04 0.  0.
        1    1    3    3  502    0  0.23377207331E+03  0.29154302955E+03 -0.87701253825E+03  0.95330882331E+03  0.50400001928E-02 0. -1.
       -1    1    3    3    0  502 -0.23377207331E+03 -0.29154302955E+03  0.30730134320E+03  0.48381901151E+03  0.50400001928E-02 0.  1.
</event>
<event>
 5   0  0.3259968E-03  0.1327287E+04  0.7818609E-02  0.9008202E-01
        2   -1    0    0  501    0  0.00000000000E+00  0.00000000000E+00  0.37643564644E+03  0.37643564645E+03  0.25500000920E-02 0.  1.
       -2   -1    0    0    0  501  0.00000000000E+00  0.00000000000E+00 -0.11699807165E+04  0.11699807165E+04  0.25500000920E-02 0. -1.
    10030    2    1    2    0    0  0.00000000000E+00  0.00000000000E+00 -0.79354507006E+03  0.15464163630E+04  0.13272866267E+04 0.  0.
        4    1    3    3  502    0  0.33104608911E+03 -0.25339305225E+03  0.20482926121E+03  0.46449563097E+03  0.12699999809E+01 0.  1.
       -4    1    3    3    0  502 -0.33104608911E+03  0.25339305225E+03 -0.99837433127E+03  0.10819207320E+04  0.12699999809E+01 0. -1.
</event>
<event>
 5   0  0.3299104E-03  0.1336720E+04  0.7818609E-02  0.9000942E-01
        2   -1    0    0  501    0  0.00000000000E+00  0.00000000000E+00  0.32446072555E+03  0.32446072556E+03  0.25500000920E-02 0.  1.
       -2   -1    0    0    0  501  0.00000000000E+00  0.00000000000E+00 -0.13767619807E+04  0.13767619807E+04  0.25500000920E-02 0. -1.
    10030    2    1    2    0    0  0.00000000000E+00  0.00000000000E+00 -0.10523012552E+04  0.17012227063E+04  0.13367201520E+04 0.  0.
        2    1    3    3  502    0 -0.71325190935E+02  0.17340901732E+03 -0.13426023545E+04  0.13556323441E+04  0.25500000920E-02 0. -1.
       -2    1    3    3    0  502  0.71325190935E+02 -0.17340901732E+03  0.29030109932E+03  0.34559036216E+03  0.25500000920E-02 0.  1.
</event>
<event>
 5   0  0.3299104E-03  0.1283114E+04  0.7818609E-02  0.9043064E-01
        2   -1    0    0  501    0  0.00000000000E+00  0.00000000000E+00  0.38899136711E+03  0.38899136712E+03  0.25500000920E-02 0. -1.
       -2   -1    0    0    0  501  0.00000000000E+00  0.00000000000E+00 -0.10581092977E+04  0.10581092977E+04  0.25500000920E-02 0.  1.
    10030    2    1    2    0    0  0.00000000000E+00  0.00000000000E+00 -0.66911793054E+03  0.14471006648E+04  0.12831139969E+04 0.  0.
        2    1    3    3  502    0  0.41842231542E+03  0.44361399896E+03 -0.10977559111E+03  0.61961382694E+03  0.25500000920E-02 0. -1.
       -2    1    3    3    0  502 -0.41842231542E+03 -0.44361399896E+03 -0.55934233943E+03  0.82748683784E+03  0.25500000920E-02 0.  1.
</event>
<event>
 5   0  0.1254125E-03  0.1280679E+04  0.7818609E-02  0.9045028E-01
        4   -1    0    0  501    0  0.00000000000E+00  0.00000000000E+00  0.59857424076E+03  0.59857558804E+03  0.12699999809E+01 0.  1.
       -4   -1    0    0    0  501  0.00000000000E+00  0.00000000000E+00 -0.68501667455E+03  0.68501785182E+03  0.12699999809E+01 0. -1.
    10030    2    1    2    0    0  0.00000000000E+00  0.00000000000E+00 -0.86442433793E+02  0.12835934399E+04  0.12806794386E+04 0.  0.
        3    1    3    3  502    0  0.80782074700E+02 -0.30846043381E+03 -0.59978767575E+03  0.67927818234E+03  0.10100000352E+00 0. -1.
       -3    1    3    3    0  502 -0.80782074700E+02  0.30846043381E+03  0.51334524196E+03  0.60431525752E+03  0.10100000352E+00 0.  1.
</event>
<event>
 5   0  0.1873488E-03  0.1285958E+04  0.7818609E-02  0.9040775E-01
        1   -1    0    0  501    0  0.00000000000E+00  0.00000000000E+00  0.76415867285E+03  0.76415867287E+03  0.50400001928E-02 0. -1.
       -1   -1    0    0    0  501  0.00000000000E+00  0.00000000000E+00 -0.54101605869E+03  0.54101605871E+03  0.50400001928E-02 0.  1.
    10030    2    1    2    0    0  0.00000000000E+00  0.00000000000E+00  0.22314261416E+03  0.13051747316E+04  0.12859581851E+04 0.  0.
        3    1    3    3  502    0  0.61790312840E+03 -0.16673208255E+03  0.48856020772E+02  0.64186508272E+03  0.10100000352E+00 0. -1.
       -3    1    3    3    0  502 -0.61790312840E+03  0.16673208255E+03  0.17428659339E+03  0.66330964887E+03  0.10100000352E+00 0.  1.
</event>
<event>
 5   0  0.3294720E-03  0.1282751E+04  0.7818609E-02  0.9043357E-01
       -2   -1    0    0    0  501  0.00000000000E+00  0.00000000000E+00  0.82018102348E+03  0.82018102348E+03  0.25500000920E-02 0. -1.
        2   -1    0    0  501    0  0.00000000000E+00  0.00000000000E+00 -0.50155084666E+03  0.50155084667E+03  0.25500000920E-02 0.  1.
    10030    2    1    2    0    0  0.00000000000E+00  0.00000000000E+00  0.31863017681E+03  0.13217318701E+04  0.12827509294E+04 0.  0.
        5    1    3    3  502    0 -0.23481064930E+03 -0.89648560103E+02  0.76730326423E+03  0.80743377106E+03  0.46999998093E+01 0. -1.
       -5    1    3    3    0  502  0.23481064930E+03  0.89648560103E+02 -0.44867308742E+03  0.51429809909E+03  0.46999998093E+01 0.  1.
</event>
<event>
 5   0  0.3336609E-03  0.1414130E+04  0.7818609E-02  0.8943653E-01
        2   -1    0    0  501    0  0.00000000000E+00  0.00000000000E+00  0.12712336396E+04  0.12712336396E+04  0.25500000920E-02 0. -1.
       -2   -1    0    0    0  501  0.00000000000E+00  0.00000000000E+00 -0.39327250038E+03  0.39327250038E+03  0.25500000920E-02 0.  1.
    10030    2    1    2    0    0  0.00000000000E+00  0.00000000000E+00  0.87796113926E+03  0.16645061400E+04  0.14141304495E+04 0.  0.
        1    1    3    3  502    0 -0.29164652193E+03  0.46140802593E+03  0.96798187894E+03  0.11112803328E+04  0.50400001928E-02 0. -1.
       -1    1    3    3    0  502  0.29164652193E+03 -0.46140802593E+03 -0.90020739680E+02  0.55322580719E+03  0.50400001928E-02 0.  1.
</event>
<event>
 5   0  0.1803959E-03  0.1261478E+04  0.7818609E-02  0.9060684E-01
       -1   -1    0    0    0  501  0.00000000000E+00  0.00000000000E+00  0.93477007086E+03  0.93477007088E+03  0.50400001928E-02 0.  1.
        1   -1    0    0  501    0  0.00000000000E+00  0.00000000000E+00 -0.42559302312E+03  0.42559302315E+03  0.50400001928E-02 0. -1.
    10030    2    1    2    0    0  0.00000000000E+00  0.00000000000E+00  0.50917704775E+03  0.13603630940E+04  0.12614778958E+04 0.  0.
        4    1    3    3  502    0 -0.31213813847E+03 -0.35633227306E+03 -0.19450178023E+03  0.51208931030E+03  0.12699999809E+01 0. -1.
       -4    1    3    3    0  502  0.31213813847E+03  0.35633227306E+03  0.70367882798E+03  0.84827378372E+03  0.12699999809E+01 0.  1.
</event>
<event>
 5   0  0.1873488E-03  0.1203635E+04  0.7818609E-02  0.9109680E-01
        1   -1    0    0  501    0  0.00000000000E+00  0.00000000000E+00  0.88364973125E+03  0.88364973127E+03  0.50400001928E-02 0.  1.
       -1   -1    0    0    0  501  0.00000000000E+00  0.00000000000E+00 -0.40987340455E+03  0.40987340458E+03  0.50400001928E-02 0. -1.
    10030    2    1    2    0    0  0.00000000000E+00  0.00000000000E+00  0.47377632671E+03  0.12935231358E+04  0.12036353664E+04 0.  0.
        3    1    3    3  502    0  0.32135900925E+03 -0.42740075055E+03  0.53362739961E+03  0.75544769919E+03  0.10100000352E+00 0.  1.
       -3    1    3    3    0  502 -0.32135900925E+03  0.42740075055E+03 -0.59851072907E+02  0.53807543665E+03  0.10100000352E+00 0. -1.
</event>
<event>
 5   0  0.3294720E-03  0.1333803E+04  0.7818609E-02  0.9003180E-01
       -2   -1    0    0    0  501  0.00000000000E+00  0.00000000000E+00  0.11932890537E+04  0.11932890537E+04  0.25500000920E-02 0. -1.
        2   -1    0    0  501    0  0.00000000000E+00  0.00000000000E+00 -0.37271569767E+03  0.37271569768E+03  0.25500000920E-02 0.  1.
    10030    2    1    2    0    0  0.00000000000E+00  0.00000000000E+00  0.82057335601E+03  0.15660047514E+04  0.13338029272E+04 0.  0.
        5    1    3    3  502    0  0.81403839729E+01 -0.16063292315E+03 -0.34958298141E+03  0.38483704699E+03  0.46999998093E+01 0.  1.
       -5    1    3    3    0  502 -0.81403839729E+01  0.16063292315E+03  0.11701563374E+04  0.11811677044E+04  0.46999998093E+01 0. -1.
</event>
<event>
 5   0  0.3294720E-03  0.1254382E+04  0.7818609E-02  0.9066544E-01
        2   -1    0    0  501    0  0.00000000000E+00  0.00000000000E+00  0.59826215229E+03  0.59826215230E+03  0.25500000920E-02 0.  1.
       -2   -1    0    0    0  501  0.00000000000E+00  0.00000000000E+00 -0.65751832282E+03  0.65751832282E+03  0.25500000920E-02 0. -1.
    10030    2    1    2    0    0  0.00000000000E+00  0.00000000000E+00 -0.59256170523E+02  0.12557804751E+04  0.12543816437E+04 0.  0.
        5    1    3    3  502    0  0.31326149942E+02  0.54222284706E+03 -0.34360067597E+03  0.64270557650E+03  0.46999998093E+01 0. -1.
       -5    1    3    3    0  502 -0.31326149942E+02 -0.54222284706E+03  0.28434450544E+03  0.61307489862E+03  0.46999998093E+01 0.  1.
</event>
<event>
 5   0  0.3299104E-03  0.1327052E+04  0.7818609E-02  0.9008383E-01
       -2   -1    0    0    0  501  0.00000000000E+00  0.00000000000E+00  0.65778160498E+03  0.65778160499E+03  0.25500000920E-02 0. -1.
        2   -1    0    0  501    0  0.00000000000E+00  0.00000000000E+00 -0.66932066385E+03  0.66932066385E+03  0.25500000920E-02 0.  1.
    10030    2    1    2    0    0  0.00000000000E+00  0.00000000000E+00 -0.11539058863E+02  0.13271022688E+04  0.13270521022E+04 0.  0.
        2    1    3    3  502    0 -0.12341089264E+03  0.28626691164E+03 -0.59152866713E+03  0.66864426803E+03  0.25500000920E-02 0.  1.
       -2    1    3    3    0  502  0.12341089264E+03 -0.28626691164E+03  0.57998960827E+03  0.65845800081E+03  0.25500000920E-02 0. -1.
</event>
<event>
 5   0  0.3259968E-03  0.1300432E+04  0.7818609E-02  0.9029222E-01
        2   -1    0    0  501    0  0.00000000000E+00  0.00000000000E+00  0.83653388901E+03  0.83653388901E+03  0.25500000920E-02 0.  1.
       -2   -1    0    0    0  501  0.00000000000E+00  0.00000000000E+00 -0.50539618496E+03  0.50539618497E+03  0.25500000920E-02 0. -1.
    10030    2    1    2    0    0  0.00000000000E+00  0.00000000000E+00  0.33113770405E+03  0.13419300740E+04  0.13004322914E+04 0.  0.
        4    1    3    3  502    0  0.61458659991E+03 -0.14878506997E+03  0.32181301340E+03  0.70952020009E+03  0.12699999809E+01 0.  1.
       -4    1    3    3    0  502 -0.61458659991E+03  0.14878506997E+03  0.93246906475E+01  0.63240987389E+03  0.12699999809E+01 0. -1.
</event>
<event>
 5   0  0.1857986E-03  0.1298919E+04  0.7818609E-02  0.9030423E-01
        1   -1    0    0  501    0  0.00000000000E+00  0.00000000000E+00  0.12499487992E+04  0.12499487992E+04  0.50400001928E-02 0. -1.
       -1   -1    0    0    0  501  0.00000000000E+00  0.00000000000E+00 -0.33745208111E+03  0.33745208115E+03  0.50400001928E-02 0.  1.
    10030    2    1    2    0    0  0.00000000000E+00  0.00000000000E+00  0.91249671805E+03  0.15874008803E+04  0.12989192794E+04 0.  0.
        1    1    3    3  502    0 -0.38918562764E+03  0.36708110179E+03  0.90624410855E+03  0.10523746350E+04  0.50400001928E-02 0. -1.
       -1    1    3    3    0  502  0.38918562764E+03 -0.36708110179E+03  0.62526095032E+01  0.53502624534E+03  0.50400001928E-02 0.  1.
</event>
<event>
 5   0  0.1857986E-03  0.1387749E+04  0.7818609E-02  0.8962734E-01
        1   -1    0    0  501    0  0.00000000000E+00  0.00000000000E+00  0.10749152214E+04  0.10749152214E+04  0.50400001928E-02 0.  1.
       -1   -1    0    0    0  501  0.00000000000E+00  0.00000000000E+00 -0.44790696222E+03  0.44790696224E+03  0.50400001928E-02 0. -1.
    10030    2    1    2    0    0  0.00000000000E+00  0.00000000000E+00  0.62700825914E+03  0.15228221836E+04  0.13877492734E+04 0.  0.
        1    1    3    3  502    0 -0.65560272646E+03  0.22390125596E+03  0.35621988417E+03  0.77899891737E+03  0.50400001928E-02 0. -1.
       -1    1    3    3    0  502  0.65560272646E+03 -0.22390125596E+03  0.27078837497E+03  0.74382326624E+03  0.50400001928E-02 0.  1.
</event>
<event>
 5   0  0.1873488E-03  0.1296690E+04  0.7818609E-02  0.9032194E-01
        1   -1    0    0  501    0  0.00000000000E+00  0.00000000000E+00  0.14942857311E+04  0.14942857311E+04  0.50400001928E-02 0.  1.
       -1   -1    0    0    0  501  0.00000000000E+00  0.00000000000E+00 -0.28130594691E+03  0.28130594695E+03  0.50400001928E-02 0. -1.
    10030    2    1    2    0    0  0.00000000000E+00  0.00000000000E+00  0.12129797842E+04  0.17755916781E+04  0.12966903448E+04 0.  0.
        3    1    3    3  502    0  0.33720505980E+03 -0.63125906570E+02  0.13598174411E+04  0.14024249055E+04  0.10100000352E+00 0.  1.
       -3    1    3    3    0  502 -0.33720505980E+03  0.63125906570E+02 -0.14683765688E+03  0.37316677252E+03  0.10100000352E+00 0. -1.
</event>
<event>
 5   0  0.3336609E-03  0.1337506E+04  0.7818609E-02  0.9000340E-01
       -2   -1    0    0    0  501  0.00000000000E+00  0.00000000000E+00  0.10134183111E+04  0.10134183111E+04  0.25500000920E-02 0.  1.
        2   -1    0    0  501    0  0.00000000000E+00  0.00000000000E+00 -0.44130907980E+03  0.44130907981E+03  0.25500000920E-02 0. -1.
    10030    2    1    2    0    0  0.00000000000E+00  0.00000000000E+00  0.57210923129E+03  0.14547273909E+04  0.13375061904E+04 0.  0.
        1    1    3    3  502    0 -0.21696621372E+03 -0.24674610843E+03  0.91957455339E+03  0.97651182235E+03  0.50400001928E-02 0.  1.
       -1    1    3    3    0  502  0.21696621372E+03  0.24674610843E+03 -0.34746532210E+03  0.47821556856E+03  0.50400001928E-02 0. -1.
</event>
<event>
 5   0  0.1254125E-03  0.1226249E+04  0.7818609E-02  0.9090186E-01
        3   -1    0    0  501    0  0.00000000000E+00  0.00000000000E+00  0.23613716923E+03  0.23613719083E+03  0.10100000352E+00 0. -1.
       -3   -1    0    0    0  501  0.00000000000E+00  0.00000000000E+00 -0.15919634353E+04  0.15919634385E+04  0.10100000352E+00 0.  1.
    10030    2    1    2    0    0  0.00000000000E+00  0.00000000000E+00 -0.13558262661E+04  0.18281006294E+04  0.12262491783E+04 0.  0.
        4    1    3    3  502    0  0.15075637416E+03 -0.49055751559E+03 -0.17777913417E+03  0.54312171187E+03  0.12699999809E+01 0. -1.
       -4    1    3    3    0  502 -0.15075637416E+03  0.49055751559E+03 -0.11780471319E+04  0.12849789175E+04  0.12699999809E+01 0.  1.
</event>
<event>
 5   0  0.3259968E-03  0.1137491E+04  0.7818609E-02  0.9169401E-01
        2   -1    0    0  501    0  0.00000000000E+00  0.00000000000E+00  0.11472621052E+04  0.11472621052E+04  0.25500000920E-02 0.  1.
       -2   -1    0    0    0  501  0.00000000000E+00  0.00000000000E+00 -0.28195095111E+03  0.28195095112E+03  0.25500000920E-02 0. -1.
    10030    2    1    2    0    0  0.00000000000E+00  0.00000000000E+00  0.86531115408E+03  0.14292130563E+04  0.11374913481E+04 0.  0.
        4    1    3    3  502    0  0.50930040676E+03  0.90088738188E+02  0.13540997012E+03  0.53464040063E+03  0.12699999809E+01 0. -1.
       -4    1    3    3    0  502 -0.50930040676E+03 -0.90088738188E+02  0.72990118395E+03  0.89457265569E+03  0.12699999809E+01 0.  1.
</event>
<event>
 5   0  0.1803959E-03  0.1256409E+04  0.7818609E-02  0.9064866E-01
        1   -1    0    0  501    0  0.00000000000E+00  0.00000000000E+00  0.93241966043E+03  0.93241966044E+03  0.50400001928E-02 0.  1.
       -1   -1    0    0    0  501  0.00000000000E+00  0.00000000000E+00 -0.42324380891E+03  0.42324380894E+03  0.50400001928E-02 0. -1.
    10030    2    1    2    0    0  0.00000000000E+00  0.00000000000E+00  0.50917585151E+03  0.13556634694E+04  0.12564089280E+04 0.  0.
        4    1    3    3  502    0  0.57145711396E+03  0.18763462545E+03  0.45020906174E+03  0.75130539592E+03  0.12699999809E+01 0.  1.
       -4    1    3    3    0  502 -0.57145711396E+03 -0.18763462545E+03  0.58966789772E+02  0.60435807346E+03  0.12699999809E+01 0. -1.
</event>
<event>
 5   0  0.1814770E-03  0.1303279E+04  0.7818609E-02  0.9026969E-01
       -1   -1    0    0    0  501  0.00000000000E+00  0.00000000000E+00  0.13338602222E+04  0.13338602222E+04  0.50400001928E-02 0. -1.
        1   -1    0    0  501    0  0.00000000000E+00  0.00000000000E+00 -0.31834950166E+03  0.31834950170E+03  0.50400001928E-02 0.  1.
    10030    2    1    2    0    0  0.00000000000E+00  0.00000000000E+00  0.10155107206E+04  0.16522097239E+04  0.13032785383E+04 0.  0.
        5    1    3    3  502    0  0.13590419379E+02  0.49712570782E+03 -0.26038652128E+02  0.49801482937E+03  0.46999998093E+01 0.  1.
       -5    1    3    3    0  502 -0.13590419379E+02 -0.49712570782E+03  0.10415493727E+04  0.11541948946E+04  0.46999998093E+01 0. -1.
</event>
<event>
 5   0  0.3336609E-03  0.1347632E+04  0.7818609E-02  0.8992622E-01
        2   -1    0    0  501    0  0.00000000000E+00  0.00000000000E+00  0.59793416789E+03  0.59793416790E+03  0.25500000920E-02 0. -1.
       -2   -1    0    0    0  501  0.00000000000E+00  0.00000000000E+00 -0.75932809581E+03  0.75932809581E+03  0.25500000920E-02 0.  1.
    10030    2    1    2    0    0  0.00000000000E+00  0.00000000000E+00 -0.16139392791E+03  0.13572622637E+04  0.13476323135E+04 0.  0.
        1    1    3    3  502    0 -0.74743746380E+02 -0.51144846746E+03  0.35466743615E+03  0.62686135052E+03  0.50400001928E-02 0. -1.
       -1    1    3    3    0  502  0.74743746380E+02  0.51144846746E+03 -0.51606136406E+03  0.73040091319E+03  0.50400001928E-02 0.  1.
</event>
<event>
 5   0  0.1873488E-03  0.1420677E+04  0.7818609E-02  0.8938986E-01
        1   -1    0    0  501    0  0.00000000000E+00  0.00000000000E+00  0.58642145714E+03  0.58642145716E+03  0.50400001928E-02 0. -1.
       -1   -1    0    0    0  501  0.00000000000E+00  0.00000000000E+00 -0.86044004901E+03  0.86044004903E+03  0.50400001928E-02 0.  1.
    10030    2    1    2    0    0  0.00000000000E+00  0.00000000000E+00 -0.27401859187E+03  0.14468615062E+04  0.14206766097E+04 0.  0.
        3    1    3    3  502    0 -0.41535873370E+03 -0.29428175286E+03 -0.64157583101E+03  0.81898973428E+03  0.10100000352E+00 0.  1.
       -3    1    3    3    0  502  0.41535873370E+03  0.29428175286E+03  0.36755723914E+03  0.62787177191E+03  0.10100000352E+00 0. -1.
</event>
<event>
 5   0  0.3299104E-03  0.1317844E+04  0.7818609E-02  0.9015534E-01
       -2   -1    0    0    0  501  0.00000000000E+00  0.00000000000E+00  0.37042017725E+03  0.37042017726E+03  0.25500000920E-02 0.  1.
        2   -1    0    0  501    0  0.00000000000E+00  0.00000000000E+00 -0.11721227823E+04  0.11721227823E+04  0.25500000920E-02 0. -1.
    10030    2    1    2    0    0  0.00000000000E+00  0.00000000000E+00 -0.80170260502E+03  0.15425429595E+04  0.13178435852E+04 0.  0.
        2    1    3    3  502    0 -0.36089499318E+03  0.44091732875E+03 -0.78822428009E+03  0.97260002191E+03  0.25500000920E-02 0. -1.
       -2    1    3    3    0  502  0.36089499318E+03 -0.44091732875E+03 -0.13478324934E+02  0.56994293762E+03  0.25500000920E-02 0.  1.
</event>
<event>
 5   0  0.3299104E-03  0.1230409E+04  0.7818609E-02  0.9086649E-01
       -2   -1    0    0    0  501  0.00000000000E+00  0.00000000000E+00  0.16208815078E+04  0.16208815078E+04  0.25500000920E-02 0. -1.
        2   -1    0    0  501    0  0.00000000000E+00  0.00000000000E+00 -0.23350032909E+03  0.23350032911E+03  0.25500000920E-02 0.  1.
    10030    2    1    2    0    0  0.00000000000E+00  0.00000000000E+00  0.13873811787E+04  0.18543818369E+04  0.12304086565E+04 0.  0.
        2    1    3    3  502    0  0.57404622812E+03  0.21889328783E+03  0.74213063861E+03  0.96343200499E+03  0.25500000920E-02 0. -1.
       -2    1    3    3    0  502 -0.57404622812E+03 -0.21889328783E+03  0.64525054005E+03  0.89094983187E+03  0.25500000920E-02 0.  1.
</event>
<event>
 5   0  0.3259968E-03  0.1300924E+04  0.7818609E-02  0.9028833E-01
        2   -1    0    0  501    0  0.00000000000E+00  0.00000000000E+00  0.73897566099E+03  0.73897566099E+03  0.25500000920E-02 0.  1.
       -2   -1    0    0    0  501  0.00000000000E+00  0.00000000000E+00 -0.57255038686E+03  0.57255038687E+03  0.25500000920E-02 0. -1.
    10030    2    1    2    0    0  0.00000000000E+00  0.00000000000E+00  0.16642527413E+03  0.13115260479E+04  0.13009239802E+04 0.  0.
        4    1    3    3  502    0  0.57475531759E+02  0.21486120132E+03 -0.53302201007E+03  0.57756631542E+03  0.12699999809E+01 0. -1.
       -4    1    3    3    0  502 -0.57475531759E+02 -0.21486120132E+03  0.69944728419E+03  0.73395973245E+03  0.12699999809E+01 0.  1.
</event>
<event>
 5   0  0.3262927E-03  0.1356467E+04  0.7818609E-02  0.8985947E-01
        2   -1    0    0  501    0  0.00000000000E+00  0.00000000000E+00  0.84416954052E+03  0.84416954053E+03  0.25500000920E-02 0. -1.
       -2   -1    0    0    0  501  0.00000000000E+00  0.00000000000E+00 -0.54491520970E+03  0.54491520971E+03  0.25500000920E-02 0.  1.
    10030    2    1    2    0    0  0.00000000000E+00  0.00000000000E+00  0.29925433082E+03  0.13890847502E+04  0.13564672089E+04 0.  0.
        3    1    3    3  502    0  0.17724562032E+03 -0.60979720062E+03 -0.94285395155E+02  0.64199562440E+03  0.10100000352E+00 0.  1.
       -3    1    3    3    0  502 -0.17724562032E+03  0.60979720062E+03  0.39353972598E+03  0.74708912583E+03  0.10100000352E+00 0. -1.
</event>
<event>
 5   0  0.3336609E-03  0.1289210E+04  0.7818609E-02  0.9038165E-01
        2   -1    0    0  501    0  0.00000000000E+00  0.00000000000E+00  0.16819744666E+04  0.16819744666E+04  0.25500000920E-02 0.  1.
       -2   -1    0    0    0  501  0.00000000000E+00  0.00000000000E+00 -0.24704050016E+03  0.24704050017E+03  0.25500000920E-02 0. -1.
    10030    2    1    2    0    0  0.00000000000E+00  0.00000000000E+00  0.14349339664E+04  0.19290149667E+04  0.12892103218E+04 0.  0.
        1    1    3    3  502    0 -0.28698945980E+03 -0.31335447539E+03 -0.78210083567E+01  0.42498840629E+03  0.50400001928E-02 0. -1.
       -1    1    3    3    0  502  0.28698945980E+03  0.31335447539E+03  0.14427549748E+04  0.15040265604E+04  0.50400001928E-02 0.  1.
</event>
<event>
 5   0  0.3294720E-03  0.1307208E+04  0.7818609E-02  0.9023869E-01
       -2   -1    0    0    0  501  0.00000000000E+00  0.00000000000E+00  0.28021785844E+03  0.28021785845E+03  0.25500000920E-02 0.  1.
        2   -1    0    0  501    0  0.00000000000E+00  0.00000000000E+00 -0.15245207954E+04  0.15245207954E+04  0.25500000920E-02 0. -1.
    10030    2    1    2    0    0  0.00000000000E+00  0.00000000000E+00 -0.12443029370E+04  0.18047386539E+04  0.13072076384E+04 0.  0.
        5    1    3    3  502    0 -0.25893161987E+03  0.57669232772E+03 -0.85133304656E+03  0.10603818514E+04  0.46999998093E+01 0. -1.
       -5    1    3    3    0  502  0.25893161987E+03 -0.57669232772E+03 -0.39296989044E+03  0.74435680249E+03  0.46999998093E+01 0.  1.
</event>
<event>
 5   0  0.1803959E-03  0.1309288E+04  0.7818609E-02  0.9022232E-01
       -1   -1    0    0    0  501  0.00000000000E+00  0.00000000000E+00  0.15291495954E+04  0.15291495954E+04  0.50400001928E-02 0. -1.
        1   -1    0    0  501    0  0.00000000000E+00  0.00000000000E+00 -0.28025964988E+03  0.28025964993E+03  0.50400001928E-02 0.  1.
    10030    2    1    2    0    0  0.00000000000E+00  0.00000000000E+00  0.12488899455E+04  0.18094092454E+04  0.13092882498E+04 0.  0.
        4    1    3    3  502    0 -0.81520690108E+02  0.54253383718E+03  0.11180432676E+04  0.12453959003E+04  0.12699999809E+01 0. -1.
       -4    1    3    3    0  502  0.81520690108E+02 -0.54253383718E+03  0.13084667799E+03  0.56401334509E+03  0.12699999809E+01 0.  1.
</event>
<event>
 5   0  0.1814770E-03  0.1311195E+04  0.7818609E-02  0.9020734E-01
       -1   -1    0    0    0  501  0.00000000000E+00  0.00000000000E+00  0.26111463734E+03  0.26111463739E+03  0.50400001928E-02 0. -1.
        1   -1    0    0  501    0  0.00000000000E+00  0.00000000000E+00 -0.16460506528E+04  0.16460506528E+04  0.50400001928E-02 0.  1.
    10030    2    1    2    0    0  0.00000000000E+00  0.00000000000E+00 -0.13849360155E+04  0.19071652902E+04  0.13111947518E+04 0.  0.
        5    1    3    3  502    0 -0.41628178151E+03  0.21500108995E+03 -0.25492904474E+02  0.46924190827E+03  0.46999998093E+01 0. -1.
       -5    1    3    3    0  502  0.41628178151E+03 -0.21500108995E+03 -0.13594431110E+04  0.14379233819E+04  0.46999998093E+01 0.  1.
</event>
<event>
 5   0  0.3259968E-03  0.1295112E+04  0.7818609E-02  0.9033451E-01
        2   -1    0    0  501    0  0.00000000000E+00  0.00000000000E+00  0.84716443612E+03  0.84716443613E+03  0.25500000920E-02 0. -1.
       -2   -1    0    0    0  501  0.00000000000E+00  0.00000000000E+00 -0.49497884010E+03  0.49497884010E+03  0.25500000920E-02 0.  1.
    10030    2    1    2    0    0  0.00000000000E+00  0.00000000000E+00  0.35218559603E+03  0.13421432762E+04  0.12951115318E+04 0.  0.
        4    1    3    3  502    0  0.12462123090E+03 -0.33797868225E+03  0.73374844606E+03  0.81740347188E+03  0.12699999809E+01 0. -1.
       -4    1    3    3    0  502 -0.12462123090E+03  0.33797868225E+03 -0.38156285003E+03  0.52473980435E+03  0.12699999809E+01 0.  1.
</event>
<event>
 5   0  0.3299104E-03  0.1284630E+04  0.7818609E-02  0.9041843E-01
        2   -1    0    0  501    0  0.00000000000E+00  0.00000000000E+00  0.67421169964E+03  0.67421169964E+03  0.25500000920E-02 0.  1.
       -2   -1    0    0    0  501  0.00000000000E+00  0.00000000000E+00 -0.61192715366E+03  0.61192715366E+03  0.25500000920E-02 0. -1.
    10030    2    1    2    0    0  0.00000000000E+00  0.00000000000E+00  0.62284545976E+02  0.12861388533E+04  0.12846298242E+04 0.  0.
        2    1    3    3  502    0 -0.55172731028E+03  0.19452315953E+03 -0.23436004404E+03  0.63021180150E+03  0.25500000920E-02 0. -1.
       -2    1    3    3    0  502  0.55172731028E+03 -0.19452315953E+03  0.29664459002E+03  0.65592705181E+03  0.25500000920E-02 0.  1.
</event>
<event>
 5   0  0.1814770E-03  0.1206164E+04  0.7818609E-02  0.9107479E-01
        1   -1    0    0  501    0  0.00000000000E+00  0.00000000000E+00  0.49332555109E+03  0.49332555112E+03  0.50400001928E-02 0.  1.
       -1   -1    0    0    0  501  0.00000000000E+00  0.00000000000E+00 -0.73725692871E+03  0.73725692873E+03  0.50400001928E-02 0. -1.
    10030    2    1    2    0    0  0.00000000000E+00  0.00000000000E+00 -0.24393137762E+03  0.12305824798E+04  0.12061636384E+04 0.  0.
        5    1    3    3  502    0  0.41295581444E+03 -0.13383164340E+03  0.30512865100E+03  0.53063075402E+03  0.46999998093E+01 0.  1.
       -5    1    3    3    0  502 -0.41295581444E+03  0.13383164340E+03 -0.54906002862E+03  0.69995172582E+03  0.46999998093E+01 0. -1.
</event>
<event>
 5   0  0.1823154E-03  0.1328569E+04  0.7818609E-02  0.9007211E-01
        1   -1    0    0  501    0  0.00000000000E+00  0.00000000000E+00  0.83588720923E+03  0.83588720924E+03  0.50400001928E-02 0.  1.
       -1   -1    0    0    0  501  0.00000000000E+00  0.00000000000E+00 -0.52791113308E+03  0.52791113310E+03  0.50400001928E-02 0. -1.
    10030    2    1    2    0    0  0.00000000000E+00  0.00000000000E+00  0.30797607615E+03  0.13637983423E+04  0.13285694017E+04 0.  0.
        2    1    3    3  502    0  0.34220502008E+03  0.38571128005E+03  0.58389711715E+03  0.77898222749E+03  0.25500000920E-02 0.  1.
       -2    1    3    3    0  502 -0.34220502008E+03 -0.38571128005E+03 -0.27592104100E+03  0.58481611486E+03  0.25500000920E-02 0. -1.
</event>
<event>
 5   0  0.3294720E-03  0.1303879E+04  0.7818609E-02  0.9026495E-01
       -2   -1    0    0    0  501  0.00000000000E+00  0.00000000000E+00  0.75489443558E+03  0.75489443558E+03  0.25500000920E-02 0. -1.
        2   -1    0    0  501    0  0.00000000000E+00  0.00000000000E+00 -0.56302580800E+03  0.56302580801E+03  0.25500000920E-02 0.  1.
    10030    2    1    2    0    0  0.00000000000E+00  0.00000000000E+00  0.19186862758E+03  0.13179202436E+04  0.13038789047E+04 0.  0.
        5    1    3    3  502    0  0.40795829837E+03  0.23000367125E+03 -0.36245946400E+03  0.59222513881E+03  0.46999998093E+01 0.  1.
       -5    1    3    3    0  502 -0.40795829837E+03 -0.23000367125E+03  0.55432809158E+03  0.72569510478E+03  0.46999998093E+01 0. -1.
</event>
<event>
 5   0  0.1823154E-03  0.1337575E+04  0.7818609E-02  0.9000287E-01
       -1   -1    0    0    0  501  0.00000000000E+00  0.00000000000E+00  0.25306318948E+03  0.25306318953E+03  0.50400001928E-02 0. -1.
        1   -1    0    0  501    0  0.00000000000E+00  0.00000000000E+00 -0.17674512254E+04  0.17674512254E+04  0.50400001928E-02 0.  1.
    10030    2    1    2    0    0  0.00000000000E+00  0.00000000000E+00 -0.15143880359E+04  0.20205144150E+04  0.13375751858E+04 0.  0.
        2    1    3    3  502    0  0.20720063230E+03  0.57306470512E+03 -0.34091590068E+03  0.69825418697E+03  0.25500000920E-02 0.  1.
       -2    1    3    3    0  502 -0.20720063230E+03 -0.57306470512E+03 -0.11734721353E+04  0.13222602280E+04  0.25500000920E-02 0. -1.
</event>
<event>
 5   0  0.1873488E-03  0.1291740E+04  0.7818609E-02  0.9036141E-01
        1   -1    0    0  501    0  0.00000000000E+00  0.00000000000E+00  0.89483207835E+03  0.89483207837E+03  0.50400001928E-02 0. -1.
       -1   -1    0    0    0  501  0.00000000000E+00  0.00000000000E+00 -0.46617471943E+03  0.46617471946E+03  0.50400001928E-02 0.  1.
    10030    2    1    2    0    0  0.00000000000E+00  0.00000000000E+00  0.42865735892E+03  0.13610067978E+04  0.12917400560E+04 0.  0.
        3    1    3    3  502    0 -0.58297288232E+03 -0.20870684229E+03  0.20816986099E+02  0.61955571553E+03  0.10100000352E+00 0.  1.
       -3    1    3    3    0  502  0.58297288232E+03  0.20870684229E+03  0.40784037282E+03  0.74145108230E+03  0.10100000352E+00 0. -1.
</event>
<event>
 5   0  0.1857986E-03  0.1292358E+04  0.7818609E-02  0.9035647E-01
       -1   -1    0    0    0  501  0.00000000000E+00  0.00000000000E+00  0.10062023470E+04  0.10062023471E+04  0.50400001928E-02 0. -1.
        1   -1    0    0  501    0  0.00000000000E+00  0.00000000000E+00 -0.41497357935E+03  0.41497357938E+03  0.50400001928E-02 0.  1.
    10030    2    1    2    0    0  0.00000000000E+00  0.00000000000E+00  0.59122876770E+03  0.14211759264E+04  0.12923581385E+04 0.  0.
        1    1    3    3  502    0 -0.42781517799E+03 -0.35917043887E+03 -0.61599691011E+02  0.56198198604E+03  0.50400001928E-02 0.  1.
       -1    1    3    3    0  502  0.42781517799E+03  0.35917043887E+03  0.65282845871E+03  0.85919394039E+03  0.50400001928E-02 0. -1.
</event>
<event>
 5   0  0.3336609E-03  0.1292567E+04  0.7818609E-02  0.9035481E-01
        2   -1    0    0  501    0  0.00000000000E+00  0.00000000000E+00  0.95053897098E+03  0.95053897099E+03  0.25500000920E-02 0. -1.
       -2   -1    0    0    0  501  0.00000000000E+00  0.00000000000E+00 -0.43941623945E+03  0.43941623946E+03  0.25500000920E-02 0.  1.
    10030    2    1    2    0    0  0.00000000000E+00  0.00000000000E+00  0.51112273153E+03  0.13899552104E+04  0.12925668417E+04 0.  0.
        1    1    3    3  502    0 -0.44774450480E+03 -0.31572107473E+03  0.62421389200E+03  0.83054074048E+03  0.50400001928E-02 0. -1.
       -1    1    3    3    0  502  0.44774450480E+03  0.31572107473E+03 -0.11309116048E+03  0.55941446997E+03  0.50400001928E-02 0.  1.
</event>
<event>
 5   0  0.1254125E-03  0.1277908E+04  0.7818609E-02  0.9047270E-01
       -3   -1    0    0    0  501  0.00000000000E+00  0.00000000000E+00  0.54070183380E+03  0.54070184323E+03  0.10100000352E+00 0. -1.
        3   -1    0    0  501    0  0.00000000000E+00  0.00000000000E+00 -0.75506017538E+03  0.75506018214E+03  0.10100000352E+00 0.  1.
    10030    2    1    2    0    0  0.00000000000E+00  0.00000000000E+00 -0.21435834159E+03  0.12957620254E+04  0.12779083409E+04 0.  0.
        1    1    3    3  502    0  0.81575500968E+02  0.37808193942E+03  0.40851448530E+03  0.56256964013E+03  0.50400001928E-02 0. -1.
       -1    1    3    3    0  502 -0.81575500968E+02 -0.37808193942E+03 -0.62287282689E+03  0.73319238524E+03  0.50400001928E-02 0.  1.
</event>
<event>
 5   0  0.3262927E-03  0.1283669E+04  0.7818609E-02  0.9042617E-01
        2   -1    0    0  501    0  0.00000000000E+00  0.00000000000E+00  0.55439424927E+03  0.55439424927E+03  0.25500000920E-02 0. -1.
       -2   -1    0    0    0  501  0.00000000000E+00  0.00000000000E+00 -0.74306569123E+03  0.74306569124E+03  0.25500000920E-02 0.  1.
    10030    2    1    2    0    0  0.00000000000E+00  0.00000000000E+00 -0.18867144197E+03  0.12974599405E+04  0.12836687206E+04 0.  0.
        3    1    3    3  502    0  0.61687407612E+03 -0.35059488251E+02 -0.26995090809E+03  0.67426722928E+03  0.10100000352E+00 0. -1.
       -3    1    3    3    0  502 -0.61687407612E+03  0.35059488251E+02  0.81279466120E+02  0.62319271122E+03  0.10100000352E+00 0.  1.
</event>
<event>
 5   0  0.3294720E-03  0.1320970E+04  0.7818609E-02  0.9013099E-01
       -2   -1    0    0    0  501  0.00000000000E+00  0.00000000000E+00  0.60329189782E+03  0.60329189783E+03  0.25500000920E-02 0.  1.
        2   -1    0    0  501    0  0.00000000000E+00  0.00000000000E+00 -0.72309993208E+03  0.72309993208E+03  0.25500000920E-02 0. -1.
    10030    2    1    2    0    0  0.00000000000E+00  0.00000000000E+00 -0.11980803425E+03  0.13263918299E+04  0.13209698412E+04 0.  0.
        5    1    3    3  502    0  0.31721500788E+02  0.26820654461E+03 -0.66510277509E+03  0.71786126488E+03  0.46999998093E+01 0. -1.
       -5    1    3    3    0  502 -0.31721500788E+02 -0.26820654461E+03  0.54529474084E+03  0.60853056503E+03  0.46999998093E+01 0.  1.
</event>
<event>
 5   0  0.3259968E-03  0.1275352E+04  0.7818609E-02  0.9049343E-01
       -2   -1    0    0    0  501  0.00000000000E+00  0.00000000000E+00  0.83892758803E+03  0.83892758803E+03  0.25500000920E-02 0.  1.
        2   -1    0    0  501    0  0.00000000000E+00  0.00000000000E+00 -0.48470300275E+03  0.48470300276E+03  0.25500000920E-02 0. -1.
    10030    2    1    2    0    0  0.00000000000E+00  0.00000000000E+00  0.35422458528E+03  0.13236305908E+04  0.12753520628E+04 0.  0.
        4    1    3    3  502    0  0.30599677281E+03 -0.55865772142E+03  0.14603492881E+03  0.65349849886E+03  0.12699999809E+01 0.  1.
       -4    1    3    3    0  502 -0.30599677281E+03  0.55865772142E+03  0.20818965647E+03  0.67013209193E+03  0.12699999809E+01 0. -1.
</event>
<event>
 5   0  0.3336609E-03  0.1277811E+04  0.7818609E-02  0.9047349E-01
       -2   -1    0    0    0  501  0.00000000000E+00  0.00000000000E+00  0.85001714139E+03  0.85001714139E+03  0.25500000920E-02 0. -1.
        2   -1    0    0  501    0  0.00000000000E+00  0.00000000000E+00 -0.48022577625E+03  0.48022577626E+03  0.25500000920E-02 0.  1.
    10030    2    1    2    0    0  0.00000000000E+00  0.00000000000E+00  0.36979136514E+03  0.13302429176E+04  0.12778108492E+04 0.  0.
        1    1    3    3  502    0  0.14053318772E+03  0.36045995228E+03 -0.34441514178E+03  0.51797948218E+03  0.50400001928E-02 0.  1.
       -1    1    3    3    0  502 -0.14053318772E+03 -0.36045995228E+03  0.71420650692E+03  0.81226343547E+03  0.50400001928E-02 0. -1.
</event>
<event>
 5   0  0.1823154E-03  0.1264643E+04  0.7818609E-02  0.9058083E-01
       -1   -1    0    0    0  501  0.00000000000E+00  0.00000000000E+00  0.33892949573E+03  0.33892949577E+03  0.50400001928E-02 0. -1.
        1   -1    0    0  501    0  0.00000000000E+00  0.00000000000E+00 -0.11796860335E+04  0.11796860335E+04  0.50400001928E-02 0.  1.
    10030    2    1    2    0    0  0.00000000000E+00  0.00000000000E+00 -0.84075653779E+03  0.15186155293E+04  0.12646428626E+04 0.  0.
        2    1    3    3  502    0 -0.40019155922E+03  0.38767518861E+03 -0.61363430277E+02  0.56054509766E+03  0.25500000920E-02 0. -1.
       -2    1    3    3    0  502  0.40019155922E+03 -0.38767518861E+03 -0.77939310751E+03  0.95807043163E+03  0.25500000920E-02 0.  1.
</event>
<event>
 5   0  0.1873488E-03  0.1150915E+04  0.7818609E-02  0.9156940E-01
        1   -1    0    0  501    0  0.00000000000E+00  0.00000000000E+00  0.51710774812E+03  0.51710774814E+03  0.50400001928E-02 0. -1.
       -1   -1    0    0    0  501  0.00000000000E+00  0.00000000000E+00 -0.64039107961E+03  0.64039107963E+03  0.50400001928E-02 0.  1.
    10030    2    1    2    0    0  0.00000000000E+00  0.00000000000E+00 -0.12328333150E+03  0.11574988278E+04  0.11509147477E+04 0.  0.
        3    1    3    3  502    0 -0.34124998269E+02  0.43829346809E+03  0.31181197934E+03  0.53897346905E+03  0.10100000352E+00 0. -1.
       -3    1    3    3    0  502  0.34124998269E+02 -0.43829346809E+03 -0.43509531084E+03  0.61852535873E+03  0.10100000352E+00 0.  1.
</event>
<event>
 5   0  0.3262927E-03  0.1299196E+04  0.7818609E-02  0.9030203E-01
       -2   -1    0    0    0  501  0.00000000000E+00  0.00000000000E+00  0.67076705934E+03  0.67076705935E+03  0.25500000920E-02 0.  1.
        2   -1    0    0  501    0  0.00000000000E+00  0.00000000000E+00 -0.62909746653E+03  0.62909746653E+03  0.25500000920E-02 0. -1.
    10030    2    1    2    0    0  0.00000000000E+00  0.00000000000E+00  0.41669592818E+02  0.12998645259E+04  0.12991964558E+04 0.  0.
        3    1    3    3  502    0 -0.46093137845E+03 -0.37549448428E+03  0.28274030372E+03  0.65832813469E+03  0.10100000352E+00 0.  1.
       -3    1    3    3    0  502  0.46093137845E+03  0.37549448428E+03 -0.24107071090E+03  0.64153639119E+03  0.10100000352E+00 0. -1.
</event>
<event>
 5   0  0.3262927E-03  0.1283354E+04  0.7818609E-02  0.9042871E-01
       -2   -1    0    0    0  501  0.00000000000E+00  0.00000000000E+00  0.30692150014E+03  0.30692150015E+03  0.25500000920E-02 0. -1.
        2   -1    0    0  501    0  0.00000000000E+00  0.00000000000E+00 -0.13415452171E+04  0.13415452171E+04  0.25500000920E-02 0.  1.
    10030    2    1    2    0    0  0.00000000000E+00  0.00000000000E+00 -0.10346237169E+04  0.16484667172E+04  0.12833535297E+04 0.  0.
        3    1    3    3  502    0 -0.16327009712E+03 -0.61637167060E+03 -0.60974137422E+03  0.88224470220E+03  0.10100000352E+00 0.  1.
       -3    1    3    3    0  502  0.16327009712E+03  0.61637167060E+03 -0.42488234270E+03  0.76622201500E+03  0.10100000352E+00 0. -1.
</event>
<event>
 5   0  0.1823154E-03  0.1311096E+04  0.7818609E-02  0.9020812E-01
        1   -1    0    0  501    0  0.00000000000E+00  0.00000000000E+00  0.18181662222E+04  0.18181662222E+04  0.50400001928E-02 0. -1.
       -1   -1    0    0    0  501  0.00000000000E+00  0.00000000000E+00 -0.23636076401E+03  0.23636076407E+03  0.50400001928E-02 0.  1.
    10030    2    1    2    0    0  0.00000000000E+00  0.00000000000E+00  0.15818054582E+04  0.20545269863E+04  0.13110959651E+04 0.  0.
        2    1    3    3  502    0 -0.49143739064E+03  0.15735177690E+03  0.15732455395E+03  0.53946390601E+03  0.25500000920E-02 0.  1.
       -2    1    3    3    0  502  0.49143739064E+03 -0.15735177690E+03  0.14244809043E+04  0.15150630803E+04  0.25500000920E-02 0. -1.
</event>
<event>
 5   0  0.1857986E-03  0.1291949E+04  0.7818609E-02  0.9035974E-01
        1   -1    0    0  501    0  0.00000000000E+00  0.00000000000E+00  0.93374136857E+03  0.93374136858E+03  0.50400001928E-02 0. -1.
       -1   -1    0    0    0  501  0.00000000000E+00  0.00000000000E+00 -0.44689344677E+03  0.44689344680E+03  0.50400001928E-02 0.  1.
    10030    2    1    2    0    0  0.00000000000E+00  0.00000000000E+00  0.48684792180E+03  0.13806348154E+04  0.12919487585E+04 0.  0.
        1    1    3    3  502    0  0.17263141457E+03 -0.21184413695E+03  0.86892687536E+03  0.91088608421E+03  0.50400001928E-02 0. -1.
       -1    1    3    3    0  502 -0.17263141457E+03  0.21184413695E+03 -0.38207895356E+03  0.46974873117E+03  0.50400001928E-02 0.  1.
</event>
<event>
 5   0  0.3294720E-03  0.1315096E+04  0.7818609E-02  0.9017679E-01
       -2   -1    0    0    0  501  0.00000000000E+00  0.00000000000E+00  0.25223739183E+03  0.25223739184E+03  0.25500000920E-02 0. -1.
        2   -1    0    0  501    0  0.00000000000E+00  0.00000000000E+00 -0.17141366831E+04  0.17141366831E+04  0.25500000920E-02 0.  1.
    10030    2    1    2    0    0  0.00000000000E+00  0.00000000000E+00 -0.14618992912E+04  0.19663740749E+04  0.13150959907E+04 0.  0.
        5    1    3    3  502    0 -0.60175160156E+03  0.13370243778E+03 -0.10731127330E+04  0.12375679212E+04  0.46999998093E+01 0.  1.
       -5    1    3    3    0  502  0.60175160156E+03 -0.13370243778E+03 -0.38878655825E+03  0.72880615373E+03  0.46999998093E+01 0. -1.
</event>
<event>
 5   0  0.1803959E-03  0.1301122E+04  0.7818609E-02  0.9028676E-01
       -1   -1    0    0    0  501  0.00000000000E+00  0.00000000000E+00  0.29366227038E+03  0.29366227043E+03  0.50400001928E-02 0. -1.
        1   -1    0    0  501    0  0.00000000000E+00  0.00000000000E+00 -0.14412115543E+04  0.14412115544E+04  0.50400001928E-02 0.  1.
    10030    2    1    2    0    0  0.00000000000E+00  0.00000000000E+00 -0.11475492840E+04  0.17348738248E+04  0.13011217579E+04 0.  0.
        4    1    3    3  502    0  0.58075078233E+03 -0.28765356731E+03 -0.64934023406E+03  0.91742051341E+03  0.12699999809E+01 0. -1.
       -4    1    3    3    0  502 -0.58075078233E+03  0.28765356731E+03 -0.49820904990E+03  0.81745331137E+03  0.12699999809E+01 0.  1.
</event>
<event>
 5   0  0.1857986E-03  0.1228758E+04  0.7818609E-02  0.9088050E-01
        1   -1    0    0  501    0  0.00000000000E+00  0.00000000000E+00  0.54618193414E+03  0.54618193417E+03  0.50400001928E-02 0.  1.
       -1   -1    0    0    0  501  0.00000000000E+00  0.00000000000E+00 -0.69109139883E+03  0.69109139885E+03  0.50400001928E-02 0. -1.
    10030    2    1    2    0    0  0.00000000000E+00  0.00000000000E+00 -0.14490946469E+03  0.12372733330E+04  0.12287581323E+04 0.  0.
        1    1    3    3  502    0  0.18464160199E+03  0.51624939205E+03  0.20669501224E+03  0.58594264573E+03  0.50400001928E-02 0.  1.
       -1    1    3    3    0  502 -0.18464160199E+03 -0.51624939205E+03 -0.35160447693E+03  0.65133068729E+03  0.50400001928E-02 0. -1.
</event>
<event>
 5   0  0.3259968E-03  0.1305180E+04  0.7818609E-02  0.9025467E-01
       -2   -1    0    0    0  501  0.00000000000E+00  0.00000000000E+00  0.79622315420E+03  0.79622315420E+03  0.25500000920E-02 0. -1.
        2   -1    0    0  501    0  0.00000000000E+00  0.00000000000E+00 -0.53486748553E+03  0.53486748554E+03  0.25500000920E-02 0.  1.
    10030    2    1    2    0    0  0.00000000000E+00  0.00000000000E+00  0.26135566867E+03  0.13310906397E+04  0.13051802579E+04 0.  0.
        4    1    3    3  502    0 -0.34822723489E+03  0.10013304584E+03  0.68420799595E+03  0.77422931268E+03  0.12699999809E+01 0. -1.
       -4    1    3    3    0  502  0.34822723489E+03 -0.10013304584E+03 -0.42285232728E+03  0.55686132706E+03  0.12699999809E+01 0.  1.
</event>
<event>
 5   0  0.1857986E-03  0.1317755E+04  0.7818609E-02  0.9015602E-01
       -1   -1    0    0    0  501  0.00000000000E+00  0.00000000000E+00  0.49126243329E+03  0.49126243331E+03  0.50400001928E-02 0. -1.
        1   -1    0    0  501    0  0.00000000000E+00  0.00000000000E+00 -0.88368196919E+03  0.88368196921E+03  0.50400001928E-02 0.  1.
    10030    2    1    2    0    0  0.00000000000E+00  0.00000000000E+00 -0.39241953591E+03  0.13749444025E+04  0.13177552951E+04 0.  0.
        1    1    3    3  502    0  0.60940896250E+03  0.23000533944E+03 -0.29970112952E+03  0.71700941891E+03  0.50400001928E-02 0.  1.
       -1    1    3    3    0  502 -0.60940896250E+03 -0.23000533944E+03 -0.92718406390E+02  0.65793498361E+03  0.50400001928E-02 0. -1.
</event>
<event>
 5   0  0.1857986E-03  0.1300428E+04  0.7818609E-02  0.9029226E-01
        1   -1    0    0  501    0  0.00000000000E+00  0.00000000000E+00  0.97295777771E+03  0.97295777773E+03  0.50400001928E-02 0. -1.
       -1   -1    0    0    0  501  0.00000000000E+00  0.00000000000E+00 -0.43452899214E+03  0.43452899217E+03  0.50400001928E-02 0.  1.
    10030    2    1    2    0    0  0.00000000000E+00  0.00000000000E+00  0.53842878558E+03  0.14074867699E+04  0.13004281796E+04 0.  0.
        1    1    3    3  502    0 -0.60404812435E+03  0.23582831330E+03  0.32099926587E+03  0.72355349395E+03  0.50400001928E-02 0. -1.
       -1    1    3    3    0  502  0.60404812435E+03 -0.23582831330E+03  0.21742951970E+03  0.68393327595E+03  0.50400001928E-02 0.  1.
</event>
<event>
 5   0  0.1857986E-03  0.1315913E+04  0.7818609E-02  0.9017040E-01
        1   -1    0    0  501    0  0.00000000000E+00  0.00000000000E+00  0.42879310230E+03  0.42879310233E+03  0.50400001928E-02 0. -1.
       -1   -1    0    0    0  501  0.00000000000E+00  0.00000000000E+00 -0.10095939674E+04  0.10095939674E+04  0.50400001928E-02 0.  1.
    10030    2    1    2    0    0  0.00000000000E+00  0.00000000000E+00 -0.58080086513E+03  0.14383870698E+04  0.13159132637E+04 0.  0.
        1    1    3    3  502    0  0.43897184326E+03  0.28175520829E+03  0.14795340930E+03  0.54219229792E+03  0.50400001928E-02 0. -1.
       -1    1    3    3    0  502 -0.43897184326E+03 -0.28175520829E+03 -0.72875427442E+03  0.89619477185E+03  0.50400001928E-02 0.  1.
</event>
<event>
 5   0  0.1814770E-03  0.1325777E+04  0.7818609E-02  0.9009370E-01
        1   -1    0    0  501    0  0.00000000000E+00  0.00000000000E+00  0.72170066969E+03  0.72170066970E+03  0.50400001928E-02 0.  1.
       -1   -1    0    0    0  501  0.00000000000E+00  0.00000000000E+00 -0.60886899613E+03  0.60886899615E+03  0.50400001928E-02 0. -1.
    10030    2    1    2    0    0  0.00000000000E+00  0.00000000000E+00  0.11283167356E+03  0.13305696659E+04  0.13257769983E+04 0.  0.
        5    1    3    3  502    0  0.14976469353E+03  0.56456652170E+03 -0.25814062302E+03  0.63861059504E+03  0.46999998093E+01 0. -1.
       -5    1    3    3    0  502 -0.14976469353E+03 -0.56456652170E+03  0.37097229658E+03  0.69195907081E+03  0.46999998093E+01 0.  1.
</event>
<event>
 5   0  0.1814770E-03  0.1295681E+04  0.7818609E-02  0.9032997E-01
        1   -1    0    0  501    0  0.00000000000E+00  0.00000000000E+00  0.48229759765E+03  0.48229759767E+03  0.50400001928E-02 0. -1.
       -1   -1    0    0    0  501  0.00000000000E+00  0.00000000000E+00 -0.87020404195E+03  0.87020404196E+03  0.50400001928E-02 0.  1.
    10030    2    1    2    0    0  0.00000000000E+00  0.00000000000E+00 -0.38790644430E+03  0.13525016396E+04  0.12956810085E+04 0.  0.
        5    1    3    3  502    0  0.56392534103E+03  0.12599694676E+03  0.11178765372E+03  0.58856230798E+03  0.46999998093E+01 0. -1.
       -5    1    3    3    0  502 -0.56392534103E+03 -0.12599694676E+03 -0.49969409802E+03  0.76393933165E+03  0.46999998093E+01 0.  1.
</event>
<event>
 5   0  0.1823154E-03  0.1077262E+04  0.7818609E-02  0.9227642E-01
       -1   -1    0    0    0  501  0.00000000000E+00  0.00000000000E+00  0.42684470090E+03  0.42684470093E+03  0.50400001928E-02 0. -1.
        1   -1    0    0  501    0  0.00000000000E+00  0.00000000000E+00 -0.67969258311E+03  0.67969258313E+03  0.50400001928E-02 0.  1.
    10030    2    1    2    0    0  0.00000000000E+00  0.00000000000E+00 -0.25284788221E+03  0.11065372841E+04  0.10772616718E+04 0.  0.
        2    1    3    3  502    0  0.12540163499E+03  0.49892419373E+03  0.37513650556E+02  0.51580829301E+03  0.25500000920E-02 0. -1.
       -2    1    3    3    0  502 -0.12540163499E+03 -0.49892419373E+03 -0.29036153277E+03  0.59072899105E+03  0.25500000920E-02 0.  1.
</event>
<event>
 5   0  0.1823154E-03  0.1279805E+04  0.7818609E-02  0.9045735E-01
        1   -1    0    0  501    0  0.00000000000E+00  0.00000000000E+00  0.21768357283E+04  0.21768357283E+04  0.50400001928E-02 0. -1.
       -1   -1    0    0    0  501  0.00000000000E+00  0.00000000000E+00 -0.18810572840E+03  0.18810572847E+03  0.50400001928E-02 0.  1.
    10030    2    1    2    0    0  0.00000000000E+00  0.00000000000E+00  0.19887299999E+04  0.23649414567E+04  0.12798050951E+04 0.  0.
        2    1    3    3  502    0 -0.20361647086E+03  0.53542233523E+03  0.46734789763E+03  0.73929074233E+03  0.25500000920E-02 0. -1.
       -2    1    3    3    0  502  0.20361647086E+03 -0.53542233523E+03  0.15213821022E+04  0.16256507144E+04  0.25500000920E-02 0.  1.
</event>
<event>
 5   0  0.1823154E-03  0.1272924E+04  0.7818609E-02  0.9051316E-01
       -1   -1    0    0    0  501  0.00000000000E+00  0.00000000000E+00  0.60738634108E+03  0.60738634110E+03  0.50400001928E-02 0.  1.
        1   -1    0    0  501    0  0.00000000000E+00  0.00000000000E+00 -0.66692984530E+03  0.66692984532E+03  0.50400001928E-02 0. -1.
    10030    2    1    2    0    0  0.00000000000E+00  0.00000000000E+00 -0.59543504221E+02  0.12743161864E+04  0.12729243159E+04 0.  0.
        2    1    3    3  502    0  0.49749376759E+03  0.83976067372E+02 -0.41818059125E+03  0.65530682553E+03  0.25500000920E-02 0. -1.
       -2    1    3    3    0  502 -0.49749376759E+03 -0.83976067372E+02  0.35863708703E+03  0.61900936090E+03  0.25500000920E-02 0.  1.
</event>
<event>
 5   0  0.3294720E-03  0.1297121E+04  0.7818609E-02  0.9031851E-01
       -2   -1    0    0    0  501  0.00000000000E+00  0.00000000000E+00  0.39065034958E+03  0.39065034958E+03  0.25500000920E-02 0. -1.
        2   -1    0    0  501    0  0.00000000000E+00  0.00000000000E+00 -0.10767447245E+04  0.10767447245E+04  0.25500000920E-02 0.  1.
    10030    2    1    2    0    0  0.00000000000E+00  0.00000000000E+00 -0.68609437495E+03  0.14673950741E+04  0.12971209705E+04 0.  0.
        5    1    3    3  502    0  0.46172593440E+03 -0.22002079298E+02  0.17156749155E+03  0.49308460140E+03  0.46999998093E+01 0. -1.
       -5    1    3    3    0  502 -0.46172593440E+03  0.22002079298E+02 -0.85766186650E+03  0.97431047271E+03  0.46999998093E+01 0.  1.
</event>
<event>
 5   0  0.1857986E-03  0.1305716E+04  0.7818609E-02  0.9025044E-01
        1   -1    0    0  501    0  0.00000000000E+00  0.00000000000E+00  0.15522422220E+04  0.15522422220E+04  0.50400001928E-02 0.  1.
       -1   -1    0    0    0  501  0.00000000000E+00  0.00000000000E+00 -0.27458587520E+03  0.27458587525E+03  0.50400001928E-02 0. -1.
    10030    2    1    2    0    0  0.00000000000E+00  0.00000000000E+00  0.12776563467E+04  0.18268280972E+04  0.13057163384E+04 0.  0.
        1    1    3    3  502    0 -0.12192698637E+03 -0.62715656387E+03  0.82670522022E+03  0.10448124553E+04  0.50400001928E-02 0.  1.
       -1    1    3    3    0  502  0.12192698637E+03  0.62715656387E+03  0.45095112653E+03  0.78201564189E+03  0.50400001928E-02 0. -1.
</event>
<event>
 5   0  0.1254125E-03  0.1301393E+04  0.7818609E-02  0.9028461E-01
       -3   -1    0    0    0  501  0.00000000000E+00  0.00000000000E+00  0.32480007549E+03  0.32480009119E+03  0.10100000352E+00 0. -1.
        3   -1    0    0  501    0  0.00000000000E+00  0.00000000000E+00 -0.13035901959E+04  0.13035901998E+04  0.10100000352E+00 0.  1.
    10030    2    1    2    0    0  0.00000000000E+00  0.00000000000E+00 -0.97879012039E+03  0.16283902910E+04  0.13013934224E+04 0.  0.
        2    1    3    3  502    0 -0.11174562528E+03  0.29899787279E+03 -0.11988968355E+04  0.12406612893E+04  0.25500000920E-02 0.  1.
       -2    1    3    3    0  502  0.11174562528E+03 -0.29899787279E+03  0.22010671508E+03  0.38772900166E+03  0.25500000920E-02 0. -1.
</event>
<event>
 5   0  0.3262927E-03  0.1313739E+04  0.7818609E-02  0.9018740E-01
        2   -1    0    0  501    0  0.00000000000E+00  0.00000000000E+00  0.41042760476E+03  0.41042760477E+03  0.25500000920E-02 0. -1.
       -2   -1    0    0    0  501  0.00000000000E+00  0.00000000000E+00 -0.10512884844E+04  0.10512884844E+04  0.25500000920E-02 0.  1.
    10030    2    1    2    0    0  0.00000000000E+00  0.00000000000E+00 -0.64086087960E+03  0.14617160891E+04  0.13137394179E+04 0.  0.
        3    1    3    3  502    0 -0.19892764043E+03 -0.24711846371E+03  0.31954238253E+03  0.45027445594E+03  0.10100000352E+00 0. -1.
       -3    1    3    3    0  502  0.19892764043E+03  0.24711846371E+03 -0.96040326213E+03  0.10114416332E+04  0.10100000352E+00 0.  1.
</event>
<event>
 5   0  0.1803959E-03  0.1329792E+04  0.7818609E-02  0.9006268E-01
       -1   -1    0    0    0  501  0.00000000000E+00  0.00000000000E+00  0.13390934855E+04  0.13390934856E+04  0.50400001928E-02 0.  1.
        1   -1    0    0  501    0  0.00000000000E+00  0.00000000000E+00 -0.33013868117E+03  0.33013868121E+03  0.50400001928E-02 0. -1.
    10030    2    1    2    0    0  0.00000000000E+00  0.00000000000E+00  0.10089548044E+04  0.16692321668E+04  0.13297917992E+04 0.  0.
        4    1    3    3  502    0  0.63603051780E+03 -0.42229950565E+02  0.74187311496E+03  0.97810813303E+03  0.12699999809E+01 0. -1.
       -4    1    3    3    0  502 -0.63603051780E+03  0.42229950565E+02  0.26708168941E+03  0.69112403374E+03  0.12699999809E+01 0.  1.
</event>
<event>
 5   0  0.3259968E-03  0.1223269E+04  0.7818609E-02  0.9092730E-01
        2   -1    0    0  501    0  0.00000000000E+00  0.00000000000E+00  0.62706223500E+03  0.62706223500E+03  0.25500000920E-02 0.  1.
       -2   -1    0    0    0  501  0.00000000000E+00  0.00000000000E+00 -0.59658607220E+03  0.59658607220E+03  0.25500000920E-02 0. -1.
    10030    2    1    2    0    0  0.00000000000E+00  0.00000000000E+00  0.30476162803E+02  0.12236483072E+04  0.12232687289E+04 0.  0.
        4    1    3    3  502    0  0.41111132821E+03 -0.32334066785E+03  0.33240628840E+03  0.61972353928E+03  0.12699999809E+01 0.  1.
       -4    1    3    3    0  502 -0.41111132821E+03  0.32334066785E+03 -0.30193012560E+03  0.60392476792E+03  0.12699999809E+01 0. -1.
</event>
<event>
 5   0  0.3336609E-03  0.1352140E+04  0.7818609E-02  0.8989209E-01
       -2   -1    0    0    0  501  0.00000000000E+00  0.00000000000E+00  0.30330239953E+03  0.30330239954E+03  0.25500000920E-02 0. -1.
        2   -1    0    0  501    0  0.00000000000E+00  0.00000000000E+00 -0.15069809383E+04  0.15069809383E+04  0.25500000920E-02 0.  1.
    10030    2    1    2    0    0  0.00000000000E+00  0.00000000000E+00 -0.12036785387E+04  0.18102833378E+04  0.13521404285E+04 0.  0.
        1    1    3    3  502    0  0.37839114379E+03  0.36092550280E+02 -0.13503726768E+04  0.14028502757E+04  0.50400001928E-02 0.  1.
       -1    1    3    3    0  502 -0.37839114379E+03 -0.36092550280E+02  0.14669413807E+03  0.40743306206E+03  0.50400001928E-02 0. -1.
</event>
<event>
 5   0  0.1873488E-03  0.1382167E+04  0.7818609E-02  0.8966829E-01
       -1   -1    0    0    0  501  0.00000000000E+00  0.00000000000E+00  0.54502123888E+03  0.54502123891E+03  0.50400001928E-02 0.  1.
        1   -1    0    0  501    0  0.00000000000E+00  0.00000000000E+00 -0.87628907352E+03  0.87628907354E+03  0.50400001928E-02 0. -1.
    10030    2    1    2    0    0  0.00000000000E+00  0.00000000000E+00 -0.33126783464E+03  0.14213103124E+04  0.13821666419E+04 0.  0.
        3    1    3    3  502    0  0.34903103537E+03  0.48090727073E+03 -0.52847470834E+03  0.79522323549E+03  0.10100000352E+00 0.  1.
       -3    1    3    3    0  502 -0.34903103537E+03 -0.48090727073E+03  0.19720687370E+03  0.62608707696E+03  0.10100000352E+00 0. -1.
</event>
<event>
 5   0  0.3262927E-03  0.1444711E+04  0.7818609E-02  0.8922076E-01
        2   -1    0    0  501    0  0.00000000000E+00  0.00000000000E+00  0.11220254056E+04  0.11220254056E+04  0.25500000920E-02 0. -1.
       -2   -1    0    0    0  501  0.00000000000E+00  0.00000000000E+00 -0.46504951827E+03  0.46504951827E+03  0.25500000920E-02 0.  1.
    10030    2    1    2    0    0  0.00000000000E+00  0.00000000000E+00  0.65697588731E+03  0.15870749239E+04  0.14447108698E+04 0.  0.
        3    1    3    3  502    0  0.45396447830E+03  0.29240604263E+03 -0.19859719682E+03  0.57534850144E+03  0.10100000352E+00 0.  1.
       -3    1    3    3    0  502 -0.45396447830E+03 -0.29240604263E+03  0.85557308413E+03  0.10117264224E+04  0.10100000352E+00 0. -1.
</event>
<event>
 5   0  0.1803959E-03  0.1166322E+04  0.7818609E-02  0.9142857E-01
        1   -1    0    0  501    0  0.00000000000E+00  0.00000000000E+00  0.44016112395E+03  0.44016112398E+03  0.50400001928E-02 0.  1.
       -1   -1    0    0    0  501  0.00000000000E+00  0.00000000000E+00 -0.77261849505E+03  0.77261849507E+03  0.50400001928E-02 0. -1.
    10030    2    1    2    0    0  0.00000000000E+00  0.00000000000E+00 -0.33245737110E+03  0.12127796190E+04  0.11663217827E+04 0.  0.
        4    1    3    3  502    0  0.11930504003E+03  0.20317269706E+03 -0.72092092387E+03  0.75844672112E+03  0.12699999809E+01 0. -1.
       -4    1    3    3    0  502 -0.11930504003E+03 -0.20317269706E+03  0.38846355277E+03  0.45433289793E+03  0.12699999809E+01 0.  1.
</event>
<event>
 5   0  0.3299104E-03  0.1261996E+04  0.7818609E-02  0.9060258E-01
        2   -1    0    0  501    0  0.00000000000E+00  0.00000000000E+00  0.12250482063E+04  0.12250482063E+04  0.25500000920E-02 0. -1.
       -2   -1    0    0    0  501  0.00000000000E+00  0.00000000000E+00 -0.32501449512E+03  0.32501449513E+03  0.25500000920E-02 0.  1.
    10030    2    1    2    0    0  0.00000000000E+00  0.00000000000E+00  0.90003371115E+03  0.15500627014E+04  0.12619959180E+04 0.  0.
        2    1    3    3  502    0 -0.18139982534E+02  0.36193617857E+02  0.12234513356E+04  0.12241209938E+04  0.25500000920E-02 0. -1.
       -2    1    3    3    0  502  0.18139982534E+02 -0.36193617857E+02 -0.32341762444E+03  0.32594170759E+03  0.25500000920E-02 0.  1.
</event>
<event>
 5   0  0.1803959E-03  0.1068789E+04  0.7818609E-02  0.9236158E-01
       -1   -1    0    0    0  501  0.00000000000E+00  0.00000000000E+00  0.16045930039E+03  0.16045930047E+03  0.50400001928E-02 0. -1.
        1   -1    0    0  501    0  0.00000000000E+00  0.00000000000E+00 -0.17797501977E+04  0.17797501977E+04  0.50400001928E-02 0.  1.
    10030    2    1    2    0    0  0.00000000000E+00  0.00000000000E+00 -0.16192908973E+04  0.19402094981E+04  0.10687889814E+04 0.  0.
        4    1    3    3  502    0  0.27726372897E+02  0.57822775870E+02  0.15344661370E+03  0.16631206005E+03  0.12699999809E+01 0. -1.
       -4    1    3    3    0  502 -0.27726372897E+02 -0.57822775870E+02 -0.17727375110E+04  0.17738974381E+04  0.12699999809E+01 0.  1.
</event>
<event>
 5   0  0.1803959E-03  0.1164811E+04  0.7818609E-02  0.9144228E-01
        1   -1    0    0  501    0  0.00000000000E+00  0.00000000000E+00  0.37125759493E+03  0.37125759497E+03  0.50400001928E-02 0.  1.
       -1   -1    0    0    0  501  0.00000000000E+00  0.00000000000E+00 -0.91364061679E+03  0.91364061680E+03  0.50400001928E-02 0. -1.
    10030    2    1    2    0    0  0.00000000000E+00  0.00000000000E+00 -0.54238302185E+03  0.12848982118E+04  0.11648107452E+04 0.  0.
        4    1    3    3  502    0  0.44013142214E+03  0.29988735477E+03 -0.53117212577E+03  0.75219248494E+03  0.12699999809E+01 0. -1.
       -4    1    3    3    0  502 -0.44013142214E+03 -0.29988735477E+03 -0.11210896081E+02  0.53270572683E+03  0.12699999809E+01 0.  1.
</event>
<event>
 5   0  0.1823154E-03  0.1301749E+04  0.7818609E-02  0.9028179E-01
       -1   -1    0    0    0  501  0.00000000000E+00  0.00000000000E+00  0.18180694457E+03  0.18180694464E+03  0.50400001928E-02 0.  1.
        1   -1    0    0  501    0  0.00000000000E+00  0.00000000000E+00 -0.23301504909E+04  0.23301504909E+04  0.50400001928E-02 0. -1.
    10030    2    1    2    0    0  0.00000000000E+00  0.00000000000E+00 -0.21483435463E+04  0.25119574355E+04  0.13017488871E+04 0.  0.
        2    1    3    3  502    0 -0.18172907605E+03  0.61828001333E+03 -0.12504171737E+04  0.14067120317E+04  0.25500000920E-02 0.  1.
       -2    1    3    3    0  502  0.18172907605E+03 -0.61828001333E+03 -0.89792637261E+03  0.11052454038E+04  0.25500000920E-02 0. -1.
</event>
<event>
 5   0  0.3299104E-03  0.1378187E+04  0.7818609E-02  0.8969761E-01
        2   -1    0    0  501    0  0.00000000000E+00  0.00000000000E+00  0.84881238776E+03  0.84881238777E+03  0.25500000920E-02 0.  1.
       -2   -1    0    0    0  501  0.00000000000E+00  0.00000000000E+00 -0.55942820766E+03  0.55942820767E+03  0.25500000920E-02 0. -1.
    10030    2    1    2    0    0  0.00000000000E+00  0.00000000000E+00  0.28938418010E+03  0.14082405954E+04  0.13781866241E+04 0.  0.
        2    1    3    3  502    0 -0.36646136831E+03 -0.69675968709E+02  0.73672396973E+03  0.82577895509E+03  0.25500000920E-02 0.  1.
       -2    1    3    3    0  502  0.36646136831E+03  0.69675968709E+02 -0.44733978963E+03  0.58246164034E+03  0.25500000920E-02 0. -1.
</event>
<event>
 5   0  0.3336609E-03  0.1347922E+04  0.7818609E-02  0.8992403E-01
       -2   -1    0    0    0  501  0.00000000000E+00  0.00000000000E+00  0.36897945553E+03  0.36897945554E+03  0.25500000920E-02 0.  1.
        2   -1    0    0  501    0  0.00000000000E+00  0.00000000000E+00 -0.12310263503E+04  0.12310263503E+04  0.25500000920E-02 0. -1.
    10030    2    1    2    0    0  0.00000000000E+00  0.00000000000E+00 -0.86204689479E+03  0.16000058059E+04  0.13479220044E+04 0.  0.
        1    1    3    3  502    0  0.26747288536E+03 -0.52095479475E+03 -0.35036788616E+02  0.58665425862E+03  0.50400001928E-02 0.  1.
       -1    1    3    3    0  502 -0.26747288536E+03  0.52095479475E+03 -0.82701010617E+03  0.10133515473E+04  0.50400001928E-02 0. -1.
</event>
<event>
 5   0  0.3294720E-03  0.1141263E+04  0.7818609E-02  0.9165882E-01
       -2   -1    0    0    0  501  0.00000000000E+00  0.00000000000E+00  0.37035272093E+03  0.37035272094E+03  0.25500000920E-02 0.  1.
        2   -1    0    0  501    0  0.00000000000E+00  0.00000000000E+00 -0.87921655190E+03  0.87921655190E+03  0.25500000920E-02 0. -1.
    10030    2    1    2    0    0  0.00000000000E+00  0.00000000000E+00 -0.50886383097E+03  0.12495692728E+04  0.11412628835E+04 0.  0.
        5    1    3    3  502    0 -0.14510378313E+03  0.12135601192E+03 -0.84386654246E+03  0.86482091845E+03  0.46999998093E+01 0. -1.
       -5    1    3    3    0  502  0.14510378313E+03 -0.12135601192E+03  0.33500271149E+03  0.38474835440E+03  0.46999998093E+01 0.  1.
</event>
<event>
 5   0  0.3336609E-03  0.1332889E+04  0.7818609E-02  0.9003883E-01
       -2   -1    0    0    0  501  0.00000000000E+00  0.00000000000E+00  0.62768524981E+03  0.62768524982E+03  0.25500000920E-02 0. -1.
        2   -1    0    0  501    0  0.00000000000E+00  0.00000000000E+00 -0.70759750117E+03  0.70759750118E+03  0.25500000920E-02 0.  1.
    10030    2    1    2    0    0  0.00000000000E+00  0.00000000000E+00 -0.79912251361E+02  0.13352827510E+04  0.13328893642E+04 0.  0.
        1    1    3    3  502    0  0.21559516441E+03 -0.17798211787E+03  0.56610093007E+03  0.63137086744E+03  0.50400001928E-02 0. -1.
       -1    1    3    3    0  502 -0.21559516441E+03  0.17798211787E+03 -0.64601318143E+03  0.70391188355E+03  0.50400001928E-02 0.  1.
</event>
<event>
 5   0  0.1857986E-03  0.1317951E+04  0.7818609E-02  0.9015450E-01
        1   -1    0    0  501    0  0.00000000000E+00  0.00000000000E+00  0.57077316565E+03  0.57077316567E+03  0.50400001928E-02 0.  1.
       -1   -1    0    0    0  501  0.00000000000E+00  0.00000000000E+00 -0.76080744517E+03  0.76080744518E+03  0.50400001928E-02 0. -1.
    10030    2    1    2    0    0  0.00000000000E+00  0.00000000000E+00 -0.19003427951E+03  0.13315806109E+04  0.13179506424E+04 0.  0.
        1    1    3    3  502    0  0.12953047936E+03  0.27638090476E+03 -0.68508089954E+03  0.75000025903E+03  0.50400001928E-02 0. -1.
       -1    1    3    3    0  502 -0.12953047936E+03 -0.27638090476E+03  0.49504662003E+03  0.58158035183E+03  0.50400001928E-02 0.  1.
</event>
<event>
 5   0  0.3294720E-03  0.1347712E+04  0.7818609E-02  0.8992562E-01
        2   -1    0    0  501    0  0.00000000000E+00  0.00000000000E+00  0.22482489519E+04  0.22482489519E+04  0.25500000920E-02 0.  1.
       -2   -1    0    0    0  501  0.00000000000E+00  0.00000000000E+00 -0.20197127389E+03  0.20197127391E+03  0.25500000920E-02 0. -1.
    10030    2    1    2    0    0  0.00000000000E+00  0.00000000000E+00  0.20462776780E+04  0.24502202258E+04  0.13477116975E+04 0.  0.
        5    1    3    3  502    0  0.85702162379E+02  0.66447477444E+03  0.89218769589E+03  0.11157475347E+04  0.46999998093E+01 0.  1.
       -5    1    3    3    0  502 -0.85702162379E+02 -0.66447477444E+03  0.11540899821E+04  0.13344726911E+04  0.46999998093E+01 0. -1.
</event>
<event>
 5   0  0.1254125E-03  0.1293722E+04  0.7818609E-02  0.9034559E-01
        3   -1    0    0  501    0  0.00000000000E+00  0.00000000000E+00  0.67755723875E+03  0.67755724628E+03  0.10100000352E+00 0. -1.
       -3   -1    0    0    0  501  0.00000000000E+00  0.00000000000E+00 -0.61755511451E+03  0.61755512277E+03  0.10100000352E+00 0.  1.
    10030    2    1    2    0    0  0.00000000000E+00  0.00000000000E+00  0.60002124244E+02  0.12951123690E+04  0.12937216832E+04 0.  0.
        4    1    3    3  502    0 -0.59071378433E+03 -0.17431859685E+02  0.29330602264E+03  0.65975501555E+03  0.12699999809E+01 0. -1.
       -4    1    3    3    0  502  0.59071378433E+03  0.17431859685E+02 -0.23330389839E+03  0.63535735349E+03  0.12699999809E+01 0.  1.
</event>
<event>
 5   0  0.3259968E-03  0.1091713E+04  0.7818609E-02  0.9213307E-01
       -2   -1    0    0    0  501  0.00000000000E+00  0.00000000000E+00  0.18403354523E+03  0.18403354525E+03  0.25500000920E-02 0. -1.
        2   -1    0    0  501    0  0.00000000000E+00  0.00000000000E+00 -0.16190480274E+04  0.16190480274E+04  0.25500000920E-02 0.  1.
    10030    2    1    2    0    0  0.00000000000E+00  0.00000000000E+00 -0.14350144822E+04  0.18030815727E+04  0.10917126882E+04 0.  0.
        4    1    3    3  502    0  0.39846869771E+03 -0.17176331010E+03 -0.12644803582E+04  0.13368590527E+04  0.12699999809E+01 0.  1.
       -4    1    3    3    0  502 -0.39846869771E+03  0.17176331010E+03 -0.17053412402E+03  0.46622251994E+03  0.12699999809E+01 0. -1.
</event>
<event>
 5   0  0.3259968E-03  0.1305960E+04  0.7818609E-02  0.9024853E-01
       -2   -1    0    0    0  501  0.00000000000E+00  0.00000000000E+00  0.12003913379E+04  0.12003913379E+04  0.25500000920E-02 0.  1.
        2   -1    0    0  501    0  0.00000000000E+00  0.00000000000E+00 -0.35520296510E+03  0.35520296511E+03  0.25500000920E-02 0. -1.
    10030    2    1    2    0    0  0.00000000000E+00  0.00000000000E+00  0.84518837282E+03  0.15555943030E+04  0.13059595132E+04 0.  0.
        4    1    3    3  502    0 -0.23912202221E+03 -0.47263121054E+03  0.87745359608E+03  0.10249322070E+04  0.12699999809E+01 0. -1.
       -4    1    3    3    0  502  0.23912202221E+03  0.47263121054E+03 -0.32265223260E+02  0.53066209608E+03  0.12699999809E+01 0.  1.
</event>
<event>
 5   0  0.1823154E-03  0.1289081E+04  0.7818609E-02  0.9038269E-01
       -1   -1    0    0    0  501  0.00000000000E+00  0.00000000000E+00  0.71264756782E+03  0.71264756784E+03  0.50400001928E-02 0.  1.
        1   -1    0    0  501    0  0.00000000000E+00  0.00000000000E+00 -0.58294280167E+03  0.58294280169E+03  0.50400001928E-02 0. -1.
    10030    2    1    2    0    0  0.00000000000E+00  0.00000000000E+00  0.12970476615E+03  0.12955903695E+04  0.12890814867E+04 0.  0.
        2    1    3    3  502    0 -0.23660889279E+03  0.35140151080E+03  0.55306841507E+03  0.69667170295E+03  0.25500000920E-02 0.  1.
       -2    1    3    3    0  502  0.23660889279E+03 -0.35140151080E+03 -0.42336364892E+03  0.59891866658E+03  0.25500000920E-02 0. -1.
</event>
<event>
 5   0  0.1857986E-03  0.1222150E+04  0.7818609E-02  0.9093687E-01
       -1   -1    0    0    0  501  0.00000000000E+00  0.00000000000E+00  0.60922246495E+03  0.60922246497E+03  0.50400001928E-02 0. -1.
        1   -1    0    0  501    0  0.00000000000E+00  0.00000000000E+00 -0.61293283248E+03  0.61293283250E+03  0.50400001928E-02 0.  1.
    10030    2    1    2    0    0  0.00000000000E+00  0.00000000000E+00 -0.37103675276E+01  0.12221552975E+04  0.12221496653E+04 0.  0.
        1    1    3    3  502    0  0.78201520514E+01 -0.46760406749E+02 -0.61109091944E+03  0.61292724060E+03  0.50400001928E-02 0.  1.
       -1    1    3    3    0  502 -0.78201520514E+01  0.46760406749E+02  0.60738055191E+03  0.60922805688E+03  0.50400001928E-02 0. -1.
</event>
<event>
 5   0  0.1814770E-03  0.1279092E+04  0.7818609E-02  0.9046311E-01
        1   -1    0    0  501    0  0.00000000000E+00  0.00000000000E+00  0.12504339177E+04  0.12504339177E+04  0.50400001928E-02 0. -1.
       -1   -1    0    0    0  501  0.00000000000E+00  0.00000000000E+00 -0.32710184449E+03  0.32710184453E+03  0.50400001928E-02 0.  1.
    10030    2    1    2    0    0  0.00000000000E+00  0.00000000000E+00  0.92333207321E+03  0.15775357622E+04  0.12790922421E+04 0.  0.
        5    1    3    3  502    0  0.48080663919E+02  0.89420145482E+02 -0.31707796402E+03  0.33296882425E+03  0.46999998093E+01 0.  1.
       -5    1    3    3    0  502 -0.48080663919E+02 -0.89420145482E+02  0.12404100372E+04  0.12445669380E+04  0.46999998093E+01 0. -1.
</event>
<event>
 5   0  0.3259968E-03  0.1307437E+04  0.7818609E-02  0.9023689E-01
       -2   -1    0    0    0  501  0.00000000000E+00  0.00000000000E+00  0.48933004958E+03  0.48933004958E+03  0.25500000920E-02 0.  1.
        2   -1    0    0  501    0  0.00000000000E+00  0.00000000000E+00 -0.87333216160E+03  0.87333216161E+03  0.25500000920E-02 0. -1.
    10030    2    1    2    0    0  0.00000000000E+00  0.00000000000E+00 -0.38400211203E+03  0.13626622112E+04  0.13074366829E+04 0.  0.
        4    1    3    3  502    0  0.50070507772E+03  0.16178513897E+03 -0.59628529254E+03  0.79525956080E+03  0.12699999809E+01 0. -1.
       -4    1    3    3    0  502 -0.50070507772E+03 -0.16178513897E+03  0.21228318051E+03  0.56740265039E+03  0.12699999809E+01 0.  1.
</event>
<event>
 5   0  0.3294720E-03  0.1298178E+04  0.7818609E-02  0.9031012E-01
        2   -1    0    0  501    0  0.00000000000E+00  0.00000000000E+00  0.24184575873E+04  0.24184575873E+04  0.25500000920E-02 0.  1.
       -2   -1    0    0    0  501  0.00000000000E+00  0.00000000000E+00 -0.17420864200E+03  0.17420864202E+03  0.25500000920E-02 0. -1.
    10030    2    1    2    0    0  0.00000000000E+00  0.00000000000E+00  0.22442489453E+04  0.25926662293E+04  0.12981775102E+04 0.  0.
        5    1    3    3  502    0  0.43722045426E+03 -0.40610437687E+03  0.61211873431E+03  0.85486485799E+03  0.46999998093E+01 0.  1.
       -5    1    3    3    0  502 -0.43722045426E+03  0.40610437687E+03  0.16321302109E+04  0.17378013713E+04  0.46999998093E+01 0. -1.
</event>
<event>
 5   0  0.3336609E-03  0.1330804E+04  0.7818609E-02  0.9005488E-01
        2   -1    0    0  501    0  0.00000000000E+00  0.00000000000E+00  0.73935792989E+03  0.73935792989E+03  0.25500000920E-02 0. -1.
       -2   -1    0    0    0  501  0.00000000000E+00  0.00000000000E+00 -0.59884356784E+03  0.59884356785E+03  0.25500000920E-02 0.  1.
    10030    2    1    2    0    0  0.00000000000E+00  0.00000000000E+00  0.14051436205E+03  0.13382014977E+04  0.13308038783E+04 0.  0.
        1    1    3    3  502    0 -0.10688475620E+03  0.54382504314E+02  0.72840129123E+03  0.73820745659E+03  0.50400001928E-02 0. -1.
       -1    1    3    3    0  502  0.10688475620E+03 -0.54382504314E+02 -0.58788692918E+03  0.59999404115E+03  0.50400001928E-02 0.  1.
</event>
<event>
 5   0  0.3336609E-03  0.1320915E+04  0.7818609E-02  0.9013142E-01
        2   -1    0    0  501    0  0.00000000000E+00  0.00000000000E+00  0.69569816515E+03  0.69569816516E+03  0.25500000920E-02 0. -1.
       -2   -1    0    0    0  501  0.00000000000E+00  0.00000000000E+00 -0.62700210145E+03  0.62700210146E+03  0.25500000920E-02 0.  1.
    10030    2    1    2    0    0  0.00000000000E+00  0.00000000000E+00  0.68696063699E+02  0.13227002666E+04  0.13209151548E+04 0.  0.
        1    1    3    3  502    0 -0.63307836068E+03  0.27914334301E+02  0.22070916430E+03  0.67102902773E+03  0.50400001928E-02 0. -1.
       -1    1    3    3    0  502  0.63307836068E+03 -0.27914334301E+02 -0.15201310060E+03  0.65167123889E+03  0.50400001928E-02 0.  1.
</event>
<event>
 5   0  0.1814770E-03  0.1349210E+04  0.7818609E-02  0.8991426E-01
       -1   -1    0    0    0  501  0.00000000000E+00  0.00000000000E+00  0.46272000344E+03  0.46272000346E+03  0.50400001928E-02 0.  1.
        1   -1    0    0  501    0  0.00000000000E+00  0.00000000000E+00 -0.98351535506E+03  0.98351535507E+03  0.50400001928E-02 0. -1.
    10030    2    1    2    0    0  0.00000000000E+00  0.00000000000E+00 -0.52079535163E+03  0.14462353585E+04  0.13492104780E+04 0.  0.
        5    1    3    3  502    0  0.10625007745E+03  0.48566064220E+03 -0.74916478443E+03  0.89912474250E+03  0.46999998093E+01 0. -1.
       -5    1    3    3    0  502 -0.10625007745E+03 -0.48566064220E+03  0.22836943281E+03  0.54711061604E+03  0.46999998093E+01 0.  1.
</event>
<event>
 5   0  0.1814770E-03  0.1329661E+04  0.7818609E-02  0.9006369E-01
       -1   -1    0    0    0  501  0.00000000000E+00  0.00000000000E+00  0.44059178049E+03  0.44059178052E+03  0.50400001928E-02 0.  1.
        1   -1    0    0  501    0  0.00000000000E+00  0.00000000000E+00 -0.10031953085E+04  0.10031953085E+04  0.50400001928E-02 0. -1.
    10030    2    1    2    0    0  0.00000000000E+00  0.00000000000E+00 -0.56260352801E+03  0.14437870890E+04  0.13296610202E+04 0.  0.
        5    1    3    3  502    0  0.16321436347E+03 -0.60190877028E+03 -0.31219971771E+02  0.62444365064E+03  0.46999998093E+01 0.  1.
       -5    1    3    3    0  502 -0.16321436347E+03  0.60190877028E+03 -0.53138355624E+03  0.81934343839E+03  0.46999998093E+01 0. -1.
</event>
<event>
 5   0  0.3259968E-03  0.1293611E+04  0.7818609E-02  0.9034647E-01
        2   -1    0    0  501    0  0.00000000000E+00  0.00000000000E+00  0.83870453518E+03  0.83870453518E+03  0.25500000920E-02 0.  1.
       -2   -1    0    0    0  501  0.00000000000E+00  0.00000000000E+00 -0.49881371494E+03  0.49881371495E+03  0.25500000920E-02 0. -1.
    10030    2    1    2    0    0  0.00000000000E+00  0.00000000000E+00  0.33989082024E+03  0.13375182501E+04  0.12936109538E+04 0.  0.
        4    1    3    3  502    0 -0.48020709071E+03  0.39547610985E+03  0.35303049136E+03  0.71528479933E+03  0.12699999809E+01 0.  1.
       -4    1    3    3    0  502  0.48020709071E+03 -0.39547610985E+03 -0.13139671120E+02  0.62223345080E+03  0.12699999809E+01 0. -1.
</event>
<event>
 5   0  0.1803959E-03  0.1281210E+04  0.7818609E-02  0.9044600E-01
       -1   -1    0    0    0  501  0.00000000000E+00  0.00000000000E+00  0.69001104490E+03  0.69001104492E+03  0.50400001928E-02 0. -1.
        1   -1    0    0  501    0  0.00000000000E+00  0.00000000000E+00 -0.59473609598E+03  0.59473609601E+03  0.50400001928E-02 0.  1.
    10030    2    1    2    0    0  0.00000000000E+00  0.00000000000E+00  0.95274948914E+02  0.12847471409E+04  0.12812095458E+04 0.  0.
        4    1    3    3  502    0 -0.27752772293E+03 -0.37747859524E+03  0.48572031810E+03  0.67486114659E+03  0.12699999809E+01 0. -1.
       -4    1    3    3    0  502  0.27752772293E+03  0.37747859524E+03 -0.39044536919E+03  0.60988599433E+03  0.12699999809E+01 0.  1.
</event>
<event>
 5   0  0.3259968E-03  0.1326401E+04  0.7818609E-02  0.9008887E-01
       -2   -1    0    0    0  501  0.00000000000E+00  0.00000000000E+00  0.11438869294E+04  0.11438869294E+04  0.25500000920E-02 0.  1.
        2   -1    0    0  501    0  0.00000000000E+00  0.00000000000E+00 -0.38450933414E+03  0.38450933415E+03  0.25500000920E-02 0. -1.
    10030    2    1    2    0    0  0.00000000000E+00  0.00000000000E+00  0.75937759530E+03  0.15283962636E+04  0.13264014499E+04 0.  0.
        4    1    3    3  502    0  0.16885031387E+03 -0.63870058044E+03  0.44672708540E+03  0.79750583803E+03  0.12699999809E+01 0. -1.
       -4    1    3    3    0  502 -0.16885031387E+03  0.63870058044E+03  0.31265050990E+03  0.73089042557E+03  0.12699999809E+01 0.  1.
</event>
<event>
 5   0  0.1873488E-03  0.1103573E+04  0.7818609E-02  0.9201716E-01
       -1   -1    0    0    0  501  0.00000000000E+00  0.00000000000E+00  0.14923840438E+03  0.14923840447E+03  0.50400001928E-02 0.  1.
        1   -1    0    0  501    0  0.00000000000E+00  0.00000000000E+00 -0.20401489974E+04  0.20401489974E+04  0.50400001928E-02 0. -1.
    10030    2    1    2    0    0  0.00000000000E+00  0.00000000000E+00 -0.18909105930E+04  0.21893874019E+04  0.11035734342E+04 0.  0.
        3    1    3    3  502    0  0.24237874340E+03  0.85599034365E+02  0.23199349417E+02  0.25809469183E+03  0.10100000352E+00 0.  1.
       -3    1    3    3    0  502 -0.24237874340E+03 -0.85599034365E+02 -0.19141099425E+04  0.19312927101E+04  0.10100000352E+00 0. -1.
</event>
<event>
 5   0  0.1803959E-03  0.1272789E+04  0.7818609E-02  0.9051427E-01
        1   -1    0    0  501    0  0.00000000000E+00  0.00000000000E+00  0.12255591019E+04  0.12255591019E+04  0.50400001928E-02 0. -1.
       -1   -1    0    0    0  501  0.00000000000E+00  0.00000000000E+00 -0.33045961130E+03  0.33045961134E+03  0.50400001928E-02 0.  1.
    10030    2    1    2    0    0  0.00000000000E+00  0.00000000000E+00  0.89509949055E+03  0.15560187132E+04  0.12727887248E+04 0.  0.
        4    1    3    3  502    0 -0.61942552138E+03 -0.87360165013E+02  0.30457993548E+03  0.69576599871E+03  0.12699999809E+01 0.  1.
       -4    1    3    3    0  502  0.61942552138E+03  0.87360165013E+02  0.59051955507E+03  0.86025271449E+03  0.12699999809E+01 0. -1.
</event>
<event>
 5   0  0.1823154E-03  0.1233835E+04  0.7818609E-02  0.9083745E-01
       -1   -1    0    0    0  501  0.00000000000E+00  0.00000000000E+00  0.72880995318E+03  0.72880995320E+03  0.50400001928E-02 0. -1.
        1   -1    0    0  501    0  0.00000000000E+00  0.00000000000E+00 -0.52220381225E+03  0.52220381227E+03  0.50400001928E-02 0.  1.
    10030    2    1    2    0    0  0.00000000000E+00  0.00000000000E+00  0.20660614093E+03  0.12510137655E+04  0.12338352175E+04 0.  0.
        2    1    3    3  502    0 -0.46277008235E+03  0.13309202764E+03 -0.28770548038E+03  0.56093144001E+03  0.25500000920E-02 0.  1.
       -2    1    3    3    0  502  0.46277008235E+03 -0.13309202764E+03  0.49431162131E+03  0.69008232546E+03  0.25500000920E-02 0. -1.
</event>
<event>
 5   0  0.3336609E-03  0.1297661E+04  0.7818609E-02  0.9031422E-01
        2   -1    0    0  501    0  0.00000000000E+00  0.00000000000E+00  0.13511548654E+04  0.13511548654E+04  0.25500000920E-02 0. -1.
       -2   -1    0    0    0  501  0.00000000000E+00  0.00000000000E+00 -0.31157120582E+03  0.31157120583E+03  0.25500000920E-02 0.  1.
    10030    2    1    2    0    0  0.00000000000E+00  0.00000000000E+00  0.10395836596E+04  0.16627260712E+04  0.12976608966E+04 0.  0.
        1    1    3    3  502    0 -0.22714101478E+03 -0.46876318611E+02 -0.25664337571E+03  0.34591364842E+03  0.50400001928E-02 0.  1.
       -1    1    3    3    0  502  0.22714101478E+03  0.46876318611E+02  0.12962270353E+04  0.13168124228E+04  0.50400001928E-02 0. -1.
</event>
<event>
 5   0  0.1857986E-03  0.1305514E+04  0.7818609E-02  0.9025204E-01
        1   -1    0    0  501    0  0.00000000000E+00  0.00000000000E+00  0.48202574791E+03  0.48202574794E+03  0.50400001928E-02 0.  1.
       -1   -1    0    0    0  501  0.00000000000E+00  0.00000000000E+00 -0.88396081747E+03  0.88396081748E+03  0.50400001928E-02 0. -1.
    10030    2    1    2    0    0  0.00000000000E+00  0.00000000000E+00 -0.40193506955E+03  0.13659865654E+04  0.13055142653E+04 0.  0.
        1    1    3    3  502    0 -0.32739576526E+03  0.54699695457E+03 -0.54116069458E+02  0.63978293539E+03  0.50400001928E-02 0.  1.
       -1    1    3    3    0  502  0.32739576526E+03 -0.54699695457E+03 -0.34781900010E+03  0.72620363003E+03  0.50400001928E-02 0. -1.
</event>
<event>
 5   0  0.3336609E-03  0.1272044E+04  0.7818609E-02  0.9052033E-01
       -2   -1    0    0    0  501  0.00000000000E+00  0.00000000000E+00  0.46995095721E+03  0.46995095722E+03  0.25500000920E-02 0. -1.
        2   -1    0    0  501    0  0.00000000000E+00  0.00000000000E+00 -0.86077883085E+03  0.86077883085E+03  0.25500000920E-02 0.  1.
    10030    2    1    2    0    0  0.00000000000E+00  0.00000000000E+00 -0.39082787364E+03  0.13307297881E+04  0.12720437658E+04 0.  0.
        1    1    3    3  502    0  0.45726526265E+02 -0.43282373930E+03 -0.68059576640E+03  0.80786007561E+03  0.50400001928E-02 0.  1.
       -1    1    3    3    0  502 -0.45726526265E+02  0.43282373930E+03  0.28976789276E+03  0.52286971246E+03  0.50400001928E-02 0. -1.
</event>
<event>
 5   0  0.3299104E-03  0.1292089E+04  0.7818609E-02  0.9035862E-01
        2   -1    0    0  501    0  0.00000000000E+00  0.00000000000E+00  0.95631361731E+03  0.95631361731E+03  0.25500000920E-02 0. -1.
       -2   -1    0    0    0  501  0.00000000000E+00  0.00000000000E+00 -0.43644012372E+03  0.43644012373E+03  0.25500000920E-02 0.  1.
    10030    2    1    2    0    0  0.00000000000E+00  0.00000000000E+00  0.51987349359E+03  0.13927537410E+04  0.12920892128E+04 0.  0.
        2    1    3    3  502    0  0.26994161048E+03 -0.49473972115E+03  0.60035407360E+03  0.82344452057E+03  0.25500000920E-02 0. -1.
       -2    1    3    3    0  502 -0.26994161048E+03  0.49473972115E+03 -0.80480580011E+02  0.56930922048E+03  0.25500000920E-02 0.  1.
</event>
<event>
 5   0  0.3259968E-03  0.1345872E+04  0.7818609E-02  0.8993959E-01
        2   -1    0    0  501    0  0.00000000000E+00  0.00000000000E+00  0.81296177275E+03  0.81296177275E+03  0.25500000920E-02 0.  1.
       -2   -1    0    0    0  501  0.00000000000E+00  0.00000000000E+00 -0.55702829193E+03  0.55702829194E+03  0.25500000920E-02 0. -1.
    10030    2    1    2    0    0  0.00000000000E+00  0.00000000000E+00  0.25593348082E+03  0.13699900647E+04  0.13458717735E+04 0.  0.
        4    1    3    3  502    0  0.37237732632E+02 -0.83442090774E+02 -0.55068292685E+03  0.55821369570E+03  0.12699999809E+01 0. -1.
       -4    1    3    3    0  502 -0.37237732632E+02  0.83442090774E+02  0.80661640766E+03  0.81177636899E+03  0.12699999809E+01 0.  1.
</event>
<event>
 5   0  0.1823154E-03  0.1296198E+04  0.7818609E-02  0.9032586E-01
        1   -1    0    0  501    0  0.00000000000E+00  0.00000000000E+00  0.75175490894E+03  0.75175490896E+03  0.50400001928E-02 0. -1.
       -1   -1    0    0    0  501  0.00000000000E+00  0.00000000000E+00 -0.55873579037E+03  0.55873579040E+03  0.50400001928E-02 0.  1.
    10030    2    1    2    0    0  0.00000000000E+00  0.00000000000E+00  0.19301911857E+03  0.13104906994E+04  0.12961980917E+04 0.  0.
        2    1    3    3  502    0  0.39894183742E+03  0.11334414552E+03 -0.40700896140E+03  0.58108328115E+03  0.25500000920E-02 0.  1.
       -2    1    3    3    0  502 -0.39894183742E+03 -0.11334414552E+03  0.60002807997E+03  0.72940741820E+03  0.25500000920E-02 0. -1.
</event>
<event>
 5   0  0.1857986E-03  0.1268986E+04  0.7818609E-02  0.9054528E-01
        1   -1    0    0  501    0  0.00000000000E+00  0.00000000000E+00  0.51543852730E+03  0.51543852732E+03  0.50400001928E-02 0.  1.
       -1   -1    0    0    0  501  0.00000000000E+00  0.00000000000E+00 -0.78104626652E+03  0.78104626654E+03  0.50400001928E-02 0. -1.
    10030    2    1    2    0    0  0.00000000000E+00  0.00000000000E+00 -0.26560773922E+03  0.12964847939E+04  0.12689859533E+04 0.  0.
        1    1    3    3  502    0 -0.11061932341E+03 -0.55144286479E+03  0.16725324892E+03  0.58677041263E+03  0.50400001928E-02 0. -1.
       -1    1    3    3    0  502  0.11061932341E+03  0.55144286479E+03 -0.43286098814E+03  0.70971438123E+03  0.50400001928E-02 0.  1.
</event>
<event>
 5   0  0.3259968E-03  0.1306769E+04  0.7818609E-02  0.9024215E-01
        2   -1    0    0  501    0  0.00000000000E+00  0.00000000000E+00  0.18210533169E+04  0.18210533169E+04  0.25500000920E-02 0. -1.
       -2   -1    0    0    0  501  0.00000000000E+00  0.00000000000E+00 -0.23443089840E+03  0.23443089842E+03  0.25500000920E-02 0.  1.
    10030    2    1    2    0    0  0.00000000000E+00  0.00000000000E+00  0.15866224185E+04  0.20554842154E+04  0.13067687862E+04 0.  0.
        4    1    3    3  502    0 -0.78646709945E+02 -0.14533726480E+03 -0.20101492553E+03  0.26022459282E+03  0.12699999809E+01 0.  1.
       -4    1    3    3    0  502  0.78646709945E+02  0.14533726480E+03  0.17876373441E+04  0.17952596225E+04  0.12699999809E+01 0. -1.
</event>
<event>
 5   0  0.3294720E-03  0.1244387E+04  0.7818609E-02  0.9074868E-01
       -2   -1    0    0    0  501  0.00000000000E+00  0.00000000000E+00  0.32136590279E+03  0.32136590280E+03  0.25500000920E-02 0. -1.
        2   -1    0    0  501    0  0.00000000000E+00  0.00000000000E+00 -0.12046236372E+04  0.12046236372E+04  0.25500000920E-02 0.  1.
    10030    2    1    2    0    0  0.00000000000E+00  0.00000000000E+00 -0.88325773443E+03  0.15259895400E+04  0.12443873396E+04 0.  0.
        5    1    3    3  502    0 -0.27106369597E+03  0.36296382139E+03  0.81361812309E+02  0.46028262775E+03  0.46999998093E+01 0. -1.
       -5    1    3    3    0  502  0.27106369597E+03 -0.36296382139E+03 -0.96461954674E+03  0.10657069123E+04  0.46999998093E+01 0.  1.
</event>
<event>
 5   0  0.1823154E-03  0.1303603E+04  0.7818609E-02  0.9026713E-01
        1   -1    0    0  501    0  0.00000000000E+00  0.00000000000E+00  0.83025955288E+03  0.83025955289E+03  0.50400001928E-02 0.  1.
       -1   -1    0    0    0  501  0.00000000000E+00  0.00000000000E+00 -0.51170137290E+03  0.51170137292E+03  0.50400001928E-02 0. -1.
    10030    2    1    2    0    0  0.00000000000E+00  0.00000000000E+00  0.31855817998E+03  0.13419609258E+04  0.13036026283E+04 0.  0.
        2    1    3    3  502    0 -0.61243953072E+03  0.34144677099E+02  0.38621279043E+03  0.72485057581E+03  0.25500000920E-02 0.  1.
       -2    1    3    3    0  502  0.61243953072E+03 -0.34144677099E+02 -0.67654610450E+02  0.61711035000E+03  0.25500000920E-02 0. -1.
</event>
<event>
 5   0  0.1254125E-03  0.1302644E+04  0.7818609E-02  0.9027471E-01
       -3   -1    0    0    0  501  0.00000000000E+00  0.00000000000E+00  0.93378641144E+03  0.93378641690E+03  0.10100000352E+00 0. -1.
        3   -1    0    0  501    0  0.00000000000E+00  0.00000000000E+00 -0.45430112896E+03  0.45430114019E+03  0.10100000352E+00 0.  1.
    10030    2    1    2    0    0  0.00000000000E+00  0.00000000000E+00  0.47948528248E+03  0.13880875571E+04  0.13026438232E+04 0.  0.
        3    1    3    3  502    0  0.58647754186E+03 -0.26898554519E+03  0.14496423848E+03  0.66130459794E+03  0.10100000352E+00 0. -1.
       -3    1    3    3    0  502 -0.58647754186E+03  0.26898554519E+03  0.33452104400E+03  0.72678295915E+03  0.10100000352E+00 0.  1.
</event>
<event>
 5   0  0.1873488E-03  0.1216930E+04  0.7818609E-02  0.9098165E-01
       -1   -1    0    0    0  501  0.00000000000E+00  0.00000000000E+00  0.26926442564E+03  0.26926442569E+03  0.50400001928E-02 0.  1.
        1   -1    0    0  501    0  0.00000000000E+00  0.00000000000E+00 -0.13749669339E+04  0.13749669339E+04  0.50400001928E-02 0. -1.
    10030    2    1    2    0    0  0.00000000000E+00  0.00000000000E+00 -0.11057025082E+04  0.16442313596E+04  0.12169300420E+04 0.  0.
        3    1    3    3  502    0 -0.40856709203E+03 -0.38508824803E+03 -0.23595527254E+03  0.60901143528E+03  0.10100000352E+00 0.  1.
       -3    1    3    3    0  502  0.40856709203E+03  0.38508824803E+03 -0.86974723568E+03  0.10352199243E+04  0.10100000352E+00 0. -1.
</event>
<event>
 5   0  0.3299104E-03  0.1366672E+04  0.7818609E-02  0.8978303E-01
       -2   -1    0    0    0  501  0.00000000000E+00  0.00000000000E+00  0.16811746668E+04  0.16811746668E+04  0.25500000920E-02 0. -1.
        2   -1    0    0  501    0  0.00000000000E+00  0.00000000000E+00 -0.27775090405E+03  0.27775090406E+03  0.25500000920E-02 0.  1.
    10030    2    1    2    0    0  0.00000000000E+00  0.00000000000E+00  0.14034237627E+04  0.19589255708E+04  0.13666715532E+04 0.  0.
        2    1    3    3  502    0  0.34101959340E+03 -0.15504718189E+03 -0.11745246259E+03  0.39259275677E+03  0.25500000920E-02 0.  1.
       -2    1    3    3    0  502 -0.34101959340E+03  0.15504718189E+03  0.15208762253E+04  0.15663328141E+04  0.25500000920E-02 0. -1.
</event>
<event>
 5   0  0.3259968E-03  0.1233551E+04  0.7818609E-02  0.9083986E-01
        2   -1    0    0  501    0  0.00000000000E+00  0.00000000000E+00  0.57783259456E+03  0.57783259456E+03  0.25500000920E-02 0. -1.
       -2   -1    0    0    0  501  0.00000000000E+00  0.00000000000E+00 -0.65834324649E+03  0.65834324649E+03  0.25500000920E-02 0.  1.
    10030    2    1    2    0    0  0.00000000000E+00  0.00000000000E+00 -0.80510651929E+02  0.12361758411E+04  0.12335512737E+04 0.  0.
        4    1    3    3  502    0  0.69068504915E+02 -0.61255897425E+03 -0.60586864351E+02  0.61941208927E+03  0.12699999809E+01 0. -1.
       -4    1    3    3    0  502 -0.69068504915E+02  0.61255897425E+03 -0.19923787578E+02  0.61676375179E+03  0.12699999809E+01 0.  1.
</event>
<event>
 5   0  0.1857986E-03  0.1261881E+04  0.7818609E-02  0.9060353E-01
       -1   -1    0    0    0  501  0.00000000000E+00  0.00000000000E+00  0.76626525073E+03  0.76626525074E+03  0.50400001928E-02 0.  1.
        1   -1    0    0  501    0  0.00000000000E+00  0.00000000000E+00 -0.51951412605E+03  0.51951412608E+03  0.50400001928E-02 0. -1.
    10030    2    1    2    0    0  0.00000000000E+00  0.00000000000E+00  0.24675112468E+03  0.12857793768E+04  0.12618805365E+04 0.  0.
        1    1    3    3  502    0 -0.52753734416E+03  0.34162792707E+03  0.66823691259E+02  0.63203694179E+03  0.50400001928E-02 0. -1.
       -1    1    3    3    0  502  0.52753734416E+03 -0.34162792707E+03  0.17992743342E+03  0.65374243503E+03  0.50400001928E-02 0.  1.
</event>
<event>
 5   0  0.1857986E-03  0.1300732E+04  0.7818609E-02  0.9028985E-01
       -1   -1    0    0    0  501  0.00000000000E+00  0.00000000000E+00  0.96980721425E+03  0.96980721427E+03  0.50400001928E-02 0.  1.
        1   -1    0    0  501    0  0.00000000000E+00  0.00000000000E+00 -0.43614459736E+03  0.43614459738E+03  0.50400001928E-02 0. -1.
    10030    2    1    2    0    0  0.00000000000E+00  0.00000000000E+00  0.53366261690E+03  0.14059518117E+04  0.13007323737E+04 0.  0.
        1    1    3    3  502    0  0.69970821353E+02  0.62708637368E+03  0.96464891013E+02  0.63830925978E+03  0.50400001928E-02 0. -1.
       -1    1    3    3    0  502 -0.69970821353E+02 -0.62708637368E+03  0.43719772589E+03  0.76764255187E+03  0.50400001928E-02 0.  1.
</event>
<event>
 5   0  0.3262927E-03  0.1446224E+04  0.7818609E-02  0.8921023E-01
        2   -1    0    0  501    0  0.00000000000E+00  0.00000000000E+00  0.91468533365E+03  0.91468533365E+03  0.25500000920E-02 0. -1.
       -2   -1    0    0    0  501  0.00000000000E+00  0.00000000000E+00 -0.57166195253E+03  0.57166195254E+03  0.25500000920E-02 0.  1.
    10030    2    1    2    0    0  0.00000000000E+00  0.00000000000E+00  0.34302338111E+03  0.14863472862E+04  0.14462237777E+04 0.  0.
        3    1    3    3  502    0  0.74242737340E+02 -0.57482701906E+03 -0.27286439265E+03  0.64061928856E+03  0.10100000352E+00 0.  1.
       -3    1    3    3    0  502 -0.74242737340E+02  0.57482701906E+03  0.61588777377E+03  0.84572799763E+03  0.10100000352E+00 0. -1.
</event>
<event>
 5   0  0.1803959E-03  0.9493366E+03  0.7818609E-02  0.9365926E-01
        1   -1    0    0  501    0  0.00000000000E+00  0.00000000000E+00  0.52836854372E+03  0.52836854374E+03  0.50400001928E-02 0.  1.
       -1   -1    0    0    0  501  0.00000000000E+00  0.00000000000E+00 -0.42642584322E+03  0.42642584325E+03  0.50400001928E-02 0. -1.
    10030    2    1    2    0    0  0.00000000000E+00  0.00000000000E+00  0.10194270050E+03  0.95479438700E+03  0.94933661430E+03 0.  0.
        4    1    3    3  502    0  0.35377634304E+03  0.20374370236E+03 -0.19257611497E+03  0.45139380822E+03  0.12699999809E+01 0. -1.
       -4    1    3    3    0  502 -0.35377634304E+03 -0.20374370236E+03  0.29451881547E+03  0.50340057877E+03  0.12699999809E+01 0.  1.
</event>
<event>
 5   0  0.1857986E-03  0.1296866E+04  0.7818609E-02  0.9032054E-01
        1   -1    0    0  501    0  0.00000000000E+00  0.00000000000E+00  0.60521954490E+03  0.60521954492E+03  0.50400001928E-02 0.  1.
       -1   -1    0    0    0  501  0.00000000000E+00  0.00000000000E+00 -0.69473165048E+03  0.69473165049E+03  0.50400001928E-02 0. -1.
    10030    2    1    2    0    0  0.00000000000E+00  0.00000000000E+00 -0.89512105578E+02  0.12999511954E+04  0.12968657191E+04 0.  0.
        1    1    3    3  502    0  0.10183107360E+03  0.72165610465E+02 -0.68257783312E+03  0.69389476232E+03  0.50400001928E-02 0. -1.
       -1    1    3    3    0  502 -0.10183107360E+03 -0.72165610465E+02  0.59306572754E+03  0.60605643309E+03  0.50400001928E-02 0.  1.
</event>
<event>
 5   0  0.1254125E-03  0.1310823E+04  0.7818609E-02  0.9021026E-01
        3   -1    0    0  501    0  0.00000000000E+00  0.00000000000E+00  0.45491854969E+03  0.45491856090E+03  0.10100000352E+00 0.  1.
       -3   -1    0    0    0  501  0.00000000000E+00  0.00000000000E+00 -0.94426689130E+03  0.94426689671E+03  0.10100000352E+00 0. -1.
    10030    2    1    2    0    0  0.00000000000E+00  0.00000000000E+00 -0.48934834162E+03  0.13991854576E+04  0.13108234608E+04 0.  0.
        5    1    3    3  502    0 -0.61232446434E+03 -0.12581845541E+03 -0.45485063954E+03  0.77309942933E+03  0.46999998093E+01 0. -1.
       -5    1    3    3    0  502  0.61232446434E+03  0.12581845541E+03 -0.34497702084E+02  0.62608602827E+03  0.46999998093E+01 0.  1.
</event>
<event>
 5   0  0.1857986E-03  0.1353469E+04  0.7818609E-02  0.8988206E-01
        1   -1    0    0  501    0  0.00000000000E+00  0.00000000000E+00  0.14797479059E+04  0.14797479059E+04  0.50400001928E-02 0.  1.
       -1   -1    0    0    0  501  0.00000000000E+00  0.00000000000E+00 -0.30949184743E+03  0.30949184747E+03  0.50400001928E-02 0. -1.
    10030    2    1    2    0    0  0.00000000000E+00  0.00000000000E+00  0.11702560585E+04  0.17892397534E+04  0.13534694872E+04 0.  0.
        1    1    3    3  502    0 -0.54394332385E+02 -0.19651770837E+03  0.14381716450E+04  0.14525548642E+04  0.50400001928E-02 0.  1.
       -1    1    3    3    0  502  0.54394332385E+02  0.19651770837E+03 -0.26791558649E+03  0.33668488919E+03  0.50400001928E-02 0. -1.
</event>
<event>
 5   0  0.1873488E-03  0.1347621E+04  0.7818609E-02  0.8992631E-01
        1   -1    0    0  501    0  0.00000000000E+00  0.00000000000E+00  0.12877100336E+04  0.12877100336E+04  0.50400001928E-02 0. -1.
       -1   -1    0    0    0  501  0.00000000000E+00  0.00000000000E+00 -0.35258008225E+03  0.35258008229E+03  0.50400001928E-02 0.  1.
    10030    2    1    2    0    0  0.00000000000E+00  0.00000000000E+00  0.93512995135E+03  0.16402901159E+04  0.13476214745E+04 0.  0.
        3    1    3    3  502    0 -0.34240964018E+03  0.22894888484E+03 -0.18149703803E+03  0.45011458382E+03  0.10100000352E+00 0.  1.
       -3    1    3    3    0  502  0.34240964018E+03 -0.22894888484E+03  0.11166269894E+04  0.11901755321E+04  0.10100000352E+00 0. -1.
</event>
<event>
 5   0  0.3294720E-03  0.1203294E+04  0.7818609E-02  0.9109978E-01
        2   -1    0    0  501    0  0.00000000000E+00  0.00000000000E+00  0.12718760457E+04  0.12718760457E+04  0.25500000920E-02 0. -1.
       -2   -1    0    0    0  501  0.00000000000E+00  0.00000000000E+00 -0.28460249885E+03  0.28460249886E+03  0.25500000920E-02 0.  1.
    10030    2    1    2    0    0  0.00000000000E+00  0.00000000000E+00  0.98727354688E+03  0.15564785446E+04  0.12032939805E+04 0.  0.
        5    1    3    3  502    0  0.24345641574E+03  0.16725976271E+03 -0.18433053443E+03  0.34820495474E+03  0.46999998093E+01 0.  1.
       -5    1    3    3    0  502 -0.24345641574E+03 -0.16725976271E+03  0.11716040813E+04  0.12082735899E+04  0.46999998093E+01 0. -1.
</event>
<event>
 5   0  0.1803959E-03  0.1218162E+04  0.7818609E-02  0.9097107E-01
        1   -1    0    0  501    0  0.00000000000E+00  0.00000000000E+00  0.99760062446E+03  0.99760062447E+03  0.50400001928E-02 0. -1.
       -1   -1    0    0    0  501  0.00000000000E+00  0.00000000000E+00 -0.37187169907E+03  0.37187169910E+03  0.50400001928E-02 0.  1.
    10030    2    1    2    0    0  0.00000000000E+00  0.00000000000E+00  0.62572892539E+03  0.13694723236E+04  0.12181616301E+04 0.  0.
        4    1    3    3  502    0 -0.24747737626E+02  0.59230385430E+02 -0.36805669724E+03  0.37361482085E+03  0.12699999809E+01 0.  1.
       -4    1    3    3    0  502  0.24747737626E+02 -0.59230385430E+02  0.99378562263E+03  0.99585750272E+03  0.12699999809E+01 0. -1.
</event>
<event>
 5   0  0.1857986E-03  0.1311538E+04  0.7818609E-02  0.9020465E-01
       -1   -1    0    0    0  501  0.00000000000E+00  0.00000000000E+00  0.11887987158E+04  0.11887987158E+04  0.50400001928E-02 0. -1.
        1   -1    0    0  501    0  0.00000000000E+00  0.00000000000E+00 -0.36173721744E+03  0.36173721748E+03  0.50400001928E-02 0.  1.
    10030    2    1    2    0    0  0.00000000000E+00  0.00000000000E+00  0.82706149834E+03  0.15505359333E+04  0.13115376313E+04 0.  0.
        1    1    3    3  502    0  0.41182819140E+03  0.28597026317E+02  0.10159014932E+04  0.10965747093E+04  0.50400001928E-02 0. -1.
       -1    1    3    3    0  502 -0.41182819140E+03 -0.28597026317E+02 -0.18883999489E+03  0.45396122394E+03  0.50400001928E-02 0.  1.
</event>
<event>
 5   0  0.1857986E-03  0.1305604E+04  0.7818609E-02  0.9025133E-01
        1   -1    0    0  501    0  0.00000000000E+00  0.00000000000E+00  0.14835409741E+04  0.14835409741E+04  0.50400001928E-02 0.  1.
       -1   -1    0    0    0  501  0.00000000000E+00  0.00000000000E+00 -0.28725212794E+03  0.28725212798E+03  0.50400001928E-02 0. -1.
    10030    2    1    2    0    0  0.00000000000E+00  0.00000000000E+00  0.11962888461E+04  0.17707931021E+04  0.13056037710E+04 0.  0.
        1    1    3    3  502    0  0.61084609544E+03  0.14752705553E+03  0.35836986648E+03  0.72341284593E+03  0.50400001928E-02 0.  1.
       -1    1    3    3    0  502 -0.61084609544E+03 -0.14752705553E+03  0.83791897965E+03  0.10473802561E+04  0.50400001928E-02 0. -1.
</event>
<event>
 5   0  0.3294720E-03  0.1285653E+04  0.7818609E-02  0.9041021E-01
        2   -1    0    0  501    0  0.00000000000E+00  0.00000000000E+00  0.80298212465E+03  0.80298212465E+03  0.25500000920E-02 0.  1.
       -2   -1    0    0    0  501  0.00000000000E+00  0.00000000000E+00 -0.51461375645E+03  0.51461375646E+03  0.25500000920E-02 0. -1.
    10030    2    1    2    0    0  0.00000000000E+00  0.00000000000E+00  0.28836836820E+03  0.13175958811E+04  0.12856525931E+04 0.  0.
        5    1    3    3  502    0  0.59810221622E+03  0.15553905077E+03 -0.37085836952E+02  0.61912527542E+03  0.46999998093E+01 0. -1.
       -5    1    3    3    0  502 -0.59810221622E+03 -0.15553905077E+03  0.32545420515E+03  0.69847060569E+03  0.46999998093E+01 0.  1.
</event>
<event>
 5   0  0.3259968E-03  0.1270401E+04  0.7818609E-02  0.9053373E-01
       -2   -1    0    0    0  501  0.00000000000E+00  0.00000000000E+00  0.11037802859E+04  0.11037802859E+04  0.25500000920E-02 0.  1.
        2   -1    0    0  501    0  0.00000000000E+00  0.00000000000E+00 -0.36554334180E+03  0.36554334181E+03  0.25500000920E-02 0. -1.
    10030    2    1    2    0    0  0.00000000000E+00  0.00000000000E+00  0.73823694411E+03  0.14693236277E+04  0.12704007782E+04 0.  0.
        4    1    3    3  502    0  0.24401956465E+03 -0.44364432786E+03 -0.74491075813E+02  0.51177765763E+03  0.12699999809E+01 0. -1.
       -4    1    3    3    0  502 -0.24401956465E+03  0.44364432786E+03  0.81272801992E+03  0.95754597009E+03  0.12699999809E+01 0.  1.
</event>
<event>
 5   0  0.1814770E-03  0.1299781E+04  0.7818609E-02  0.9029739E-01
       -1   -1    0    0    0  501  0.00000000000E+00  0.00000000000E+00  0.33255992392E+03  0.33255992396E+03  0.50400001928E-02 0. -1.
        1   -1    0    0  501    0  0.00000000000E+00  0.00000000000E+00 -0.12700203655E+04  0.12700203655E+04  0.50400001928E-02 0.  1.
    10030    2    1    2    0    0  0.00000000000E+00  0.00000000000E+00 -0.93746044160E+03  0.16025802895E+04  0.12997813296E+04 0.  0.
        5    1    3    3  502    0  0.31946752237E+03 -0.22134676820E+03 -0.11109148539E+04  0.11769485087E+04  0.46999998093E+01 0.  1.
       -5    1    3    3    0  502 -0.31946752237E+03  0.22134676820E+03  0.17345441229E+03  0.42563178074E+03  0.46999998093E+01 0. -1.
</event>
<event>
 5   0  0.3259968E-03  0.1252597E+04  0.7818609E-02  0.9068025E-01
       -2   -1    0    0    0  501  0.00000000000E+00  0.00000000000E+00  0.35787471082E+03  0.35787471083E+03  0.25500000920E-02 0.  1.
        2   -1    0    0  501    0  0.00000000000E+00  0.00000000000E+00 -0.10960532078E+04  0.10960532078E+04  0.25500000920E-02 0. -1.
    10030    2    1    2    0    0  0.00000000000E+00  0.00000000000E+00 -0.73817849694E+03  0.14539279186E+04  0.12525968622E+04 0.  0.
        4    1    3    3  502    0 -0.36695457052E+02 -0.50759748338E+03  0.54611486676E+02  0.51184547383E+03  0.12699999809E+01 0.  1.
       -4    1    3    3    0  502  0.36695457052E+02  0.50759748338E+03 -0.79278998362E+03  0.94208244476E+03  0.12699999809E+01 0. -1.
</event>
<event>
 5   0  0.1873488E-03  0.1247289E+04  0.7818609E-02  0.9072443E-01
       -1   -1    0    0    0  501  0.00000000000E+00  0.00000000000E+00  0.72412683092E+03  0.72412683094E+03  0.50400001928E-02 0. -1.
        1   -1    0    0  501    0  0.00000000000E+00  0.00000000000E+00 -0.53710518157E+03  0.53710518159E+03  0.50400001928E-02 0.  1.
    10030    2    1    2    0    0  0.00000000000E+00  0.00000000000E+00  0.18702164936E+03  0.12612320125E+04  0.12472886964E+04 0.  0.
        3    1    3    3  502    0  0.13542615462E+03 -0.13958561144E+03 -0.50565672595E+03  0.54176851235E+03  0.10100000352E+00 0.  1.
       -3    1    3    3    0  502 -0.13542615462E+03  0.13958561144E+03  0.69267837530E+03  0.71946350018E+03  0.10100000352E+00 0. -1.
</event>
<event>
 5   0  0.3299104E-03  0.1263566E+04  0.7818609E-02  0.9058967E-01
       -2   -1    0    0    0  501  0.00000000000E+00  0.00000000000E+00  0.67080357309E+03  0.67080357310E+03  0.25500000920E-02 0.  1.
        2   -1    0    0  501    0  0.00000000000E+00  0.00000000000E+00 -0.59503248986E+03  0.59503248986E+03  0.25500000920E-02 0. -1.
    10030    2    1    2    0    0  0.00000000000E+00  0.00000000000E+00  0.75771083232E+02  0.12658360630E+04  0.12635662552E+04 0.  0.
        2    1    3    3  502    0 -0.62801553040E+02  0.44611810216E+03 -0.40583733309E+03  0.60635743343E+03  0.25500000920E-02 0. -1.
       -2    1    3    3    0  502  0.62801553040E+02 -0.44611810216E+03  0.48160841632E+03  0.65947862953E+03  0.25500000920E-02 0.  1.
</event>
<event>
 5   0  0.3336609E-03  0.1270659E+04  0.7818609E-02  0.9053162E-01
       -2   -1    0    0    0  501  0.00000000000E+00  0.00000000000E+00  0.58047050353E+03  0.58047050354E+03  0.25500000920E-02 0.  1.
        2   -1    0    0  501    0  0.00000000000E+00  0.00000000000E+00 -0.69537278450E+03  0.69537278450E+03  0.25500000920E-02 0. -1.
    10030    2    1    2    0    0  0.00000000000E+00  0.00000000000E+00 -0.11490228097E+03  0.12758432880E+04  0.12706587116E+04 0.  0.
        1    1    3    3  502    0 -0.54668212582E+03  0.31659980416E+03 -0.12515480162E+03  0.64401902696E+03  0.50400001928E-02 0. -1.
       -1    1    3    3    0  502  0.54668212582E+03 -0.31659980416E+03  0.10252520654E+02  0.63182426108E+03  0.50400001928E-02 0.  1.
</event>
<event>
 5   0  0.1803959E-03  0.1192149E+04  0.7818609E-02  0.9119756E-01
        1   -1    0    0  501    0  0.00000000000E+00  0.00000000000E+00  0.44543847855E+03  0.44543847858E+03  0.50400001928E-02 0.  1.
       -1   -1    0    0    0  501  0.00000000000E+00  0.00000000000E+00 -0.79765194542E+03  0.79765194544E+03  0.50400001928E-02 0. -1.
    10030    2    1    2    0    0  0.00000000000E+00  0.00000000000E+00 -0.35221346687E+03  0.12430904240E+04  0.11921490998E+04 0.  0.
        4    1    3    3  502    0  0.64456454713E+02 -0.47745438928E+03  0.18986934149E+03  0.51785066200E+03  0.12699999809E+01 0.  1.
       -4    1    3    3    0  502 -0.64456454713E+02  0.47745438928E+03 -0.54208280836E+03  0.72523976202E+03  0.12699999809E+01 0. -1.
</event>
<event>
 5   0  0.3336609E-03  0.1255892E+04  0.7818609E-02  0.9065293E-01
        2   -1    0    0  501    0  0.00000000000E+00  0.00000000000E+00  0.18202914491E+04  0.18202914491E+04  0.25500000920E-02 0.  1.
       -2   -1    0    0    0  501  0.00000000000E+00  0.00000000000E+00 -0.21662269556E+03  0.21662269557E+03  0.25500000920E-02 0. -1.
    10030    2    1    2    0    0  0.00000000000E+00  0.00000000000E+00  0.16036687535E+04  0.20369141447E+04  0.12558924164E+04 0.  0.
        1    1    3    3  502    0  0.96065384714E+02  0.25771950533E+03 -0.11373209534E+03  0.29762878070E+03  0.50400001928E-02 0. -1.
       -1    1    3    3    0  502 -0.96065384714E+02 -0.25771950533E+03  0.17174008489E+04  0.17392853640E+04  0.50400001928E-02 0.  1.
</event>
<event>
 5   0  0.1254125E-03  0.1455334E+04  0.7818609E-02  0.8914711E-01
       -4   -1    0    0    0  501  0.00000000000E+00  0.00000000000E+00  0.14204885513E+04  0.14204891190E+04  0.12699999809E+01 0.  1.
        4   -1    0    0  501    0  0.00000000000E+00  0.00000000000E+00 -0.37275659241E+03  0.37275875588E+03  0.12699999809E+01 0. -1.
    10030    2    1    2    0    0  0.00000000000E+00  0.00000000000E+00  0.10477319589E+04  0.17932478749E+04  0.14553335299E+04 0.  0.
        5    1    3    3  502    0  0.44340828681E+03  0.25397770367E+03 -0.11445290194E+03  0.52367656004E+03  0.46999998093E+01 0. -1.
       -5    1    3    3    0  502 -0.44340828681E+03 -0.25397770367E+03  0.11621848608E+04  0.12695713149E+04  0.46999998093E+01 0.  1.
</event>
<event>
 5   0  0.3259968E-03  0.1315649E+04  0.7818609E-02  0.9017246E-01
        2   -1    0    0  501    0  0.00000000000E+00  0.00000000000E+00  0.10013457967E+04  0.10013457967E+04  0.25500000920E-02 0. -1.
       -2   -1    0    0    0  501  0.00000000000E+00  0.00000000000E+00 -0.43215160202E+03  0.43215160203E+03  0.25500000920E-02 0.  1.
    10030    2    1    2    0    0  0.00000000000E+00  0.00000000000E+00  0.56919419469E+03  0.14334973988E+04  0.13156491785E+04 0.  0.
        4    1    3    3  502    0 -0.27282367493E+03  0.22995312294E+03  0.88674865980E+03  0.95584308069E+03  0.12699999809E+01 0. -1.
       -4    1    3    3    0  502  0.27282367493E+03 -0.22995312294E+03 -0.31755446511E+03  0.47765431806E+03  0.12699999809E+01 0.  1.
</event>
<event>
 5   0  0.3262927E-03  0.1302749E+04  0.7818609E-02  0.9027388E-01
        2   -1    0    0  501    0  0.00000000000E+00  0.00000000000E+00  0.18183107728E+04  0.18183107728E+04  0.25500000920E-02 0. -1.
       -2   -1    0    0    0  501  0.00000000000E+00  0.00000000000E+00 -0.23334231627E+03  0.23334231628E+03  0.25500000920E-02 0.  1.
    10030    2    1    2    0    0  0.00000000000E+00  0.00000000000E+00  0.15849684565E+04  0.20516530890E+04  0.13027491661E+04 0.  0.
        3    1    3    3  502    0 -0.21582796544E+03  0.42269824253E+03  0.89887665457E+02  0.48304794535E+03  0.10100000352E+00 0.  1.
       -3    1    3    3    0  502  0.21582796544E+03 -0.42269824253E+03  0.14950807910E+04  0.15686051437E+04  0.10100000352E+00 0. -1.
</event>
<event>
 5   0  0.1823154E-03  0.1343583E+04  0.7818609E-02  0.8995700E-01
        1   -1    0    0  501    0  0.00000000000E+00  0.00000000000E+00  0.20506298214E+04  0.20506298214E+04  0.50400001928E-02 0. -1.
       -1   -1    0    0    0  501  0.00000000000E+00  0.00000000000E+00 -0.22008048095E+03  0.22008048100E+03  0.50400001928E-02 0.  1.
    10030    2    1    2    0    0  0.00000000000E+00  0.00000000000E+00  0.18305493404E+04  0.22707103024E+04  0.13435826694E+04 0.  0.
        2    1    3    3  502    0 -0.18404980600E+03 -0.22701075969E+02  0.20065153282E+04  0.20150666074E+04  0.25500000920E-02 0. -1.
       -2    1    3    3    0  502  0.18404980600E+03  0.22701075969E+02 -0.17596598776E+03  0.25564369500E+03  0.25500000920E-02 0.  1.
</event>
<event>
 5   0  0.1803959E-03  0.1302912E+04  0.7818609E-02  0.9027259E-01
       -1   -1    0    0    0  501  0.00000000000E+00  0.00000000000E+00  0.15670119520E+03  0.15670119528E+03  0.50400001928E-02 0. -1.
        1   -1    0    0  501    0  0.00000000000E+00  0.00000000000E+00 -0.27083067230E+04  0.27083067230E+04  0.50400001928E-02 0.  1.
    10030    2    1    2    0    0  0.00000000000E+00  0.00000000000E+00 -0.25516055278E+04  0.28650079183E+04  0.13029119703E+04 0.  0.
        4    1    3    3  502    0  0.58071773620E+03 -0.25711733838E+03 -0.95676227172E+03  0.11483632145E+04  0.12699999809E+01 0. -1.
       -4    1    3    3    0  502 -0.58071773620E+03  0.25711733838E+03 -0.15948432561E+04  0.17166447038E+04  0.12699999809E+01 0.  1.
</event>
<event>
 5   0  0.1873488E-03  0.1299069E+04  0.7818609E-02  0.9030304E-01
       -1   -1    0    0    0  501  0.00000000000E+00  0.00000000000E+00  0.10689636247E+04  0.10689636247E+04  0.50400001928E-02 0. -1.
        1   -1    0    0  501    0  0.00000000000E+00  0.00000000000E+00 -0.39467686938E+03  0.39467686942E+03  0.50400001928E-02 0.  1.
    10030    2    1    2    0    0  0.00000000000E+00  0.00000000000E+00  0.67428675527E+03  0.14636404941E+04  0.12990692313E+04 0.  0.
        3    1    3    3  502    0 -0.14213996576E+03  0.48695427517E+03  0.79420363242E+03  0.94238402784E+03  0.10100000352E+00 0. -1.
       -3    1    3    3    0  502  0.14213996576E+03 -0.48695427517E+03 -0.11991687715E+03  0.52125646624E+03  0.10100000352E+00 0.  1.
</event>
<event>
 5   0  0.1873488E-03  0.1316429E+04  0.7818609E-02  0.9016638E-01
       -1   -1    0    0    0  501  0.00000000000E+00  0.00000000000E+00  0.77938703112E+03  0.77938703113E+03  0.50400001928E-02 0.  1.
        1   -1    0    0  501    0  0.00000000000E+00  0.00000000000E+00 -0.55588066704E+03  0.55588066706E+03  0.50400001928E-02 0. -1.
    10030    2    1    2    0    0  0.00000000000E+00  0.00000000000E+00  0.22350636408E+03  0.13352676982E+04  0.13164287793E+04 0.  0.
        3    1    3    3  502    0 -0.23427829314E+03  0.30156781593E+03  0.65553787570E+03  0.75865630091E+03  0.10100000352E+00 0.  1.
       -3    1    3    3    0  502  0.23427829314E+03 -0.30156781593E+03 -0.43203151162E+03  0.57661139728E+03  0.10100000352E+00 0. -1.
</event>
<event>
 5   0  0.3336609E-03  0.1149574E+04  0.7818609E-02  0.9158177E-01
       -2   -1    0    0    0  501  0.00000000000E+00  0.00000000000E+00  0.33106443142E+03  0.33106443143E+03  0.25500000920E-02 0. -1.
        2   -1    0    0  501    0  0.00000000000E+00  0.00000000000E+00 -0.99793207709E+03  0.99793207709E+03  0.25500000920E-02 0.  1.
    10030    2    1    2    0    0  0.00000000000E+00  0.00000000000E+00 -0.66686764567E+03  0.13289965085E+04  0.11495735135E+04 0.  0.
        1    1    3    3  502    0  0.12804216673E+03 -0.22699798143E+03 -0.92569889002E+03  0.96168670317E+03  0.50400001928E-02 0.  1.
       -1    1    3    3    0  502 -0.12804216673E+03  0.22699798143E+03  0.25883124436E+03  0.36730980536E+03  0.50400001928E-02 0. -1.
</event>
<event>
 5   0  0.3294720E-03  0.1334034E+04  0.7818609E-02  0.9003003E-01
        2   -1    0    0  501    0  0.00000000000E+00  0.00000000000E+00  0.57996850434E+03  0.57996850434E+03  0.25500000920E-02 0.  1.
       -2   -1    0    0    0  501  0.00000000000E+00  0.00000000000E+00 -0.76713110832E+03  0.76713110833E+03  0.25500000920E-02 0. -1.
    10030    2    1    2    0    0  0.00000000000E+00  0.00000000000E+00 -0.18716260399E+03  0.13470996127E+04  0.13340343047E+04 0.  0.
        5    1    3    3  502    0 -0.29436854299E+02 -0.12921325509E+03  0.56652363538E+03  0.58183650034E+03  0.46999998093E+01 0.  1.
       -5    1    3    3    0  502  0.29436854299E+02  0.12921325509E+03 -0.75368623937E+03  0.76526311233E+03  0.46999998093E+01 0. -1.
</event>
<event>
 5   0  0.3299104E-03  0.1286748E+04  0.7818609E-02  0.9040141E-01
       -2   -1    0    0    0  501  0.00000000000E+00  0.00000000000E+00  0.57386576531E+03  0.57386576532E+03  0.25500000920E-02 0.  1.
        2   -1    0    0  501    0  0.00000000000E+00  0.00000000000E+00 -0.72130078419E+03  0.72130078419E+03  0.25500000920E-02 0. -1.
    10030    2    1    2    0    0  0.00000000000E+00  0.00000000000E+00 -0.14743501887E+03  0.12951665495E+04  0.12867475689E+04 0.  0.
        2    1    3    3  502    0 -0.18016438907E+03  0.60383582855E+03  0.56950638157E+02  0.63270869294E+03  0.25500000920E-02 0.  1.
       -2    1    3    3    0  502  0.18016438907E+03 -0.60383582855E+03 -0.20438565703E+03  0.66245785657E+03  0.25500000920E-02 0. -1.
</event>
<event>
 5   0  0.1857986E-03  0.1290414E+04  0.7818609E-02  0.9037201E-01
        1   -1    0    0  501    0  0.00000000000E+00  0.00000000000E+00  0.89547227211E+03  0.89547227213E+03  0.50400001928E-02 0. -1.
       -1   -1    0    0    0  501  0.00000000000E+00  0.00000000000E+00 -0.46488574549E+03  0.46488574552E+03  0.50400001928E-02 0.  1.
    10030    2    1    2    0    0  0.00000000000E+00  0.00000000000E+00  0.43058652662E+03  0.13603580176E+04  0.12904143440E+04 0.  0.
        1    1    3    3  502    0 -0.15523131350E+03  0.60557075028E+03  0.38356855261E+03  0.73344224644E+03  0.50400001928E-02 0. -1.
       -1    1    3    3    0  502  0.15523131350E+03 -0.60557075028E+03  0.47017974012E+02  0.62691577121E+03  0.50400001928E-02 0.  1.
</event>
<event>
 5   0  0.3299104E-03  0.1343928E+04  0.7818609E-02  0.8995437E-01
        2   -1    0    0  501    0  0.00000000000E+00  0.00000000000E+00  0.54572900268E+03  0.54572900269E+03  0.25500000920E-02 0. -1.
       -2   -1    0    0    0  501  0.00000000000E+00  0.00000000000E+00 -0.82739905130E+03  0.82739905130E+03  0.25500000920E-02 0.  1.
    10030    2    1    2    0    0  0.00000000000E+00  0.00000000000E+00 -0.28167004862E+03  0.13731280540E+04  0.13439280622E+04 0.  0.
        2    1    3    3  502    0  0.49171982045E+02  0.42297709216E+03 -0.67194473695E+03  0.79551067487E+03  0.25500000920E-02 0.  1.
       -2    1    3    3    0  502 -0.49171982045E+02 -0.42297709216E+03  0.39027468833E+03  0.57761737912E+03  0.25500000920E-02 0. -1.
</event>
<event>
 5   0  0.1857986E-03  0.1273546E+04  0.7818609E-02  0.9050810E-01
        1   -1    0    0  501    0  0.00000000000E+00  0.00000000000E+00  0.58432245500E+03  0.58432245502E+03  0.50400001928E-02 0. -1.
       -1   -1    0    0    0  501  0.00000000000E+00  0.00000000000E+00 -0.69393199990E+03  0.69393199992E+03  0.50400001928E-02 0.  1.
    10030    2    1    2    0    0  0.00000000000E+00  0.00000000000E+00 -0.10960954490E+03  0.12782544549E+04  0.12735463082E+04 0.  0.
        1    1    3    3  502    0 -0.12239588230E+03 -0.51776218999E+02 -0.67985777625E+03  0.69272514377E+03  0.50400001928E-02 0.  1.
       -1    1    3    3    0  502  0.12239588230E+03  0.51776218999E+02  0.57024823135E+03  0.58552931117E+03  0.50400001928E-02 0. -1.
</event>
<event>
 5   0  0.1814770E-03  0.1334981E+04  0.7818609E-02  0.9002276E-01
        1   -1    0    0  501    0  0.00000000000E+00  0.00000000000E+00  0.85804154535E+03  0.85804154537E+03  0.50400001928E-02 0.  1.
       -1   -1    0    0    0  501  0.00000000000E+00  0.00000000000E+00 -0.51925622715E+03  0.51925622717E+03  0.50400001928E-02 0. -1.
    10030    2    1    2    0    0  0.00000000000E+00  0.00000000000E+00  0.33878531820E+03  0.13772977725E+04  0.13349807723E+04 0.  0.
        5    1    3    3  502    0  0.42786707425E+03  0.19537428310E+03  0.65798661545E+03  0.80883238056E+03  0.46999998093E+01 0.  1.
       -5    1    3    3    0  502 -0.42786707425E+03 -0.19537428310E+03 -0.31920129725E+03  0.56846539199E+03  0.46999998093E+01 0. -1.
</event>
<event>
 5   0  0.3259968E-03  0.1312810E+04  0.7818609E-02  0.9019468E-01
       -2   -1    0    0    0  501  0.00000000000E+00  0.00000000000E+00  0.26661570710E+03  0.26661570712E+03  0.25500000920E-02 0. -1.
        2   -1    0    0  501    0  0.00000000000E+00  0.00000000000E+00 -0.16160614341E+04  0.16160614341E+04  0.25500000920E-02 0.  1.
    10030    2    1    2    0    0  0.00000000000E+00  0.00000000000E+00 -0.13494457270E+04  0.18826771412E+04  0.13128097531E+04 0.  0.
        4    1    3    3  502    0  0.19502748639E+02 -0.39723716829E+03 -0.14235939922E+04  0.14781066242E+04  0.12699999809E+01 0.  1.
       -4    1    3    3    0  502 -0.19502748639E+02  0.39723716829E+03  0.74148265206E+02  0.40457051698E+03  0.12699999809E+01 0. -1.
</event>
<event>
 5   0  0.1857986E-03  0.1310195E+04  0.7818609E-02  0.9021519E-01
        1   -1    0    0  501    0  0.00000000000E+00  0.00000000000E+00  0.37899271845E+03  0.37899271848E+03  0.50400001928E-02 0.  1.
       -1   -1    0    0    0  501  0.00000000000E+00  0.00000000000E+00 -0.11323512549E+04  0.11323512550E+04  0.50400001928E-02 0. -1.
    10030    2    1    2    0    0  0.00000000000E+00  0.00000000000E+00 -0.75335853649E+03  0.15113439734E+04  0.13101952227E+04 0.  0.
        1    1    3    3  502    0 -0.16601324467E+03 -0.52647107052E+03 -0.78356608448E+03  0.95849256349E+03  0.50400001928E-02 0. -1.
       -1    1    3    3    0  502  0.16601324467E+03  0.52647107052E+03  0.30207547985E+02  0.55285140995E+03  0.50400001928E-02 0.  1.
</event>
<event>
 5   0  0.1254125E-03  0.1384984E+04  0.7818609E-02  0.8964760E-01
        3   -1    0    0  501    0  0.00000000000E+00  0.00000000000E+00  0.13214369534E+04  0.13214369573E+04  0.10100000352E+00 0. -1.
       -3   -1    0    0    0  501  0.00000000000E+00  0.00000000000E+00 -0.36289695893E+03  0.36289697298E+03  0.10100000352E+00 0.  1.
    10030    2    1    2    0    0  0.00000000000E+00  0.00000000000E+00  0.95853999449E+03  0.16843339303E+04  0.13849844286E+04 0.  0.
        2    1    3    3  502    0  0.61328311303E+03 -0.20317251765E+03  0.17608714400E+03  0.66962820351E+03  0.25500000920E-02 0.  1.
       -2    1    3    3    0  502 -0.61328311303E+03  0.20317251765E+03  0.78245285048E+03  0.10147057267E+04  0.25500000920E-02 0. -1.
</event>
<event>
 5   0  0.1857986E-03  0.1299442E+04  0.7818609E-02  0.9030008E-01
       -1   -1    0    0    0  501  0.00000000000E+00  0.00000000000E+00  0.82955190297E+03  0.82955190299E+03  0.50400001928E-02 0.  1.
        1   -1    0    0  501    0  0.00000000000E+00  0.00000000000E+00 -0.50887421947E+03  0.50887421949E+03  0.50400001928E-02 0. -1.
    10030    2    1    2    0    0  0.00000000000E+00  0.00000000000E+00  0.32067768351E+03  0.13384261225E+04  0.12994423068E+04 0.  0.
        1    1    3    3  502    0  0.16040064929E+03 -0.35567473843E+03  0.69544828728E+03  0.79742160001E+03  0.50400001928E-02 0.  1.
       -1    1    3    3    0  502 -0.16040064929E+03  0.35567473843E+03 -0.37477060377E+03  0.54100452247E+03  0.50400001928E-02 0. -1.
</event>
<event>
 5   0  0.1823154E-03  0.1247728E+04  0.7818609E-02  0.9072077E-01
        1   -1    0    0  501    0  0.00000000000E+00  0.00000000000E+00  0.96440059745E+03  0.96440059746E+03  0.50400001928E-02 0. -1.
       -1   -1    0    0    0  501  0.00000000000E+00  0.00000000000E+00 -0.40357301388E+03  0.40357301391E+03  0.50400001928E-02 0.  1.
    10030    2    1    2    0    0  0.00000000000E+00  0.00000000000E+00  0.56082758356E+03  0.13679736114E+04  0.12477276237E+04 0.  0.
        2    1    3    3  502    0  0.14649709308E+03  0.50512284578E+03 -0.87476712209E+02  0.53316288580E+03  0.25500000920E-02 0.  1.
       -2    1    3    3    0  502 -0.14649709308E+03 -0.50512284578E+03  0.64830429577E+03  0.83481072557E+03  0.25500000920E-02 0. -1.
</event>
<event>
 5   0  0.1803959E-03  0.1312986E+04  0.7818609E-02  0.9019330E-01
       -1   -1    0    0    0  501  0.00000000000E+00  0.00000000000E+00  0.34474440361E+03  0.34474440364E+03  0.50400001928E-02 0. -1.
        1   -1    0    0  501    0  0.00000000000E+00  0.00000000000E+00 -0.12501524928E+04  0.12501524929E+04  0.50400001928E-02 0.  1.
    10030    2    1    2    0    0  0.00000000000E+00  0.00000000000E+00 -0.90540808924E+03  0.15948968965E+04  0.13129860252E+04 0.  0.
        4    1    3    3  502    0 -0.52672922837E+03  0.14541111593E+03 -0.89468714157E+03  0.10483581291E+04  0.12699999809E+01 0.  1.
       -4    1    3    3    0  502  0.52672922837E+03 -0.14541111593E+03 -0.10720947675E+02  0.54653876740E+03  0.12699999809E+01 0. -1.
</event>
<event>
 5   0  0.1814770E-03  0.1171002E+04  0.7818609E-02  0.9138624E-01
       -1   -1    0    0    0  501  0.00000000000E+00  0.00000000000E+00  0.38528352307E+03  0.38528352310E+03  0.50400001928E-02 0. -1.
        1   -1    0    0  501    0  0.00000000000E+00  0.00000000000E+00 -0.88976359935E+03  0.88976359937E+03  0.50400001928E-02 0.  1.
    10030    2    1    2    0    0  0.00000000000E+00  0.00000000000E+00 -0.50448007629E+03  0.12750471225E+04  0.11710017153E+04 0.  0.
        5    1    3    3  502    0  0.32095824562E+03  0.17116157058E+03  0.24730283315E+03  0.43987641441E+03  0.46999998093E+01 0. -1.
       -5    1    3    3    0  502 -0.32095824562E+03 -0.17116157058E+03 -0.75178290943E+03  0.83517070805E+03  0.46999998093E+01 0.  1.
</event>
<event>
 5   0  0.3336609E-03  0.1305214E+04  0.7818609E-02  0.9025441E-01
       -2   -1    0    0    0  501  0.00000000000E+00  0.00000000000E+00  0.89568746620E+03  0.89568746620E+03  0.25500000920E-02 0.  1.
        2   -1    0    0  501    0  0.00000000000E+00  0.00000000000E+00 -0.47549590220E+03  0.47549590221E+03  0.25500000920E-02 0. -1.
    10030    2    1    2    0    0  0.00000000000E+00  0.00000000000E+00  0.42019156400E+03  0.13711833684E+04  0.13052137294E+04 0.  0.
        1    1    3    3  502    0 -0.38009823516E+03  0.52448299804E+03  0.29373535698E+03  0.71122256964E+03  0.50400001928E-02 0.  1.
       -1    1    3    3    0  502  0.38009823516E+03 -0.52448299804E+03  0.12645620702E+03  0.65996079877E+03  0.50400001928E-02 0. -1.
</event>
<event>
 5   0  0.1823154E-03  0.1322065E+04  0.7818609E-02  0.9012248E-01
       -1   -1    0    0    0  501  0.00000000000E+00  0.00000000000E+00  0.52588416587E+03  0.52588416589E+03  0.50400001928E-02 0.  1.
        1   -1    0    0  501    0  0.00000000000E+00  0.00000000000E+00 -0.83091339592E+03  0.83091339593E+03  0.50400001928E-02 0. -1.
    10030    2    1    2    0    0  0.00000000000E+00  0.00000000000E+00 -0.30502923005E+03  0.13567975618E+04  0.13220653511E+04 0.  0.
        2    1    3    3  502    0 -0.75388066745E+02 -0.36669903192E+03 -0.71163244238E+03  0.80409717925E+03  0.25500000920E-02 0. -1.
       -2    1    3    3    0  502  0.75388066745E+02  0.36669903192E+03  0.40660321233E+03  0.55270038258E+03  0.25500000920E-02 0.  1.
</event>
<event>
 5   0  0.3262927E-03  0.1204255E+04  0.7818609E-02  0.9109141E-01
       -2   -1    0    0    0  501  0.00000000000E+00  0.00000000000E+00  0.31064157700E+03  0.31064157702E+03  0.25500000920E-02 0. -1.
        2   -1    0    0  501    0  0.00000000000E+00  0.00000000000E+00 -0.11671239749E+04  0.11671239749E+04  0.25500000920E-02 0.  1.
    10030    2    1    2    0    0  0.00000000000E+00  0.00000000000E+00 -0.85648239794E+03  0.14777655520E+04  0.12042545116E+04 0.  0.
        3    1    3    3  502    0  0.78649524111E+02  0.57493864712E+03 -0.23107141273E+03  0.62460723945E+03  0.10100000352E+00 0. -1.
       -3    1    3    3    0  502 -0.78649524111E+02 -0.57493864712E+03 -0.62541098521E+03  0.85315831251E+03  0.10100000352E+00 0.  1.
</event>
<event>
 5   0  0.1803959E-03  0.1315012E+04  0.7818609E-02  0.9017744E-01
        1   -1    0    0  501    0  0.00000000000E+00  0.00000000000E+00  0.11001170585E+04  0.11001170585E+04  0.50400001928E-02 0. -1.
       -1   -1    0    0    0  501  0.00000000000E+00  0.00000000000E+00 -0.39297105179E+03  0.39297105182E+03  0.50400001928E-02 0.  1.
    10030    2    1    2    0    0  0.00000000000E+00  0.00000000000E+00  0.70714600672E+03  0.14930881104E+04  0.13150120267E+04 0.  0.
        4    1    3    3  502    0 -0.21385635682E+03 -0.47202219335E+03  0.81306392369E+03  0.96416494920E+03  0.12699999809E+01 0. -1.
       -4    1    3    3    0  502  0.21385635682E+03  0.47202219335E+03 -0.10591791697E+03  0.52892316115E+03  0.12699999809E+01 0.  1.
</event>
<event>
 5   0  0.3336609E-03  0.1344575E+04  0.7818609E-02  0.8994945E-01
        2   -1    0    0  501    0  0.00000000000E+00  0.00000000000E+00  0.10244829077E+04  0.10244829078E+04  0.25500000920E-02 0.  1.
       -2   -1    0    0    0  501  0.00000000000E+00  0.00000000000E+00 -0.44116917588E+03  0.44116917588E+03  0.25500000920E-02 0. -1.
    10030    2    1    2    0    0  0.00000000000E+00  0.00000000000E+00  0.58331373187E+03  0.14656520836E+04  0.13445746987E+04 0.  0.
        1    1    3    3  502    0 -0.53929612368E+03 -0.40111328144E+03  0.27483664835E+03  0.72613177651E+03  0.50400001928E-02 0.  1.
       -1    1    3    3    0  502  0.53929612368E+03  0.40111328144E+03  0.30847708352E+03  0.73952030712E+03  0.50400001928E-02 0. -1.
</event>
<event>
 5   0  0.1873488E-03  0.1333397E+04  0.7818609E-02  0.9003493E-01
       -1   -1    0    0    0  501  0.00000000000E+00  0.00000000000E+00  0.65439896989E+03  0.65439896991E+03  0.50400001928E-02 0. -1.
        1   -1    0    0  501    0  0.00000000000E+00  0.00000000000E+00 -0.67922895615E+03  0.67922895617E+03  0.50400001928E-02 0.  1.
    10030    2    1    2    0    0  0.00000000000E+00  0.00000000000E+00 -0.24829986263E+02  0.13336279261E+04  0.13333967590E+04 0.  0.
        3    1    3    3  502    0 -0.45949004697E+03 -0.26139844373E+03  0.39388993505E+03  0.65924922509E+03  0.10100000352E+00 0.  1.
       -3    1    3    3    0  502  0.45949004697E+03  0.26139844373E+03 -0.41871992131E+03  0.67437870099E+03  0.10100000352E+00 0. -1.
</event>
<event>
 5   0  0.3259968E-03  0.1319649E+04  0.7818609E-02  0.9014127E-01
        2   -1    0    0  501    0  0.00000000000E+00  0.00000000000E+00  0.70141108198E+03  0.70141108199E+03  0.25500000920E-02 0.  1.
       -2   -1    0    0    0  501  0.00000000000E+00  0.00000000000E+00 -0.62070311805E+03  0.62070311806E+03  0.25500000920E-02 0. -1.
    10030    2    1    2    0    0  0.00000000000E+00  0.00000000000E+00  0.80707963929E+02  0.13221142000E+04  0.13196485072E+04 0.  0.
        4    1    3    3  502    0 -0.27380282238E+03 -0.60031360768E+03  0.45055256582E+02  0.66134408756E+03  0.12699999809E+01 0. -1.
       -4    1    3    3    0  502  0.27380282238E+03  0.60031360768E+03  0.35652707346E+02  0.66077011248E+03  0.12699999809E+01 0.  1.
</event>
<event>
 5   0  0.1254125E-03  0.1321046E+04  0.7818609E-02  0.9013040E-01
       -3   -1    0    0    0  501  0.00000000000E+00  0.00000000000E+00  0.69631972475E+03  0.69631973207E+03  0.10100000352E+00 0. -1.
        3   -1    0    0  501    0  0.00000000000E+00  0.00000000000E+00 -0.62656633574E+03  0.62656634388E+03  0.10100000352E+00 0.  1.
    10030    2    1    2    0    0  0.00000000000E+00  0.00000000000E+00  0.69753389013E+02  0.13228860760E+04  0.13210458110E+04 0.  0.
        1    1    3    3  502    0 -0.59996116056E+03 -0.35266971471E+02  0.30929009882E+03  0.67591236023E+03  0.50400001928E-02 0. -1.
       -1    1    3    3    0  502  0.59996116056E+03  0.35266971471E+02 -0.23953670980E+03  0.64697371572E+03  0.50400001928E-02 0.  1.
</event>
<event>
 5   0  0.3259968E-03  0.1287219E+04  0.7818609E-02  0.9039762E-01
       -2   -1    0    0    0  501  0.00000000000E+00  0.00000000000E+00  0.13813543488E+04  0.13813543488E+04  0.25500000920E-02 0.  1.
        2   -1    0    0  501    0  0.00000000000E+00  0.00000000000E+00 -0.29987489396E+03  0.29987489397E+03  0.25500000920E-02 0. -1.
    10030    2    1    2    0    0  0.00000000000E+00  0.00000000000E+00  0.10814794548E+04  0.16812292428E+04  0.12872194667E+04 0.  0.
        4    1    3    3  502    0 -0.15850730248E+03  0.58315376682E+03  0.25150854155E+03  0.65456171601E+03  0.12699999809E+01 0. -1.
       -4    1    3    3    0  502  0.15850730248E+03 -0.58315376682E+03  0.82997091329E+03  0.10266675268E+04  0.12699999809E+01 0.  1.
</event>
<event>
 5   0  0.3294720E-03  0.1205354E+04  0.7818609E-02  0.9108183E-01
        2   -1    0    0  501    0  0.00000000000E+00  0.00000000000E+00  0.12177622894E+04  0.12177622894E+04  0.25500000920E-02 0. -1.
       -2   -1    0    0    0  501  0.00000000000E+00  0.00000000000E+00 -0.29826814615E+03  0.29826814616E+03  0.25500000920E-02 0.  1.
    10030    2    1    2    0    0  0.00000000000E+00  0.00000000000E+00  0.91949414327E+03  0.15160304356E+04  0.12053542227E+04 0.  0.
        5    1    3    3  502    0  0.39407855512E+03 -0.45213582169E+03  0.53386776431E+03  0.80297047806E+03  0.46999998093E+01 0. -1.
       -5    1    3    3    0  502 -0.39407855512E+03  0.45213582169E+03  0.38562637895E+03  0.71305995751E+03  0.46999998093E+01 0.  1.
</event>
<event>
 5   0  0.3299104E-03  0.9921231E+03  0.7818609E-02  0.9317227E-01
       -2   -1    0    0    0  501  0.00000000000E+00  0.00000000000E+00  0.15692206724E+03  0.15692206726E+03  0.25500000920E-02 0.  1.
        2   -1    0    0  501    0  0.00000000000E+00  0.00000000000E+00 -0.15681480901E+04  0.15681480901E+04  0.25500000920E-02 0. -1.
    10030    2    1    2    0    0  0.00000000000E+00  0.00000000000E+00 -0.14112260228E+04  0.17250701573E+04  0.99212305699E+03 0.  0.
        2    1    3    3  502    0  0.11135605891E+03  0.44101047981E+03 -0.36141357945E+03  0.58095627251E+03  0.25500000920E-02 0.  1.
       -2    1    3    3    0  502 -0.11135605891E+03 -0.44101047981E+03 -0.10498124434E+04  0.11441138848E+04  0.25500000920E-02 0. -1.
</event>
<event>
 5   0  0.3262927E-03  0.1305398E+04  0.7818609E-02  0.9025296E-01
       -2   -1    0    0    0  501  0.00000000000E+00  0.00000000000E+00  0.52838260216E+03  0.52838260217E+03  0.25500000920E-02 0.  1.
        2   -1    0    0  501    0  0.00000000000E+00  0.00000000000E+00 -0.80626395429E+03  0.80626395429E+03  0.25500000920E-02 0. -1.
    10030    2    1    2    0    0  0.00000000000E+00  0.00000000000E+00 -0.27788135213E+03  0.13346465565E+04  0.13053977880E+04 0.  0.
        3    1    3    3  502    0 -0.94666846233E+02 -0.26465770348E+03  0.46333399052E+03  0.54192611005E+03  0.10100000352E+00 0.  1.
       -3    1    3    3    0  502  0.94666846233E+02  0.26465770348E+03 -0.74121534264E+03  0.79272044641E+03  0.10100000352E+00 0. -1.
</event>
<event>
 5   0  0.3262927E-03  0.1320700E+04  0.7818609E-02  0.9013309E-01
       -2   -1    0    0    0  501  0.00000000000E+00  0.00000000000E+00  0.35674885258E+03  0.35674885259E+03  0.25500000920E-02 0. -1.
        2   -1    0    0  501    0  0.00000000000E+00  0.00000000000E+00 -0.12223228992E+04  0.12223228992E+04  0.25500000920E-02 0.  1.
    10030    2    1    2    0    0  0.00000000000E+00  0.00000000000E+00 -0.86557404666E+03  0.15790717518E+04  0.13207002564E+04 0.  0.
        3    1    3    3  502    0  0.23908408028E+03 -0.91268223662E+02  0.29504880723E+03  0.39056996165E+03  0.10100000352E+00 0. -1.
       -3    1    3    3    0  502 -0.23908408028E+03  0.91268223662E+02 -0.11606228539E+04  0.11885017902E+04  0.10100000352E+00 0.  1.
</event>
<event>
 5   0  0.3299104E-03  0.1301135E+04  0.7818609E-02  0.9028665E-01
       -2   -1    0    0    0  501  0.00000000000E+00  0.00000000000E+00  0.55957505632E+03  0.55957505633E+03  0.25500000920E-02 0. -1.
        2   -1    0    0  501    0  0.00000000000E+00  0.00000000000E+00 -0.75635637631E+03  0.75635637631E+03  0.25500000920E-02 0.  1.
    10030    2    1    2    0    0  0.00000000000E+00  0.00000000000E+00 -0.19678131999E+03  0.13159314326E+04  0.13011351381E+04 0.  0.
        2    1    3    3  502    0  0.54377475054E+03 -0.33421202821E+03 -0.22571712328E+03  0.67700581894E+03  0.25500000920E-02 0. -1.
       -2    1    3    3    0  502 -0.54377475054E+03  0.33421202821E+03  0.28935803298E+02  0.63892561370E+03  0.25500000920E-02 0.  1.
</event>
<event>
 5   0  0.1254125E-03  0.1229052E+04  0.7818609E-02  0.9087801E-01
        3   -1    0    0  501    0  0.00000000000E+00  0.00000000000E+00  0.41375633705E+03  0.41375634938E+03  0.10100000352E+00 0. -1.
       -3   -1    0    0    0  501  0.00000000000E+00  0.00000000000E+00 -0.91271603260E+03  0.91271603819E+03  0.10100000352E+00 0.  1.
    10030    2    1    2    0    0  0.00000000000E+00  0.00000000000E+00 -0.49895969554E+03  0.13264723876E+04  0.12290517553E+04 0.  0.
        4    1    3    3  502    0 -0.37671201077E+03 -0.21843999382E+03 -0.71745346716E+03  0.83926697802E+03  0.12699999809E+01 0.  1.
       -4    1    3    3    0  502  0.37671201077E+03  0.21843999382E+03  0.21849377161E+03  0.48720540955E+03  0.12699999809E+01 0. -1.
</event>
<event>
 5   0  0.3294720E-03  0.1316491E+04  0.7818609E-02  0.9016589E-01
        2   -1    0    0  501    0  0.00000000000E+00  0.00000000000E+00  0.60227943166E+03  0.60227943167E+03  0.25500000920E-02 0. -1.
       -2   -1    0    0    0  501  0.00000000000E+00  0.00000000000E+00 -0.71941213534E+03  0.71941213535E+03  0.25500000920E-02 0.  1.
    10030    2    1    2    0    0  0.00000000000E+00  0.00000000000E+00 -0.11713270369E+03  0.13216915670E+04  0.13164909905E+04 0.  0.
        5    1    3    3  502    0  0.32762845637E+03  0.54391018914E+02 -0.62911253004E+03  0.71140948392E+03  0.46999998093E+01 0.  1.
       -5    1    3    3    0  502 -0.32762845637E+03 -0.54391018914E+02  0.51197982635E+03  0.61028208310E+03  0.46999998093E+01 0. -1.
</event>
<event>
 5   0  0.3262927E-03  0.1292501E+04  0.7818609E-02  0.9035533E-01
        2   -1    0    0  501    0  0.00000000000E+00  0.00000000000E+00  0.20825793049E+04  0.20825793049E+04  0.25500000920E-02 0.  1.
       -2   -1    0    0    0  501  0.00000000000E+00  0.00000000000E+00 -0.20053960158E+03  0.20053960159E+03  0.25500000920E-02 0. -1.
    10030    2    1    2    0    0  0.00000000000E+00  0.00000000000E+00  0.18820397033E+04  0.22831189065E+04  0.12925008690E+04 0.  0.
        3    1    3    3  502    0 -0.19001695638E+03  0.12420119638E+03 -0.12779342827E+03  0.26050633659E+03  0.10100000352E+00 0. -1.
       -3    1    3    3    0  502  0.19001695638E+03 -0.12420119638E+03  0.20098331316E+04  0.20226125699E+04  0.10100000352E+00 0.  1.
</event>
<event>
 5   0  0.1803959E-03  0.8808221E+03  0.7818609E-02  0.9449877E-01
        1   -1    0    0  501    0  0.00000000000E+00  0.00000000000E+00  0.41409677104E+03  0.41409677107E+03  0.50400001928E-02 0. -1.
       -1   -1    0    0    0  501  0.00000000000E+00  0.00000000000E+00 -0.46839751597E+03  0.46839751599E+03  0.50400001928E-02 0.  1.
    10030    2    1    2    0    0  0.00000000000E+00  0.00000000000E+00 -0.54300744927E+02  0.88249428706E+03  0.88082211359E+03 0.  0.
        4    1    3    3  502    0 -0.38831000328E+03 -0.63968863784E+02 -0.22522143856E+03  0.45343465182E+03  0.12699999809E+01 0.  1.
       -4    1    3    3    0  502  0.38831000328E+03  0.63968863784E+02  0.17092069364E+03  0.42905963524E+03  0.12699999809E+01 0. -1.
</event>
<event>
 5   0  0.3336609E-03  0.1311683E+04  0.7818609E-02  0.9020351E-01
        2   -1    0    0  501    0  0.00000000000E+00  0.00000000000E+00  0.16593066058E+04  0.16593066058E+04  0.25500000920E-02 0.  1.
       -2   -1    0    0    0  501  0.00000000000E+00  0.00000000000E+00 -0.25922176309E+03  0.25922176310E+03  0.25500000920E-02 0. -1.
    10030    2    1    2    0    0  0.00000000000E+00  0.00000000000E+00  0.14000848427E+04  0.19185283689E+04  0.13116834738E+04 0.  0.
        1    1    3    3  502    0 -0.62125505147E+03  0.20862363355E+03  0.66284620233E+03  0.93211949203E+03  0.50400001928E-02 0. -1.
       -1    1    3    3    0  502  0.62125505147E+03 -0.20862363355E+03  0.73723864034E+03  0.98640887683E+03  0.50400001928E-02 0.  1.
</event>
<event>
 5   0  0.3299104E-03  0.1331165E+04  0.7818609E-02  0.9005210E-01
        2   -1    0    0  501    0  0.00000000000E+00  0.00000000000E+00  0.80472475534E+03  0.80472475534E+03  0.25500000920E-02 0. -1.
       -2   -1    0    0    0  501  0.00000000000E+00  0.00000000000E+00 -0.55049847256E+03  0.55049847257E+03  0.25500000920E-02 0.  1.
    10030    2    1    2    0    0  0.00000000000E+00  0.00000000000E+00  0.25422628278E+03  0.13552232279E+04  0.13311645258E+04 0.  0.
        2    1    3    3  502    0 -0.46452346011E+03  0.99939380598E+02 -0.34738970954E+03  0.58859963905E+03  0.25500000920E-02 0.  1.
       -2    1    3    3    0  502  0.46452346011E+03 -0.99939380598E+02  0.60161599231E+03  0.76662358887E+03  0.25500000920E-02 0. -1.
</event>
<event>
 5   0  0.1823154E-03  0.1311590E+04  0.7818609E-02  0.9020424E-01
        1   -1    0    0  501    0  0.00000000000E+00  0.00000000000E+00  0.58174026647E+03  0.58174026649E+03  0.50400001928E-02 0. -1.
       -1   -1    0    0    0  501  0.00000000000E+00  0.00000000000E+00 -0.73927704111E+03  0.73927704112E+03  0.50400001928E-02 0.  1.
    10030    2    1    2    0    0  0.00000000000E+00  0.00000000000E+00 -0.15753677464E+03  0.13210173076E+04  0.13115902148E+04 0.  0.
        2    1    3    3  502    0 -0.25311666066E+03 -0.39649588143E+03 -0.53898828304E+03  0.71539177879E+03  0.25500000920E-02 0.  1.
       -2    1    3    3    0  502  0.25311666066E+03  0.39649588143E+03  0.38145150840E+03  0.60562552883E+03  0.25500000920E-02 0. -1.
</event>
<event>
 5   0  0.3294720E-03  0.1298317E+04  0.7818609E-02  0.9030901E-01
       -2   -1    0    0    0  501  0.00000000000E+00  0.00000000000E+00  0.89167758491E+03  0.89167758492E+03  0.25500000920E-02 0. -1.
        2   -1    0    0  501    0  0.00000000000E+00  0.00000000000E+00 -0.47260023613E+03  0.47260023614E+03  0.25500000920E-02 0.  1.
    10030    2    1    2    0    0  0.00000000000E+00  0.00000000000E+00  0.41907734878E+03  0.13642778211E+04  0.12983174299E+04 0.  0.
        5    1    3    3  502    0  0.21783314212E+03 -0.46761335682E+03  0.62360288185E+03  0.80933069479E+03  0.46999998093E+01 0. -1.
       -5    1    3    3    0  502 -0.21783314212E+03  0.46761335682E+03 -0.20452553307E+03  0.55494712627E+03  0.46999998093E+01 0.  1.
</event>
<event>
 5   0  0.1873488E-03  0.1204990E+04  0.7818609E-02  0.9108500E-01
       -1   -1    0    0    0  501  0.00000000000E+00  0.00000000000E+00  0.38788537281E+03  0.38788537284E+03  0.50400001928E-02 0.  1.
        1   -1    0    0  501    0  0.00000000000E+00  0.00000000000E+00 -0.93584377904E+03  0.93584377905E+03  0.50400001928E-02 0. -1.
    10030    2    1    2    0    0  0.00000000000E+00  0.00000000000E+00 -0.54795840622E+03  0.13237291519E+04  0.12049898143E+04 0.  0.
        3    1    3    3  502    0  0.27259906311E+03 -0.25513061879E+03 -0.79343659349E+03  0.87689424673E+03  0.10100000352E+00 0. -1.
       -3    1    3    3    0  502 -0.27259906311E+03  0.25513061879E+03  0.24547818727E+03  0.44683490517E+03  0.10100000352E+00 0.  1.
</event>
<event>
 5   0  0.1873488E-03  0.1322536E+04  0.7818609E-02  0.9011882E-01
        1   -1    0    0  501    0  0.00000000000E+00  0.00000000000E+00  0.23200474006E+04  0.23200474006E+04  0.50400001928E-02 0.  1.
       -1   -1    0    0    0  501  0.00000000000E+00  0.00000000000E+00 -0.18847690004E+03  0.18847690011E+03  0.50400001928E-02 0. -1.
    10030    2    1    2    0    0  0.00000000000E+00  0.00000000000E+00  0.21315705005E+04  0.25085243007E+04  0.13225359611E+04 0.  0.
        3    1    3    3  502    0 -0.48170379002E+03 -0.10771667477E+03  0.19004297364E+04  0.19634853237E+04  0.10100000352E+00 0.  1.
       -3    1    3    3    0  502  0.48170379002E+03  0.10771667477E+03  0.23114076414E+03  0.54503897695E+03  0.10100000352E+00 0. -1.
</event>
<event>
 5   0  0.1803959E-03  0.1307085E+04  0.7818609E-02  0.9023966E-01
        1   -1    0    0  501    0  0.00000000000E+00  0.00000000000E+00  0.15524866869E+04  0.15524866869E+04  0.50400001928E-02 0.  1.
       -1   -1    0    0    0  501  0.00000000000E+00  0.00000000000E+00 -0.27511841835E+03  0.27511841840E+03  0.50400001928E-02 0. -1.
    10030    2    1    2    0    0  0.00000000000E+00  0.00000000000E+00  0.12773682686E+04  0.18276051053E+04  0.13070848203E+04 0.  0.
        4    1    3    3  502    0 -0.17808986194E+03 -0.19894682500E+02 -0.24009449640E+03  0.29959769261E+03  0.12699999809E+01 0. -1.
       -4    1    3    3    0  502  0.17808986194E+03  0.19894682500E+02  0.15174627650E+04  0.15280074127E+04  0.12699999809E+01 0.  1.
</event>
<event>
 5   0  0.3259968E-03  0.1309567E+04  0.7818609E-02  0.9022012E-01
        2   -1    0    0  501    0  0.00000000000E+00  0.00000000000E+00  0.18173840680E+04  0.18173840680E+04  0.25500000920E-02 0. -1.
       -2   -1    0    0    0  501  0.00000000000E+00  0.00000000000E+00 -0.23591147072E+03  0.23591147073E+03  0.25500000920E-02 0.  1.
    10030    2    1    2    0    0  0.00000000000E+00  0.00000000000E+00  0.15814725973E+04  0.20532955388E+04  0.13095674834E+04 0.  0.
        4    1    3    3  502    0 -0.35496198734E+02 -0.45829470736E+03  0.59598210975E+02  0.46351653538E+03  0.12699999809E+01 0.  1.
       -4    1    3    3    0  502  0.35496198734E+02  0.45829470736E+03  0.15218743863E+04  0.15897790034E+04  0.12699999809E+01 0. -1.
</event>
<event>
 5   0  0.3299104E-03  0.1299842E+04  0.7818609E-02  0.9029690E-01
        2   -1    0    0  501    0  0.00000000000E+00  0.00000000000E+00  0.65578988493E+03  0.65578988493E+03  0.25500000920E-02 0.  1.
       -2   -1    0    0    0  501  0.00000000000E+00  0.00000000000E+00 -0.64410490497E+03  0.64410490497E+03  0.25500000920E-02 0. -1.
    10030    2    1    2    0    0  0.00000000000E+00  0.00000000000E+00  0.11684979962E+02  0.12998947899E+04  0.12998422697E+04 0.  0.
        2    1    3    3  502    0 -0.49877700135E+03 -0.19840000842E+03 -0.36058249633E+03  0.64665353713E+03  0.25500000920E-02 0. -1.
       -2    1    3    3    0  502  0.49877700135E+03  0.19840000842E+03  0.37226747629E+03  0.65324125278E+03  0.25500000920E-02 0.  1.
</event>
<event>
 5   0  0.3259968E-03  0.1254743E+04  0.7818609E-02  0.9066245E-01
        2   -1    0    0  501    0  0.00000000000E+00  0.00000000000E+00  0.22586831150E+04  0.22586831150E+04  0.25500000920E-02 0. -1.
       -2   -1    0    0    0  501  0.00000000000E+00  0.00000000000E+00 -0.17425860011E+03  0.17425860012E+03  0.25500000920E-02 0.  1.
    10030    2    1    2    0    0  0.00000000000E+00  0.00000000000E+00  0.20844245149E+04  0.24329417152E+04  0.12547429342E+04 0.  0.
        4    1    3    3  502    0  0.33617582420E+03  0.32913246678E+03  0.18469563477E+04  0.19059359194E+04  0.12699999809E+01 0. -1.
       -4    1    3    3    0  502 -0.33617582420E+03 -0.32913246678E+03  0.23746816723E+03  0.52700579581E+03  0.12699999809E+01 0.  1.
</event>
<event>
 5   0  0.3336609E-03  0.1298566E+04  0.7818609E-02  0.9030703E-01
       -2   -1    0    0    0  501  0.00000000000E+00  0.00000000000E+00  0.22875464814E+03  0.22875464816E+03  0.25500000920E-02 0.  1.
        2   -1    0    0  501    0  0.00000000000E+00  0.00000000000E+00 -0.18428843854E+04  0.18428843854E+04  0.25500000920E-02 0. -1.
    10030    2    1    2    0    0  0.00000000000E+00  0.00000000000E+00 -0.16141297373E+04  0.20716390336E+04  0.12985659308E+04 0.  0.
        1    1    3    3  502    0  0.67898616555E+02 -0.60573196316E+03 -0.45017121358E+03  0.75774372639E+03  0.50400001928E-02 0.  1.
       -1    1    3    3    0  502 -0.67898616555E+02  0.60573196316E+03 -0.11639585237E+04  0.13138953072E+04  0.50400001928E-02 0. -1.
</event>
<event>
 5   0  0.3262927E-03  0.1298920E+04  0.7818609E-02  0.9030422E-01
        2   -1    0    0  501    0  0.00000000000E+00  0.00000000000E+00  0.47342668424E+03  0.47342668425E+03  0.25500000920E-02 0.  1.
       -2   -1    0    0    0  501  0.00000000000E+00  0.00000000000E+00 -0.89094772305E+03  0.89094772305E+03  0.25500000920E-02 0. -1.
    10030    2    1    2    0    0  0.00000000000E+00  0.00000000000E+00 -0.41752103880E+03  0.13643744073E+04  0.12989202075E+04 0.  0.
        3    1    3    3  502    0 -0.15494836731E+03  0.55107785322E+03  0.11345907540E+03  0.58358270094E+03  0.10100000352E+00 0.  1.
       -3    1    3    3    0  502  0.15494836731E+03 -0.55107785322E+03 -0.53098011420E+03  0.78079170636E+03  0.10100000352E+00 0. -1.
</event>
<event>
 5   0  0.1857986E-03  0.1287434E+04  0.7818609E-02  0.9039590E-01
       -1   -1    0    0    0  501  0.00000000000E+00  0.00000000000E+00  0.13802266011E+04  0.13802266011E+04  0.50400001928E-02 0. -1.
        1   -1    0    0  501    0  0.00000000000E+00  0.00000000000E+00 -0.30021999721E+03  0.30021999725E+03  0.50400001928E-02 0.  1.
    10030    2    1    2    0    0  0.00000000000E+00  0.00000000000E+00  0.10800066039E+04  0.16804465984E+04  0.12874340781E+04 0.  0.
        1    1    3    3  502    0 -0.34740432602E+03  0.53948045639E+03  0.60710344796E+03  0.88334790718E+03  0.50400001928E-02 0. -1.
       -1    1    3    3    0  502  0.34740432602E+03 -0.53948045639E+03  0.47290315592E+03  0.79709869117E+03  0.50400001928E-02 0.  1.
</event>
<event>
 5   0  0.3299104E-03  0.1301103E+04  0.7818609E-02  0.9028691E-01
       -2   -1    0    0    0  501  0.00000000000E+00  0.00000000000E+00  0.63647309468E+03  0.63647309469E+03  0.25500000920E-02 0. -1.
        2   -1    0    0  501    0  0.00000000000E+00  0.00000000000E+00 -0.66494131601E+03  0.66494131601E+03  0.25500000920E-02 0.  1.
    10030    2    1    2    0    0  0.00000000000E+00  0.00000000000E+00 -0.28468221323E+02  0.13014144107E+04  0.13011030047E+04 0.  0.
        2    1    3    3  502    0  0.46075289450E+03 -0.45844275464E+03  0.13236404677E+02  0.65010629245E+03  0.25500000920E-02 0. -1.
       -2    1    3    3    0  502 -0.46075289450E+03  0.45844275464E+03 -0.41704626000E+02  0.65130811825E+03  0.25500000920E-02 0.  1.
</event>
<event>
 5   0  0.1823154E-03  0.1305642E+04  0.7818609E-02  0.9025103E-01
        1   -1    0    0  501    0  0.00000000000E+00  0.00000000000E+00  0.86599915818E+03  0.86599915819E+03  0.50400001928E-02 0. -1.
       -1   -1    0    0    0  501  0.00000000000E+00  0.00000000000E+00 -0.49211969704E+03  0.49211969707E+03  0.50400001928E-02 0.  1.
    10030    2    1    2    0    0  0.00000000000E+00  0.00000000000E+00  0.37387946113E+03  0.13581188553E+04  0.13056419776E+04 0.  0.
        2    1    3    3  502    0  0.61554353877E+03 -0.78850197684E+02 -0.23847607644E+02  0.62103132787E+03  0.25500000920E-02 0.  1.
       -2    1    3    3    0  502 -0.61554353877E+03  0.78850197684E+02  0.39772706878E+03  0.73708752739E+03  0.25500000920E-02 0. -1.
</event>
<event>
 5   0  0.3299104E-03  0.1350181E+04  0.7818609E-02  0.8990691E-01
       -2   -1    0    0    0  501  0.00000000000E+00  0.00000000000E+00  0.11162186164E+04  0.11162186164E+04  0.25500000920E-02 0. -1.
        2   -1    0    0  501    0  0.00000000000E+00  0.00000000000E+00 -0.40829578795E+03  0.40829578796E+03  0.25500000920E-02 0.  1.
    10030    2    1    2    0    0  0.00000000000E+00  0.00000000000E+00  0.70792282844E+03  0.15245144044E+04  0.13501812612E+04 0.  0.
        2    1    3    3  502    0  0.76321595452E+02 -0.30068187173E+03  0.10309738185E+04  0.10766343801E+04  0.25500000920E-02 0. -1.
       -2    1    3    3    0  502 -0.76321595452E+02  0.30068187173E+03 -0.32305099009E+03  0.44788002425E+03  0.25500000920E-02 0.  1.
</event>
<event>
 5   0  0.3259968E-03  0.1254226E+04  0.7818609E-02  0.9066673E-01
       -2   -1    0    0    0  501  0.00000000000E+00  0.00000000000E+00  0.86955365467E+03  0.86955365467E+03  0.25500000920E-02 0. -1.
        2   -1    0    0  501    0  0.00000000000E+00  0.00000000000E+00 -0.45226768839E+03  0.45226768840E+03  0.25500000920E-02 0.  1.
    10030    2    1    2    0    0  0.00000000000E+00  0.00000000000E+00  0.41728596628E+03  0.13218213431E+04  0.12542264889E+04 0.  0.
        4    1    3    3  502    0 -0.53433766013E+03  0.73520625029E+02 -0.12851634494E+03  0.55447279569E+03  0.12699999809E+01 0.  1.
       -4    1    3    3    0  502  0.53433766013E+03 -0.73520625029E+02  0.54580231122E+03  0.76734854738E+03  0.12699999809E+01 0. -1.
</event>
<event>
 5   0  0.1857986E-03  0.1296944E+04  0.7818609E-02  0.9031992E-01
        1   -1    0    0  501    0  0.00000000000E+00  0.00000000000E+00  0.89934202292E+03  0.89934202293E+03  0.50400001928E-02 0. -1.
       -1   -1    0    0    0  501  0.00000000000E+00  0.00000000000E+00 -0.46758195392E+03  0.46758195395E+03  0.50400001928E-02 0.  1.
    10030    2    1    2    0    0  0.00000000000E+00  0.00000000000E+00  0.43176006900E+03  0.13669239769E+04  0.12969442553E+04 0.  0.
        1    1    3    3  502    0  0.58106180726E+03 -0.63390833246E+01  0.51923506615E+03  0.77928047697E+03  0.50400001928E-02 0. -1.
       -1    1    3    3    0  502 -0.58106180726E+03  0.63390833246E+01 -0.87474997151E+02  0.58764349991E+03  0.50400001928E-02 0.  1.
</event>
<event>
 5   0  0.1873488E-03  0.1399470E+04  0.7818609E-02  0.8954203E-01
       -1   -1    0    0    0  501  0.00000000000E+00  0.00000000000E+00  0.76700256552E+03  0.76700256553E+03  0.50400001928E-02 0.  1.
        1   -1    0    0  501    0  0.00000000000E+00  0.00000000000E+00 -0.63836661700E+03  0.63836661702E+03  0.50400001928E-02 0. -1.
    10030    2    1    2    0    0  0.00000000000E+00  0.00000000000E+00  0.12863594852E+03  0.14053691826E+04  0.13994696610E+04 0.  0.
        3    1    3    3  502    0 -0.51985206722E+03  0.31956995011E+03 -0.27955466350E+03  0.67120931526E+03  0.10100000352E+00 0. -1.
       -3    1    3    3    0  502  0.51985206722E+03 -0.31956995011E+03  0.40819061202E+03  0.73415986729E+03  0.10100000352E+00 0.  1.
</event>
<event>
 5   0  0.3262927E-03  0.1182658E+04  0.7818609E-02  0.9128173E-01
        2   -1    0    0  501    0  0.00000000000E+00  0.00000000000E+00  0.18729255465E+04  0.18729255465E+04  0.25500000920E-02 0.  1.
       -2   -1    0    0    0  501  0.00000000000E+00  0.00000000000E+00 -0.18669729252E+03  0.18669729254E+03  0.25500000920E-02 0. -1.
    10030    2    1    2    0    0  0.00000000000E+00  0.00000000000E+00  0.16862282540E+04  0.20596228390E+04  0.11826582408E+04 0.  0.
        3    1    3    3  502    0  0.12900751474E+03  0.82007177216E+02  0.18379199214E+04  0.18442661857E+04  0.10100000352E+00 0.  1.
       -3    1    3    3    0  502 -0.12900751474E+03 -0.82007177216E+02 -0.15169166743E+03  0.21535665335E+03  0.10100000352E+00 0. -1.
</event>
<event>
 5   0  0.1814770E-03  0.1290550E+04  0.7818609E-02  0.9037093E-01
        1   -1    0    0  501    0  0.00000000000E+00  0.00000000000E+00  0.92547156562E+03  0.92547156564E+03  0.50400001928E-02 0. -1.
       -1   -1    0    0    0  501  0.00000000000E+00  0.00000000000E+00 -0.44991076633E+03  0.44991076636E+03  0.50400001928E-02 0.  1.
    10030    2    1    2    0    0  0.00000000000E+00  0.00000000000E+00  0.47556079929E+03  0.13753823320E+04  0.12905496834E+04 0.  0.
        5    1    3    3  502    0 -0.54270505662E+03 -0.27253628726E+03  0.53802427036E+01  0.60733503387E+03  0.46999998093E+01 0.  1.
       -5    1    3    3    0  502  0.54270505662E+03  0.27253628726E+03  0.47018055659E+03  0.76804729812E+03  0.46999998093E+01 0. -1.
</event>
<event>
 5   0  0.1803959E-03  0.1268268E+04  0.7818609E-02  0.9055114E-01
        1   -1    0    0  501    0  0.00000000000E+00  0.00000000000E+00  0.15480673534E+04  0.15480673534E+04  0.50400001928E-02 0.  1.
       -1   -1    0    0    0  501  0.00000000000E+00  0.00000000000E+00 -0.25976002244E+03  0.25976002249E+03  0.50400001928E-02 0. -1.
    10030    2    1    2    0    0  0.00000000000E+00  0.00000000000E+00  0.12883073310E+04  0.18078273759E+04  0.12682681270E+04 0.  0.
        4    1    3    3  502    0  0.59090734294E+03 -0.22227110861E+03  0.55924225029E+03  0.84340348652E+03  0.12699999809E+01 0. -1.
       -4    1    3    3    0  502 -0.59090734294E+03  0.22227110861E+03  0.72906508069E+03  0.96442388940E+03  0.12699999809E+01 0.  1.
</event>
<event>
 5   0  0.3259968E-03  0.1254861E+04  0.7818609E-02  0.9066147E-01
       -2   -1    0    0    0  501  0.00000000000E+00  0.00000000000E+00  0.18488107610E+03  0.18488107612E+03  0.25500000920E-02 0. -1.
        2   -1    0    0  501    0  0.00000000000E+00  0.00000000000E+00 -0.21293089268E+04  0.21293089268E+04  0.25500000920E-02 0.  1.
    10030    2    1    2    0    0  0.00000000000E+00  0.00000000000E+00 -0.19444278507E+04  0.23141900029E+04  0.12548608301E+04 0.  0.
        4    1    3    3  502    0  0.57722095697E+03  0.22099192757E+03 -0.77319746309E+03  0.98987746466E+03  0.12699999809E+01 0. -1.
       -4    1    3    3    0  502 -0.57722095697E+03 -0.22099192757E+03 -0.11712303876E+04  0.13243125382E+04  0.12699999809E+01 0.  1.
</event>
<event>
 5   0  0.3336609E-03  0.1303386E+04  0.7818609E-02  0.9026885E-01
        2   -1    0    0  501    0  0.00000000000E+00  0.00000000000E+00  0.19246247452E+04  0.19246247452E+04  0.25500000920E-02 0. -1.
       -2   -1    0    0    0  501  0.00000000000E+00  0.00000000000E+00 -0.22066819446E+03  0.22066819448E+03  0.25500000920E-02 0.  1.
    10030    2    1    2    0    0  0.00000000000E+00  0.00000000000E+00  0.17039565507E+04  0.21452929397E+04  0.13033855417E+04 0.  0.
        1    1    3    3  502    0  0.55235758929E+03  0.34200393852E+03  0.93651397719E+03  0.11397912221E+04  0.50400001928E-02 0. -1.
       -1    1    3    3    0  502 -0.55235758929E+03 -0.34200393852E+03  0.76744257354E+03  0.10055017176E+04  0.50400001928E-02 0.  1.
</event>
<event>
 5   0  0.1823154E-03  0.1262426E+04  0.7818609E-02  0.9059904E-01
        1   -1    0    0  501    0  0.00000000000E+00  0.00000000000E+00  0.85278315170E+03  0.85278315171E+03  0.50400001928E-02 0. -1.
       -1   -1    0    0    0  501  0.00000000000E+00  0.00000000000E+00 -0.46721149633E+03  0.46721149636E+03  0.50400001928E-02 0.  1.
    10030    2    1    2    0    0  0.00000000000E+00  0.00000000000E+00  0.38557165536E+03  0.13199946481E+04  0.12624263818E+04 0.  0.
        2    1    3    3  502    0 -0.26768404014E+03 -0.34064006619E+03 -0.28721200837E+03  0.51978951298E+03  0.25500000920E-02 0.  1.
       -2    1    3    3    0  502  0.26768404014E+03  0.34064006619E+03  0.67278366374E+03  0.80020513510E+03  0.25500000920E-02 0. -1.
</event>
<event>
 5   0  0.3299104E-03  0.1279982E+04  0.7818609E-02  0.9045592E-01
       -2   -1    0    0    0  501  0.00000000000E+00  0.00000000000E+00  0.40919926497E+03  0.40919926498E+03  0.25500000920E-02 0.  1.
        2   -1    0    0  501    0  0.00000000000E+00  0.00000000000E+00 -0.10009518966E+04  0.10009518966E+04  0.25500000920E-02 0. -1.
    10030    2    1    2    0    0  0.00000000000E+00  0.00000000000E+00 -0.59175263162E+03  0.14101511616E+04  0.12799824692E+04 0.  0.
        2    1    3    3  502    0 -0.20790016957E+03 -0.35625104976E+03 -0.83497766571E+03  0.93130284721E+03  0.25500000920E-02 0. -1.
       -2    1    3    3    0  502  0.20790016957E+03  0.35625104976E+03  0.24322503409E+03  0.47884831438E+03  0.25500000920E-02 0.  1.
</event>
<event>
 5   0  0.3336609E-03  0.1257149E+04  0.7818609E-02  0.9064254E-01
        2   -1    0    0  501    0  0.00000000000E+00  0.00000000000E+00  0.82806290879E+03  0.82806290879E+03  0.25500000920E-02 0. -1.
       -2   -1    0    0    0  501  0.00000000000E+00  0.00000000000E+00 -0.47714488931E+03  0.47714488931E+03  0.25500000920E-02 0.  1.
    10030    2    1    2    0    0  0.00000000000E+00  0.00000000000E+00  0.35091801948E+03  0.13052077981E+04  0.12571491319E+04 0.  0.
        1    1    3    3  502    0  0.35156898466E+03 -0.38590211140E+03 -0.18804663689E+03  0.55487181243E+03  0.50400001928E-02 0.  1.
       -1    1    3    3    0  502 -0.35156898466E+03  0.38590211140E+03  0.53896465637E+03  0.75033598568E+03  0.50400001928E-02 0. -1.
</event>
<event>
 5   0  0.3262927E-03  0.1328489E+04  0.7818609E-02  0.9007274E-01
       -2   -1    0    0    0  501  0.00000000000E+00  0.00000000000E+00  0.28297433144E+03  0.28297433145E+03  0.25500000920E-02 0.  1.
        2   -1    0    0  501    0  0.00000000000E+00  0.00000000000E+00 -0.15592243253E+04  0.15592243253E+04  0.25500000920E-02 0. -1.
    10030    2    1    2    0    0  0.00000000000E+00  0.00000000000E+00 -0.12762499938E+04  0.18421986567E+04  0.13284885562E+04 0.  0.
        3    1    3    3  502    0  0.64965018143E+02 -0.41966883886E+03  0.70142682775E+02  0.43042118215E+03  0.10100000352E+00 0.  1.
       -3    1    3    3    0  502 -0.64965018143E+02  0.41966883886E+03 -0.13463926766E+04  0.14117774746E+04  0.10100000352E+00 0. -1.
</event>
<event>
 5   0  0.3299104E-03  0.1314050E+04  0.7818609E-02  0.9018497E-01
        2   -1    0    0  501    0  0.00000000000E+00  0.00000000000E+00  0.82765783245E+03  0.82765783245E+03  0.25500000920E-02 0. -1.
       -2   -1    0    0    0  501  0.00000000000E+00  0.00000000000E+00 -0.52157010154E+03  0.52157010155E+03  0.25500000920E-02 0.  1.
    10030    2    1    2    0    0  0.00000000000E+00  0.00000000000E+00  0.30608773091E+03  0.13492279340E+04  0.13140495877E+04 0.  0.
        2    1    3    3  502    0 -0.45957835516E+03  0.20491003231E+03 -0.28073641072E+03  0.57620596854E+03  0.25500000920E-02 0.  1.
       -2    1    3    3    0  502  0.45957835516E+03 -0.20491003231E+03  0.58682414162E+03  0.77302196546E+03  0.25500000920E-02 0. -1.
</event>
<event>
 5   0  0.1814770E-03  0.1305390E+04  0.7818609E-02  0.9025302E-01
       -1   -1    0    0    0  501  0.00000000000E+00  0.00000000000E+00  0.33422264110E+03  0.33422264114E+03  0.50400001928E-02 0.  1.
        1   -1    0    0  501    0  0.00000000000E+00  0.00000000000E+00 -0.12746321800E+04  0.12746321800E+04  0.50400001928E-02 0. -1.
    10030    2    1    2    0    0  0.00000000000E+00  0.00000000000E+00 -0.94040953888E+03  0.16088548211E+04  0.13053902614E+04 0.  0.
        5    1    3    3  502    0 -0.18475681314E+03  0.41938977281E+03  0.10255059063E+03  0.46963983559E+03  0.46999998093E+01 0.  1.
       -5    1    3    3    0  502  0.18475681314E+03 -0.41938977281E+03 -0.10429601295E+04  0.11392149855E+04  0.46999998093E+01 0. -1.
</event>
<event>
 5   0  0.3259968E-03  0.1283218E+04  0.7818609E-02  0.9042980E-01
       -2   -1    0    0    0  501  0.00000000000E+00  0.00000000000E+00  0.36053789205E+03  0.36053789206E+03  0.25500000920E-02 0. -1.
        2   -1    0    0  501    0  0.00000000000E+00  0.00000000000E+00 -0.11417995870E+04  0.11417995870E+04  0.25500000920E-02 0.  1.
    10030    2    1    2    0    0  0.00000000000E+00  0.00000000000E+00 -0.78126169492E+03  0.15023374790E+04  0.12832178556E+04 0.  0.
        4    1    3    3  502    0  0.56646448888E+03 -0.24730199394E+03 -0.59212406920E+03  0.85595141193E+03  0.12699999809E+01 0.  1.
       -4    1    3    3    0  502 -0.56646448888E+03  0.24730199394E+03 -0.18913762573E+03  0.64638606710E+03  0.12699999809E+01 0. -1.
</event>
<event>
 5   0  0.1873488E-03  0.1311539E+04  0.7818609E-02  0.9020464E-01
       -1   -1    0    0    0  501  0.00000000000E+00  0.00000000000E+00  0.37936743582E+03  0.37936743585E+03  0.50400001928E-02 0.  1.
        1   -1    0    0  501    0  0.00000000000E+00  0.00000000000E+00 -0.11335545310E+04  0.11335545311E+04  0.50400001928E-02 0. -1.
    10030    2    1    2    0    0  0.00000000000E+00  0.00000000000E+00 -0.75418709523E+03  0.15129219669E+04  0.13115390590E+04 0.  0.
        3    1    3    3  502    0 -0.43627362163E+03 -0.40164697986E+03 -0.70004282523E+03  0.91745023665E+03  0.10100000352E+00 0.  1.
       -3    1    3    3    0  502  0.43627362163E+03  0.40164697986E+03 -0.54144269994E+02  0.59547173026E+03  0.10100000352E+00 0. -1.
</event>
<event>
 5   0  0.1857986E-03  0.1308594E+04  0.7818609E-02  0.9022778E-01
       -1   -1    0    0    0  501  0.00000000000E+00  0.00000000000E+00  0.30404780437E+03  0.30404780441E+03  0.50400001928E-02 0.  1.
        1   -1    0    0  501    0  0.00000000000E+00  0.00000000000E+00 -0.14080169488E+04  0.14080169488E+04  0.50400001928E-02 0. -1.
    10030    2    1    2    0    0  0.00000000000E+00  0.00000000000E+00 -0.11039691444E+04  0.17120647532E+04  0.13085938435E+04 0.  0.
        1    1    3    3  502    0 -0.44919524182E+02  0.44577288829E+03 -0.11758414674E+04  0.12583061583E+04  0.50400001928E-02 0. -1.
       -1    1    3    3    0  502  0.44919524182E+02 -0.44577288829E+03  0.71872322990E+02  0.45375859488E+03  0.50400001928E-02 0.  1.
</event>
<event>
 5   0  0.3262927E-03  0.1286461E+04  0.7818609E-02  0.9040371E-01
        2   -1    0    0  501    0  0.00000000000E+00  0.00000000000E+00  0.16586030166E+04  0.16586030166E+04  0.25500000920E-02 0. -1.
       -2   -1    0    0    0  501  0.00000000000E+00  0.00000000000E+00 -0.24945401790E+03  0.24945401791E+03  0.25500000920E-02 0.  1.
    10030    2    1    2    0    0  0.00000000000E+00  0.00000000000E+00  0.14091489987E+04  0.19080570345E+04  0.12864605499E+04 0.  0.
        3    1    3    3  502    0  0.16605343859E+03 -0.44811448022E+02  0.16238651715E+04  0.16329482281E+04  0.10100000352E+00 0. -1.
       -3    1    3    3    0  502 -0.16605343859E+03  0.44811448022E+02 -0.21471617274E+03  0.27510880644E+03  0.10100000352E+00 0.  1.
</event>
<event>
 5   0  0.1254125E-03  0.1273873E+04  0.7818609E-02  0.9050545E-01
       -3   -1    0    0    0  501  0.00000000000E+00  0.00000000000E+00  0.36794844865E+03  0.36794846251E+03  0.10100000352E+00 0. -1.
        3   -1    0    0  501    0  0.00000000000E+00  0.00000000000E+00 -0.11025672308E+04  0.11025672354E+04  0.10100000352E+00 0.  1.
    10030    2    1    2    0    0  0.00000000000E+00  0.00000000000E+00 -0.73461878212E+03  0.14705156979E+04  0.12738727027E+04 0.  0.
        2    1    3    3  502    0 -0.51209626917E+03  0.49384457652E+02 -0.80078354071E+03  0.95180654160E+03  0.25500000920E-02 0.  1.
       -2    1    3    3    0  502  0.51209626917E+03 -0.49384457652E+02  0.66164758588E+02  0.51870915631E+03  0.25500000920E-02 0. -1.
</event>
<event>
 5   0  0.1873488E-03  0.1258138E+04  0.7818609E-02  0.9063437E-01
       -1   -1    0    0    0  501  0.00000000000E+00  0.00000000000E+00  0.55055548765E+03  0.55055548767E+03  0.50400001928E-02 0. -1.
        1   -1    0    0  501    0  0.00000000000E+00  0.00000000000E+00 -0.71877915401E+03  0.71877915403E+03  0.50400001928E-02 0.  1.
    10030    2    1    2    0    0  0.00000000000E+00  0.00000000000E+00 -0.16822366636E+03  0.12693346417E+04  0.12581380015E+04 0.  0.
        3    1    3    3  502    0 -0.31628175494E+03 -0.34922744769E+03  0.33641146341E+03  0.57893578370E+03  0.10100000352E+00 0. -1.
       -3    1    3    3    0  502  0.31628175494E+03  0.34922744769E+03 -0.50463512978E+03  0.69039885800E+03  0.10100000352E+00 0.  1.
</event>
<event>
 5   0  0.1803959E-03  0.1321022E+04  0.7818609E-02  0.9013059E-01
        1   -1    0    0  501    0  0.00000000000E+00  0.00000000000E+00  0.45178292211E+03  0.45178292214E+03  0.50400001928E-02 0. -1.
       -1   -1    0    0    0  501  0.00000000000E+00  0.00000000000E+00 -0.96567334562E+03  0.96567334563E+03  0.50400001928E-02 0.  1.
    10030    2    1    2    0    0  0.00000000000E+00  0.00000000000E+00 -0.51389042351E+03  0.14174562678E+04  0.13210219164E+04 0.  0.
        4    1    3    3  502    0  0.55720037093E+03  0.23001099574E+03 -0.54664681824E+03  0.81375774547E+03  0.12699999809E+01 0.  1.
       -4    1    3    3    0  502 -0.55720037093E+03 -0.23001099574E+03  0.32756394731E+02  0.60369852229E+03  0.12699999809E+01 0. -1.
</event>
<event>
 5   0  0.1814770E-03  0.1305990E+04  0.7818609E-02  0.9024828E-01
       -1   -1    0    0    0  501  0.00000000000E+00  0.00000000000E+00  0.10365180419E+04  0.10365180419E+04  0.50400001928E-02 0. -1.
        1   -1    0    0  501    0  0.00000000000E+00  0.00000000000E+00 -0.41137984407E+03  0.41137984410E+03  0.50400001928E-02 0.  1.
    10030    2    1    2    0    0  0.00000000000E+00  0.00000000000E+00  0.62513819786E+03  0.14478978860E+04  0.13059902457E+04 0.  0.
        5    1    3    3  502    0 -0.14291881029E+03 -0.54254437950E+03 -0.57796618607E+02  0.56404142506E+03  0.46999998093E+01 0.  1.
       -5    1    3    3    0  502  0.14291881029E+03  0.54254437950E+03  0.68293481647E+03  0.88385646098E+03  0.46999998093E+01 0. -1.
</event>
<event>
 5   0  0.1803959E-03  0.1400325E+04  0.7818609E-02  0.8953583E-01
       -1   -1    0    0    0  501  0.00000000000E+00  0.00000000000E+00  0.29845964150E+03  0.29845964155E+03  0.50400001928E-02 0.  1.
        1   -1    0    0  501    0  0.00000000000E+00  0.00000000000E+00 -0.16425250990E+04  0.16425250990E+04  0.50400001928E-02 0. -1.
    10030    2    1    2    0    0  0.00000000000E+00  0.00000000000E+00 -0.13440654575E+04  0.19409847405E+04  0.14003248941E+04 0.  0.
        4    1    3    3  502    0 -0.26312335974E+03  0.34767053375E+02  0.22602826311E+03  0.34861589044E+03  0.12699999809E+01 0.  1.
       -4    1    3    3    0  502  0.26312335974E+03 -0.34767053375E+02 -0.15700937206E+04  0.15923688501E+04  0.12699999809E+01 0. -1.
</event>
<event>
 5   0  0.3262927E-03  0.1282936E+04  0.7818609E-02  0.9043207E-01
       -2   -1    0    0    0  501  0.00000000000E+00  0.00000000000E+00  0.44976862608E+03  0.44976862609E+03  0.25500000920E-02 0.  1.
        2   -1    0    0  501    0  0.00000000000E+00  0.00000000000E+00 -0.91487335437E+03  0.91487335437E+03  0.25500000920E-02 0. -1.
    10030    2    1    2    0    0  0.00000000000E+00  0.00000000000E+00 -0.46510472829E+03  0.13646419805E+04  0.12829362130E+04 0.  0.
        3    1    3    3  502    0  0.42102874538E+03 -0.39360059119E+03  0.66974459207E+02  0.58023462341E+03  0.10100000352E+00 0.  1.
       -3    1    3    3    0  502 -0.42102874538E+03  0.39360059119E+03 -0.53207918750E+03  0.78440735705E+03  0.10100000352E+00 0. -1.
</event>
<event>
 5   0  0.1803959E-03  0.1310037E+04  0.7818609E-02  0.9021644E-01
       -1   -1    0    0    0  501  0.00000000000E+00  0.00000000000E+00  0.52274544007E+03  0.52274544010E+03  0.50400001928E-02 0.  1.
        1   -1    0    0  501    0  0.00000000000E+00  0.00000000000E+00 -0.82076077770E+03  0.82076077772E+03  0.50400001928E-02 0. -1.
    10030    2    1    2    0    0  0.00000000000E+00  0.00000000000E+00 -0.29801533763E+03  0.13435062178E+04  0.13100365704E+04 0.  0.
        4    1    3    3  502    0  0.77418987329E+02  0.29535889464E+03 -0.74331001944E+03  0.80358072037E+03  0.12699999809E+01 0. -1.
       -4    1    3    3    0  502 -0.77418987329E+02 -0.29535889464E+03  0.44529468181E+03  0.53992549745E+03  0.12699999809E+01 0.  1.
</event>
<event>
 5   0  0.3262927E-03  0.1284597E+04  0.7818609E-02  0.9041870E-01
        2   -1    0    0  501    0  0.00000000000E+00  0.00000000000E+00  0.56443898328E+03  0.56443898329E+03  0.25500000920E-02 0. -1.
       -2   -1    0    0    0  501  0.00000000000E+00  0.00000000000E+00 -0.73089799243E+03  0.73089799243E+03  0.25500000920E-02 0.  1.
    10030    2    1    2    0    0  0.00000000000E+00  0.00000000000E+00 -0.16645900914E+03  0.12953369757E+04  0.12845969325E+04 0.  0.
        3    1    3    3  502    0  0.15003899831E+03  0.18340014923E+03 -0.68521319634E+03  0.72502720666E+03  0.10100000352E+00 0.  1.
       -3    1    3    3    0  502 -0.15003899831E+03 -0.18340014923E+03  0.51875418720E+03  0.57030976906E+03  0.10100000352E+00 0. -1.
</event>
<event>
 5   0  0.3259968E-03  0.1295696E+04  0.7818609E-02  0.9032985E-01
       -2   -1    0    0    0  501  0.00000000000E+00  0.00000000000E+00  0.51937348963E+03  0.51937348964E+03  0.25500000920E-02 0.  1.
        2   -1    0    0  501    0  0.00000000000E+00  0.00000000000E+00 -0.80810231185E+03  0.80810231185E+03  0.25500000920E-02 0. -1.
    10030    2    1    2    0    0  0.00000000000E+00  0.00000000000E+00 -0.28872882222E+03  0.13274758015E+04  0.12956958249E+04 0.  0.
        4    1    3    3  502    0  0.64316507962E+03  0.74275154056E+02 -0.16788811751E+03  0.66885435713E+03  0.12699999809E+01 0.  1.
       -4    1    3    3    0  502 -0.64316507962E+03 -0.74275154056E+02 -0.12084070471E+03  0.65862144436E+03  0.12699999809E+01 0. -1.
</event>
<event>
 5   0  0.1803959E-03  0.1380038E+04  0.7818609E-02  0.8968396E-01
       -1   -1    0    0    0  501  0.00000000000E+00  0.00000000000E+00  0.45660651070E+03  0.45660651073E+03  0.50400001928E-02 0. -1.
        1   -1    0    0  501    0  0.00000000000E+00  0.00000000000E+00 -0.10427497677E+04  0.10427497677E+04  0.50400001928E-02 0.  1.
    10030    2    1    2    0    0  0.00000000000E+00  0.00000000000E+00 -0.58614325697E+03  0.14993562784E+04  0.13800381632E+04 0.  0.
        4    1    3    3  502    0  0.48257335773E+03  0.22135247314E+03 -0.77191679308E+03  0.93687304972E+03  0.12699999809E+01 0.  1.
       -4    1    3    3    0  502 -0.48257335773E+03 -0.22135247314E+03  0.18577353611E+03  0.56248322870E+03  0.12699999809E+01 0. -1.
</event>
<event>
 5   0  0.1857986E-03  0.1297711E+04  0.7818609E-02  0.9031382E-01
        1   -1    0    0  501    0  0.00000000000E+00  0.00000000000E+00  0.12642339863E+04  0.12642339863E+04  0.50400001928E-02 0.  1.
       -1   -1    0    0    0  501  0.00000000000E+00  0.00000000000E+00 -0.33301873576E+03  0.33301873580E+03  0.50400001928E-02 0. -1.
    10030    2    1    2    0    0  0.00000000000E+00  0.00000000000E+00  0.93121525058E+03  0.15972527221E+04  0.12977112219E+04 0.  0.
        1    1    3    3  502    0 -0.20750993637E+03 -0.54490264657E+03  0.81598020878E+03  0.10028972874E+04  0.50400001928E-02 0.  1.
       -1    1    3    3    0  502  0.20750993637E+03  0.54490264657E+03  0.11523504180E+03  0.59435543475E+03  0.50400001928E-02 0. -1.
</event>
<event>
 5   0  0.3299104E-03  0.1304542E+04  0.7818609E-02  0.9025971E-01
        2   -1    0    0  501    0  0.00000000000E+00  0.00000000000E+00  0.12350167113E+04  0.12350167113E+04  0.25500000920E-02 0.  1.
       -2   -1    0    0    0  501  0.00000000000E+00  0.00000000000E+00 -0.34449554221E+03  0.34449554222E+03  0.25500000920E-02 0. -1.
    10030    2    1    2    0    0  0.00000000000E+00  0.00000000000E+00  0.89052116904E+03  0.15795122535E+04  0.13045424510E+04 0.  0.
        2    1    3    3  502    0  0.41586435597E+03 -0.50045207827E+03  0.50024522314E+03  0.82075619309E+03  0.25500000920E-02 0. -1.
       -2    1    3    3    0  502 -0.41586435597E+03  0.50045207827E+03  0.39027594591E+03  0.75875606038E+03  0.25500000920E-02 0.  1.
</event>
<event>
 5   0  0.3262927E-03  0.1308955E+04  0.7818609E-02  0.9022493E-01
       -2   -1    0    0    0  501  0.00000000000E+00  0.00000000000E+00  0.33204824358E+03  0.33204824359E+03  0.25500000920E-02 0.  1.
        2   -1    0    0  501    0  0.00000000000E+00  0.00000000000E+00 -0.12899965523E+04  0.12899965523E+04  0.25500000920E-02 0. -1.
    10030    2    1    2    0    0  0.00000000000E+00  0.00000000000E+00 -0.95794830872E+03  0.16220447959E+04  0.13089554453E+04 0.  0.
        3    1    3    3  502    0 -0.99903789453E+02  0.42970126444E+03 -0.10780519970E+04  0.11648261940E+04  0.10100000352E+00 0. -1.
       -3    1    3    3    0  502  0.99903789453E+02 -0.42970126444E+03  0.12010368824E+03  0.45721860192E+03  0.10100000352E+00 0.  1.
</event>
<event>
 5   0  0.1803959E-03  0.1139261E+04  0.7818609E-02  0.9167748E-01
        1   -1    0    0  501    0  0.00000000000E+00  0.00000000000E+00  0.38223835520E+03  0.38223835523E+03  0.50400001928E-02 0. -1.
       -1   -1    0    0    0  501  0.00000000000E+00  0.00000000000E+00 -0.84889141571E+03  0.84889141573E+03  0.50400001928E-02 0.  1.
    10030    2    1    2    0    0  0.00000000000E+00  0.00000000000E+00 -0.46665306051E+03  0.12311297710E+04  0.11392609157E+04 0.  0.
        4    1    3    3  502    0 -0.17426971460E+03  0.44885722265E+03 -0.56222892050E+03  0.74023355213E+03  0.12699999809E+01 0.  1.
       -4    1    3    3    0  502  0.17426971460E+03 -0.44885722265E+03  0.95575859994E+02  0.49089621883E+03  0.12699999809E+01 0. -1.
</event>
<event>
 5   0  0.1823154E-03  0.1289354E+04  0.7818609E-02  0.9038051E-01
        1   -1    0    0  501    0  0.00000000000E+00  0.00000000000E+00  0.12369869424E+04  0.12369869424E+04  0.50400001928E-02 0.  1.
       -1   -1    0    0    0  501  0.00000000000E+00  0.00000000000E+00 -0.33598435420E+03  0.33598435424E+03  0.50400001928E-02 0. -1.
    10030    2    1    2    0    0  0.00000000000E+00  0.00000000000E+00  0.90100258817E+03  0.15729712966E+04  0.12893537281E+04 0.  0.
        2    1    3    3  502    0 -0.30976361630E+03 -0.37813707457E+02 -0.23770047745E+03  0.39228164810E+03  0.25500000920E-02 0. -1.
       -2    1    3    3    0  502  0.30976361630E+03  0.37813707457E+02  0.11387030656E+04  0.11806896485E+04  0.25500000920E-02 0.  1.
</event>
<event>
 5   0  0.1857986E-03  0.1300957E+04  0.7818609E-02  0.9028806E-01
       -1   -1    0    0    0  501  0.00000000000E+00  0.00000000000E+00  0.30244990707E+03  0.30244990711E+03  0.50400001928E-02 0. -1.
        1   -1    0    0  501    0  0.00000000000E+00  0.00000000000E+00 -0.13989833414E+04  0.13989833414E+04  0.50400001928E-02 0.  1.
    10030    2    1    2    0    0  0.00000000000E+00  0.00000000000E+00 -0.10965334343E+04  0.17014332485E+04  0.13009571578E+04 0.  0.
        1    1    3    3  502    0 -0.52777820776E+03 -0.37750632552E+03 -0.48888597607E+03  0.81244714291E+03  0.50400001928E-02 0. -1.
       -1    1    3    3    0  502  0.52777820776E+03  0.37750632552E+03 -0.60764745824E+03  0.88898610559E+03  0.50400001928E-02 0.  1.
</event>
<event>
 5   0  0.3299104E-03  0.1312446E+04  0.7818609E-02  0.9019753E-01
       -2   -1    0    0    0  501  0.00000000000E+00  0.00000000000E+00  0.48580311635E+03  0.48580311636E+03  0.25500000920E-02 0.  1.
        2   -1    0    0  501    0  0.00000000000E+00  0.00000000000E+00 -0.88642618135E+03  0.88642618136E+03  0.25500000920E-02 0. -1.
    10030    2    1    2    0    0  0.00000000000E+00  0.00000000000E+00 -0.40062306501E+03  0.13722292977E+04  0.13124459628E+04 0.  0.
        2    1    3    3  502    0 -0.54654703978E+03  0.84694463639E+02 -0.56958765666E+03  0.79392500747E+03  0.25500000920E-02 0. -1.
       -2    1    3    3    0  502  0.54654703978E+03 -0.84694463639E+02  0.16896459165E+03  0.57830429024E+03  0.25500000920E-02 0.  1.
</event>
<event>
 5   0  0.1814770E-03  0.1235025E+04  0.7818609E-02  0.9082739E-01
        1   -1    0    0  501    0  0.00000000000E+00  0.00000000000E+00  0.11162365806E+04  0.11162365806E+04  0.50400001928E-02 0.  1.
       -1   -1    0    0    0  501  0.00000000000E+00  0.00000000000E+00 -0.34161389558E+03  0.34161389562E+03  0.50400001928E-02 0. -1.
    10030    2    1    2    0    0  0.00000000000E+00  0.00000000000E+00  0.77462268505E+03  0.14578504763E+04  0.12350253872E+04 0.  0.
        5    1    3    3  502    0 -0.12156269553E+03 -0.27793844316E+02 -0.32657516913E+03  0.34960465932E+03  0.46999998093E+01 0. -1.
       -5    1    3    3    0  502  0.12156269553E+03  0.27793844316E+02  0.11011978542E+04  0.11082458169E+04  0.46999998093E+01 0.  1.
</event>
<event>
 5   0  0.1873488E-03  0.1300511E+04  0.7818609E-02  0.9029160E-01
       -1   -1    0    0    0  501  0.00000000000E+00  0.00000000000E+00  0.13051702232E+04  0.13051702232E+04  0.50400001928E-02 0. -1.
        1   -1    0    0  501    0  0.00000000000E+00  0.00000000000E+00 -0.32396733048E+03  0.32396733052E+03  0.50400001928E-02 0.  1.
    10030    2    1    2    0    0  0.00000000000E+00  0.00000000000E+00  0.98120289268E+03  0.16291375537E+04  0.13005114579E+04 0.  0.
        3    1    3    3  502    0  0.10402172146E+03  0.19467629014E+03  0.12568065584E+04  0.12760415792E+04  0.10100000352E+00 0. -1.
       -3    1    3    3    0  502 -0.10402172146E+03 -0.19467629014E+03 -0.27560366567E+03  0.35309597451E+03  0.10100000352E+00 0.  1.
</event>
<event>
 5   0  0.3262927E-03  0.1198915E+04  0.7818609E-02  0.9113807E-01
       -2   -1    0    0    0  501  0.00000000000E+00  0.00000000000E+00  0.64050981880E+03  0.64050981880E+03  0.25500000920E-02 0.  1.
        2   -1    0    0  501    0  0.00000000000E+00  0.00000000000E+00 -0.56103602725E+03  0.56103602725E+03  0.25500000920E-02 0. -1.
    10030    2    1    2    0    0  0.00000000000E+00  0.00000000000E+00  0.79473791548E+02  0.12015458461E+04  0.11989146494E+04 0.  0.
        3    1    3    3  502    0 -0.53598464186E+03  0.11638825481E+03  0.28218373509E+03  0.61680907315E+03  0.10100000352E+00 0.  1.
       -3    1    3    3    0  502  0.53598464186E+03 -0.11638825481E+03 -0.20270994355E+03  0.58473677290E+03  0.10100000352E+00 0. -1.
</event>
<event>
 5   0  0.3262927E-03  0.1294421E+04  0.7818609E-02  0.9034001E-01
       -2   -1    0    0    0  501  0.00000000000E+00  0.00000000000E+00  0.80755503061E+03  0.80755503062E+03  0.25500000920E-02 0.  1.
        2   -1    0    0  501    0  0.00000000000E+00  0.00000000000E+00 -0.51870333673E+03  0.51870333673E+03  0.25500000920E-02 0. -1.
    10030    2    1    2    0    0  0.00000000000E+00  0.00000000000E+00  0.28885169389E+03  0.13262583674E+04  0.12944210891E+04 0.  0.
        3    1    3    3  502    0  0.11424757020E+02 -0.53144750332E+03  0.52271474177E+03  0.74551840039E+03  0.10100000352E+00 0.  1.
       -3    1    3    3    0  502 -0.11424757020E+02  0.53144750332E+03 -0.23386304788E+03  0.58073996696E+03  0.10100000352E+00 0. -1.
</event>
<event>
 5   0  0.1857986E-03  0.1246852E+04  0.7818609E-02  0.9072807E-01
       -1   -1    0    0    0  501  0.00000000000E+00  0.00000000000E+00  0.45342106828E+03  0.45342106831E+03  0.50400001928E-02 0. -1.
        1   -1    0    0  501    0  0.00000000000E+00  0.00000000000E+00 -0.85717266643E+03  0.85717266644E+03  0.50400001928E-02 0.  1.
    10030    2    1    2    0    0  0.00000000000E+00  0.00000000000E+00 -0.40375159814E+03  0.13105937347E+04  0.12468522705E+04 0.  0.
        1    1    3    3  502    0  0.41367795413E+03  0.84088811756E+02 -0.68408737388E+03  0.80385067838E+03  0.50400001928E-02 0.  1.
       -1    1    3    3    0  502 -0.41367795413E+03 -0.84088811756E+02  0.28033577574E+03  0.50674305637E+03  0.50400001928E-02 0. -1.
</event>
<event>
 5   0  0.3336609E-03  0.1294165E+04  0.7818609E-02  0.9034205E-01
       -2   -1    0    0    0  501  0.00000000000E+00  0.00000000000E+00  0.50512893322E+03  0.50512893323E+03  0.25500000920E-02 0. -1.
        2   -1    0    0  501    0  0.00000000000E+00  0.00000000000E+00 -0.82892811202E+03  0.82892811202E+03  0.25500000920E-02 0.  1.
    10030    2    1    2    0    0  0.00000000000E+00  0.00000000000E+00 -0.32379917880E+03  0.13340570452E+04  0.12941647081E+04 0.  0.
        1    1    3    3  502    0  0.57910048876E+03  0.28592567051E+03 -0.12060598178E+03  0.65700583560E+03  0.50400001928E-02 0. -1.
       -1    1    3    3    0  502 -0.57910048876E+03 -0.28592567051E+03 -0.20319319702E+03  0.67705120965E+03  0.50400001928E-02 0.  1.
</event>
<event>
 5   0  0.1823154E-03  0.1294635E+04  0.7818609E-02  0.9033831E-01
       -1   -1    0    0    0  501  0.00000000000E+00  0.00000000000E+00  0.35097387265E+03  0.35097387269E+03  0.50400001928E-02 0. -1.
        1   -1    0    0  501    0  0.00000000000E+00  0.00000000000E+00 -0.11938771098E+04  0.11938771098E+04  0.50400001928E-02 0.  1.
    10030    2    1    2    0    0  0.00000000000E+00  0.00000000000E+00 -0.84290323718E+03  0.15448509825E+04  0.12946345782E+04 0.  0.
        2    1    3    3  502    0  0.43252516862E+03  0.13727428359E+03  0.12939221143E+03  0.47187349450E+03  0.25500000920E-02 0. -1.
       -2    1    3    3    0  502 -0.43252516862E+03 -0.13727428359E+03 -0.97229544861E+03  0.10729774880E+04  0.25500000920E-02 0.  1.
</event>
<event>
 5   0  0.1857986E-03  0.1284081E+04  0.7818609E-02  0.9042285E-01
        1   -1    0    0  501    0  0.00000000000E+00  0.00000000000E+00  0.67289346109E+03  0.67289346110E+03  0.50400001928E-02 0.  1.
       -1   -1    0    0    0  501  0.00000000000E+00  0.00000000000E+00 -0.61260257816E+03  0.61260257818E+03  0.50400001928E-02 0. -1.
    10030    2    1    2    0    0  0.00000000000E+00  0.00000000000E+00  0.60290882922E+02  0.12854960393E+04  0.12840814135E+04 0.  0.
        1    1    3    3  502    0  0.58352447656E+03  0.19016983145E+03 -0.15861171188E+03  0.63389514489E+03  0.50400001928E-02 0. -1.
       -1    1    3    3    0  502 -0.58352447656E+03 -0.19016983145E+03  0.21890259481E+03  0.65160089440E+03  0.50400001928E-02 0.  1.
</event>
<event>
 5   0  0.1254125E-03  0.1290323E+04  0.7818609E-02  0.9037274E-01
       -4   -1    0    0    0  501  0.00000000000E+00  0.00000000000E+00  0.88004613583E+03  0.88004705221E+03  0.12699999809E+01 0. -1.
        4   -1    0    0  501    0  0.00000000000E+00  0.00000000000E+00 -0.47296570328E+03  0.47296740837E+03  0.12699999809E+01 0.  1.
    10030    2    1    2    0    0  0.00000000000E+00  0.00000000000E+00  0.40708043256E+03  0.13530144606E+04  0.12903230805E+04 0.  0.
        4    1    3    3  502    0 -0.23095875430E+03  0.47343737909E+03  0.59412526952E+03  0.79402225844E+03  0.12699999809E+01 0. -1.
       -4    1    3    3    0  502  0.23095875430E+03 -0.47343737909E+03 -0.18704483697E+03  0.55899220213E+03  0.12699999809E+01 0.  1.
</event>
<event>
 5   0  0.3336609E-03  0.1269246E+04  0.7818609E-02  0.9054315E-01
       -2   -1    0    0    0  501  0.00000000000E+00  0.00000000000E+00  0.65134732634E+03  0.65134732635E+03  0.25500000920E-02 0.  1.
        2   -1    0    0  501    0  0.00000000000E+00  0.00000000000E+00 -0.61832821209E+03  0.61832821210E+03  0.25500000920E-02 0. -1.
    10030    2    1    2    0    0  0.00000000000E+00  0.00000000000E+00  0.33019114249E+02  0.12696755384E+04  0.12692461192E+04 0.  0.
        1    1    3    3  502    0 -0.23985250703E+03  0.54425619593E+03  0.23794929835E+03  0.64059651931E+03  0.50400001928E-02 0.  1.
       -1    1    3    3    0  502  0.23985250703E+03 -0.54425619593E+03 -0.20493018410E+03  0.62907901914E+03  0.50400001928E-02 0. -1.
</event>
<event>
 5   0  0.1823154E-03  0.1265397E+04  0.7818609E-02  0.9057465E-01
        1   -1    0    0  501    0  0.00000000000E+00  0.00000000000E+00  0.51246971326E+03  0.51246971328E+03  0.50400001928E-02 0.  1.
       -1   -1    0    0    0  501  0.00000000000E+00  0.00000000000E+00 -0.78113381535E+03  0.78113381537E+03  0.50400001928E-02 0. -1.
    10030    2    1    2    0    0  0.00000000000E+00  0.00000000000E+00 -0.26866410209E+03  0.12936035286E+04  0.12653970482E+04 0.  0.
        2    1    3    3  502    0  0.21477511609E+03  0.58203156868E+03 -0.26127043697E+03  0.67316516449E+03  0.25500000920E-02 0.  1.
       -2    1    3    3    0  502 -0.21477511609E+03 -0.58203156868E+03 -0.73936651180E+01  0.62043836416E+03  0.25500000920E-02 0. -1.
</event>
<event>
 5   0  0.1823154E-03  0.1288800E+04  0.7818609E-02  0.9038494E-01
        1   -1    0    0  501    0  0.00000000000E+00  0.00000000000E+00  0.48975509312E+03  0.48975509314E+03  0.50400001928E-02 0. -1.
       -1   -1    0    0    0  501  0.00000000000E+00  0.00000000000E+00 -0.84787559338E+03  0.84787559339E+03  0.50400001928E-02 0.  1.
    10030    2    1    2    0    0  0.00000000000E+00  0.00000000000E+00 -0.35812050026E+03  0.13376306865E+04  0.12888000469E+04 0.  0.
        2    1    3    3  502    0  0.22726880483E+03 -0.14220470289E+03 -0.78724703420E+03  0.83164366169E+03  0.25500000920E-02 0.  1.
       -2    1    3    3    0  502 -0.22726880483E+03  0.14220470289E+03  0.42912653394E+03  0.50598702484E+03  0.25500000920E-02 0. -1.
</event>
<event>
 5   0  0.3299104E-03  0.1323107E+04  0.7818609E-02  0.9011439E-01
       -2   -1    0    0    0  501  0.00000000000E+00  0.00000000000E+00  0.42004036391E+03  0.42004036392E+03  0.25500000920E-02 0.  1.
        2   -1    0    0  501    0  0.00000000000E+00  0.00000000000E+00 -0.10419312999E+04  0.10419312999E+04  0.25500000920E-02 0. -1.
    10030    2    1    2    0    0  0.00000000000E+00  0.00000000000E+00 -0.62189093597E+03  0.14619716638E+04  0.13231072555E+04 0.  0.
        2    1    3    3  502    0  0.62875197689E+03 -0.68343226674E+02 -0.96535112496E+02  0.63978033185E+03  0.25500000920E-02 0. -1.
       -2    1    3    3    0  502 -0.62875197689E+03  0.68343226674E+02 -0.52535582348E+03  0.82219133195E+03  0.25500000920E-02 0.  1.
</event>
<event>
 5   0  0.1254125E-03  0.1351765E+04  0.7818609E-02  0.8989493E-01
       -3   -1    0    0    0  501  0.00000000000E+00  0.00000000000E+00  0.56343166694E+03  0.56343167599E+03  0.10100000352E+00 0. -1.
        3   -1    0    0  501    0  0.00000000000E+00  0.00000000000E+00 -0.81077650201E+03  0.81077650831E+03  0.10100000352E+00 0.  1.
    10030    2    1    2    0    0  0.00000000000E+00  0.00000000000E+00 -0.24734483508E+03  0.13742081843E+04  0.13517650189E+04 0.  0.
        3    1    3    3  502    0 -0.34622812117E+03  0.57839493941E+03 -0.17350191541E+03  0.69607294350E+03  0.10100000352E+00 0.  1.
       -3    1    3    3    0  502  0.34622812117E+03 -0.57839493941E+03 -0.73842919669E+02  0.67813524080E+03  0.10100000352E+00 0. -1.
</event>
<event>
 5   0  0.1873488E-03  0.1320054E+04  0.7818609E-02  0.9013811E-01
        1   -1    0    0  501    0  0.00000000000E+00  0.00000000000E+00  0.98261919164E+03  0.98261919165E+03  0.50400001928E-02 0. -1.
       -1   -1    0    0    0  501  0.00000000000E+00  0.00000000000E+00 -0.44334155175E+03  0.44334155178E+03  0.50400001928E-02 0.  1.
    10030    2    1    2    0    0  0.00000000000E+00  0.00000000000E+00  0.53927763989E+03  0.14259607434E+04  0.13200544189E+04 0.  0.
        3    1    3    3  502    0 -0.59613740238E+03 -0.22264443163E+03  0.45886567534E+03  0.78454321975E+03  0.10100000352E+00 0. -1.
       -3    1    3    3    0  502  0.59613740238E+03  0.22264443163E+03  0.80411964552E+02  0.64141752369E+03  0.10100000352E+00 0.  1.
</event>
<event>
 5   0  0.3294720E-03  0.1280023E+04  0.7818609E-02  0.9045559E-01
       -2   -1    0    0    0  501  0.00000000000E+00  0.00000000000E+00  0.31625770613E+03  0.31625770614E+03  0.25500000920E-02 0.  1.
        2   -1    0    0  501    0  0.00000000000E+00  0.00000000000E+00 -0.12951919498E+04  0.12951919498E+04  0.25500000920E-02 0. -1.
    10030    2    1    2    0    0  0.00000000000E+00  0.00000000000E+00 -0.97893424368E+03  0.16114496559E+04  0.12800225546E+04 0.  0.
        5    1    3    3  502    0  0.38266457335E+03 -0.51183101687E+03 -0.44605381874E+03  0.77935182347E+03  0.46999998093E+01 0.  1.
       -5    1    3    3    0  502 -0.38266457335E+03  0.51183101687E+03 -0.53288042494E+03  0.83209783248E+03  0.46999998093E+01 0. -1.
</event>
<event>
 5   0  0.1873488E-03  0.1376987E+04  0.7818609E-02  0.8970647E-01
       -1   -1    0    0    0  501  0.00000000000E+00  0.00000000000E+00  0.78099238014E+03  0.78099238016E+03  0.50400001928E-02 0.  1.
        1   -1    0    0  501    0  0.00000000000E+00  0.00000000000E+00 -0.60694961212E+03  0.60694961214E+03  0.50400001928E-02 0. -1.
    10030    2    1    2    0    0  0.00000000000E+00  0.00000000000E+00  0.17404276802E+03  0.13879419923E+04  0.13769865972E+04 0.  0.
        3    1    3    3  502    0 -0.27937908083E+03 -0.62662618852E+03  0.29031392400E+02  0.68669926670E+03  0.10100000352E+00 0.  1.
       -3    1    3    3    0  502  0.27937908083E+03  0.62662618852E+03  0.14501137562E+03  0.70124272560E+03  0.10100000352E+00 0. -1.
</event>
<event>
 5   0  0.3299104E-03  0.1307846E+04  0.7818609E-02  0.9023366E-01
       -2   -1    0    0    0  501  0.00000000000E+00  0.00000000000E+00  0.38788602476E+03  0.38788602477E+03  0.25500000920E-02 0. -1.
        2   -1    0    0  501    0  0.00000000000E+00  0.00000000000E+00 -0.11024246491E+04  0.11024246491E+04  0.25500000920E-02 0.  1.
    10030    2    1    2    0    0  0.00000000000E+00  0.00000000000E+00 -0.71453862431E+03  0.14903106738E+04  0.13078457321E+04 0.  0.
        2    1    3    3  502    0 -0.48900377509E+03 -0.40731184295E+03 -0.52852863938E+03  0.82726667533E+03  0.25500000920E-02 0.  1.
       -2    1    3    3    0  502  0.48900377509E+03  0.40731184295E+03 -0.18600998493E+03  0.66304399851E+03  0.25500000920E-02 0. -1.
</event>
<event>
 5   0  0.3299104E-03  0.1295713E+04  0.7818609E-02  0.9032972E-01
       -2   -1    0    0    0  501  0.00000000000E+00  0.00000000000E+00  0.18892452291E+03  0.18892452293E+03  0.25500000920E-02 0. -1.
        2   -1    0    0  501    0  0.00000000000E+00  0.00000000000E+00 -0.22216174551E+04  0.22216174551E+04  0.25500000920E-02 0.  1.
    10030    2    1    2    0    0  0.00000000000E+00  0.00000000000E+00 -0.20326929322E+04  0.24105419780E+04  0.12957129587E+04 0.  0.
        2    1    3    3  502    0  0.14877589882E+02  0.19568723792E+03 -0.21649870429E+04  0.21738637799E+04  0.25500000920E-02 0.  1.
       -2    1    3    3    0  502 -0.14877589882E+02 -0.19568723792E+03  0.13229411065E+03  0.23667819816E+03  0.25500000920E-02 0. -1.
</event>
<event>
 5   0  0.1857986E-03  0.1268109E+04  0.7818609E-02  0.9055245E-01
       -1   -1    0    0    0  501  0.00000000000E+00  0.00000000000E+00  0.39222529513E+03  0.39222529517E+03  0.50400001928E-02 0.  1.
        1   -1    0    0  501    0  0.00000000000E+00  0.00000000000E+00 -0.10249843813E+04  0.10249843813E+04  0.50400001928E-02 0. -1.
    10030    2    1    2    0    0  0.00000000000E+00  0.00000000000E+00 -0.63275908620E+03  0.14172096765E+04  0.12681085151E+04 0.  0.
        1    1    3    3  502    0 -0.46375303325E+03  0.42149745198E+03 -0.20861687353E+03  0.66049070987E+03  0.50400001928E-02 0. -1.
       -1    1    3    3    0  502  0.46375303325E+03 -0.42149745198E+03 -0.42414221267E+03  0.75671896664E+03  0.50400001928E-02 0.  1.
</event>
<event>
 5   0  0.3262927E-03  0.1327283E+04  0.7818609E-02  0.9008205E-01
        2   -1    0    0  501    0  0.00000000000E+00  0.00000000000E+00  0.82195996079E+03  0.82195996079E+03  0.25500000920E-02 0.  1.
       -2   -1    0    0    0  501  0.00000000000E+00  0.00000000000E+00 -0.53581677390E+03  0.53581677390E+03  0.25500000920E-02 0. -1.
    10030    2    1    2    0    0  0.00000000000E+00  0.00000000000E+00  0.28614318689E+03  0.13577767347E+04  0.13272828402E+04 0.  0.
        3    1    3    3  502    0  0.31932414860E+03  0.57523681097E+03  0.54157357409E+02  0.66015023301E+03  0.10100000352E+00 0.  1.
       -3    1    3    3    0  502 -0.31932414860E+03 -0.57523681097E+03  0.23198582948E+03  0.69762650169E+03  0.10100000352E+00 0. -1.
</event>
<event>
 5   0  0.3299104E-03  0.1308423E+04  0.7818609E-02  0.9022912E-01
       -2   -1    0    0    0  501  0.00000000000E+00  0.00000000000E+00  0.23737606717E+03  0.23737606718E+03  0.25500000920E-02 0.  1.
        2   -1    0    0  501    0  0.00000000000E+00  0.00000000000E+00 -0.18030154909E+04  0.18030154909E+04  0.25500000920E-02 0. -1.
    10030    2    1    2    0    0  0.00000000000E+00  0.00000000000E+00 -0.15656394237E+04  0.20403915581E+04  0.13084230605E+04 0.  0.
        2    1    3    3  502    0  0.17127562459E+03  0.50576225695E+03 -0.13722379621E+04  0.14724699741E+04  0.25500000920E-02 0. -1.
       -2    1    3    3    0  502 -0.17127562459E+03 -0.50576225695E+03 -0.19340146162E+03  0.56792158393E+03  0.25500000920E-02 0.  1.
</event>
<event>
 5   0  0.1873488E-03  0.1292937E+04  0.7818609E-02  0.9035185E-01
       -1   -1    0    0    0  501  0.00000000000E+00  0.00000000000E+00  0.39170571037E+03  0.39170571041E+03  0.50400001928E-02 0.  1.
        1   -1    0    0  501    0  0.00000000000E+00  0.00000000000E+00 -0.10669275017E+04  0.10669275017E+04  0.50400001928E-02 0. -1.
    10030    2    1    2    0    0  0.00000000000E+00  0.00000000000E+00 -0.67522179133E+03  0.14586332121E+04  0.12929371137E+04 0.  0.
        3    1    3    3  502    0 -0.31736858674E+03 -0.16650191491E+03 -0.94459160004E+03  0.10102964954E+04  0.10100000352E+00 0. -1.
       -3    1    3    3    0  502  0.31736858674E+03  0.16650191491E+03  0.26936980872E+03  0.44833671673E+03  0.10100000352E+00 0.  1.
</event>
<event>
 5   0  0.1873488E-03  0.1307228E+04  0.7818609E-02  0.9023853E-01
        1   -1    0    0  501    0  0.00000000000E+00  0.00000000000E+00  0.35199323932E+03  0.35199323936E+03  0.50400001928E-02 0. -1.
       -1   -1    0    0    0  501  0.00000000000E+00  0.00000000000E+00 -0.12136907693E+04  0.12136907693E+04  0.50400001928E-02 0.  1.
    10030    2    1    2    0    0  0.00000000000E+00  0.00000000000E+00 -0.86169753001E+03  0.15656840087E+04  0.13072275173E+04 0.  0.
        3    1    3    3  502    0 -0.36333488445E+03  0.50015589527E+02  0.21713208689E+03  0.42621608464E+03  0.10100000352E+00 0. -1.
       -3    1    3    3    0  502  0.36333488445E+03 -0.50015589527E+02 -0.10788296169E+04  0.11394679241E+04  0.10100000352E+00 0.  1.
</event>
<event>
 5   0  0.1803959E-03  0.1297069E+04  0.7818609E-02  0.9031893E-01
        1   -1    0    0  501    0  0.00000000000E+00  0.00000000000E+00  0.59264949283E+03  0.59264949285E+03  0.50400001928E-02 0.  1.
       -1   -1    0    0    0  501  0.00000000000E+00  0.00000000000E+00 -0.70968906985E+03  0.70968906987E+03  0.50400001928E-02 0. -1.
    10030    2    1    2    0    0  0.00000000000E+00  0.00000000000E+00 -0.11703957702E+03  0.13023385627E+04  0.12970687990E+04 0.  0.
        4    1    3    3  502    0  0.30162973380E+03 -0.47756156489E+03  0.26144355865E+03  0.62241456589E+03  0.12699999809E+01 0.  1.
       -4    1    3    3    0  502 -0.30162973380E+03  0.47756156489E+03 -0.37848313567E+03  0.67992399683E+03  0.12699999809E+01 0. -1.
</event>
<event>
 5   0  0.3262927E-03  0.1284112E+04  0.7818609E-02  0.9042260E-01
        2   -1    0    0  501    0  0.00000000000E+00  0.00000000000E+00  0.48681420104E+03  0.48681420105E+03  0.25500000920E-02 0. -1.
       -2   -1    0    0    0  501  0.00000000000E+00  0.00000000000E+00 -0.84680315782E+03  0.84680315783E+03  0.25500000920E-02 0.  1.
    10030    2    1    2    0    0  0.00000000000E+00  0.00000000000E+00 -0.35998895678E+03  0.13336173589E+04  0.12841118374E+04 0.  0.
        3    1    3    3  502    0 -0.18089273192E+03  0.29305941225E+03 -0.74276125394E+03  0.81871868803E+03  0.10100000352E+00 0.  1.
       -3    1    3    3    0  502  0.18089273192E+03 -0.29305941225E+03  0.38277229716E+03  0.51489867085E+03  0.10100000352E+00 0. -1.
</event>
<event>
 5   0  0.3299104E-03  0.1293158E+04  0.7818609E-02  0.9035009E-01
       -2   -1    0    0    0  501  0.00000000000E+00  0.00000000000E+00  0.48168697139E+03  0.48168697140E+03  0.25500000920E-02 0. -1.
        2   -1    0    0  501    0  0.00000000000E+00  0.00000000000E+00 -0.86791674517E+03  0.86791674517E+03  0.25500000920E-02 0.  1.
    10030    2    1    2    0    0  0.00000000000E+00  0.00000000000E+00 -0.38622977378E+03  0.13496037166E+04  0.12931576677E+04 0.  0.
        2    1    3    3  502    0 -0.27395553196E+03 -0.33770498680E+03 -0.69250746508E+03  0.81771809372E+03  0.25500000920E-02 0.  1.
       -2    1    3    3    0  502  0.27395553196E+03  0.33770498680E+03  0.30627769130E+03  0.53188562285E+03  0.25500000920E-02 0. -1.
</event>
<event>
 5   0  0.3259968E-03  0.1318199E+04  0.7818609E-02  0.9015257E-01
        2   -1    0    0  501    0  0.00000000000E+00  0.00000000000E+00  0.97623155062E+03  0.97623155062E+03  0.25500000920E-02 0.  1.
       -2   -1    0    0    0  501  0.00000000000E+00  0.00000000000E+00 -0.44498875273E+03  0.44498875273E+03  0.25500000920E-02 0. -1.
    10030    2    1    2    0    0  0.00000000000E+00  0.00000000000E+00  0.53124279789E+03  0.14212203034E+04  0.13181988622E+04 0.  0.
        4    1    3    3  502    0 -0.50819575071E+03  0.24403697631E+03 -0.10252249685E+03  0.57300038578E+03  0.12699999809E+01 0.  1.
       -4    1    3    3    0  502  0.50819575071E+03 -0.24403697631E+03  0.63376529474E+03  0.84821991757E+03  0.12699999809E+01 0. -1.
</event>
<event>
 5   0  0.1823154E-03  0.1288636E+04  0.7818609E-02  0.9038625E-01
        1   -1    0    0  501    0  0.00000000000E+00  0.00000000000E+00  0.95000219066E+03  0.95000219068E+03  0.50400001928E-02 0.  1.
       -1   -1    0    0    0  501  0.00000000000E+00  0.00000000000E+00 -0.43699478585E+03  0.43699478588E+03  0.50400001928E-02 0. -1.
    10030    2    1    2    0    0  0.00000000000E+00  0.00000000000E+00  0.51300740481E+03  0.13869969766E+04  0.12886364947E+04 0.  0.
        2    1    3    3  502    0  0.18117849081E+03  0.41961819405E+03 -0.23229778247E+03  0.51270589431E+03  0.25500000920E-02 0. -1.
       -2    1    3    3    0  502 -0.18117849081E+03 -0.41961819405E+03  0.74530518729E+03  0.87429108225E+03  0.25500000920E-02 0.  1.
</event>
<event>
 5   0  0.1254125E-03  0.1284748E+04  0.7818609E-02  0.9041748E-01
        3   -1    0    0  501    0  0.00000000000E+00  0.00000000000E+00  0.32268858958E+03  0.32268860538E+03  0.10100000352E+00 0.  1.
       -3   -1    0    0    0  501  0.00000000000E+00  0.00000000000E+00 -0.12787704809E+04  0.12787704848E+04  0.10100000352E+00 0. -1.
    10030    2    1    2    0    0  0.00000000000E+00  0.00000000000E+00 -0.95608189128E+03  0.16014590902E+04  0.12847484714E+04 0.  0.
        4    1    3    3  502    0  0.11712286524E+03  0.26260361430E+02  0.30858419051E+03  0.33110902687E+03  0.12699999809E+01 0.  1.
       -4    1    3    3    0  502 -0.11712286524E+03 -0.26260361430E+02 -0.12646660818E+04  0.12703500634E+04  0.12699999809E+01 0. -1.
</event>
<event>
 5   0  0.3336609E-03  0.1026146E+04  0.7818609E-02  0.9280324E-01
        2   -1    0    0  501    0  0.00000000000E+00  0.00000000000E+00  0.63326873923E+03  0.63326873924E+03  0.25500000920E-02 0.  1.
       -2   -1    0    0    0  501  0.00000000000E+00  0.00000000000E+00 -0.41569093455E+03  0.41569093456E+03  0.25500000920E-02 0. -1.
    10030    2    1    2    0    0  0.00000000000E+00  0.00000000000E+00  0.21757780469E+03  0.10489596738E+04  0.10261463327E+04 0.  0.
        1    1    3    3  502    0 -0.38133584877E+03 -0.28511459578E+03  0.30418425247E+03  0.56500922272E+03  0.50400001928E-02 0.  1.
       -1    1    3    3    0  502  0.38133584877E+03  0.28511459578E+03 -0.86606447783E+02  0.48395045108E+03  0.50400001928E-02 0. -1.
</event>
<event>
 5   0  0.3299104E-03  0.1454452E+04  0.7818609E-02  0.8915320E-01
        2   -1    0    0  501    0  0.00000000000E+00  0.00000000000E+00  0.17182486767E+04  0.17182486767E+04  0.25500000920E-02 0. -1.
       -2   -1    0    0    0  501  0.00000000000E+00  0.00000000000E+00 -0.30778862697E+03  0.30778862698E+03  0.25500000920E-02 0.  1.
    10030    2    1    2    0    0  0.00000000000E+00  0.00000000000E+00  0.14104600497E+04  0.20260373037E+04  0.14544516507E+04 0.  0.
        2    1    3    3  502    0  0.32016258571E+02 -0.24321303458E+03 -0.24841392361E+03  0.34912332843E+03  0.25500000920E-02 0.  1.
       -2    1    3    3    0  502 -0.32016258571E+02  0.24321303458E+03  0.16588739734E+04  0.16769139753E+04  0.25500000920E-02 0. -1.
</event>
<event>
 5   0  0.1857986E-03  0.9652242E+03  0.7818609E-02  0.9347531E-01
        1   -1    0    0  501    0  0.00000000000E+00  0.00000000000E+00  0.40712262436E+03  0.40712262439E+03  0.50400001928E-02 0. -1.
       -1   -1    0    0    0  501  0.00000000000E+00  0.00000000000E+00 -0.57209898796E+03  0.57209898798E+03  0.50400001928E-02 0.  1.
    10030    2    1    2    0    0  0.00000000000E+00  0.00000000000E+00 -0.16497636360E+03  0.97922161237E+03  0.96522420483E+03 0.  0.
        1    1    3    3  502    0 -0.27110716942E+03 -0.21604963699E+02  0.32197695954E+03  0.42146771439E+03  0.50400001928E-02 0. -1.
       -1    1    3    3    0  502  0.27110716942E+03  0.21604963699E+02 -0.48695332315E+03  0.55775389798E+03  0.50400001928E-02 0.  1.
</event>
<event>
 5   0  0.1873488E-03  0.1313961E+04  0.7818609E-02  0.9018567E-01
       -1   -1    0    0    0  501  0.00000000000E+00  0.00000000000E+00  0.30571801169E+03  0.30571801173E+03  0.50400001928E-02 0.  1.
        1   -1    0    0  501    0  0.00000000000E+00  0.00000000000E+00 -0.14118351196E+04  0.14118351196E+04  0.50400001928E-02 0. -1.
    10030    2    1    2    0    0  0.00000000000E+00  0.00000000000E+00 -0.11061171079E+04  0.17175531313E+04  0.13139610734E+04 0.  0.
        3    1    3    3  502    0  0.37878889616E+03  0.53678061606E+03 -0.55697082089E+03  0.86129609493E+03  0.10100000352E+00 0. -1.
       -3    1    3    3    0  502 -0.37878889616E+03 -0.53678061606E+03 -0.54914628702E+03  0.85625703639E+03  0.10100000352E+00 0.  1.
</event>
<event>
 5   0  0.1803959E-03  0.1263897E+04  0.7818609E-02  0.9058696E-01
        1   -1    0    0  501    0  0.00000000000E+00  0.00000000000E+00  0.83520741767E+03  0.83520741769E+03  0.50400001928E-02 0. -1.
       -1   -1    0    0    0  501  0.00000000000E+00  0.00000000000E+00 -0.47815521051E+03  0.47815521054E+03  0.50400001928E-02 0.  1.
    10030    2    1    2    0    0  0.00000000000E+00  0.00000000000E+00  0.35705220716E+03  0.13133626282E+04  0.12638967974E+04 0.  0.
        4    1    3    3  502    0 -0.58153111535E+03  0.28231907317E+02  0.43387010646E+03  0.72609941529E+03  0.12699999809E+01 0. -1.
       -4    1    3    3    0  502  0.58153111535E+03 -0.28231907317E+02 -0.76817899297E+02  0.58726321293E+03  0.12699999809E+01 0.  1.
</event>
<event>
 5   0  0.1254125E-03  0.1322066E+04  0.7818609E-02  0.9012248E-01
        3   -1    0    0  501    0  0.00000000000E+00  0.00000000000E+00  0.43716543811E+03  0.43716544977E+03  0.10100000352E+00 0.  1.
       -3   -1    0    0    0  501  0.00000000000E+00  0.00000000000E+00 -0.99953998389E+03  0.99953998899E+03  0.10100000352E+00 0. -1.
    10030    2    1    2    0    0  0.00000000000E+00  0.00000000000E+00 -0.56237454578E+03  0.14367054388E+04  0.13220655763E+04 0.  0.
        3    1    3    3  502    0 -0.40257888996E+03  0.37341221495E+03 -0.68114758146E+03  0.87491055705E+03  0.10100000352E+00 0. -1.
       -3    1    3    3    0  502  0.40257888996E+03 -0.37341221495E+03  0.11877303567E+03  0.56179488172E+03  0.10100000352E+00 0.  1.
</event>
<event>
 5   0  0.1857986E-03  0.1324483E+04  0.7818609E-02  0.9010372E-01
        1   -1    0    0  501    0  0.00000000000E+00  0.00000000000E+00  0.68959480966E+03  0.68959480968E+03  0.50400001928E-02 0.  1.
       -1   -1    0    0    0  501  0.00000000000E+00  0.00000000000E+00 -0.63597345569E+03  0.63597345571E+03  0.50400001928E-02 0. -1.
    10030    2    1    2    0    0  0.00000000000E+00  0.00000000000E+00  0.53621353971E+02  0.13255682654E+04  0.13244832866E+04 0.  0.
        1    1    3    3  502    0  0.24288831077E+03  0.37257402231E+03 -0.46426209353E+03  0.64291945462E+03  0.50400001928E-02 0. -1.
       -1    1    3    3    0  502 -0.24288831077E+03 -0.37257402231E+03  0.51788344750E+03  0.68264881076E+03  0.50400001928E-02 0.  1.
</event>
<event>
 5   0  0.3262927E-03  0.8086958E+03  0.7818609E-02  0.9547515E-01
       -2   -1    0    0    0  501  0.00000000000E+00  0.00000000000E+00  0.32990809472E+03  0.32990809473E+03  0.25500000920E-02 0.  1.
        2   -1    0    0  501    0  0.00000000000E+00  0.00000000000E+00 -0.49558413000E+03  0.49558413000E+03  0.25500000920E-02 0. -1.
    10030    2    1    2    0    0  0.00000000000E+00  0.00000000000E+00 -0.16567603528E+03  0.82549222473E+03  0.80869577990E+03 0.  0.
        3    1    3    3  502    0 -0.32454779443E+03  0.93467337089E+01 -0.32883839939E+03  0.46211831322E+03  0.10100000352E+00 0. -1.
       -3    1    3    3    0  502  0.32454779443E+03 -0.93467337089E+01  0.16316236411E+03  0.36337391151E+03  0.10100000352E+00 0.  1.
</event>
<event>
 5   0  0.1823154E-03  0.1268240E+04  0.7818609E-02  0.9055137E-01
       -1   -1    0    0    0  501  0.00000000000E+00  0.00000000000E+00  0.78720382838E+03  0.78720382840E+03  0.50400001928E-02 0.  1.
        1   -1    0    0  501    0  0.00000000000E+00  0.00000000000E+00 -0.51080581024E+03  0.51080581027E+03  0.50400001928E-02 0. -1.
    10030    2    1    2    0    0  0.00000000000E+00  0.00000000000E+00  0.27639801814E+03  0.12980096387E+04  0.12682401814E+04 0.  0.
        2    1    3    3  502    0 -0.11331296116E+03  0.61970520112E+03  0.64154953920E+02  0.63323788703E+03  0.25500000920E-02 0.  1.
       -2    1    3    3    0  502  0.11331296116E+03 -0.61970520112E+03  0.21224306422E+03  0.66477175164E+03  0.25500000920E-02 0. -1.
</event>
<event>
 5   0  0.3336609E-03  0.1283875E+04  0.7818609E-02  0.9042451E-01
       -2   -1    0    0    0  501  0.00000000000E+00  0.00000000000E+00  0.41791267515E+03  0.41791267516E+03  0.25500000920E-02 0. -1.
        2   -1    0    0  501    0  0.00000000000E+00  0.00000000000E+00 -0.98605243221E+03  0.98605243221E+03  0.25500000920E-02 0.  1.
    10030    2    1    2    0    0  0.00000000000E+00  0.00000000000E+00 -0.56813975706E+03  0.14039651074E+04  0.12838750871E+04 0.  0.
        1    1    3    3  502    0  0.86752344664E+02  0.15772566863E+03 -0.95788796310E+03  0.97465517272E+03  0.50400001928E-02 0.  1.
       -1    1    3    3    0  502 -0.86752344664E+02 -0.15772566863E+03  0.38974820604E+03  0.42930993464E+03  0.50400001928E-02 0. -1.
</event>
<event>
 5   0  0.1823154E-03  0.1216447E+04  0.7818609E-02  0.9098581E-01
        1   -1    0    0  501    0  0.00000000000E+00  0.00000000000E+00  0.36426676876E+03  0.36426676880E+03  0.50400001928E-02 0.  1.
       -1   -1    0    0    0  501  0.00000000000E+00  0.00000000000E+00 -0.10155627175E+04  0.10155627175E+04  0.50400001928E-02 0. -1.
    10030    2    1    2    0    0  0.00000000000E+00  0.00000000000E+00 -0.65129594871E+03  0.13798294863E+04  0.12164468745E+04 0.  0.
        2    1    3    3  502    0  0.22402312156E+03  0.73605008536E+02 -0.96160293684E+03  0.99009305847E+03  0.25500000920E-02 0. -1.
       -2    1    3    3    0  502 -0.22402312156E+03 -0.73605008536E+02  0.31030698813E+03  0.38973642781E+03  0.25500000920E-02 0.  1.
</event>
<event>
 5   0  0.1873488E-03  0.1213320E+04  0.7818609E-02  0.9101276E-01
        1   -1    0    0  501    0  0.00000000000E+00  0.00000000000E+00  0.11317204684E+04  0.11317204684E+04  0.50400001928E-02 0. -1.
       -1   -1    0    0    0  501  0.00000000000E+00  0.00000000000E+00 -0.32520101065E+03  0.32520101069E+03  0.50400001928E-02 0.  1.
    10030    2    1    2    0    0  0.00000000000E+00  0.00000000000E+00  0.80651945770E+03  0.14569214791E+04  0.12133204690E+04 0.  0.
        3    1    3    3  502    0  0.31136998451E+03 -0.44149783139E+02 -0.21968088577E+03  0.38361461439E+03  0.10100000352E+00 0.  1.
       -3    1    3    3    0  502 -0.31136998451E+03  0.44149783139E+02  0.10262003435E+04  0.10733068647E+04  0.10100000352E+00 0. -1.
</event>
<event>
 5   0  0.3259968E-03  0.1277438E+04  0.7818609E-02  0.9047651E-01
       -2   -1    0    0    0  501  0.00000000000E+00  0.00000000000E+00  0.25688910316E+03  0.25688910317E+03  0.25500000920E-02 0.  1.
        2   -1    0    0  501    0  0.00000000000E+00  0.00000000000E+00 -0.15880849472E+04  0.15880849472E+04  0.25500000920E-02 0. -1.
    10030    2    1    2    0    0  0.00000000000E+00  0.00000000000E+00 -0.13311958441E+04  0.18449740504E+04  0.12774376194E+04 0.  0.
        4    1    3    3  502    0  0.19881306697E+03 -0.21791743896E+03  0.15261470669E+03  0.33212574035E+03  0.12699999809E+01 0.  1.
       -4    1    3    3    0  502 -0.19881306697E+03  0.21791743896E+03 -0.14838105508E+04  0.15128483101E+04  0.12699999809E+01 0. -1.
</event>
<event>
 5   0  0.1803959E-03  0.1304337E+04  0.7818609E-02  0.9026133E-01
        1   -1    0    0  501    0  0.00000000000E+00  0.00000000000E+00  0.12707852781E+04  0.12707852781E+04  0.50400001928E-02 0. -1.
       -1   -1    0    0    0  501  0.00000000000E+00  0.00000000000E+00 -0.33469357003E+03  0.33469357007E+03  0.50400001928E-02 0.  1.
    10030    2    1    2    0    0  0.00000000000E+00  0.00000000000E+00  0.93609170808E+03  0.16054788482E+04  0.13043368606E+04 0.  0.
        4    1    3    3  502    0 -0.29137528794E+03 -0.11404555026E+03  0.11723574486E+04  0.12133958736E+04  0.12699999809E+01 0. -1.
       -4    1    3    3    0  502  0.29137528794E+03  0.11404555026E+03 -0.23626574047E+03  0.39208297461E+03  0.12699999809E+01 0.  1.
</event>
<event>
 5   0  0.3299104E-03  0.1268356E+04  0.7818609E-02  0.9055043E-01
       -2   -1    0    0    0  501  0.00000000000E+00  0.00000000000E+00  0.32858377115E+03  0.32858377116E+03  0.25500000920E-02 0.  1.
        2   -1    0    0  501    0  0.00000000000E+00  0.00000000000E+00 -0.12239849658E+04  0.12239849658E+04  0.25500000920E-02 0. -1.
    10030    2    1    2    0    0  0.00000000000E+00  0.00000000000E+00 -0.89540119464E+03  0.15525687369E+04  0.12683557796E+04 0.  0.
        2    1    3    3  502    0  0.10155351564E+01 -0.20413427035E+03  0.28726711486E+03  0.35241201303E+03  0.25500000920E-02 0.  1.
       -2    1    3    3    0  502 -0.10155351564E+01  0.20413427035E+03 -0.11826683095E+04  0.12001567239E+04  0.25500000920E-02 0. -1.
</event>
<event>
 5   0  0.1873488E-03  0.1375741E+04  0.7818609E-02  0.8971568E-01
       -1   -1    0    0    0  501  0.00000000000E+00  0.00000000000E+00  0.51374052389E+03  0.51374052391E+03  0.50400001928E-02 0.  1.
        1   -1    0    0  501    0  0.00000000000E+00  0.00000000000E+00 -0.92102059211E+03  0.92102059212E+03  0.50400001928E-02 0. -1.
    10030    2    1    2    0    0  0.00000000000E+00  0.00000000000E+00 -0.40728006822E+03  0.14347611160E+04  0.13757406755E+04 0.  0.
        3    1    3    3  502    0 -0.50265188544E+03 -0.45437010557E+03 -0.80002475792E+02  0.68228404430E+03  0.10100000352E+00 0. -1.
       -3    1    3    3    0  502  0.50265188544E+03  0.45437010557E+03 -0.32727759243E+03  0.75247707173E+03  0.10100000352E+00 0.  1.
</event>
<event>
 5   0  0.3262927E-03  0.1324824E+04  0.7818609E-02  0.9010108E-01
        2   -1    0    0  501    0  0.00000000000E+00  0.00000000000E+00  0.80220924374E+03  0.80220924374E+03  0.25500000920E-02 0.  1.
       -2   -1    0    0    0  501  0.00000000000E+00  0.00000000000E+00 -0.54697679371E+03  0.54697679371E+03  0.25500000920E-02 0. -1.
    10030    2    1    2    0    0  0.00000000000E+00  0.00000000000E+00  0.25523245003E+03  0.13491860375E+04  0.13248242752E+04 0.  0.
        3    1    3    3  502    0 -0.11613507572E+03  0.20214819368E+03  0.75904888888E+03  0.79404437781E+03  0.10100000352E+00 0.  1.
       -3    1    3    3    0  502  0.11613507572E+03 -0.20214819368E+03 -0.50381643885E+03  0.55514165965E+03  0.10100000352E+00 0. -1.
</event>
<event>
 5   0  0.1823154E-03  0.1296338E+04  0.7818609E-02  0.9032474E-01
       -1   -1    0    0    0  501  0.00000000000E+00  0.00000000000E+00  0.35394680291E+03  0.35394680294E+03  0.50400001928E-02 0. -1.
        1   -1    0    0  501    0  0.00000000000E+00  0.00000000000E+00 -0.11869668018E+04  0.11869668019E+04  0.50400001928E-02 0.  1.
    10030    2    1    2    0    0  0.00000000000E+00  0.00000000000E+00 -0.83301999894E+03  0.15409136048E+04  0.12963380804E+04 0.  0.
        2    1    3    3  502    0  0.43705196587E+03 -0.47517907588E+03 -0.48493352427E+03  0.80744665334E+03  0.25500000920E-02 0.  1.
       -2    1    3    3    0  502 -0.43705196587E+03  0.47517907588E+03 -0.34808647467E+03  0.73346695146E+03  0.25500000920E-02 0. -1.
</event>
<event>
 5   0  0.3299104E-03  0.1310200E+04  0.7818609E-02  0.9021515E-01
       -2   -1    0    0    0  501  0.00000000000E+00  0.00000000000E+00  0.23047265065E+03  0.23047265066E+03  0.25500000920E-02 0.  1.
        2   -1    0    0  501    0  0.00000000000E+00  0.00000000000E+00 -0.18620704552E+04  0.18620704552E+04  0.25500000920E-02 0. -1.
    10030    2    1    2    0    0  0.00000000000E+00  0.00000000000E+00 -0.16315978046E+04  0.20925431059E+04  0.13102004633E+04 0.  0.
        2    1    3    3  502    0 -0.33131252195E+03  0.52808072356E+03 -0.49430967157E+03  0.79559995552E+03  0.25500000920E-02 0.  1.
       -2    1    3    3    0  502  0.33131252195E+03 -0.52808072356E+03 -0.11372881330E+04  0.12969431504E+04  0.25500000920E-02 0. -1.
</event>
<event>
 5   0  0.3336609E-03  0.1290457E+04  0.7818609E-02  0.9037167E-01
        2   -1    0    0  501    0  0.00000000000E+00  0.00000000000E+00  0.14850310336E+04  0.14850310336E+04  0.25500000920E-02 0. -1.
       -2   -1    0    0    0  501  0.00000000000E+00  0.00000000000E+00 -0.28034423355E+03  0.28034423356E+03  0.25500000920E-02 0.  1.
    10030    2    1    2    0    0  0.00000000000E+00  0.00000000000E+00  0.12046868001E+04  0.17653752672E+04  0.12904571081E+04 0.  0.
        1    1    3    3  502    0 -0.53122523009E+03  0.32020032788E+03  0.35919140126E+03  0.71676143718E+03  0.50400001928E-02 0.  1.
       -1    1    3    3    0  502  0.53122523009E+03 -0.32020032788E+03  0.84549539882E+03  0.10486138300E+04  0.50400001928E-02 0. -1.
</event>
<event>
 5   0  0.1873488E-03  0.1293450E+04  0.7818609E-02  0.9034775E-01
       -1   -1    0    0    0  501  0.00000000000E+00  0.00000000000E+00  0.23007344389E+03  0.23007344395E+03  0.50400001928E-02 0.  1.
        1   -1    0    0  501    0  0.00000000000E+00  0.00000000000E+00 -0.18179120451E+04  0.18179120451E+04  0.50400001928E-02 0. -1.
    10030    2    1    2    0    0  0.00000000000E+00  0.00000000000E+00 -0.15878386012E+04  0.20479854890E+04  0.12934500918E+04 0.  0.
        3    1    3    3  502    0 -0.23917738992E+03  0.44695002952E+03 -0.14297941679E+04  0.15169975364E+04  0.10100000352E+00 0. -1.
       -3    1    3    3    0  502  0.23917738992E+03 -0.44695002952E+03 -0.15804443329E+03  0.53098795262E+03  0.10100000352E+00 0.  1.
</event>
<event>
 5   0  0.1823154E-03  0.1692727E+04  0.7818609E-02  0.8765523E-01
       -1   -1    0    0    0  501  0.00000000000E+00  0.00000000000E+00  0.10406018773E+04  0.10406018773E+04  0.50400001928E-02 0.  1.
        1   -1    0    0  501    0  0.00000000000E+00  0.00000000000E+00 -0.68838185825E+03  0.68838185827E+03  0.50400001928E-02 0. -1.
    10030    2    1    2    0    0  0.00000000000E+00  0.00000000000E+00  0.35222001908E+03  0.17289837356E+04  0.16927273307E+04 0.  0.
        2    1    3    3  502    0  0.29582457310E+03  0.60423064577E+03  0.70065074995E+03  0.97134871428E+03  0.25500000920E-02 0.  1.
       -2    1    3    3    0  502 -0.29582457310E+03 -0.60423064577E+03 -0.34843073087E+03  0.75763502133E+03  0.25500000920E-02 0. -1.
</event>
<event>
 5   0  0.3299104E-03  0.1335106E+04  0.7818609E-02  0.9002180E-01
       -2   -1    0    0    0  501  0.00000000000E+00  0.00000000000E+00  0.28460641331E+03  0.28460641332E+03  0.25500000920E-02 0. -1.
        2   -1    0    0  501    0  0.00000000000E+00  0.00000000000E+00 -0.15657647875E+04  0.15657647875E+04  0.25500000920E-02 0.  1.
    10030    2    1    2    0    0  0.00000000000E+00  0.00000000000E+00 -0.12811583742E+04  0.18503712008E+04  0.13351055393E+04 0.  0.
        2    1    3    3  502    0 -0.35150889687E+03 -0.30819498808E+03  0.19865686463E+02  0.46790736344E+03  0.25500000920E-02 0. -1.
       -2    1    3    3    0  502  0.35150889687E+03  0.30819498808E+03 -0.13010240607E+04  0.13824638374E+04  0.25500000920E-02 0.  1.
</event>
<event>
 5   0  0.3259968E-03  0.1306323E+04  0.7818609E-02  0.9024566E-01
        2   -1    0    0  501    0  0.00000000000E+00  0.00000000000E+00  0.11973259646E+04  0.11973259646E+04  0.25500000920E-02 0. -1.
       -2   -1    0    0    0  501  0.00000000000E+00  0.00000000000E+00 -0.35631085950E+03  0.35631085951E+03  0.25500000920E-02 0.  1.
    10030    2    1    2    0    0  0.00000000000E+00  0.00000000000E+00  0.84101510507E+03  0.15536368241E+04  0.13063234570E+04 0.  0.
        4    1    3    3  502    0  0.37867456666E+03 -0.17932370311E+03  0.10164355389E+04  0.10994063105E+04  0.12699999809E+01 0. -1.
       -4    1    3    3    0  502 -0.37867456666E+03  0.17932370311E+03 -0.17542043386E+03  0.45423051356E+03  0.12699999809E+01 0.  1.
</event>
<event>
 5   0  0.3262927E-03  0.1427555E+04  0.7818609E-02  0.8934111E-01
        2   -1    0    0  501    0  0.00000000000E+00  0.00000000000E+00  0.17198904147E+04  0.17198904147E+04  0.25500000920E-02 0.  1.
       -2   -1    0    0    0  501  0.00000000000E+00  0.00000000000E+00 -0.29622714585E+03  0.29622714586E+03  0.25500000920E-02 0. -1.
    10030    2    1    2    0    0  0.00000000000E+00  0.00000000000E+00  0.14236632689E+04  0.20161175606E+04  0.14275548728E+04 0.  0.
        3    1    3    3  502    0 -0.71243963743E+03  0.28051098537E+02  0.75911937818E+03  0.10414505949E+04  0.10100000352E+00 0.  1.
       -3    1    3    3    0  502  0.71243963743E+03 -0.28051098537E+02  0.66454389071E+03  0.97466696569E+03  0.10100000352E+00 0. -1.
</event>
<event>
 5   0  0.3294720E-03  0.1134700E+04  0.7818609E-02  0.9172016E-01
        2   -1    0    0  501    0  0.00000000000E+00  0.00000000000E+00  0.19248684597E+04  0.19248684597E+04  0.25500000920E-02 0.  1.
       -2   -1    0    0    0  501  0.00000000000E+00  0.00000000000E+00 -0.16722487860E+03  0.16722487862E+03  0.25500000920E-02 0. -1.
    10030    2    1    2    0    0  0.00000000000E+00  0.00000000000E+00  0.17576435811E+04  0.20920933384E+04  0.11346997744E+04 0.  0.
        5    1    3    3  502    0 -0.13807352702E+03 -0.47310860253E+03  0.36070819777E+03  0.61076062626E+03  0.46999998093E+01 0. -1.
       -5    1    3    3    0  502  0.13807352702E+03  0.47310860253E+03  0.13969353834E+04  0.14813327121E+04  0.46999998093E+01 0.  1.
</event>
<event>
 5   0  0.1803959E-03  0.1283556E+04  0.7818609E-02  0.9042708E-01
       -1   -1    0    0    0  501  0.00000000000E+00  0.00000000000E+00  0.80811056538E+03  0.80811056540E+03  0.50400001928E-02 0. -1.
        1   -1    0    0  501    0  0.00000000000E+00  0.00000000000E+00 -0.50968163385E+03  0.50968163388E+03  0.50400001928E-02 0.  1.
    10030    2    1    2    0    0  0.00000000000E+00  0.00000000000E+00  0.29842893153E+03  0.13177921993E+04  0.12835561746E+04 0.  0.
        4    1    3    3  502    0  0.10742337227E+03 -0.29844813948E+03  0.72200811320E+03  0.78861169234E+03  0.12699999809E+01 0. -1.
       -4    1    3    3    0  502 -0.10742337227E+03  0.29844813948E+03 -0.42357918167E+03  0.52918050693E+03  0.12699999809E+01 0.  1.
</event>
<event>
 5   0  0.1873488E-03  0.1307251E+04  0.7818609E-02  0.9023835E-01
        1   -1    0    0  501    0  0.00000000000E+00  0.00000000000E+00  0.13720425991E+04  0.13720425991E+04  0.50400001928E-02 0. -1.
       -1   -1    0    0    0  501  0.00000000000E+00  0.00000000000E+00 -0.31137959746E+03  0.31137959750E+03  0.50400001928E-02 0.  1.
    10030    2    1    2    0    0  0.00000000000E+00  0.00000000000E+00  0.10606630017E+04  0.16834221966E+04  0.13072506604E+04 0.  0.
        3    1    3    3  502    0 -0.34810576996E+03  0.46840382974E+03  0.15127045331E+03  0.60287854087E+03  0.10100000352E+00 0.  1.
       -3    1    3    3    0  502  0.34810576996E+03 -0.46840382974E+03  0.90939254836E+03  0.10805436558E+04  0.10100000352E+00 0. -1.
</event>
<event>
 5   0  0.1857986E-03  0.1303251E+04  0.7818609E-02  0.9026991E-01
        1   -1    0    0  501    0  0.00000000000E+00  0.00000000000E+00  0.10881618420E+04  0.10881618420E+04  0.50400001928E-02 0.  1.
       -1   -1    0    0    0  501  0.00000000000E+00  0.00000000000E+00 -0.39021403014E+03  0.39021403018E+03  0.50400001928E-02 0. -1.
    10030    2    1    2    0    0  0.00000000000E+00  0.00000000000E+00  0.69794781188E+03  0.14783758722E+04  0.13032513462E+04 0.  0.
        1    1    3    3  502    0  0.31120715160E+02  0.29319070091E+03 -0.31022075668E+03  0.42797920967E+03  0.50400001928E-02 0. -1.
       -1    1    3    3    0  502 -0.31120715160E+02 -0.29319070091E+03  0.10081685686E+04  0.10503966625E+04  0.50400001928E-02 0.  1.
</event>
<event>
 5   0  0.3259968E-03  0.1113173E+04  0.7818609E-02  0.9192446E-01
       -2   -1    0    0    0  501  0.00000000000E+00  0.00000000000E+00  0.57701293822E+03  0.57701293823E+03  0.25500000920E-02 0. -1.
        2   -1    0    0  501    0  0.00000000000E+00  0.00000000000E+00 -0.53688357324E+03  0.53688357324E+03  0.25500000920E-02 0.  1.
    10030    2    1    2    0    0  0.00000000000E+00  0.00000000000E+00  0.40129364984E+02  0.11138965115E+04  0.11131734242E+04 0.  0.
        4    1    3    3  502    0 -0.88293084420E+02  0.27518244596E+03 -0.45591867435E+03  0.53980042409E+03  0.12699999809E+01 0.  1.
       -4    1    3    3    0  502  0.88293084420E+02 -0.27518244596E+03  0.49604803934E+03  0.57409608738E+03  0.12699999809E+01 0. -1.
</event>
<event>
 5   0  0.3259968E-03  0.1318537E+04  0.7818609E-02  0.9014993E-01
        2   -1    0    0  501    0  0.00000000000E+00  0.00000000000E+00  0.11122232278E+04  0.11122232278E+04  0.25500000920E-02 0. -1.
       -2   -1    0    0    0  501  0.00000000000E+00  0.00000000000E+00 -0.39078009011E+03  0.39078009012E+03  0.25500000920E-02 0.  1.
    10030    2    1    2    0    0  0.00000000000E+00  0.00000000000E+00  0.72144313768E+03  0.15030033179E+04  0.13185366027E+04 0.  0.
        4    1    3    3  502    0 -0.25606943299E+03  0.51745416082E+03 -0.20876353274E+01  0.57735286799E+03  0.12699999809E+01 0.  1.
       -4    1    3    3    0  502  0.25606943299E+03 -0.51745416082E+03  0.72353077301E+03  0.92565044993E+03  0.12699999809E+01 0. -1.
</event>
<event>
 5   0  0.1814770E-03  0.1540285E+04  0.7818609E-02  0.8858097E-01
        1   -1    0    0  501    0  0.00000000000E+00  0.00000000000E+00  0.11314612814E+04  0.11314612815E+04  0.50400001928E-02 0.  1.
       -1   -1    0    0    0  501  0.00000000000E+00  0.00000000000E+00 -0.52420647135E+03  0.52420647137E+03  0.50400001928E-02 0. -1.
    10030    2    1    2    0    0  0.00000000000E+00  0.00000000000E+00  0.60725481009E+03  0.16556677528E+04  0.15402848124E+04 0.  0.
        5    1    3    3  502    0  0.24566909520E+03 -0.70023624935E+03  0.82255602471E+02  0.74664059853E+03  0.46999998093E+01 0. -1.
       -5    1    3    3    0  502 -0.24566909520E+03  0.70023624935E+03  0.52499920762E+03  0.90902715429E+03  0.46999998093E+01 0.  1.
</event>
<event>
 5   0  0.3299104E-03  0.1304964E+04  0.7818609E-02  0.9025638E-01
        2   -1    0    0  501    0  0.00000000000E+00  0.00000000000E+00  0.16228782609E+04  0.16228782609E+04  0.25500000920E-02 0.  1.
       -2   -1    0    0    0  501  0.00000000000E+00  0.00000000000E+00 -0.26233191058E+03  0.26233191059E+03  0.25500000920E-02 0. -1.
    10030    2    1    2    0    0  0.00000000000E+00  0.00000000000E+00  0.13605463503E+04  0.18852101715E+04  0.13049639916E+04 0.  0.
        2    1    3    3  502    0  0.61099173534E+03 -0.35785363065E+02  0.10069715442E+04  0.11783815951E+04  0.25500000920E-02 0.  1.
       -2    1    3    3    0  502 -0.61099173534E+03  0.35785363065E+02  0.35357480612E+03  0.70682857638E+03  0.25500000920E-02 0. -1.
</event>
<event>
 5   0  0.1823154E-03  0.1327230E+04  0.7818609E-02  0.9008246E-01
       -1   -1    0    0    0  501  0.00000000000E+00  0.00000000000E+00  0.28850227031E+03  0.28850227035E+03  0.50400001928E-02 0.  1.
        1   -1    0    0  501    0  0.00000000000E+00  0.00000000000E+00 -0.15264523475E+04  0.15264523475E+04  0.50400001928E-02 0. -1.
    10030    2    1    2    0    0  0.00000000000E+00  0.00000000000E+00 -0.12379500772E+04  0.18149546179E+04  0.13272301501E+04 0.  0.
        2    1    3    3  502    0 -0.65448269901E+03  0.12607458423E+01 -0.46895248200E+03  0.80514944151E+03  0.25500000920E-02 0.  1.
       -2    1    3    3    0  502  0.65448269901E+03 -0.12607458423E+01 -0.76899759521E+03  0.10098051764E+04  0.25500000920E-02 0. -1.
</event>
<event>
 5   0  0.1873488E-03  0.1296068E+04  0.7818609E-02  0.9032689E-01
       -1   -1    0    0    0  501  0.00000000000E+00  0.00000000000E+00  0.48465374793E+03  0.48465374796E+03  0.50400001928E-02 0.  1.
        1   -1    0    0  501    0  0.00000000000E+00  0.00000000000E+00 -0.86649064456E+03  0.86649064458E+03  0.50400001928E-02 0. -1.
    10030    2    1    2    0    0  0.00000000000E+00  0.00000000000E+00 -0.38183689663E+03  0.13511443925E+04  0.12960678045E+04 0.  0.
        3    1    3    3  502    0  0.32992247179E+03  0.41898375145E+03 -0.57473750703E+03  0.78404045403E+03  0.10100000352E+00 0. -1.
       -3    1    3    3    0  502 -0.32992247179E+03 -0.41898375145E+03  0.19290061039E+03  0.56710393850E+03  0.10100000352E+00 0.  1.
</event>
<event>
 5   0  0.3294720E-03  0.1316325E+04  0.7818609E-02  0.9016718E-01
       -2   -1    0    0    0  501  0.00000000000E+00  0.00000000000E+00  0.94788843386E+03  0.94788843386E+03  0.25500000920E-02 0. -1.
        2   -1    0    0  501    0  0.00000000000E+00  0.00000000000E+00 -0.45699280898E+03  0.45699280899E+03  0.25500000920E-02 0.  1.
    10030    2    1    2    0    0  0.00000000000E+00  0.00000000000E+00  0.49089562488E+03  0.14048812428E+04  0.13163254886E+04 0.  0.
        5    1    3    3  502    0  0.65007960180E+03 -0.92848457258E+02  0.19853888242E+03  0.68604963562E+03  0.46999998093E+01 0.  1.
       -5    1    3    3    0  502 -0.65007960180E+03  0.92848457258E+02  0.29235674246E+03  0.71883160723E+03  0.46999998093E+01 0. -1.
</event>
<event>
 5   0  0.3336609E-03  0.1343688E+04  0.7818609E-02  0.8995620E-01
        2   -1    0    0  501    0  0.00000000000E+00  0.00000000000E+00  0.11082299667E+04  0.11082299667E+04  0.25500000920E-02 0. -1.
       -2   -1    0    0    0  501  0.00000000000E+00  0.00000000000E+00 -0.40729299128E+03  0.40729299129E+03  0.25500000920E-02 0.  1.
    10030    2    1    2    0    0  0.00000000000E+00  0.00000000000E+00  0.70093697542E+03  0.15155229580E+04  0.13436879075E+04 0.  0.
        1    1    3    3  502    0 -0.20517857542E+03 -0.29161834878E+03  0.99270340890E+03  0.10547983538E+04  0.50400001928E-02 0. -1.
       -1    1    3    3    0  502  0.20517857542E+03  0.29161834878E+03 -0.29176643348E+03  0.46072460417E+03  0.50400001928E-02 0.  1.
</event>
<event>
 5   0  0.1803959E-03  0.1294622E+04  0.7818609E-02  0.9033841E-01
        1   -1    0    0  501    0  0.00000000000E+00  0.00000000000E+00  0.98721605264E+03  0.98721605265E+03  0.50400001928E-02 0.  1.
       -1   -1    0    0    0  501  0.00000000000E+00  0.00000000000E+00 -0.42443740686E+03  0.42443740689E+03  0.50400001928E-02 0. -1.
    10030    2    1    2    0    0  0.00000000000E+00  0.00000000000E+00  0.56277864578E+03  0.14116534595E+04  0.12946218312E+04 0.  0.
        4    1    3    3  502    0 -0.55963381804E+03  0.25163718762E+03  0.50617679027E+03  0.79544191516E+03  0.12699999809E+01 0.  1.
       -4    1    3    3    0  502  0.55963381804E+03 -0.25163718762E+03  0.56601855504E+02  0.61621154438E+03  0.12699999809E+01 0. -1.
</event>
<event>
 5   0  0.1803959E-03  0.1291576E+04  0.7818609E-02  0.9036272E-01
        1   -1    0    0  501    0  0.00000000000E+00  0.00000000000E+00  0.36607207700E+03  0.36607207704E+03  0.50400001928E-02 0.  1.
       -1   -1    0    0    0  501  0.00000000000E+00  0.00000000000E+00 -0.11392357357E+04  0.11392357357E+04  0.50400001928E-02 0. -1.
    10030    2    1    2    0    0  0.00000000000E+00  0.00000000000E+00 -0.77316365867E+03  0.15053078127E+04  0.12915763887E+04 0.  0.
        4    1    3    3  502    0 -0.22343802857E+03 -0.26979727805E+03  0.24571248753E+03  0.42789176585E+03  0.12699999809E+01 0.  1.
       -4    1    3    3    0  502  0.22343802857E+03  0.26979727805E+03 -0.10188761462E+04  0.10774160469E+04  0.12699999809E+01 0. -1.
</event>
<event>
 5   0  0.1873488E-03  0.1298911E+04  0.7818609E-02  0.9030429E-01
       -1   -1    0    0    0  501  0.00000000000E+00  0.00000000000E+00  0.11312313918E+04  0.11312313918E+04  0.50400001928E-02 0. -1.
        1   -1    0    0  501    0  0.00000000000E+00  0.00000000000E+00 -0.37286158941E+03  0.37286158944E+03  0.50400001928E-02 0.  1.
    10030    2    1    2    0    0  0.00000000000E+00  0.00000000000E+00  0.75836980243E+03  0.15040929813E+04  0.12989114439E+04 0.  0.
        3    1    3    3  502    0 -0.55673683037E+02  0.59236078344E+03  0.68070479444E+03  0.90407404791E+03  0.10100000352E+00 0.  1.
       -3    1    3    3    0  502  0.55673683037E+02 -0.59236078344E+03  0.77665007984E+02  0.60001893337E+03  0.10100000352E+00 0. -1.
</event>
<event>
 5   0  0.3259968E-03  0.1357837E+04  0.7818609E-02  0.8984917E-01
        2   -1    0    0  501    0  0.00000000000E+00  0.00000000000E+00  0.58864196231E+03  0.58864196232E+03  0.25500000920E-02 0.  1.
       -2   -1    0    0    0  501  0.00000000000E+00  0.00000000000E+00 -0.78303992805E+03  0.78303992805E+03  0.25500000920E-02 0. -1.
    10030    2    1    2    0    0  0.00000000000E+00  0.00000000000E+00 -0.19439796573E+03  0.13716818904E+04  0.13578367499E+04 0.  0.
        4    1    3    3  502    0  0.52778401211E+03  0.10790919973E+03  0.32020680023E+03  0.62668522133E+03  0.12699999809E+01 0.  1.
       -4    1    3    3    0  502 -0.52778401211E+03 -0.10790919973E+03 -0.51460476596E+03  0.74499666904E+03  0.12699999809E+01 0. -1.
</event>
<event>
 5   0  0.1814770E-03  0.1259635E+04  0.7818609E-02  0.9062202E-01
        1   -1    0    0  501    0  0.00000000000E+00  0.00000000000E+00  0.87555087744E+03  0.87555087746E+03  0.50400001928E-02 0. -1.
       -1   -1    0    0    0  501  0.00000000000E+00  0.00000000000E+00 -0.45305225235E+03  0.45305225238E+03  0.50400001928E-02 0.  1.
    10030    2    1    2    0    0  0.00000000000E+00  0.00000000000E+00  0.42249862509E+03  0.13286031298E+04  0.12596353395E+04 0.  0.
        5    1    3    3  502    0 -0.42213673087E+03 -0.44192519781E+03  0.50764314659E+02  0.61326699377E+03  0.46999998093E+01 0.  1.
       -5    1    3    3    0  502  0.42213673087E+03  0.44192519781E+03  0.37173431043E+03  0.71533613607E+03  0.46999998093E+01 0. -1.
</event>
<event>
 5   0  0.3262927E-03  0.1287893E+04  0.7818609E-02  0.9039222E-01
        2   -1    0    0  501    0  0.00000000000E+00  0.00000000000E+00  0.10224373078E+04  0.10224373078E+04  0.25500000920E-02 0. -1.
       -2   -1    0    0    0  501  0.00000000000E+00  0.00000000000E+00 -0.40556700380E+03  0.40556700381E+03  0.25500000920E-02 0.  1.
    10030    2    1    2    0    0  0.00000000000E+00  0.00000000000E+00  0.61687030401E+03  0.14280043116E+04  0.12878925972E+04 0.  0.
        3    1    3    3  502    0 -0.51102405630E+03  0.33915402089E+03  0.90886455115E+02  0.62002531716E+03  0.10100000352E+00 0.  1.
       -3    1    3    3    0  502  0.51102405630E+03 -0.33915402089E+03  0.52598384889E+03  0.80797899446E+03  0.10100000352E+00 0. -1.
</event>
<event>
 5   0  0.3262927E-03  0.1318423E+04  0.7818609E-02  0.9015081E-01
       -2   -1    0    0    0  501  0.00000000000E+00  0.00000000000E+00  0.39579992518E+03  0.39579992519E+03  0.25500000920E-02 0. -1.
        2   -1    0    0  501    0  0.00000000000E+00  0.00000000000E+00 -0.10979286757E+04  0.10979286757E+04  0.25500000920E-02 0.  1.
    10030    2    1    2    0    0  0.00000000000E+00  0.00000000000E+00 -0.70212875056E+03  0.14937286009E+04  0.13184234338E+04 0.  0.
        3    1    3    3  502    0  0.16585891846E+03 -0.15728692032E+03 -0.10515925222E+04  0.10761483164E+04  0.10100000352E+00 0.  1.
       -3    1    3    3    0  502 -0.16585891846E+03  0.15728692032E+03  0.34946377159E+03  0.41758028449E+03  0.10100000352E+00 0. -1.
</event>
<event>
 5   0  0.1254125E-03  0.1099133E+04  0.7818609E-02  0.9206038E-01
        3   -1    0    0  501    0  0.00000000000E+00  0.00000000000E+00  0.32383672325E+03  0.32383673900E+03  0.10100000352E+00 0.  1.
       -3   -1    0    0    0  501  0.00000000000E+00  0.00000000000E+00 -0.93264014090E+03  0.93264014637E+03  0.10100000352E+00 0. -1.
    10030    2    1    2    0    0  0.00000000000E+00  0.00000000000E+00 -0.60880341765E+03  0.12564768854E+04  0.10991326408E+04 0.  0.
        2    1    3    3  502    0  0.18973446502E+03 -0.45493423677E+03 -0.58221099415E+03  0.76284596657E+03  0.25500000920E-02 0. -1.
       -2    1    3    3    0  502 -0.18973446502E+03  0.45493423677E+03 -0.26592423504E+02  0.49363091880E+03  0.25500000920E-02 0.  1.
</event>
<event>
 5   0  0.1814770E-03  0.1311500E+04  0.7818609E-02  0.9020495E-01
        1   -1    0    0  501    0  0.00000000000E+00  0.00000000000E+00  0.11720490130E+04  0.11720490130E+04  0.50400001928E-02 0.  1.
       -1   -1    0    0    0  501  0.00000000000E+00  0.00000000000E+00 -0.36688599166E+03  0.36688599169E+03  0.50400001928E-02 0. -1.
    10030    2    1    2    0    0  0.00000000000E+00  0.00000000000E+00  0.80516302134E+03  0.15389350047E+04  0.13115004605E+04 0.  0.
        5    1    3    3  502    0 -0.60201505318E+03 -0.55278409679E+01  0.97643361897E+02  0.60992540315E+03  0.46999998093E+01 0.  1.
       -5    1    3    3    0  502  0.60201505318E+03  0.55278409679E+01  0.70751965944E+03  0.92900960156E+03  0.46999998093E+01 0. -1.
</event>
<event>
 5   0  0.3262927E-03  0.1333477E+04  0.7818609E-02  0.9003431E-01
        2   -1    0    0  501    0  0.00000000000E+00  0.00000000000E+00  0.12264013844E+04  0.12264013844E+04  0.25500000920E-02 0.  1.
       -2   -1    0    0    0  501  0.00000000000E+00  0.00000000000E+00 -0.36247539153E+03  0.36247539154E+03  0.25500000920E-02 0. -1.
    10030    2    1    2    0    0  0.00000000000E+00  0.00000000000E+00  0.86392599284E+03  0.15888767759E+04  0.13334771419E+04 0.  0.
        3    1    3    3  502    0  0.20469299554E+03  0.39095325625E+03 -0.16355917982E+03  0.47063285743E+03  0.10100000352E+00 0. -1.
       -3    1    3    3    0  502 -0.20469299554E+03 -0.39095325625E+03  0.10274851727E+04  0.11182439185E+04  0.10100000352E+00 0.  1.
</event>
<event>
 5   0  0.1254125E-03  0.1284174E+04  0.7818609E-02  0.9042210E-01
        3   -1    0    0  501    0  0.00000000000E+00  0.00000000000E+00  0.13140641081E+04  0.13140641120E+04  0.10100000352E+00 0.  1.
       -3   -1    0    0    0  501  0.00000000000E+00  0.00000000000E+00 -0.31374083815E+03  0.31374085440E+03  0.10100000352E+00 0. -1.
    10030    2    1    2    0    0  0.00000000000E+00  0.00000000000E+00  0.10003232699E+04  0.16278049664E+04  0.12841738060E+04 0.  0.
        4    1    3    3  502    0  0.42008292443E+03  0.38745119871E+03  0.87121228876E+03  0.10419215708E+04  0.12699999809E+01 0.  1.
       -4    1    3    3    0  502 -0.42008292443E+03 -0.38745119871E+03  0.12911098116E+03  0.58588339552E+03  0.12699999809E+01 0. -1.
</event>
<event>
 5   0  0.3299104E-03  0.1177256E+04  0.7818609E-02  0.9133000E-01
       -2   -1    0    0    0  501  0.00000000000E+00  0.00000000000E+00  0.61147062456E+03  0.61147062457E+03  0.25500000920E-02 0. -1.
        2   -1    0    0  501    0  0.00000000000E+00  0.00000000000E+00 -0.56663883470E+03  0.56663883470E+03  0.25500000920E-02 0.  1.
    10030    2    1    2    0    0  0.00000000000E+00  0.00000000000E+00  0.44831789865E+02  0.11781094593E+04  0.11772561355E+04 0.  0.
        2    1    3    3  502    0 -0.15527400955E+03 -0.53190340065E+03  0.22118452861E+03  0.59661867333E+03  0.25500000920E-02 0. -1.
       -2    1    3    3    0  502  0.15527400955E+03  0.53190340065E+03 -0.17635273875E+03  0.58149078594E+03  0.25500000920E-02 0.  1.
</event>
<event>
 5   0  0.3336609E-03  0.1295204E+04  0.7818609E-02  0.9033377E-01
       -2   -1    0    0    0  501  0.00000000000E+00  0.00000000000E+00  0.29790515006E+03  0.29790515007E+03  0.25500000920E-02 0. -1.
        2   -1    0    0  501    0  0.00000000000E+00  0.00000000000E+00 -0.14077914281E+04  0.14077914281E+04  0.25500000920E-02 0.  1.
    10030    2    1    2    0    0  0.00000000000E+00  0.00000000000E+00 -0.11098862780E+04  0.17056965782E+04  0.12952039479E+04 0.  0.
        1    1    3    3  502    0 -0.27944939757E+03 -0.92551200362E+02 -0.13145869560E+04  0.13471438511E+04  0.50400001928E-02 0.  1.
       -1    1    3    3    0  502  0.27944939757E+03  0.92551200362E+02  0.20470067801E+03  0.35855272708E+03  0.50400001928E-02 0. -1.
</event>
<event>
 5   0  0.1857986E-03  0.1294965E+04  0.7818609E-02  0.9033568E-01
        1   -1    0    0  501    0  0.00000000000E+00  0.00000000000E+00  0.79435394959E+03  0.79435394961E+03  0.50400001928E-02 0. -1.
       -1   -1    0    0    0  501  0.00000000000E+00  0.00000000000E+00 -0.52776659056E+03  0.52776659058E+03  0.50400001928E-02 0.  1.
    10030    2    1    2    0    0  0.00000000000E+00  0.00000000000E+00  0.26658735903E+03  0.13221205402E+04  0.12949648269E+04 0.  0.
        1    1    3    3  502    0 -0.59441098039E+02  0.44615914431E+03 -0.34191532154E+03  0.56524093386E+03  0.50400001928E-02 0.  1.
       -1    1    3    3    0  502  0.59441098039E+02 -0.44615914431E+03  0.60850268057E+03  0.75687960633E+03  0.50400001928E-02 0. -1.
</event>
<event>
 5   0  0.3259968E-03  0.1281691E+04  0.7818609E-02  0.9044212E-01
        2   -1    0    0  501    0  0.00000000000E+00  0.00000000000E+00  0.14938239926E+04  0.14938239926E+04  0.25500000920E-02 0. -1.
       -2   -1    0    0    0  501  0.00000000000E+00  0.00000000000E+00 -0.27492037116E+03  0.27492037117E+03  0.25500000920E-02 0.  1.
    10030    2    1    2    0    0  0.00000000000E+00  0.00000000000E+00  0.12189036215E+04  0.17687443638E+04  0.12816905188E+04 0.  0.
        4    1    3    3  502    0 -0.35312128011E+03 -0.44094318816E+03  0.19188678450E+03  0.59661351360E+03  0.12699999809E+01 0.  1.
       -4    1    3    3    0  502  0.35312128011E+03  0.44094318816E+03  0.10270168370E+04  0.11721308502E+04  0.12699999809E+01 0. -1.
</event>
<event>
 5   0  0.3259968E-03  0.1349799E+04  0.7818609E-02  0.8990980E-01
        2   -1    0    0  501    0  0.00000000000E+00  0.00000000000E+00  0.79399104927E+03  0.79399104927E+03  0.25500000920E-02 0.  1.
       -2   -1    0    0    0  501  0.00000000000E+00  0.00000000000E+00 -0.57367095916E+03  0.57367095916E+03  0.25500000920E-02 0. -1.
    10030    2    1    2    0    0  0.00000000000E+00  0.00000000000E+00  0.22032009011E+03  0.13676620084E+04  0.13497994026E+04 0.  0.
        4    1    3    3  502    0  0.92419189935E+02 -0.32956648171E+03 -0.47920108324E+03  0.58888934751E+03  0.12699999809E+01 0. -1.
       -4    1    3    3    0  502 -0.92419189935E+02  0.32956648171E+03  0.69952117335E+03  0.77877266092E+03  0.12699999809E+01 0.  1.
</event>
<event>
 5   0  0.3294720E-03  0.1274895E+04  0.7818609E-02  0.9049714E-01
        2   -1    0    0  501    0  0.00000000000E+00  0.00000000000E+00  0.21161502666E+04  0.21161502666E+04  0.25500000920E-02 0. -1.
       -2   -1    0    0    0  501  0.00000000000E+00  0.00000000000E+00 -0.19201809848E+03  0.19201809850E+03  0.25500000920E-02 0.  1.
    10030    2    1    2    0    0  0.00000000000E+00  0.00000000000E+00  0.19241321681E+04  0.23081683651E+04  0.12748947412E+04 0.  0.
        5    1    3    3  502    0 -0.13511826828E+03 -0.38844835505E+03  0.18437667943E+04  0.18890863275E+04  0.46999998093E+01 0. -1.
       -5    1    3    3    0  502  0.13511826828E+03  0.38844835505E+03  0.80365373871E+02  0.41908203765E+03  0.46999998093E+01 0.  1.
</event>
<event>
 5   0  0.1803959E-03  0.1269440E+04  0.7818609E-02  0.9054157E-01
       -1   -1    0    0    0  501  0.00000000000E+00  0.00000000000E+00  0.32325934242E+03  0.32325934246E+03  0.50400001928E-02 0. -1.
        1   -1    0    0  501    0  0.00000000000E+00  0.00000000000E+00 -0.12462731170E+04  0.12462731170E+04  0.50400001928E-02 0.  1.
    10030    2    1    2    0    0  0.00000000000E+00  0.00000000000E+00 -0.92301377458E+03  0.15695324595E+04  0.12694399211E+04 0.  0.
        4    1    3    3  502    0  0.36504308693E+03  0.35599260216E+03  0.58458859584E+01  0.50992448009E+03  0.12699999809E+01 0. -1.
       -4    1    3    3    0  502 -0.36504308693E+03 -0.35599260216E+03 -0.92885966054E+03  0.10596079794E+04  0.12699999809E+01 0.  1.
</event>
<event>
 5   0  0.1823154E-03  0.1324308E+04  0.7818609E-02  0.9010508E-01
       -1   -1    0    0    0  501  0.00000000000E+00  0.00000000000E+00  0.26124420741E+03  0.26124420746E+03  0.50400001928E-02 0. -1.
        1   -1    0    0  501    0  0.00000000000E+00  0.00000000000E+00 -0.16783073789E+04  0.16783073789E+04  0.50400001928E-02 0.  1.
    10030    2    1    2    0    0  0.00000000000E+00  0.00000000000E+00 -0.14170631715E+04  0.19395515864E+04  0.13243082437E+04 0.  0.
        2    1    3    3  502    0  0.65156705761E+03  0.10066792883E+03 -0.79850978229E+03  0.10355151061E+04  0.25500000920E-02 0. -1.
       -2    1    3    3    0  502 -0.65156705761E+03 -0.10066792883E+03 -0.61855338922E+03  0.90403648034E+03  0.25500000920E-02 0.  1.
</event>
<event>
 5   0  0.3262927E-03  0.1131081E+04  0.7818609E-02  0.9175417E-01
        2   -1    0    0  501    0  0.00000000000E+00  0.00000000000E+00  0.89557929406E+03  0.89557929406E+03  0.25500000920E-02 0. -1.
       -2   -1    0    0    0  501  0.00000000000E+00  0.00000000000E+00 -0.35712749643E+03  0.35712749644E+03  0.25500000920E-02 0.  1.
    10030    2    1    2    0    0  0.00000000000E+00  0.00000000000E+00  0.53845179763E+03  0.12527067905E+04  0.11310808833E+04 0.  0.
        3    1    3    3  502    0 -0.16264480439E+03 -0.48910624572E+03  0.52696837197E+03  0.73713901487E+03  0.10100000352E+00 0. -1.
       -3    1    3    3    0  502  0.16264480439E+03  0.48910624572E+03  0.11483425670E+02  0.51556777563E+03  0.10100000352E+00 0.  1.
</event>
<event>
 5   0  0.3259968E-03  0.1310902E+04  0.7818609E-02  0.9020964E-01
        2   -1    0    0  501    0  0.00000000000E+00  0.00000000000E+00  0.32595590734E+03  0.32595590735E+03  0.25500000920E-02 0. -1.
       -2   -1    0    0    0  501  0.00000000000E+00  0.00000000000E+00 -0.13180195794E+04  0.13180195794E+04  0.25500000920E-02 0.  1.
    10030    2    1    2    0    0  0.00000000000E+00  0.00000000000E+00 -0.99206367210E+03  0.16439754868E+04  0.13109023883E+04 0.  0.
        4    1    3    3  502    0  0.52641122443E+03 -0.18268270682E+03 -0.63178417864E+02  0.56078059342E+03  0.12699999809E+01 0.  1.
       -4    1    3    3    0  502 -0.52641122443E+03  0.18268270682E+03 -0.92888525423E+03  0.10831948934E+04  0.12699999809E+01 0. -1.
</event>
<event>
 5   0  0.3259968E-03  0.1354608E+04  0.7818609E-02  0.8987347E-01
       -2   -1    0    0    0  501  0.00000000000E+00  0.00000000000E+00  0.92929697648E+03  0.92929697648E+03  0.25500000920E-02 0.  1.
        2   -1    0    0  501    0  0.00000000000E+00  0.00000000000E+00 -0.49364307351E+03  0.49364307352E+03  0.25500000920E-02 0. -1.
    10030    2    1    2    0    0  0.00000000000E+00  0.00000000000E+00  0.43565390297E+03  0.14229400500E+04  0.13546084537E+04 0.  0.
        4    1    3    3  502    0 -0.26281653918E+03 -0.51093662176E+03  0.59454052440E+03  0.82680639377E+03  0.12699999809E+01 0.  1.
       -4    1    3    3    0  502  0.26281653918E+03  0.51093662176E+03 -0.15888662143E+03  0.59613365623E+03  0.12699999809E+01 0. -1.
</event>
<event>
 5   0  0.1873488E-03  0.1301615E+04  0.7818609E-02  0.9028285E-01
        1   -1    0    0  501    0  0.00000000000E+00  0.00000000000E+00  0.96270131168E+03  0.96270131170E+03  0.50400001928E-02 0.  1.
       -1   -1    0    0    0  501  0.00000000000E+00  0.00000000000E+00 -0.43996034172E+03  0.43996034175E+03  0.50400001928E-02 0. -1.
    10030    2    1    2    0    0  0.00000000000E+00  0.00000000000E+00  0.52274096996E+03  0.14026616534E+04  0.13016149939E+04 0.  0.
        3    1    3    3  502    0  0.48632664982E+03  0.34217827965E+03 -0.23643868616E+02  0.59511228194E+03  0.10100000352E+00 0. -1.
       -3    1    3    3    0  502 -0.48632664982E+03 -0.34217827965E+03  0.54638483858E+03  0.80754937151E+03  0.10100000352E+00 0.  1.
</event>
<event>
 5   0  0.1857986E-03  0.1264101E+04  0.7818609E-02  0.9058528E-01
        1   -1    0    0  501    0  0.00000000000E+00  0.00000000000E+00  0.13860560471E+04  0.13860560471E+04  0.50400001928E-02 0.  1.
       -1   -1    0    0    0  501  0.00000000000E+00  0.00000000000E+00 -0.28821913638E+03  0.28821913642E+03  0.50400001928E-02 0. -1.
    10030    2    1    2    0    0  0.00000000000E+00  0.00000000000E+00  0.10978369107E+04  0.16742751835E+04  0.12641010670E+04 0.  0.
        1    1    3    3  502    0  0.52157258170E+03  0.29119374738E+03  0.82246782532E+03  0.10165063110E+04  0.50400001928E-02 0. -1.
       -1    1    3    3    0  502 -0.52157258170E+03 -0.29119374738E+03  0.27536908536E+03  0.65776887255E+03  0.50400001928E-02 0.  1.
</event>
<event>
 5   0  0.1823154E-03  0.9572057E+03  0.7818609E-02  0.9356768E-01
        1   -1    0    0  501    0  0.00000000000E+00  0.00000000000E+00  0.46342494510E+03  0.46342494513E+03  0.50400001928E-02 0. -1.
       -1   -1    0    0    0  501  0.00000000000E+00  0.00000000000E+00 -0.49427780886E+03  0.49427780889E+03  0.50400001928E-02 0.  1.
    10030    2    1    2    0    0  0.00000000000E+00  0.00000000000E+00 -0.30852863761E+02  0.95770275401E+03  0.95720565494E+03 0.  0.
        2    1    3    3  502    0  0.83992376550E+02  0.20159754048E+03  0.41066370080E+03  0.46512467448E+03  0.25500000920E-02 0. -1.
       -2    1    3    3    0  502 -0.83992376550E+02 -0.20159754048E+03 -0.44151656456E+03  0.49257807953E+03  0.25500000920E-02 0.  1.
</event>
<event>
 5   0  0.3336609E-03  0.1311231E+04  0.7818609E-02  0.9020706E-01
        2   -1    0    0  501    0  0.00000000000E+00  0.00000000000E+00  0.91775183647E+03  0.91775183647E+03  0.25500000920E-02 0.  1.
       -2   -1    0    0    0  501  0.00000000000E+00  0.00000000000E+00 -0.46835293264E+03  0.46835293264E+03  0.25500000920E-02 0. -1.
    10030    2    1    2    0    0  0.00000000000E+00  0.00000000000E+00  0.44939890383E+03  0.13861047691E+04  0.13112311223E+04 0.  0.
        1    1    3    3  502    0 -0.40841695990E+02  0.11422921591E+03  0.90578432521E+03  0.91387176437E+03  0.50400001928E-02 0.  1.
       -1    1    3    3    0  502  0.40841695990E+02 -0.11422921591E+03 -0.45638542138E+03  0.47223300474E+03  0.50400001928E-02 0. -1.
</event>
<event>
 5   0  0.3259968E-03  0.1301220E+04  0.7818609E-02  0.9028599E-01
       -2   -1    0    0    0  501  0.00000000000E+00  0.00000000000E+00  0.28156864821E+03  0.28156864823E+03  0.25500000920E-02 0. -1.
        2   -1    0    0  501    0  0.00000000000E+00  0.00000000000E+00 -0.15033389991E+04  0.15033389991E+04  0.25500000920E-02 0.  1.
    10030    2    1    2    0    0  0.00000000000E+00  0.00000000000E+00 -0.12217703508E+04  0.17849076473E+04  0.13012196276E+04 0.  0.
        4    1    3    3  502    0 -0.30250120378E+03 -0.50431775694E+03 -0.99262778409E+03  0.11537568673E+04  0.12699999809E+01 0.  1.
       -4    1    3    3    0  502  0.30250120378E+03  0.50431775694E+03 -0.22914256675E+03  0.63115077996E+03  0.12699999809E+01 0. -1.
</event>
<event>
 5   0  0.1814770E-03  0.1305592E+04  0.7818609E-02  0.9025142E-01
       -1   -1    0    0    0  501  0.00000000000E+00  0.00000000000E+00  0.25788780445E+04  0.25788780445E+04  0.50400001928E-02 0.  1.
        1   -1    0    0  501    0  0.00000000000E+00  0.00000000000E+00 -0.16524339343E+03  0.16524339351E+03  0.50400001928E-02 0. -1.
    10030    2    1    2    0    0  0.00000000000E+00  0.00000000000E+00  0.24136346511E+04  0.27441214380E+04  0.13055919109E+04 0.  0.
        5    1    3    3  502    0 -0.22010000172E+03 -0.74465838714E+02 -0.75347843153E+02  0.24431242162E+03  0.46999998093E+01 0. -1.
       -5    1    3    3    0  502  0.22010000172E+03  0.74465838714E+02  0.24889824943E+04  0.24998090164E+04  0.46999998093E+01 0.  1.
</event>
<event>
 5   0  0.3336609E-03  0.1390644E+04  0.7818609E-02  0.8960619E-01
       -2   -1    0    0    0  501  0.00000000000E+00  0.00000000000E+00  0.27953446055E+03  0.27953446056E+03  0.25500000920E-02 0.  1.
        2   -1    0    0  501    0  0.00000000000E+00  0.00000000000E+00 -0.17295625948E+04  0.17295625948E+04  0.25500000920E-02 0. -1.
    10030    2    1    2    0    0  0.00000000000E+00  0.00000000000E+00 -0.14500281343E+04  0.20090970554E+04  0.13906435157E+04 0.  0.
        1    1    3    3  502    0  0.43710769074E+03  0.55533429978E+02  0.52088371612E+02  0.44368941122E+03  0.50400001928E-02 0.  1.
       -1    1    3    3    0  502 -0.43710769074E+03 -0.55533429978E+02 -0.15021165059E+04  0.15654076442E+04  0.50400001928E-02 0. -1.
</event>
<event>
 5   0  0.1873488E-03  0.1193216E+04  0.7818609E-02  0.9118816E-01
        1   -1    0    0  501    0  0.00000000000E+00  0.00000000000E+00  0.87337267414E+03  0.87337267415E+03  0.50400001928E-02 0.  1.
       -1   -1    0    0    0  501  0.00000000000E+00  0.00000000000E+00 -0.40754754338E+03  0.40754754341E+03  0.50400001928E-02 0. -1.
    10030    2    1    2    0    0  0.00000000000E+00  0.00000000000E+00  0.46582513075E+03  0.12809202176E+04  0.11932156349E+04 0.  0.
        3    1    3    3  502    0  0.13795804076E+03  0.99891410582E+02 -0.38089274354E+03  0.41724094621E+03  0.10100000352E+00 0. -1.
       -3    1    3    3    0  502 -0.13795804076E+03 -0.99891410582E+02  0.84671787429E+03  0.86367927135E+03  0.10100000352E+00 0.  1.
</event>
<event>
 5   0  0.1814770E-03  0.1298383E+04  0.7818609E-02  0.9030848E-01
       -1   -1    0    0    0  501  0.00000000000E+00  0.00000000000E+00  0.16504865239E+04  0.16504865239E+04  0.50400001928E-02 0.  1.
        1   -1    0    0  501    0  0.00000000000E+00  0.00000000000E+00 -0.25534888670E+03  0.25534888675E+03  0.50400001928E-02 0. -1.
    10030    2    1    2    0    0  0.00000000000E+00  0.00000000000E+00  0.13951376372E+04  0.19058354106E+04  0.12983834510E+04 0.  0.
        5    1    3    3  502    0  0.38202362892E+03 -0.49165373699E+03  0.42785773437E+03  0.75547983494E+03  0.46999998093E+01 0. -1.
       -5    1    3    3    0  502 -0.38202362892E+03  0.49165373699E+03  0.96727990281E+03  0.11503555757E+04  0.46999998093E+01 0.  1.
</event>
<event>
 5   0  0.1814770E-03  0.1293973E+04  0.7818609E-02  0.9034358E-01
       -1   -1    0    0    0  501  0.00000000000E+00  0.00000000000E+00  0.29801039020E+03  0.29801039024E+03  0.50400001928E-02 0. -1.
        1   -1    0    0  501    0  0.00000000000E+00  0.00000000000E+00 -0.14046213845E+04  0.14046213845E+04  0.50400001928E-02 0.  1.
    10030    2    1    2    0    0  0.00000000000E+00  0.00000000000E+00 -0.11066109943E+04  0.17026317748E+04  0.12939733644E+04 0.  0.
        5    1    3    3  502    0  0.15066756423E+03 -0.17735054857E+03  0.24101169714E+03  0.33505620446E+03  0.46999998093E+01 0. -1.
       -5    1    3    3    0  502 -0.15066756423E+03  0.17735054857E+03 -0.13476226915E+04  0.13675755703E+04  0.46999998093E+01 0.  1.
</event>
<event>
 5   0  0.3294720E-03  0.1295668E+04  0.7818609E-02  0.9033008E-01
        2   -1    0    0  501    0  0.00000000000E+00  0.00000000000E+00  0.12083038521E+04  0.12083038521E+04  0.25500000920E-02 0. -1.
       -2   -1    0    0    0  501  0.00000000000E+00  0.00000000000E+00 -0.34733702991E+03  0.34733702992E+03  0.25500000920E-02 0.  1.
    10030    2    1    2    0    0  0.00000000000E+00  0.00000000000E+00  0.86096682217E+03  0.15556408820E+04  0.12956676599E+04 0.  0.
        5    1    3    3  502    0 -0.23281530813E+03 -0.13232793113E+03 -0.27774929621E+03  0.38585024375E+03  0.46999998093E+01 0.  1.
       -5    1    3    3    0  502  0.23281530813E+03  0.13232793113E+03  0.11387161184E+04  0.11697906382E+04  0.46999998093E+01 0. -1.
</event>
<event>
 5   0  0.3294720E-03  0.1252455E+04  0.7818609E-02  0.9068143E-01
        2   -1    0    0  501    0  0.00000000000E+00  0.00000000000E+00  0.87177727023E+03  0.87177727024E+03  0.25500000920E-02 0.  1.
       -2   -1    0    0    0  501  0.00000000000E+00  0.00000000000E+00 -0.44984058831E+03  0.44984058831E+03  0.25500000920E-02 0. -1.
    10030    2    1    2    0    0  0.00000000000E+00  0.00000000000E+00  0.42193668193E+03  0.13216178586E+04  0.12524548696E+04 0.  0.
        5    1    3    3  502    0 -0.38689271721E+03 -0.45713566918E+02  0.72831020736E+03  0.82597430527E+03  0.46999998093E+01 0.  1.
       -5    1    3    3    0  502  0.38689271721E+03  0.45713566918E+02 -0.30637352543E+03  0.49564355328E+03  0.46999998093E+01 0. -1.
</event>
<event>
 5   0  0.3259968E-03  0.1311230E+04  0.7818609E-02  0.9020707E-01
        2   -1    0    0  501    0  0.00000000000E+00  0.00000000000E+00  0.53160780019E+03  0.53160780020E+03  0.25500000920E-02 0. -1.
       -2   -1    0    0    0  501  0.00000000000E+00  0.00000000000E+00 -0.80854937824E+03  0.80854937824E+03  0.25500000920E-02 0.  1.
    10030    2    1    2    0    0  0.00000000000E+00  0.00000000000E+00 -0.27694157805E+03  0.13401571784E+04  0.13112301954E+04 0.  0.
        4    1    3    3  502    0 -0.19315833351E+03  0.59145121083E+03 -0.34968127758E+03  0.71372493678E+03  0.12699999809E+01 0.  1.
       -4    1    3    3    0  502  0.19315833351E+03 -0.59145121083E+03  0.72739699535E+02  0.62643224166E+03  0.12699999809E+01 0. -1.
</event>
<event>
 5   0  0.1857986E-03  0.1272130E+04  0.7818609E-02  0.9051963E-01
        1   -1    0    0  501    0  0.00000000000E+00  0.00000000000E+00  0.49033750226E+03  0.49033750228E+03  0.50400001928E-02 0. -1.
       -1   -1    0    0    0  501  0.00000000000E+00  0.00000000000E+00 -0.82510238681E+03  0.82510238682E+03  0.50400001928E-02 0.  1.
    10030    2    1    2    0    0  0.00000000000E+00  0.00000000000E+00 -0.33476488455E+03  0.13154398891E+04  0.12721299359E+04 0.  0.
        1    1    3    3  502    0  0.55486718381E+03  0.13548710438E+03  0.12204734582E+03  0.58406326864E+03  0.50400001928E-02 0. -1.
       -1    1    3    3    0  502 -0.55486718381E+03 -0.13548710438E+03 -0.45681223036E+03  0.73137662047E+03  0.50400001928E-02 0.  1.
</event>
<event>
 5   0  0.3294720E-03  0.1269140E+04  0.7818609E-02  0.9054402E-01
        2   -1    0    0  501    0  0.00000000000E+00  0.00000000000E+00  0.31030779632E+03  0.31030779633E+03  0.25500000920E-02 0.  1.
       -2   -1    0    0    0  501  0.00000000000E+00  0.00000000000E+00 -0.12976763204E+04  0.12976763204E+04  0.25500000920E-02 0. -1.
    10030    2    1    2    0    0  0.00000000000E+00  0.00000000000E+00 -0.98736852405E+03  0.16079841167E+04  0.12691399912E+04 0.  0.
        5    1    3    3  502    0  0.15420059197E+03 -0.21447478936E+02  0.28571284818E+03  0.32541010822E+03  0.46999998093E+01 0.  1.
       -5    1    3    3    0  502 -0.15420059197E+03  0.21447478936E+02 -0.12730813722E+04  0.12825740085E+04  0.46999998093E+01 0. -1.
</event>
<event>
 5   0  0.1814770E-03  0.1233914E+04  0.7818609E-02  0.9083679E-01
        1   -1    0    0  501    0  0.00000000000E+00  0.00000000000E+00  0.43521588531E+03  0.43521588534E+03  0.50400001928E-02 0. -1.
       -1   -1    0    0    0  501  0.00000000000E+00  0.00000000000E+00 -0.87459104102E+03  0.87459104104E+03  0.50400001928E-02 0.  1.
    10030    2    1    2    0    0  0.00000000000E+00  0.00000000000E+00 -0.43937515571E+03  0.13098069264E+04  0.12339139585E+04 0.  0.
        5    1    3    3  502    0  0.16544890146E+03  0.54150861377E+03  0.40346497141E+02  0.56767494890E+03  0.46999998093E+01 0. -1.
       -5    1    3    3    0  502 -0.16544890146E+03 -0.54150861377E+03 -0.47972165285E+03  0.74213197748E+03  0.46999998093E+01 0.  1.
</event>
<event>
 5   0  0.3262927E-03  0.1286222E+04  0.7818609E-02  0.9040563E-01
       -2   -1    0    0    0  501  0.00000000000E+00  0.00000000000E+00  0.56158394074E+03  0.56158394075E+03  0.25500000920E-02 0.  1.
        2   -1    0    0  501    0  0.00000000000E+00  0.00000000000E+00 -0.73647352200E+03  0.73647352200E+03  0.25500000920E-02 0. -1.
    10030    2    1    2    0    0  0.00000000000E+00  0.00000000000E+00 -0.17488958125E+03  0.12980574627E+04  0.12862219136E+04 0.  0.
        3    1    3    3  502    0  0.28138466055E+03 -0.46785670644E+03 -0.43046128310E+03  0.69524395100E+03  0.10100000352E+00 0. -1.
       -3    1    3    3    0  502 -0.28138466055E+03  0.46785670644E+03  0.25557170185E+03  0.60281351174E+03  0.10100000352E+00 0.  1.
</event>
<event>
 5   0  0.3294720E-03  0.1458812E+04  0.7818609E-02  0.8912314E-01
       -2   -1    0    0    0  501  0.00000000000E+00  0.00000000000E+00  0.44987678370E+03  0.44987678371E+03  0.25500000920E-02 0. -1.
        2   -1    0    0  501    0  0.00000000000E+00  0.00000000000E+00 -0.11826197419E+04  0.11826197419E+04  0.25500000920E-02 0.  1.
    10030    2    1    2    0    0  0.00000000000E+00  0.00000000000E+00 -0.73274295817E+03  0.16324965256E+04  0.14588120726E+04 0.  0.
        5    1    3    3  502    0  0.23305845245E+02 -0.35194994633E+03  0.34807475446E+03  0.49557043076E+03  0.46999998093E+01 0. -1.
       -5    1    3    3    0  502 -0.23305845245E+02  0.35194994633E+03 -0.10808177126E+04  0.11369260948E+04  0.46999998093E+01 0.  1.
</event>
<event>
 5   0  0.1803959E-03  0.1302484E+04  0.7818609E-02  0.9027597E-01
       -1   -1    0    0    0  501  0.00000000000E+00  0.00000000000E+00  0.35233114710E+03  0.35233114714E+03  0.50400001928E-02 0. -1.
        1   -1    0    0  501    0  0.00000000000E+00  0.00000000000E+00 -0.12037438363E+04  0.12037438363E+04  0.50400001928E-02 0.  1.
    10030    2    1    2    0    0  0.00000000000E+00  0.00000000000E+00 -0.85141268916E+03  0.15560749834E+04  0.13024844670E+04 0.  0.
        4    1    3    3  502    0 -0.51531708879E+03 -0.11350139966E+03 -0.88169997388E+03  0.10275362410E+04  0.12699999809E+01 0. -1.
       -4    1    3    3    0  502  0.51531708879E+03  0.11350139966E+03  0.30287284719E+02  0.52853874242E+03  0.12699999809E+01 0.  1.
</event>
<event>
 5   0  0.3262927E-03  0.1231718E+04  0.7818609E-02  0.9085538E-01
       -2   -1    0    0    0  501  0.00000000000E+00  0.00000000000E+00  0.23607442738E+03  0.23607442739E+03  0.25500000920E-02 0. -1.
        2   -1    0    0  501    0  0.00000000000E+00  0.00000000000E+00 -0.16066216311E+04  0.16066216311E+04  0.25500000920E-02 0.  1.
    10030    2    1    2    0    0  0.00000000000E+00  0.00000000000E+00 -0.13705472037E+04  0.18426960584E+04  0.12317179573E+04 0.  0.
        3    1    3    3  502    0  0.38651907842E+03  0.38149925741E+03 -0.11197522865E+04  0.12445014563E+04  0.10100000352E+00 0. -1.
       -3    1    3    3    0  502 -0.38651907842E+03 -0.38149925741E+03 -0.25079491722E+03  0.59819460220E+03  0.10100000352E+00 0.  1.
</event>
<event>
 5   0  0.3299104E-03  0.1318519E+04  0.7818609E-02  0.9015007E-01
       -2   -1    0    0    0  501  0.00000000000E+00  0.00000000000E+00  0.64892078186E+03  0.64892078186E+03  0.25500000920E-02 0.  1.
        2   -1    0    0  501    0  0.00000000000E+00  0.00000000000E+00 -0.66976324883E+03  0.66976324883E+03  0.25500000920E-02 0. -1.
    10030    2    1    2    0    0  0.00000000000E+00  0.00000000000E+00 -0.20842466970E+02  0.13186840307E+04  0.13185193075E+04 0.  0.
        2    1    3    3  502    0 -0.31630578614E+03  0.45468943483E+03 -0.36800115554E+03  0.66499374657E+03  0.25500000920E-02 0. -1.
       -2    1    3    3    0  502  0.31630578614E+03 -0.45468943483E+03  0.34715868857E+03  0.65369028412E+03  0.25500000920E-02 0.  1.
</event>
<event>
 5   0  0.3259968E-03  0.1348749E+04  0.7818609E-02  0.8991776E-01
        2   -1    0    0  501    0  0.00000000000E+00  0.00000000000E+00  0.69975884995E+03  0.69975884995E+03  0.25500000920E-02 0.  1.
       -2   -1    0    0    0  501  0.00000000000E+00  0.00000000000E+00 -0.64991105733E+03  0.64991105733E+03  0.25500000920E-02 0. -1.
    10030    2    1    2    0    0  0.00000000000E+00  0.00000000000E+00  0.49847792618E+02  0.13496699073E+04  0.13487490709E+04 0.  0.
        4    1    3    3  502    0  0.35365180207E+01  0.40620196054E+02 -0.64867525853E+03  0.64995669949E+03  0.12699999809E+01 0. -1.
       -4    1    3    3    0  502 -0.35365180207E+01 -0.40620196054E+02  0.69852305114E+03  0.69971320780E+03  0.12699999809E+01 0.  1.
</event>
<event>
 5   0  0.3262927E-03  0.1212722E+04  0.7818609E-02  0.9101793E-01
        2   -1    0    0  501    0  0.00000000000E+00  0.00000000000E+00  0.70366907369E+03  0.70366907370E+03  0.25500000920E-02 0.  1.
       -2   -1    0    0    0  501  0.00000000000E+00  0.00000000000E+00 -0.52250920459E+03  0.52250920460E+03  0.25500000920E-02 0. -1.
    10030    2    1    2    0    0  0.00000000000E+00  0.00000000000E+00  0.18115986910E+03  0.12261782783E+04  0.12127218444E+04 0.  0.
        3    1    3    3  502    0  0.58477398127E+03 -0.15111496022E+03  0.14481482394E+03  0.62110199147E+03  0.10100000352E+00 0.  1.
       -3    1    3    3    0  502 -0.58477398127E+03  0.15111496022E+03  0.36345045156E+02  0.60507628683E+03  0.10100000352E+00 0. -1.
</event>
<event>
 5   0  0.3336609E-03  0.1237063E+04  0.7818609E-02  0.9081020E-01
       -2   -1    0    0    0  501  0.00000000000E+00  0.00000000000E+00  0.34569428246E+03  0.34569428247E+03  0.25500000920E-02 0.  1.
        2   -1    0    0  501    0  0.00000000000E+00  0.00000000000E+00 -0.11067044825E+04  0.11067044825E+04  0.25500000920E-02 0. -1.
    10030    2    1    2    0    0  0.00000000000E+00  0.00000000000E+00 -0.76101020006E+03  0.14523987650E+04  0.12370633161E+04 0.  0.
        1    1    3    3  502    0 -0.49124226045E+03 -0.92098701912E+02  0.47314558542E+02  0.50203565294E+03  0.50400001928E-02 0.  1.
       -1    1    3    3    0  502  0.49124226045E+03  0.92098701912E+02 -0.80832475861E+03  0.95036311205E+03  0.50400001928E-02 0. -1.
</event>
<event>
 5   0  0.3336609E-03  0.1207269E+04  0.7818609E-02  0.9106518E-01
       -2   -1    0    0    0  501  0.00000000000E+00  0.00000000000E+00  0.30211849389E+03  0.30211849390E+03  0.25500000920E-02 0. -1.
        2   -1    0    0  501    0  0.00000000000E+00  0.00000000000E+00 -0.12060647404E+04  0.12060647404E+04  0.25500000920E-02 0.  1.
    10030    2    1    2    0    0  0.00000000000E+00  0.00000000000E+00 -0.90394624650E+03  0.15081832343E+04  0.12072687570E+04 0.  0.
        1    1    3    3  502    0 -0.38174317795E+03  0.46748119744E+03 -0.46495206742E+03  0.76187069040E+03  0.50400001928E-02 0. -1.
       -1    1    3    3    0  502  0.38174317795E+03 -0.46748119744E+03 -0.43899417908E+03  0.74631254388E+03  0.50400001928E-02 0.  1.
</event>
<event>
 5   0  0.1857986E-03  0.1319023E+04  0.7818609E-02  0.9014615E-01
        1   -1    0    0  501    0  0.00000000000E+00  0.00000000000E+00  0.55135433913E+03  0.55135433915E+03  0.50400001928E-02 0.  1.
       -1   -1    0    0    0  501  0.00000000000E+00  0.00000000000E+00 -0.78888504860E+03  0.78888504861E+03  0.50400001928E-02 0. -1.
    10030    2    1    2    0    0  0.00000000000E+00  0.00000000000E+00 -0.23753070947E+03  0.13402393878E+04  0.13190226604E+04 0.  0.
        1    1    3    3  502    0 -0.43704666758E+03  0.48972982462E+03 -0.53624040215E+02  0.65857469469E+03  0.50400001928E-02 0. -1.
       -1    1    3    3    0  502  0.43704666758E+03 -0.48972982462E+03 -0.18390666925E+03  0.68166469308E+03  0.50400001928E-02 0.  1.
</event>
<event>
 5   0  0.1823154E-03  0.1306874E+04  0.7818609E-02  0.9024132E-01
        1   -1    0    0  501    0  0.00000000000E+00  0.00000000000E+00  0.72159972114E+03  0.72159972116E+03  0.50400001928E-02 0. -1.
       -1   -1    0    0    0  501  0.00000000000E+00  0.00000000000E+00 -0.59171252345E+03  0.59171252347E+03  0.50400001928E-02 0.  1.
    10030    2    1    2    0    0  0.00000000000E+00  0.00000000000E+00  0.12988719769E+03  0.13133122446E+04  0.13068735087E+04 0.  0.
        2    1    3    3  502    0 -0.20885499590E+03  0.10277322101E+03  0.67852269381E+03  0.71733938293E+03  0.25500000920E-02 0. -1.
       -2    1    3    3    0  502  0.20885499590E+03 -0.10277322101E+03 -0.54863549612E+03  0.59597286170E+03  0.25500000920E-02 0.  1.
</event>
<event>
 5   0  0.3336609E-03  0.1318294E+04  0.7818609E-02  0.9015183E-01
       -2   -1    0    0    0  501  0.00000000000E+00  0.00000000000E+00  0.20788039093E+03  0.20788039095E+03  0.25500000920E-02 0.  1.
        2   -1    0    0  501    0  0.00000000000E+00  0.00000000000E+00 -0.20900215223E+04  0.20900215223E+04  0.25500000920E-02 0. -1.
    10030    2    1    2    0    0  0.00000000000E+00  0.00000000000E+00 -0.18821411314E+04  0.22979019132E+04  0.13182935806E+04 0.  0.
        1    1    3    3  502    0  0.44082416156E+03  0.20901121126E+03 -0.17136792475E+04  0.17817710828E+04  0.50400001928E-02 0. -1.
       -1    1    3    3    0  502 -0.44082416156E+03 -0.20901121126E+03 -0.16846188380E+03  0.51613083048E+03  0.50400001928E-02 0.  1.
</event>
<event>
 5   0  0.1873488E-03  0.1295410E+04  0.7818609E-02  0.9033213E-01
        1   -1    0    0  501    0  0.00000000000E+00  0.00000000000E+00  0.69465436285E+03  0.69465436287E+03  0.50400001928E-02 0. -1.
       -1   -1    0    0    0  501  0.00000000000E+00  0.00000000000E+00 -0.60392895425E+03  0.60392895427E+03  0.50400001928E-02 0.  1.
    10030    2    1    2    0    0  0.00000000000E+00  0.00000000000E+00  0.90725408603E+02  0.12985833171E+04  0.12954101790E+04 0.  0.
        3    1    3    3  502    0 -0.18209684118E+03  0.45307660256E+03  0.47194497315E+03  0.67909479106E+03  0.10100000352E+00 0. -1.
       -3    1    3    3    0  502  0.18209684118E+03 -0.45307660256E+03 -0.38121956455E+03  0.61948852609E+03  0.10100000352E+00 0.  1.
</event>
<event>
 5   0  0.3294720E-03  0.1304467E+04  0.7818609E-02  0.9026030E-01
       -2   -1    0    0    0  501  0.00000000000E+00  0.00000000000E+00  0.10284660617E+04  0.10284660617E+04  0.25500000920E-02 0. -1.
        2   -1    0    0  501    0  0.00000000000E+00  0.00000000000E+00 -0.41363416969E+03  0.41363416970E+03  0.25500000920E-02 0.  1.
    10030    2    1    2    0    0  0.00000000000E+00  0.00000000000E+00  0.61483189201E+03  0.14421002314E+04  0.13044672560E+04 0.  0.
        5    1    3    3  502    0  0.32326317611E+03 -0.20772104536E+03  0.89003017954E+03  0.96944464731E+03  0.46999998093E+01 0. -1.
       -5    1    3    3    0  502 -0.32326317611E+03  0.20772104536E+03 -0.27519828753E+03  0.47265558409E+03  0.46999998093E+01 0.  1.
</event>
<event>
 5   0  0.1873488E-03  0.1315663E+04  0.7818609E-02  0.9017236E-01
        1   -1    0    0  501    0  0.00000000000E+00  0.00000000000E+00  0.62909852395E+03  0.62909852397E+03  0.50400001928E-02 0.  1.
       -1   -1    0    0    0  501  0.00000000000E+00  0.00000000000E+00 -0.68787630004E+03  0.68787630006E+03  0.50400001928E-02 0. -1.
    10030    2    1    2    0    0  0.00000000000E+00  0.00000000000E+00 -0.58777776086E+02  0.13169748240E+04  0.13156625176E+04 0.  0.
        3    1    3    3  502    0 -0.61656256563E+03  0.21298600741E+03 -0.11450027094E+03  0.66228600992E+03  0.10100000352E+00 0.  1.
       -3    1    3    3    0  502  0.61656256563E+03 -0.21298600741E+03  0.55722494857E+02  0.65468881411E+03  0.10100000352E+00 0. -1.
</event>
<event>
 5   0  0.3299104E-03  0.1067330E+04  0.7818609E-02  0.9237632E-01
       -2   -1    0    0    0  501  0.00000000000E+00  0.00000000000E+00  0.50951914297E+03  0.50951914298E+03  0.25500000920E-02 0.  1.
        2   -1    0    0  501    0  0.00000000000E+00  0.00000000000E+00 -0.55895552011E+03  0.55895552011E+03  0.25500000920E-02 0. -1.
    10030    2    1    2    0    0  0.00000000000E+00  0.00000000000E+00 -0.49436377132E+02  0.10684746631E+04  0.10673303848E+04 0.  0.
        2    1    3    3  502    0  0.23345221360E+03 -0.36170046314E+03 -0.34044714847E+03  0.54884553563E+03  0.25500000920E-02 0. -1.
       -2    1    3    3    0  502 -0.23345221360E+03  0.36170046314E+03  0.29101077134E+03  0.51962912746E+03  0.25500000920E-02 0.  1.
</event>
<event>
 5   0  0.1803959E-03  0.1258245E+04  0.7818609E-02  0.9063348E-01
        1   -1    0    0  501    0  0.00000000000E+00  0.00000000000E+00  0.13424039994E+04  0.13424039994E+04  0.50400001928E-02 0. -1.
       -1   -1    0    0    0  501  0.00000000000E+00  0.00000000000E+00 -0.29484070140E+03  0.29484070145E+03  0.50400001928E-02 0.  1.
    10030    2    1    2    0    0  0.00000000000E+00  0.00000000000E+00  0.10475632980E+04  0.16372447008E+04  0.12582453446E+04 0.  0.
        4    1    3    3  502    0  0.59502350933E+03  0.22037662790E+02  0.25948781959E+03  0.64951841902E+03  0.12699999809E+01 0. -1.
       -4    1    3    3    0  502 -0.59502350933E+03 -0.22037662790E+02  0.78807547837E+03  0.98772628179E+03  0.12699999809E+01 0.  1.
</event>
<event>
 5   0  0.1814770E-03  0.1300292E+04  0.7818609E-02  0.9029334E-01
       -1   -1    0    0    0  501  0.00000000000E+00  0.00000000000E+00  0.25642355672E+03  0.25642355677E+03  0.50400001928E-02 0.  1.
        1   -1    0    0  501    0  0.00000000000E+00  0.00000000000E+00 -0.16484043078E+04  0.16484043078E+04  0.50400001928E-02 0. -1.
    10030    2    1    2    0    0  0.00000000000E+00  0.00000000000E+00 -0.13919807511E+04  0.19048278646E+04  0.13002918066E+04 0.  0.
        5    1    3    3  502    0  0.51300141204E+03 -0.17988790271E+03 -0.17365223109E+03  0.57070771298E+03  0.46999998093E+01 0.  1.
       -5    1    3    3    0  502 -0.51300141204E+03  0.17988790271E+03 -0.12183285200E+04  0.13341201516E+04  0.46999998093E+01 0. -1.
</event>
<event>
 5   0  0.1857986E-03  0.1292127E+04  0.7818609E-02  0.9035832E-01
       -1   -1    0    0    0  501  0.00000000000E+00  0.00000000000E+00  0.85293721224E+03  0.85293721226E+03  0.50400001928E-02 0. -1.
        1   -1    0    0  501    0  0.00000000000E+00  0.00000000000E+00 -0.48936553696E+03  0.48936553699E+03  0.50400001928E-02 0.  1.
    10030    2    1    2    0    0  0.00000000000E+00  0.00000000000E+00  0.36357167528E+03  0.13423027492E+04  0.12921270478E+04 0.  0.
        1    1    3    3  502    0  0.16289243606E+03  0.40160753749E+02 -0.46634139130E+03  0.49560178080E+03  0.50400001928E-02 0.  1.
       -1    1    3    3    0  502 -0.16289243606E+03 -0.40160753749E+02  0.82991306658E+03  0.84670096845E+03  0.50400001928E-02 0. -1.
</event>
<event>
 5   0  0.1823154E-03  0.1289923E+04  0.7818609E-02  0.9037594E-01
       -1   -1    0    0    0  501  0.00000000000E+00  0.00000000000E+00  0.40638989797E+03  0.40638989800E+03  0.50400001928E-02 0. -1.
        1   -1    0    0  501    0  0.00000000000E+00  0.00000000000E+00 -0.10235875851E+04  0.10235875851E+04  0.50400001928E-02 0.  1.
    10030    2    1    2    0    0  0.00000000000E+00  0.00000000000E+00 -0.61719768710E+03  0.14299774831E+04  0.12899234928E+04 0.  0.
        2    1    3    3  502    0 -0.96880531620E+02  0.69092584394E+02 -0.10113132816E+04  0.10182898291E+04  0.25500000920E-02 0.  1.
       -2    1    3    3    0  502  0.96880531620E+02 -0.69092584394E+02  0.39411559446E+03  0.41168765397E+03  0.25500000920E-02 0. -1.
</event>
<event>
 5   0  0.3262927E-03  0.1299564E+04  0.7818609E-02  0.9029911E-01
        2   -1    0    0  501    0  0.00000000000E+00  0.00000000000E+00  0.23009333333E+04  0.23009333333E+04  0.25500000920E-02 0. -1.
       -2   -1    0    0    0  501  0.00000000000E+00  0.00000000000E+00 -0.18349786664E+03  0.18349786665E+03  0.25500000920E-02 0.  1.
    10030    2    1    2    0    0  0.00000000000E+00  0.00000000000E+00  0.21174354667E+04  0.24844312000E+04  0.12995635544E+04 0.  0.
        3    1    3    3  502    0 -0.30679026335E+03 -0.11355610505E+02  0.21535424979E+04  0.21753148085E+04  0.10100000352E+00 0. -1.
       -3    1    3    3    0  502  0.30679026335E+03  0.11355610505E+02 -0.36107031224E+02  0.30911639148E+03  0.10100000352E+00 0.  1.
</event>
<event>
 5   0  0.3336609E-03  0.1306660E+04  0.7818609E-02  0.9024300E-01
       -2   -1    0    0    0  501  0.00000000000E+00  0.00000000000E+00  0.73032780653E+03  0.73032780653E+03  0.25500000920E-02 0. -1.
        2   -1    0    0  501    0  0.00000000000E+00  0.00000000000E+00 -0.58445015328E+03  0.58445015329E+03  0.25500000920E-02 0.  1.
    10030    2    1    2    0    0  0.00000000000E+00  0.00000000000E+00  0.14587765325E+03  0.13147779598E+04  0.13066601677E+04 0.  0.
        1    1    3    3  502    0  0.46788835169E+03 -0.45442191336E+03  0.11087469026E+03  0.66159805166E+03  0.50400001928E-02 0. -1.
       -1    1    3    3    0  502 -0.46788835169E+03  0.45442191336E+03  0.35002962986E+02  0.65317990817E+03  0.50400001928E-02 0.  1.
</event>
<event>
 5   0  0.1823154E-03  0.1386958E+04  0.7818609E-02  0.8963313E-01
        1   -1    0    0  501    0  0.00000000000E+00  0.00000000000E+00  0.46912818388E+03  0.46912818391E+03  0.50400001928E-02 0.  1.
       -1   -1    0    0    0  501  0.00000000000E+00  0.00000000000E+00 -0.10251211373E+04  0.10251211373E+04  0.50400001928E-02 0. -1.
    10030    2    1    2    0    0  0.00000000000E+00  0.00000000000E+00 -0.55599295340E+03  0.14942493212E+04  0.13869581355E+04 0.  0.
        2    1    3    3  502    0 -0.51616950626E+03  0.31384284302E+03  0.88914321850E+02  0.61060138057E+03  0.25500000920E-02 0.  1.
       -2    1    3    3    0  502  0.51616950626E+03 -0.31384284302E+03 -0.64490727525E+03  0.88364794064E+03  0.25500000920E-02 0. -1.
</event>
<event>
 5   0  0.1803959E-03  0.1283480E+04  0.7818609E-02  0.9042769E-01
       -1   -1    0    0    0  501  0.00000000000E+00  0.00000000000E+00  0.19599955106E+03  0.19599955113E+03  0.50400001928E-02 0.  1.
        1   -1    0    0  501    0  0.00000000000E+00  0.00000000000E+00 -0.21011799533E+04  0.21011799533E+04  0.50400001928E-02 0. -1.
    10030    2    1    2    0    0  0.00000000000E+00  0.00000000000E+00 -0.19051804022E+04  0.22971795044E+04  0.12834801559E+04 0.  0.
        4    1    3    3  502    0  0.51798394766E+03 -0.12528934913E+03 -0.31269058925E+03  0.61788494766E+03  0.12699999809E+01 0.  1.
       -4    1    3    3    0  502 -0.51798394766E+03  0.12528934913E+03 -0.15924898130E+04  0.16792945568E+04  0.12699999809E+01 0. -1.
</event>
<event>
 5   0  0.1873488E-03  0.1290063E+04  0.7818609E-02  0.9037482E-01
       -1   -1    0    0    0  501  0.00000000000E+00  0.00000000000E+00  0.91595953029E+03  0.91595953030E+03  0.50400001928E-02 0.  1.
        1   -1    0    0  501    0  0.00000000000E+00  0.00000000000E+00 -0.45424040053E+03  0.45424040056E+03  0.50400001928E-02 0. -1.
    10030    2    1    2    0    0  0.00000000000E+00  0.00000000000E+00  0.46171912975E+03  0.13701999309E+04  0.12900632914E+04 0.  0.
        3    1    3    3  502    0 -0.20607876406E+03  0.60833537204E+03  0.16779591726E+03  0.66384927651E+03  0.10100000352E+00 0. -1.
       -3    1    3    3    0  502  0.20607876406E+03 -0.60833537204E+03  0.29392321249E+03  0.70635065436E+03  0.10100000352E+00 0.  1.
</event>
<event>
 5   0  0.1803959E-03  0.1324967E+04  0.7818609E-02  0.9009997E-01
        1   -1    0    0  501    0  0.00000000000E+00  0.00000000000E+00  0.13457680128E+04  0.13457680128E+04  0.50400001928E-02 0.  1.
       -1   -1    0    0    0  501  0.00000000000E+00  0.00000000000E+00 -0.32612185308E+03  0.32612185312E+03  0.50400001928E-02 0. -1.
    10030    2    1    2    0    0  0.00000000000E+00  0.00000000000E+00  0.10196461597E+04  0.16718898659E+04  0.13249669553E+04 0.  0.
        4    1    3    3  502    0 -0.23854617365E+03  0.19313407075E+03 -0.23099097072E+03  0.38413993245E+03  0.12699999809E+01 0. -1.
       -4    1    3    3    0  502  0.23854617365E+03 -0.19313407075E+03  0.12506371304E+04  0.12877499334E+04  0.12699999809E+01 0.  1.
</event>
<event>
 5   0  0.3299104E-03  0.1302167E+04  0.7818609E-02  0.9027849E-01
        2   -1    0    0  501    0  0.00000000000E+00  0.00000000000E+00  0.63301860186E+03  0.63301860186E+03  0.25500000920E-02 0.  1.
       -2   -1    0    0    0  501  0.00000000000E+00  0.00000000000E+00 -0.66966342093E+03  0.66966342093E+03  0.25500000920E-02 0. -1.
    10030    2    1    2    0    0  0.00000000000E+00  0.00000000000E+00 -0.36644819070E+02  0.13026820228E+04  0.13021665062E+04 0.  0.
        2    1    3    3  502    0  0.19951063780E+03  0.59682789506E+03  0.14878075534E+03  0.64664035142E+03  0.25500000920E-02 0.  1.
       -2    1    3    3    0  502 -0.19951063780E+03 -0.59682789506E+03 -0.18542557441E+03  0.65604167137E+03  0.25500000920E-02 0. -1.
</event>
<event>
 5   0  0.3336609E-03  0.1352008E+04  0.7818609E-02  0.8989310E-01
       -2   -1    0    0    0  501  0.00000000000E+00  0.00000000000E+00  0.27271922937E+03  0.27271922938E+03  0.25500000920E-02 0.  1.
        2   -1    0    0  501    0  0.00000000000E+00  0.00000000000E+00 -0.16756471365E+04  0.16756471365E+04  0.25500000920E-02 0. -1.
    10030    2    1    2    0    0  0.00000000000E+00  0.00000000000E+00 -0.14029279071E+04  0.19483663659E+04  0.13520076860E+04 0.  0.
        1    1    3    3  502    0 -0.18212493617E+03  0.29884212841E+03 -0.15349394296E+04  0.15743300679E+04  0.50400001928E-02 0. -1.
       -1    1    3    3    0  502  0.18212493617E+03 -0.29884212841E+03  0.13201152251E+03  0.37403629796E+03  0.50400001928E-02 0.  1.
</event>
<event>
 5   0  0.1254125E-03  0.1331834E+04  0.7818609E-02  0.9004695E-01
       -3   -1    0    0    0  501  0.00000000000E+00  0.00000000000E+00  0.46414158664E+03  0.46414159763E+03  0.10100000352E+00 0. -1.
        3   -1    0    0  501    0  0.00000000000E+00  0.00000000000E+00 -0.95540940589E+03  0.95540941123E+03  0.10100000352E+00 0.  1.
    10030    2    1    2    0    0  0.00000000000E+00  0.00000000000E+00 -0.49126781925E+03  0.14195510089E+04  0.13318336970E+04 0.  0.
        3    1    3    3  502    0  0.34905092945E+03 -0.35352859819E+03 -0.71826437946E+03  0.87333999685E+03  0.10100000352E+00 0.  1.
       -3    1    3    3    0  502 -0.34905092945E+03  0.35352859819E+03  0.22699656021E+03  0.54621101201E+03  0.10100000352E+00 0. -1.
</event>
<event>
 5   0  0.1857986E-03  0.1325599E+04  0.7818609E-02  0.9009508E-01
       -1   -1    0    0    0  501  0.00000000000E+00  0.00000000000E+00  0.80945430358E+03  0.80945430360E+03  0.50400001928E-02 0.  1.
        1   -1    0    0  501    0  0.00000000000E+00  0.00000000000E+00 -0.54271535720E+03  0.54271535722E+03  0.50400001928E-02 0. -1.
    10030    2    1    2    0    0  0.00000000000E+00  0.00000000000E+00  0.26673894638E+03  0.13521696608E+04  0.13255991574E+04 0.  0.
        1    1    3    3  502    0  0.11527177374E+03 -0.91218143039E+02  0.79261710785E+03  0.80613287435E+03  0.50400001928E-02 0.  1.
       -1    1    3    3    0  502 -0.11527177374E+03  0.91218143039E+02 -0.52587816147E+03  0.54603678646E+03  0.50400001928E-02 0. -1.
</event>
<event>
 5   0  0.3299104E-03  0.8737214E+03  0.7818609E-02  0.9459041E-01
       -2   -1    0    0    0  501  0.00000000000E+00  0.00000000000E+00  0.13247369590E+03  0.13247369593E+03  0.25500000920E-02 0. -1.
        2   -1    0    0  501    0  0.00000000000E+00  0.00000000000E+00 -0.14406427971E+04  0.14406427971E+04  0.25500000920E-02 0.  1.
    10030    2    1    2    0    0  0.00000000000E+00  0.00000000000E+00 -0.13081691012E+04  0.15731164930E+04  0.87372141059E+03 0.  0.
        2    1    3    3  502    0  0.20465443260E+03 -0.38471979871E+03 -0.59845834915E+03  0.74030071996E+03  0.25500000920E-02 0. -1.
       -2    1    3    3    0  502 -0.20465443260E+03  0.38471979871E+03 -0.70971075206E+03  0.83281577308E+03  0.25500000920E-02 0.  1.
</event>
<event>
 5   0  0.1873488E-03  0.1267087E+04  0.7818609E-02  0.9056080E-01
        1   -1    0    0  501    0  0.00000000000E+00  0.00000000000E+00  0.18566326660E+04  0.18566326660E+04  0.50400001928E-02 0. -1.
       -1   -1    0    0    0  501  0.00000000000E+00  0.00000000000E+00 -0.21618570479E+03  0.21618570485E+03  0.50400001928E-02 0.  1.
    10030    2    1    2    0    0  0.00000000000E+00  0.00000000000E+00  0.16404469612E+04  0.20728183708E+04  0.12670871185E+04 0.  0.
        3    1    3    3  502    0  0.18673028063E+03 -0.56796005406E+03  0.47734644973E+03  0.76505324258E+03  0.10100000352E+00 0.  1.
       -3    1    3    3    0  502 -0.18673028063E+03  0.56796005406E+03  0.11631005114E+04  0.13077651282E+04  0.10100000352E+00 0. -1.
</event>
<event>
 5   0  0.3336609E-03  0.1294856E+04  0.7818609E-02  0.9033655E-01
        2   -1    0    0  501    0  0.00000000000E+00  0.00000000000E+00  0.58802486524E+03  0.58802486525E+03  0.25500000920E-02 0. -1.
       -2   -1    0    0    0  501  0.00000000000E+00  0.00000000000E+00 -0.71283177269E+03  0.71283177270E+03  0.25500000920E-02 0.  1.
    10030    2    1    2    0    0  0.00000000000E+00  0.00000000000E+00 -0.12480690745E+03  0.13008566379E+04  0.12948556786E+04 0.  0.
        1    1    3    3  502    0  0.33208245839E+03  0.50461416130E+03  0.17158925424E+03  0.62797856902E+03  0.50400001928E-02 0.  1.
       -1    1    3    3    0  502 -0.33208245839E+03 -0.50461416130E+03 -0.29639616169E+03  0.67287806893E+03  0.50400001928E-02 0. -1.
</event>
<event>
 5   0  0.1873488E-03  0.1335232E+04  0.7818609E-02  0.9002084E-01
        1   -1    0    0  501    0  0.00000000000E+00  0.00000000000E+00  0.54005213118E+03  0.54005213120E+03  0.50400001928E-02 0. -1.
       -1   -1    0    0    0  501  0.00000000000E+00  0.00000000000E+00 -0.82531074458E+03  0.82531074460E+03  0.50400001928E-02 0.  1.
    10030    2    1    2    0    0  0.00000000000E+00  0.00000000000E+00 -0.28525861340E+03  0.13653628758E+04  0.13352315552E+04 0.  0.
        3    1    3    3  502    0  0.48480862861E+03 -0.15038610029E+03 -0.58606887493E+03  0.77532710639E+03  0.10100000352E+00 0.  1.
       -3    1    3    3    0  502 -0.48480862861E+03  0.15038610029E+03  0.30081026153E+03  0.59003576941E+03  0.10100000352E+00 0. -1.
</event>
<event>
 5   0  0.3294720E-03  0.1310929E+04  0.7818609E-02  0.9020943E-01
       -2   -1    0    0    0  501  0.00000000000E+00  0.00000000000E+00  0.33077073447E+03  0.33077073448E+03  0.25500000920E-02 0.  1.
        2   -1    0    0  501    0  0.00000000000E+00  0.00000000000E+00 -0.12988867953E+04  0.12988867953E+04  0.25500000920E-02 0. -1.
    10030    2    1    2    0    0  0.00000000000E+00  0.00000000000E+00 -0.96811606084E+03  0.16296575298E+04  0.13109290435E+04 0.  0.
        5    1    3    3  502    0 -0.54387094581E+03 -0.52644282414E+02 -0.34043263179E+02  0.54749252043E+03  0.46999998093E+01 0.  1.
       -5    1    3    3    0  502  0.54387094581E+03  0.52644282414E+02 -0.93407279766E+03  0.10821650094E+04  0.46999998093E+01 0. -1.
</event>
<event>
 5   0  0.3336609E-03  0.1265780E+04  0.7818609E-02  0.9057151E-01
       -2   -1    0    0    0  501  0.00000000000E+00  0.00000000000E+00  0.46664962340E+03  0.46664962341E+03  0.25500000920E-02 0.  1.
        2   -1    0    0  501    0  0.00000000000E+00  0.00000000000E+00 -0.85835270333E+03  0.85835270333E+03  0.25500000920E-02 0. -1.
    10030    2    1    2    0    0  0.00000000000E+00  0.00000000000E+00 -0.39170307993E+03  0.13250023267E+04  0.12657803376E+04 0.  0.
        1    1    3    3  502    0  0.56889217258E+03  0.82583910968E+02 -0.47298639928E+03  0.74442900286E+03  0.50400001928E-02 0. -1.
       -1    1    3    3    0  502 -0.56889217258E+03 -0.82583910968E+02  0.81283319349E+02  0.58057332388E+03  0.50400001928E-02 0.  1.
</event>
<event>
 5   0  0.1823154E-03  0.1298151E+04  0.7818609E-02  0.9031032E-01
        1   -1    0    0  501    0  0.00000000000E+00  0.00000000000E+00  0.86218295417E+03  0.86218295419E+03  0.50400001928E-02 0.  1.
       -1   -1    0    0    0  501  0.00000000000E+00  0.00000000000E+00 -0.48864244997E+03  0.48864244999E+03  0.50400001928E-02 0. -1.
    10030    2    1    2    0    0  0.00000000000E+00  0.00000000000E+00  0.37354050420E+03  0.13508254042E+04  0.12981512871E+04 0.  0.
        2    1    3    3  502    0  0.19070798736E+03  0.73160143187E+02  0.82786762569E+03  0.85269381883E+03  0.25500000920E-02 0.  1.
       -2    1    3    3    0  502 -0.19070798736E+03 -0.73160143187E+02 -0.45432712149E+03  0.49813158535E+03  0.25500000920E-02 0. -1.
</event>
<event>
 5   0  0.3299104E-03  0.1260101E+04  0.7818609E-02  0.9061818E-01
        2   -1    0    0  501    0  0.00000000000E+00  0.00000000000E+00  0.10235856900E+04  0.10235856900E+04  0.25500000920E-02 0.  1.
       -2   -1    0    0    0  501  0.00000000000E+00  0.00000000000E+00 -0.38781692965E+03  0.38781692966E+03  0.25500000920E-02 0. -1.
    10030    2    1    2    0    0  0.00000000000E+00  0.00000000000E+00  0.63576876031E+03  0.14114026196E+04  0.12601013602E+04 0.  0.
        2    1    3    3  502    0 -0.57258436441E+03  0.24897607102E+03  0.41240880018E+03  0.74827999891E+03  0.25500000920E-02 0.  1.
       -2    1    3    3    0  502  0.57258436441E+03 -0.24897607102E+03  0.22335996013E+03  0.66312262071E+03  0.25500000920E-02 0. -1.
</event>
<event>
 5   0  0.3336609E-03  0.1289097E+04  0.7818609E-02  0.9038256E-01
        2   -1    0    0  501    0  0.00000000000E+00  0.00000000000E+00  0.57634969967E+03  0.57634969968E+03  0.25500000920E-02 0.  1.
       -2   -1    0    0    0  501  0.00000000000E+00  0.00000000000E+00 -0.72081770141E+03  0.72081770141E+03  0.25500000920E-02 0. -1.
    10030    2    1    2    0    0  0.00000000000E+00  0.00000000000E+00 -0.14446800173E+03  0.12971674011E+04  0.12890974606E+04 0.  0.
        1    1    3    3  502    0  0.49053017646E+03  0.43904802996E+02  0.34617615600E+03  0.60198456521E+03  0.50400001928E-02 0.  1.
       -1    1    3    3    0  502 -0.49053017646E+03 -0.43904802996E+02 -0.49064415773E+03  0.69518283587E+03  0.50400001928E-02 0. -1.
</event>
<event>
 5   0  0.1823154E-03  0.1303208E+04  0.7818609E-02  0.9027025E-01
       -1   -1    0    0    0  501  0.00000000000E+00  0.00000000000E+00  0.12368892249E+04  0.12368892249E+04  0.50400001928E-02 0.  1.
        1   -1    0    0  501    0  0.00000000000E+00  0.00000000000E+00 -0.34327074995E+03  0.34327074999E+03  0.50400001928E-02 0. -1.
    10030    2    1    2    0    0  0.00000000000E+00  0.00000000000E+00  0.89361847494E+03  0.15801599749E+04  0.13032081827E+04 0.  0.
        2    1    3    3  502    0  0.59283510557E+03 -0.90549518050E+01  0.77453049599E+03  0.97541424214E+03  0.25500000920E-02 0.  1.
       -2    1    3    3    0  502 -0.59283510557E+03  0.90549518050E+01  0.11908797895E+03  0.60474573276E+03  0.25500000920E-02 0. -1.
</event>
<event>
 5   0  0.1803959E-03  0.1270593E+04  0.7818609E-02  0.9053216E-01
       -1   -1    0    0    0  501  0.00000000000E+00  0.00000000000E+00  0.59888853148E+03  0.59888853150E+03  0.50400001928E-02 0.  1.
        1   -1    0    0  501    0  0.00000000000E+00  0.00000000000E+00 -0.67391738906E+03  0.67391738908E+03  0.50400001928E-02 0. -1.
    10030    2    1    2    0    0  0.00000000000E+00  0.00000000000E+00 -0.75028857586E+02  0.12728059206E+04  0.12705926106E+04 0.  0.
        4    1    3    3  502    0  0.86232676105E+02  0.20602218642E+03  0.55826402080E+03  0.60128324901E+03  0.12699999809E+01 0.  1.
       -4    1    3    3    0  502 -0.86232676105E+02 -0.20602218642E+03 -0.63329287838E+03  0.67152267157E+03  0.12699999809E+01 0. -1.
</event>
<event>
 5   0  0.3294720E-03  0.1239789E+04  0.7818609E-02  0.9078725E-01
        2   -1    0    0  501    0  0.00000000000E+00  0.00000000000E+00  0.41726144867E+03  0.41726144868E+03  0.25500000920E-02 0. -1.
       -2   -1    0    0    0  501  0.00000000000E+00  0.00000000000E+00 -0.92093212192E+03  0.92093212192E+03  0.25500000920E-02 0.  1.
    10030    2    1    2    0    0  0.00000000000E+00  0.00000000000E+00 -0.50367067325E+03  0.13381935706E+04  0.12397894520E+04 0.  0.
        5    1    3    3  502    0 -0.50006519106E+03 -0.12175910960E+03 -0.62473739162E+03  0.80945004452E+03  0.46999998093E+01 0.  1.
       -5    1    3    3    0  502  0.50006519106E+03  0.12175910960E+03  0.12106671837E+03  0.52874352608E+03  0.46999998093E+01 0. -1.
</event>
<event>
 5   0  0.1873488E-03  0.1274617E+04  0.7818609E-02  0.9049939E-01
       -1   -1    0    0    0  501  0.00000000000E+00  0.00000000000E+00  0.39661496601E+03  0.39661496604E+03  0.50400001928E-02 0. -1.
        1   -1    0    0  501    0  0.00000000000E+00  0.00000000000E+00 -0.10240723200E+04  0.10240723200E+04  0.50400001928E-02 0.  1.
    10030    2    1    2    0    0  0.00000000000E+00  0.00000000000E+00 -0.62745735394E+03  0.14206872860E+04  0.12746174460E+04 0.  0.
        3    1    3    3  502    0 -0.19806514953E+03 -0.60110274718E+02  0.35810674737E+03  0.41362241392E+03  0.10100000352E+00 0. -1.
       -3    1    3    3    0  502  0.19806514953E+03  0.60110274718E+02 -0.98556410131E+03  0.10070648721E+04  0.10100000352E+00 0.  1.
</event>
<event>
 5   0  0.1873488E-03  0.1297249E+04  0.7818609E-02  0.9031750E-01
        1   -1    0    0  501    0  0.00000000000E+00  0.00000000000E+00  0.88342921152E+03  0.88342921153E+03  0.50400001928E-02 0.  1.
       -1   -1    0    0    0  501  0.00000000000E+00  0.00000000000E+00 -0.47622800451E+03  0.47622800453E+03  0.50400001928E-02 0. -1.
    10030    2    1    2    0    0  0.00000000000E+00  0.00000000000E+00  0.40720120701E+03  0.13596572161E+04  0.12972489823E+04 0.  0.
        3    1    3    3  502    0 -0.34146053461E+02 -0.64569293776E+03  0.25733490607E+03  0.69592139422E+03  0.10100000352E+00 0. -1.
       -3    1    3    3    0  502  0.34146053461E+02  0.64569293776E+03  0.14986630094E+03  0.66373582185E+03  0.10100000352E+00 0.  1.
</event>
<event>
 5   0  0.3262927E-03  0.1296669E+04  0.7818609E-02  0.9032211E-01
       -2   -1    0    0    0  501  0.00000000000E+00  0.00000000000E+00  0.44084821400E+03  0.44084821401E+03  0.25500000920E-02 0.  1.
        2   -1    0    0  501    0  0.00000000000E+00  0.00000000000E+00 -0.95347402380E+03  0.95347402381E+03  0.25500000920E-02 0. -1.
    10030    2    1    2    0    0  0.00000000000E+00  0.00000000000E+00 -0.51262580980E+03  0.13943222378E+04  0.12966685320E+04 0.  0.
        3    1    3    3  502    0  0.26763955585E+03 -0.19793781790E+03  0.34193811937E+03  0.47721274008E+03  0.10100000352E+00 0.  1.
       -3    1    3    3    0  502 -0.26763955585E+03  0.19793781790E+03 -0.85456392917E+03  0.91710949774E+03  0.10100000352E+00 0. -1.
</event>
<event>
 5   0  0.3294720E-03  0.1258505E+04  0.7818609E-02  0.9063134E-01
       -2   -1    0    0    0  501  0.00000000000E+00  0.00000000000E+00  0.45179533935E+03  0.45179533936E+03  0.25500000920E-02 0. -1.
        2   -1    0    0  501    0  0.00000000000E+00  0.00000000000E+00 -0.87641112960E+03  0.87641112961E+03  0.25500000920E-02 0.  1.
    10030    2    1    2    0    0  0.00000000000E+00  0.00000000000E+00 -0.42461579026E+03  0.13282064690E+04  0.12585046106E+04 0.  0.
        5    1    3    3  502    0  0.28645588271E+03  0.20588572221E+03 -0.76221341001E+03  0.83990313474E+03  0.46999998093E+01 0.  1.
       -5    1    3    3    0  502 -0.28645588271E+03 -0.20588572221E+03  0.33759761976E+03  0.48830333422E+03  0.46999998093E+01 0. -1.
</event>
<event>
 5   0  0.1814770E-03  0.1292207E+04  0.7818609E-02  0.9035768E-01
       -1   -1    0    0    0  501  0.00000000000E+00  0.00000000000E+00  0.48064004735E+03  0.48064004738E+03  0.50400001928E-02 0.  1.
        1   -1    0    0  501    0  0.00000000000E+00  0.00000000000E+00 -0.86852940805E+03  0.86852940807E+03  0.50400001928E-02 0. -1.
    10030    2    1    2    0    0  0.00000000000E+00  0.00000000000E+00 -0.38788936070E+03  0.13491694554E+04  0.12922074382E+04 0.  0.
        5    1    3    3  502    0  0.39235882619E+03  0.23668481526E+03 -0.66950362626E+03  0.81130903226E+03  0.46999998093E+01 0. -1.
       -5    1    3    3    0  502 -0.39235882619E+03 -0.23668481526E+03  0.28161426555E+03  0.53786042318E+03  0.46999998093E+01 0.  1.
</event>
<event>
 5   0  0.1823154E-03  0.1293922E+04  0.7818609E-02  0.9034399E-01
       -1   -1    0    0    0  501  0.00000000000E+00  0.00000000000E+00  0.36159603200E+03  0.36159603203E+03  0.50400001928E-02 0. -1.
        1   -1    0    0  501    0  0.00000000000E+00  0.00000000000E+00 -0.11575310560E+04  0.11575310560E+04  0.50400001928E-02 0.  1.
    10030    2    1    2    0    0  0.00000000000E+00  0.00000000000E+00 -0.79593502399E+03  0.15191270880E+04  0.12939221565E+04 0.  0.
        2    1    3    3  502    0 -0.43885936471E+03  0.56507677287E+02 -0.95209837440E+03  0.10498961730E+04  0.25500000920E-02 0.  1.
       -2    1    3    3    0  502  0.43885936471E+03 -0.56507677287E+02  0.15616335041E+03  0.46923091501E+03  0.25500000920E-02 0. -1.
</event>
<event>
 5   0  0.3259968E-03  0.1306871E+04  0.7818609E-02  0.9024134E-01
        2   -1    0    0  501    0  0.00000000000E+00  0.00000000000E+00  0.56623137669E+03  0.56623137669E+03  0.25500000920E-02 0. -1.
       -2   -1    0    0    0  501  0.00000000000E+00  0.00000000000E+00 -0.75407019206E+03  0.75407019207E+03  0.25500000920E-02 0.  1.
    10030    2    1    2    0    0  0.00000000000E+00  0.00000000000E+00 -0.18783881538E+03  0.13203015688E+04  0.13068713831E+04 0.  0.
        4    1    3    3  502    0  0.26411858742E+03 -0.25595837937E+01  0.50989427853E+03  0.57424643479E+03  0.12699999809E+01 0. -1.
       -4    1    3    3    0  502 -0.26411858742E+03  0.25595837937E+01 -0.69773309391E+03  0.74605513397E+03  0.12699999809E+01 0.  1.
</event>
<event>
 5   0  0.3294720E-03  0.1292983E+04  0.7818609E-02  0.9035149E-01
        2   -1    0    0  501    0  0.00000000000E+00  0.00000000000E+00  0.32913956302E+03  0.32913956303E+03  0.25500000920E-02 0. -1.
       -2   -1    0    0    0  501  0.00000000000E+00  0.00000000000E+00 -0.12698293062E+04  0.12698293062E+04  0.25500000920E-02 0.  1.
    10030    2    1    2    0    0  0.00000000000E+00  0.00000000000E+00 -0.94068974321E+03  0.15989688693E+04  0.12929826959E+04 0.  0.
        5    1    3    3  502    0  0.40084319106E+02  0.28319301442E+02 -0.12675009940E+04  0.12684595364E+04  0.46999998093E+01 0.  1.
       -5    1    3    3    0  502 -0.40084319106E+02 -0.28319301442E+02  0.32681125083E+03  0.33050933291E+03  0.46999998093E+01 0. -1.
</event>
<event>
 5   0  0.1857986E-03  0.1215219E+04  0.7818609E-02  0.9099639E-01
        1   -1    0    0  501    0  0.00000000000E+00  0.00000000000E+00  0.35183153223E+03  0.35183153226E+03  0.50400001928E-02 0. -1.
       -1   -1    0    0    0  501  0.00000000000E+00  0.00000000000E+00 -0.10493353497E+04  0.10493353497E+04  0.50400001928E-02 0.  1.
    10030    2    1    2    0    0  0.00000000000E+00  0.00000000000E+00 -0.69750381746E+03  0.14011668820E+04  0.12152189333E+04 0.  0.
        1    1    3    3  502    0  0.24804287536E+03  0.88458484071E+02  0.28261158074E+03  0.38628936954E+03  0.50400001928E-02 0. -1.
       -1    1    3    3    0  502 -0.24804287536E+03 -0.88458484071E+02 -0.98011539820E+03  0.10148775124E+04  0.50400001928E-02 0.  1.
</event>
<event>
 5   0  0.3299104E-03  0.1140050E+04  0.7818609E-02  0.9167012E-01
        2   -1    0    0  501    0  0.00000000000E+00  0.00000000000E+00  0.15705535037E+04  0.15705535037E+04  0.25500000920E-02 0. -1.
       -2   -1    0    0    0  501  0.00000000000E+00  0.00000000000E+00 -0.20688778033E+03  0.20688778035E+03  0.25500000920E-02 0.  1.
    10030    2    1    2    0    0  0.00000000000E+00  0.00000000000E+00  0.13636657234E+04  0.17774412841E+04  0.11400496977E+04 0.  0.
        2    1    3    3  502    0 -0.49089346262E+03  0.94466698646E+01  0.11333309254E+04  0.12351132004E+04  0.25500000920E-02 0. -1.
       -2    1    3    3    0  502  0.49089346262E+03 -0.94466698646E+01  0.23033479797E+03  0.54232808370E+03  0.25500000920E-02 0.  1.
</event>
<event>
 5   0  0.1823154E-03  0.1343669E+04  0.7818609E-02  0.8995635E-01
        1   -1    0    0  501    0  0.00000000000E+00  0.00000000000E+00  0.13210892021E+04  0.13210892021E+04  0.50400001928E-02 0.  1.
       -1   -1    0    0    0  501  0.00000000000E+00  0.00000000000E+00 -0.34165849363E+03  0.34165849367E+03  0.50400001928E-02 0. -1.
    10030    2    1    2    0    0  0.00000000000E+00  0.00000000000E+00  0.97943070843E+03  0.16627476957E+04  0.13436686299E+04 0.  0.
        2    1    3    3  502    0  0.25813516462E+03 -0.17056431318E+03 -0.24825118053E+03  0.39667946353E+03  0.25500000920E-02 0. -1.
       -2    1    3    3    0  502 -0.25813516462E+03  0.17056431318E+03  0.12276818890E+04  0.12660682322E+04  0.25500000920E-02 0.  1.
</event>
<event>
 5   0  0.3336609E-03  0.1249180E+04  0.7818609E-02  0.9070866E-01
       -2   -1    0    0    0  501  0.00000000000E+00  0.00000000000E+00  0.36137788472E+03  0.36137788473E+03  0.25500000920E-02 0. -1.
        2   -1    0    0  501    0  0.00000000000E+00  0.00000000000E+00 -0.10795149767E+04  0.10795149767E+04  0.25500000920E-02 0.  1.
    10030    2    1    2    0    0  0.00000000000E+00  0.00000000000E+00 -0.71813709194E+03  0.14408928614E+04  0.12491802733E+04 0.  0.
        1    1    3    3  502    0  0.16389474947E+03 -0.35045861034E+03 -0.92465760803E+03  0.10023344844E+04  0.50400001928E-02 0.  1.
       -1    1    3    3    0  502 -0.16389474947E+03  0.35045861034E+03  0.20652051609E+03  0.43855837702E+03  0.50400001928E-02 0. -1.
</event>
<event>
 5   0  0.1857986E-03  0.1281739E+04  0.7818609E-02  0.9044173E-01
        1   -1    0    0  501    0  0.00000000000E+00  0.00000000000E+00  0.57478824237E+03  0.57478824239E+03  0.50400001928E-02 0.  1.
       -1   -1    0    0    0  501  0.00000000000E+00  0.00000000000E+00 -0.71454798985E+03  0.71454798987E+03  0.50400001928E-02 0. -1.
    10030    2    1    2    0    0  0.00000000000E+00  0.00000000000E+00 -0.13975974748E+03  0.12893362323E+04  0.12817391048E+04 0.  0.
        1    1    3    3  502    0 -0.31411393208E+03 -0.26297451508E+03  0.42588063534E+03  0.59092933037E+03  0.50400001928E-02 0.  1.
       -1    1    3    3    0  502  0.31411393208E+03  0.26297451508E+03 -0.56564038282E+03  0.69840690189E+03  0.50400001928E-02 0. -1.
</event>
<event>
 5   0  0.1873488E-03  0.1313580E+04  0.7818609E-02  0.9018865E-01
        1   -1    0    0  501    0  0.00000000000E+00  0.00000000000E+00  0.95066596839E+03  0.95066596840E+03  0.50400001928E-02 0. -1.
       -1   -1    0    0    0  501  0.00000000000E+00  0.00000000000E+00 -0.45375877960E+03  0.45375877963E+03  0.50400001928E-02 0.  1.
    10030    2    1    2    0    0  0.00000000000E+00  0.00000000000E+00  0.49690718878E+03  0.14044247480E+04  0.13135798867E+04 0.  0.
        3    1    3    3  502    0  0.22802308286E+03 -0.22810345939E+03  0.86016470490E+03  0.91864522220E+03  0.10100000352E+00 0. -1.
       -3    1    3    3    0  502 -0.22802308286E+03  0.22810345939E+03 -0.36325751612E+03  0.48577952584E+03  0.10100000352E+00 0.  1.
</event>
<event>
 5   0  0.3259968E-03  0.1283847E+04  0.7818609E-02  0.9042473E-01
        2   -1    0    0  501    0  0.00000000000E+00  0.00000000000E+00  0.11020347727E+04  0.11020347728E+04  0.25500000920E-02 0. -1.
       -2   -1    0    0    0  501  0.00000000000E+00  0.00000000000E+00 -0.37391374406E+03  0.37391374407E+03  0.25500000920E-02 0.  1.
    10030    2    1    2    0    0  0.00000000000E+00  0.00000000000E+00  0.72812102869E+03  0.14759485168E+04  0.12838472619E+04 0.  0.
        4    1    3    3  502    0  0.48932953050E+03 -0.35337032835E+03  0.11284517172E+03  0.61404366624E+03  0.12699999809E+01 0.  1.
       -4    1    3    3    0  502 -0.48932953050E+03  0.35337032835E+03  0.61527585697E+03  0.86190485057E+03  0.12699999809E+01 0. -1.
</event>
<event>
 5   0  0.3336609E-03  0.1300141E+04  0.7818609E-02  0.9029453E-01
       -2   -1    0    0    0  501  0.00000000000E+00  0.00000000000E+00  0.67906864921E+03  0.67906864922E+03  0.25500000920E-02 0.  1.
        2   -1    0    0  501    0  0.00000000000E+00  0.00000000000E+00 -0.62231098431E+03  0.62231098432E+03  0.25500000920E-02 0. -1.
    10030    2    1    2    0    0  0.00000000000E+00  0.00000000000E+00  0.56757664898E+02  0.13013796335E+04  0.13001413454E+04 0.  0.
        1    1    3    3  502    0  0.39175451325E+03  0.86731300450E+02  0.54033244846E+03  0.67301788387E+03  0.50400001928E-02 0.  1.
       -1    1    3    3    0  502 -0.39175451325E+03 -0.86731300450E+02 -0.48357478356E+03  0.62836174967E+03  0.50400001928E-02 0. -1.
</event>
<event>
 5   0  0.1254125E-03  0.1297597E+04  0.7818609E-02  0.9031473E-01
        4   -1    0    0  501    0  0.00000000000E+00  0.00000000000E+00  0.82335555538E+03  0.82335653484E+03  0.12699999809E+01 0. -1.
       -4   -1    0    0    0  501  0.00000000000E+00  0.00000000000E+00 -0.51124634107E+03  0.51124791849E+03  0.12699999809E+01 0.  1.
    10030    2    1    2    0    0  0.00000000000E+00  0.00000000000E+00  0.31210921431E+03  0.13346044533E+04  0.12975965803E+04 0.  0.
        4    1    3    3  502    0 -0.24071845911E+02 -0.28512356850E+03  0.75495264302E+03  0.80735990065E+03  0.12699999809E+01 0. -1.
       -4    1    3    3    0  502  0.24071845911E+02  0.28512356850E+03 -0.44284342871E+03  0.52724455268E+03  0.12699999809E+01 0.  1.
</event>
<event>
 5   0  0.1803959E-03  0.1293772E+04  0.7818609E-02  0.9034518E-01
        1   -1    0    0  501    0  0.00000000000E+00  0.00000000000E+00  0.18840438455E+04  0.18840438456E+04  0.50400001928E-02 0.  1.
       -1   -1    0    0    0  501  0.00000000000E+00  0.00000000000E+00 -0.22210826852E+03  0.22210826858E+03  0.50400001928E-02 0. -1.
    10030    2    1    2    0    0  0.00000000000E+00  0.00000000000E+00  0.16619355770E+04  0.21061521141E+04  0.12937723392E+04 0.  0.
        4    1    3    3  502    0 -0.18138307011E+03 -0.12948815522E+03 -0.15763827063E+03  0.27298065450E+03  0.12699999809E+01 0. -1.
       -4    1    3    3    0  502  0.18138307011E+03  0.12948815522E+03  0.18195738476E+04  0.18331714596E+04  0.12699999809E+01 0.  1.
</event>
<event>
 5   0  0.1814770E-03  0.1351531E+04  0.7818609E-02  0.8989670E-01
        1   -1    0    0  501    0  0.00000000000E+00  0.00000000000E+00  0.10373497618E+04  0.10373497618E+04  0.50400001928E-02 0.  1.
       -1   -1    0    0    0  501  0.00000000000E+00  0.00000000000E+00 -0.44021675709E+03  0.44021675712E+03  0.50400001928E-02 0. -1.
    10030    2    1    2    0    0  0.00000000000E+00  0.00000000000E+00  0.59713300473E+03  0.14775665190E+04  0.13515306110E+04 0.  0.
        5    1    3    3  502    0 -0.45648497762E+03  0.49279417533E+03  0.37899334444E+03  0.77128637947E+03  0.46999998093E+01 0.  1.
       -5    1    3    3    0  502  0.45648497762E+03 -0.49279417533E+03  0.21813966029E+03  0.70628013948E+03  0.46999998093E+01 0. -1.
</event>
<event>
 5   0  0.3299104E-03  0.1275139E+04  0.7818609E-02  0.9049516E-01
        2   -1    0    0  501    0  0.00000000000E+00  0.00000000000E+00  0.15411580885E+04  0.15411580885E+04  0.25500000920E-02 0.  1.
       -2   -1    0    0    0  501  0.00000000000E+00  0.00000000000E+00 -0.26375928455E+03  0.26375928456E+03  0.25500000920E-02 0. -1.
    10030    2    1    2    0    0  0.00000000000E+00  0.00000000000E+00  0.12773988039E+04  0.18049173731E+04  0.12751388235E+04 0.  0.
        2    1    3    3  502    0 -0.53894495296E+03 -0.32779682257E+03  0.76982956550E+03  0.99526377364E+03  0.25500000920E-02 0.  1.
       -2    1    3    3    0  502  0.53894495296E+03  0.32779682257E+03  0.50756923845E+03  0.80965359941E+03  0.25500000920E-02 0. -1.
</event>
<event>
 5   0  0.1803959E-03  0.1271668E+04  0.7818609E-02  0.9052339E-01
       -1   -1    0    0    0  501  0.00000000000E+00  0.00000000000E+00  0.48019031318E+03  0.48019031321E+03  0.50400001928E-02 0. -1.
        1   -1    0    0  501    0  0.00000000000E+00  0.00000000000E+00 -0.84192663414E+03  0.84192663416E+03  0.50400001928E-02 0.  1.
    10030    2    1    2    0    0  0.00000000000E+00  0.00000000000E+00 -0.36173632096E+03  0.13221169474E+04  0.12716682180E+04 0.  0.
        4    1    3    3  502    0 -0.48692036873E+03 -0.18155877340E+03  0.20003818632E+03  0.55684102091E+03  0.12699999809E+01 0. -1.
       -4    1    3    3    0  502  0.48692036873E+03  0.18155877340E+03 -0.56177450728E+03  0.76527592646E+03  0.12699999809E+01 0.  1.
</event>
<event>
 5   0  0.3294720E-03  0.1301011E+04  0.7818609E-02  0.9028763E-01
       -2   -1    0    0    0  501  0.00000000000E+00  0.00000000000E+00  0.30077196040E+03  0.30077196041E+03  0.25500000920E-02 0.  1.
        2   -1    0    0  501    0  0.00000000000E+00  0.00000000000E+00 -0.14069053461E+04  0.14069053461E+04  0.25500000920E-02 0. -1.
    10030    2    1    2    0    0  0.00000000000E+00  0.00000000000E+00 -0.11061333857E+04  0.17076773065E+04  0.13010114205E+04 0.  0.
        5    1    3    3  502    0 -0.58481432422E+03  0.11553303421E+03 -0.21134291217E+03  0.63248999385E+03  0.46999998093E+01 0.  1.
       -5    1    3    3    0  502  0.58481432422E+03 -0.11553303421E+03 -0.89479047353E+03  0.10751873127E+04  0.46999998093E+01 0. -1.
</event>
<event>
 5   0  0.1814770E-03  0.1294164E+04  0.7818609E-02  0.9034206E-01
        1   -1    0    0  501    0  0.00000000000E+00  0.00000000000E+00  0.11969065683E+04  0.11969065683E+04  0.50400001928E-02 0.  1.
       -1   -1    0    0    0  501  0.00000000000E+00  0.00000000000E+00 -0.34983080755E+03  0.34983080758E+03  0.50400001928E-02 0. -1.
    10030    2    1    2    0    0  0.00000000000E+00  0.00000000000E+00  0.84707576079E+03  0.15467373759E+04  0.12941635003E+04 0.  0.
        5    1    3    3  502    0 -0.14606960152E+03  0.15814756971E+03  0.11528284798E+04  0.11727670596E+04  0.46999998093E+01 0.  1.
       -5    1    3    3    0  502  0.14606960152E+03 -0.15814756971E+03 -0.30575271902E+03  0.37397031630E+03  0.46999998093E+01 0. -1.
</event>
<event>
 5   0  0.1857986E-03  0.1287712E+04  0.7818609E-02  0.9039367E-01
       -1   -1    0    0    0  501  0.00000000000E+00  0.00000000000E+00  0.63828501707E+03  0.63828501709E+03  0.50400001928E-02 0.  1.
        1   -1    0    0  501    0  0.00000000000E+00  0.00000000000E+00 -0.64947555360E+03  0.64947555362E+03  0.50400001928E-02 0. -1.
    10030    2    1    2    0    0  0.00000000000E+00  0.00000000000E+00 -0.11190536534E+02  0.12877605707E+04  0.12877119474E+04 0.  0.
        1    1    3    3  502    0 -0.12857688413E+03  0.62658954578E+03  0.67919688815E+02  0.64324144625E+03  0.50400001928E-02 0. -1.
       -1    1    3    3    0  502  0.12857688413E+03 -0.62658954578E+03 -0.79110225348E+02  0.64451912446E+03  0.50400001928E-02 0.  1.
</event>
<event>
 5   0  0.3299104E-03  0.1284302E+04  0.7818609E-02  0.9042107E-01
       -2   -1    0    0    0  501  0.00000000000E+00  0.00000000000E+00  0.24372241621E+03  0.24372241622E+03  0.25500000920E-02 0.  1.
        2   -1    0    0  501    0  0.00000000000E+00  0.00000000000E+00 -0.16919163013E+04  0.16919163013E+04  0.25500000920E-02 0. -1.
    10030    2    1    2    0    0  0.00000000000E+00  0.00000000000E+00 -0.14481938851E+04  0.19356387175E+04  0.12843020345E+04 0.  0.
        2    1    3    3  502    0 -0.29654738693E+03  0.30948165101E+03 -0.14447595451E+04  0.15070001288E+04  0.25500000920E-02 0. -1.
       -2    1    3    3    0  502  0.29654738693E+03 -0.30948165101E+03 -0.34343399443E+01  0.42863858868E+03  0.25500000920E-02 0.  1.
</event>
<event>
 5   0  0.1814770E-03  0.1347986E+04  0.7818609E-02  0.8992354E-01
        1   -1    0    0  501    0  0.00000000000E+00  0.00000000000E+00  0.16011968994E+04  0.16011968995E+04  0.50400001928E-02 0. -1.
       -1   -1    0    0    0  501  0.00000000000E+00  0.00000000000E+00 -0.28370430857E+03  0.28370430861E+03  0.50400001928E-02 0.  1.
    10030    2    1    2    0    0  0.00000000000E+00  0.00000000000E+00  0.13174925909E+04  0.18849012081E+04  0.13479858446E+04 0.  0.
        5    1    3    3  502    0 -0.33230860819E+03  0.29402961011E+03 -0.50627967347E+02  0.44661807372E+03  0.46999998093E+01 0.  1.
       -5    1    3    3    0  502  0.33230860819E+03 -0.29402961011E+03  0.13681205582E+04  0.14382831343E+04  0.46999998093E+01 0. -1.
</event>
<event>
 5   0  0.3336609E-03  0.1295354E+04  0.7818609E-02  0.9033258E-01
        2   -1    0    0  501    0  0.00000000000E+00  0.00000000000E+00  0.38154614791E+03  0.38154614792E+03  0.25500000920E-02 0.  1.
       -2   -1    0    0    0  501  0.00000000000E+00  0.00000000000E+00 -0.10994355676E+04  0.10994355676E+04  0.25500000920E-02 0. -1.
    10030    2    1    2    0    0  0.00000000000E+00  0.00000000000E+00 -0.71788941970E+03  0.14809817155E+04  0.12953538601E+04 0.  0.
        1    1    3    3  502    0 -0.56902326099E+03  0.72206075614E+02 -0.15032425539E+02  0.57378320187E+03  0.50400001928E-02 0.  1.
       -1    1    3    3    0  502  0.56902326099E+03 -0.72206075614E+02 -0.70285699416E+03  0.90719851365E+03  0.50400001928E-02 0. -1.
</event>
<event>
 5   0  0.1857986E-03  0.1286962E+04  0.7818609E-02  0.9039969E-01
        1   -1    0    0  501    0  0.00000000000E+00  0.00000000000E+00  0.11328163532E+04  0.11328163532E+04  0.50400001928E-02 0.  1.
       -1   -1    0    0    0  501  0.00000000000E+00  0.00000000000E+00 -0.36552059038E+03  0.36552059041E+03  0.50400001928E-02 0. -1.
    10030    2    1    2    0    0  0.00000000000E+00  0.00000000000E+00  0.76729576280E+03  0.14983369436E+04  0.12869618522E+04 0.  0.
        1    1    3    3  502    0  0.17491454350E+03  0.38646278499E+03  0.94697707179E+03  0.10376483779E+04  0.50400001928E-02 0.  1.
       -1    1    3    3    0  502 -0.17491454350E+03 -0.38646278499E+03 -0.17968130899E+03  0.46068856567E+03  0.50400001928E-02 0. -1.
</event>
<event>
 5   0  0.1823154E-03  0.1298997E+04  0.7818609E-02  0.9030361E-01
        1   -1    0    0  501    0  0.00000000000E+00  0.00000000000E+00  0.47467526147E+03  0.47467526150E+03  0.50400001928E-02 0.  1.
       -1   -1    0    0    0  501  0.00000000000E+00  0.00000000000E+00 -0.88870901776E+03  0.88870901777E+03  0.50400001928E-02 0. -1.
    10030    2    1    2    0    0  0.00000000000E+00  0.00000000000E+00 -0.41403375629E+03  0.13633842793E+04  0.12989968213E+04 0.  0.
        2    1    3    3  502    0 -0.55243316630E+03 -0.23721596913E+03 -0.46495076789E+03  0.76002173377E+03  0.25500000920E-02 0. -1.
       -2    1    3    3    0  502  0.55243316630E+03  0.23721596913E+03  0.50917011599E+02  0.60336254550E+03  0.25500000920E-02 0.  1.
</event>
<event>
 5   0  0.3259968E-03  0.1298555E+04  0.7818609E-02  0.9030712E-01
        2   -1    0    0  501    0  0.00000000000E+00  0.00000000000E+00  0.16952860760E+04  0.16952860760E+04  0.25500000920E-02 0.  1.
       -2   -1    0    0    0  501  0.00000000000E+00  0.00000000000E+00 -0.24866678972E+03  0.24866678973E+03  0.25500000920E-02 0. -1.
    10030    2    1    2    0    0  0.00000000000E+00  0.00000000000E+00  0.14466192863E+04  0.19439528657E+04  0.12985551143E+04 0.  0.
        4    1    3    3  502    0 -0.57729496719E+03  0.19899958054E+03  0.39298372637E+03  0.72615985450E+03  0.12699999809E+01 0. -1.
       -4    1    3    3    0  502  0.57729496719E+03 -0.19899958054E+03  0.10536355599E+04  0.12177930112E+04  0.12699999809E+01 0.  1.
</event>
<event>
 5   0  0.3299104E-03  0.1299459E+04  0.7818609E-02  0.9029994E-01
        2   -1    0    0  501    0  0.00000000000E+00  0.00000000000E+00  0.10737417134E+04  0.10737417134E+04  0.25500000920E-02 0. -1.
       -2   -1    0    0    0  501  0.00000000000E+00  0.00000000000E+00 -0.39315659772E+03  0.39315659773E+03  0.25500000920E-02 0.  1.
    10030    2    1    2    0    0  0.00000000000E+00  0.00000000000E+00  0.68058511570E+03  0.14668983111E+04  0.12994593320E+04 0.  0.
        2    1    3    3  502    0 -0.23456968442E+03 -0.59936460557E+03  0.44054950589E+03  0.77996457253E+03  0.25500000920E-02 0.  1.
       -2    1    3    3    0  502  0.23456968442E+03  0.59936460557E+03  0.24003560980E+03  0.68693373861E+03  0.25500000920E-02 0. -1.
</event>
<event>
 5   0  0.3259968E-03  0.1562770E+04  0.7818609E-02  0.8843752E-01
       -2   -1    0    0    0  501  0.00000000000E+00  0.00000000000E+00  0.61896791033E+03  0.61896791034E+03  0.25500000920E-02 0.  1.
        2   -1    0    0  501    0  0.00000000000E+00  0.00000000000E+00 -0.98642068671E+03  0.98642068671E+03  0.25500000920E-02 0. -1.
    10030    2    1    2    0    0  0.00000000000E+00  0.00000000000E+00 -0.36745277637E+03  0.16053885970E+04  0.15627702981E+04 0.  0.
        4    1    3    3  502    0  0.45566784222E+02 -0.66172979746E+03 -0.60802597236E+03  0.89981100940E+03  0.12699999809E+01 0. -1.
       -4    1    3    3    0  502 -0.45566784222E+02  0.66172979746E+03  0.24057319598E+03  0.70557758765E+03  0.12699999809E+01 0.  1.
</event>
<event>
 5   0  0.1823154E-03  0.1298157E+04  0.7818609E-02  0.9031028E-01
       -1   -1    0    0    0  501  0.00000000000E+00  0.00000000000E+00  0.22389398238E+03  0.22389398244E+03  0.50400001928E-02 0.  1.
        1   -1    0    0  501    0  0.00000000000E+00  0.00000000000E+00 -0.18817082438E+04  0.18817082438E+04  0.50400001928E-02 0. -1.
    10030    2    1    2    0    0  0.00000000000E+00  0.00000000000E+00 -0.16578142614E+04  0.21056022262E+04  0.12981573902E+04 0.  0.
        2    1    3    3  502    0 -0.50929665922E+03  0.37395400050E+03 -0.10699162504E+04  0.12425560207E+04  0.25500000920E-02 0. -1.
       -2    1    3    3    0  502  0.50929665922E+03 -0.37395400050E+03 -0.58789801095E+03  0.86304620553E+03  0.25500000920E-02 0.  1.
</event>
<event>
 5   0  0.3336609E-03  0.1289490E+04  0.7818609E-02  0.9037942E-01
        2   -1    0    0  501    0  0.00000000000E+00  0.00000000000E+00  0.81335286014E+03  0.81335286014E+03  0.25500000920E-02 0.  1.
       -2   -1    0    0    0  501  0.00000000000E+00  0.00000000000E+00 -0.51108931300E+03  0.51108931300E+03  0.25500000920E-02 0. -1.
    10030    2    1    2    0    0  0.00000000000E+00  0.00000000000E+00  0.30226354714E+03  0.13244421731E+04  0.12894897511E+04 0.  0.
        1    1    3    3  502    0  0.21567724634E+03 -0.14087034530E+03 -0.45593441954E+03  0.52367673590E+03  0.50400001928E-02 0. -1.
       -1    1    3    3    0  502 -0.21567724634E+03  0.14087034530E+03  0.75819796669E+03  0.80076543725E+03  0.50400001928E-02 0.  1.
</event>
<event>
 5   0  0.1803959E-03  0.1323770E+04  0.7818609E-02  0.9010925E-01
        1   -1    0    0  501    0  0.00000000000E+00  0.00000000000E+00  0.41246945372E+03  0.41246945375E+03  0.50400001928E-02 0. -1.
       -1   -1    0    0    0  501  0.00000000000E+00  0.00000000000E+00 -0.10621193301E+04  0.10621193301E+04  0.50400001928E-02 0.  1.
    10030    2    1    2    0    0  0.00000000000E+00  0.00000000000E+00 -0.64964987638E+03  0.14745887839E+04  0.13237700403E+04 0.  0.
        4    1    3    3  502    0  0.27325060089E+03 -0.31129450922E+03  0.25024846796E+03  0.48393808589E+03  0.12699999809E+01 0. -1.
       -4    1    3    3    0  502 -0.27325060089E+03  0.31129450922E+03 -0.89989834434E+03  0.99065069797E+03  0.12699999809E+01 0.  1.
</event>
<event>
 5   0  0.1823154E-03  0.1229443E+04  0.7818609E-02  0.9087468E-01
       -1   -1    0    0    0  501  0.00000000000E+00  0.00000000000E+00  0.21025478143E+03  0.21025478149E+03  0.50400001928E-02 0.  1.
        1   -1    0    0  501    0  0.00000000000E+00  0.00000000000E+00 -0.17972612266E+04  0.17972612266E+04  0.50400001928E-02 0. -1.
    10030    2    1    2    0    0  0.00000000000E+00  0.00000000000E+00 -0.15870064452E+04  0.20075160081E+04  0.12294433967E+04 0.  0.
        2    1    3    3  502    0 -0.51518664123E+02  0.50514251497E+02 -0.17903231649E+04  0.17917764640E+04  0.25500000920E-02 0. -1.
       -2    1    3    3    0  502  0.51518664123E+02 -0.50514251497E+02  0.20331671970E+03  0.21573954406E+03  0.25500000920E-02 0.  1.
</event>
<event>
 5   0  0.1857986E-03  0.1363426E+04  0.7818609E-02  0.8980726E-01
       -1   -1    0    0    0  501  0.00000000000E+00  0.00000000000E+00  0.28932591214E+03  0.28932591218E+03  0.50400001928E-02 0.  1.
        1   -1    0    0  501    0  0.00000000000E+00  0.00000000000E+00 -0.16062605410E+04  0.16062605410E+04  0.50400001928E-02 0. -1.
    10030    2    1    2    0    0  0.00000000000E+00  0.00000000000E+00 -0.13169346289E+04  0.18955864532E+04  0.13634262667E+04 0.  0.
        1    1    3    3  502    0 -0.73316519620E+02  0.36203650171E+03  0.13812996561E+03  0.39436737700E+03  0.50400001928E-02 0.  1.
       -1    1    3    3    0  502  0.73316519620E+02 -0.36203650171E+03 -0.14550645945E+04  0.15012190762E+04  0.50400001928E-02 0. -1.
</event>
<event>
 5   0  0.3336609E-03  0.1111111E+04  0.7818609E-02  0.9194430E-01
       -2   -1    0    0    0  501  0.00000000000E+00  0.00000000000E+00  0.51641249901E+03  0.51641249901E+03  0.25500000920E-02 0.  1.
        2   -1    0    0  501    0  0.00000000000E+00  0.00000000000E+00 -0.59766535338E+03  0.59766535339E+03  0.25500000920E-02 0. -1.
    10030    2    1    2    0    0  0.00000000000E+00  0.00000000000E+00 -0.81252854375E+02  0.11140778524E+04  0.11111109012E+04 0.  0.
        1    1    3    3  502    0  0.34928244973E+03 -0.83897722921E+01  0.39246821359E+03  0.52545210693E+03  0.50400001928E-02 0.  1.
       -1    1    3    3    0  502 -0.34928244973E+03  0.83897722921E+01 -0.47372106797E+03  0.58862574547E+03  0.50400001928E-02 0. -1.
</event>
<event>
 5   0  0.1873488E-03  0.1294601E+04  0.7818609E-02  0.9033857E-01
        1   -1    0    0  501    0  0.00000000000E+00  0.00000000000E+00  0.14086267427E+04  0.14086267427E+04  0.50400001928E-02 0.  1.
       -1   -1    0    0    0  501  0.00000000000E+00  0.00000000000E+00 -0.29745143345E+03  0.29745143349E+03  0.50400001928E-02 0. -1.
    10030    2    1    2    0    0  0.00000000000E+00  0.00000000000E+00  0.11111753092E+04  0.17060781762E+04  0.12946011646E+04 0.  0.
        3    1    3    3  502    0  0.25306697559E+03 -0.70836345963E+02  0.13351629799E+04  0.13607795101E+04  0.10100000352E+00 0.  1.
       -3    1    3    3    0  502 -0.25306697559E+03  0.70836345963E+02 -0.22398767061E+03  0.34529866613E+03  0.10100000352E+00 0. -1.
</event>
<event>
 5   0  0.1814770E-03  0.1294740E+04  0.7818609E-02  0.9033747E-01
       -1   -1    0    0    0  501  0.00000000000E+00  0.00000000000E+00  0.48885359318E+03  0.48885359321E+03  0.50400001928E-02 0.  1.
        1   -1    0    0  501    0  0.00000000000E+00  0.00000000000E+00 -0.85728719662E+03  0.85728719664E+03  0.50400001928E-02 0. -1.
    10030    2    1    2    0    0  0.00000000000E+00  0.00000000000E+00 -0.36843360344E+03  0.13461407898E+04  0.12947400148E+04 0.  0.
        5    1    3    3  502    0  0.48558902769E+03 -0.36426687325E+03 -0.41804241324E+03  0.73706757358E+03  0.46999998093E+01 0. -1.
       -5    1    3    3    0  502 -0.48558902769E+03  0.36426687325E+03  0.49608809799E+02  0.60907321626E+03  0.46999998093E+01 0.  1.
</event>
<event>
 5   0  0.1873488E-03  0.9972318E+03  0.7818609E-02  0.9311586E-01
       -1   -1    0    0    0  501  0.00000000000E+00  0.00000000000E+00  0.15150064932E+03  0.15150064940E+03  0.50400001928E-02 0.  1.
        1   -1    0    0  501    0  0.00000000000E+00  0.00000000000E+00 -0.16410347682E+04  0.16410347683E+04  0.50400001928E-02 0. -1.
    10030    2    1    2    0    0  0.00000000000E+00  0.00000000000E+00 -0.14895341189E+04  0.17925354177E+04  0.99723183467E+03 0.  0.
        3    1    3    3  502    0  0.47923456633E+03  0.13111242432E+03 -0.82021084427E+03  0.95895885033E+03  0.10100000352E+00 0. -1.
       -3    1    3    3    0  502 -0.47923456633E+03 -0.13111242432E+03 -0.66932327467E+03  0.83357656732E+03  0.10100000352E+00 0.  1.
</event>
<event>
 5   0  0.3299104E-03  0.1304713E+04  0.7818609E-02  0.9025836E-01
       -2   -1    0    0    0  501  0.00000000000E+00  0.00000000000E+00  0.26396749130E+03  0.26396749131E+03  0.25500000920E-02 0.  1.
        2   -1    0    0  501    0  0.00000000000E+00  0.00000000000E+00 -0.16122027939E+04  0.16122027939E+04  0.25500000920E-02 0. -1.
    10030    2    1    2    0    0  0.00000000000E+00  0.00000000000E+00 -0.13482353026E+04  0.18761702852E+04  0.13047131899E+04 0.  0.
        2    1    3    3  502    0  0.48709286197E+03 -0.18436600768E+03 -0.12390112898E+04  0.13440235329E+04  0.25500000920E-02 0. -1.
       -2    1    3    3    0  502 -0.48709286197E+03  0.18436600768E+03 -0.10922401285E+03  0.53214675228E+03  0.25500000920E-02 0.  1.
</event>
<event>
 5   0  0.3299104E-03  0.1273337E+04  0.7818609E-02  0.9050981E-01
       -2   -1    0    0    0  501  0.00000000000E+00  0.00000000000E+00  0.39105604230E+03  0.39105604231E+03  0.25500000920E-02 0.  1.
        2   -1    0    0  501    0  0.00000000000E+00  0.00000000000E+00 -0.10365436750E+04  0.10365436750E+04  0.25500000920E-02 0. -1.
    10030    2    1    2    0    0  0.00000000000E+00  0.00000000000E+00 -0.64548763274E+03  0.14275997173E+04  0.12733368246E+04 0.  0.
        2    1    3    3  502    0  0.62493412329E+03 -0.10992842785E+03 -0.38121307804E+03  0.74023667065E+03  0.25500000920E-02 0.  1.
       -2    1    3    3    0  502 -0.62493412329E+03  0.10992842785E+03 -0.26427455470E+03  0.68736304670E+03  0.25500000920E-02 0. -1.
</event>
<event>
 5   0  0.3259968E-03  0.1292374E+04  0.7818609E-02  0.9035635E-01
        2   -1    0    0  501    0  0.00000000000E+00  0.00000000000E+00  0.85114184317E+03  0.85114184317E+03  0.25500000920E-02 0.  1.
       -2   -1    0    0    0  501  0.00000000000E+00  0.00000000000E+00 -0.49058504127E+03  0.49058504127E+03  0.25500000920E-02 0. -1.
    10030    2    1    2    0    0  0.00000000000E+00  0.00000000000E+00  0.36055680190E+03  0.13417268844E+04  0.12923737173E+04 0.  0.
        4    1    3    3  502    0 -0.51446586798E+03 -0.23329289103E+03 -0.14547968455E+03  0.58332379845E+03  0.12699999809E+01 0. -1.
       -4    1    3    3    0  502  0.51446586798E+03  0.23329289103E+03  0.50603648645E+03  0.75840308599E+03  0.12699999809E+01 0.  1.
</event>
<event>
 5   0  0.1814770E-03  0.1282414E+04  0.7818609E-02  0.9043628E-01
       -1   -1    0    0    0  501  0.00000000000E+00  0.00000000000E+00  0.85199504274E+03  0.85199504275E+03  0.50400001928E-02 0.  1.
        1   -1    0    0  501    0  0.00000000000E+00  0.00000000000E+00 -0.48256909988E+03  0.48256909991E+03  0.50400001928E-02 0. -1.
    10030    2    1    2    0    0  0.00000000000E+00  0.00000000000E+00  0.36942594286E+03  0.13345641427E+04  0.12824140999E+04 0.  0.
        5    1    3    3  502    0 -0.40037080653E+03 -0.24496699624E+03  0.63930490357E+03  0.79311944983E+03  0.46999998093E+01 0.  1.
       -5    1    3    3    0  502  0.40037080653E+03  0.24496699624E+03 -0.26987896071E+03  0.54144469284E+03  0.46999998093E+01 0. -1.
</event>
<event>
 5   0  0.1873488E-03  0.1286980E+04  0.7818609E-02  0.9039954E-01
        1   -1    0    0  501    0  0.00000000000E+00  0.00000000000E+00  0.10316765587E+04  0.10316765587E+04  0.50400001928E-02 0.  1.
       -1   -1    0    0    0  501  0.00000000000E+00  0.00000000000E+00 -0.40136558409E+03  0.40136558412E+03  0.50400001928E-02 0. -1.
    10030    2    1    2    0    0  0.00000000000E+00  0.00000000000E+00  0.63031097465E+03  0.14330421429E+04  0.12869801313E+04 0.  0.
        3    1    3    3  502    0  0.19903122590E+03 -0.11281090906E+03  0.98486307850E+03  0.10110860615E+04  0.10100000352E+00 0.  1.
       -3    1    3    3    0  502 -0.19903122590E+03  0.11281090906E+03 -0.35455210386E+03  0.42195608140E+03  0.10100000352E+00 0. -1.
</event>
<event>
 5   0  0.1803959E-03  0.1301843E+04  0.7818609E-02  0.9028105E-01
        1   -1    0    0  501    0  0.00000000000E+00  0.00000000000E+00  0.13012240059E+04  0.13012240059E+04  0.50400001928E-02 0.  1.
       -1   -1    0    0    0  501  0.00000000000E+00  0.00000000000E+00 -0.32561558988E+03  0.32561558992E+03  0.50400001928E-02 0. -1.
    10030    2    1    2    0    0  0.00000000000E+00  0.00000000000E+00  0.97560841605E+03  0.16268395959E+04  0.13018430355E+04 0.  0.
        4    1    3    3  502    0  0.52646184826E+03 -0.25007194314E+03  0.84998346106E+03  0.10306170731E+04  0.12699999809E+01 0.  1.
       -4    1    3    3    0  502 -0.52646184826E+03  0.25007194314E+03  0.12562495498E+03  0.59622252274E+03  0.12699999809E+01 0. -1.
</event>
<event>
 5   0  0.3294720E-03  0.1312359E+04  0.7818609E-02  0.9019821E-01
       -2   -1    0    0    0  501  0.00000000000E+00  0.00000000000E+00  0.66379981135E+03  0.66379981136E+03  0.25500000920E-02 0.  1.
        2   -1    0    0  501    0  0.00000000000E+00  0.00000000000E+00 -0.64864707442E+03  0.64864707443E+03  0.25500000920E-02 0. -1.
    10030    2    1    2    0    0  0.00000000000E+00  0.00000000000E+00  0.15152736928E+02  0.13124468858E+04  0.13123594106E+04 0.  0.
        5    1    3    3  502    0  0.37042766844E+03  0.12418915449E+02  0.54907236434E+03  0.66247523598E+03  0.46999998093E+01 0.  1.
       -5    1    3    3    0  502 -0.37042766844E+03 -0.12418915449E+02 -0.53391962741E+03  0.64997164980E+03  0.46999998093E+01 0. -1.
</event>
<event>
 5   0  0.1873488E-03  0.1306622E+04  0.7818609E-02  0.9024330E-01
       -1   -1    0    0    0  501  0.00000000000E+00  0.00000000000E+00  0.67824290996E+03  0.67824290998E+03  0.50400001928E-02 0. -1.
        1   -1    0    0  501    0  0.00000000000E+00  0.00000000000E+00 -0.62929555746E+03  0.62929555748E+03  0.50400001928E-02 0.  1.
    10030    2    1    2    0    0  0.00000000000E+00  0.00000000000E+00  0.48947352499E+02  0.13075384675E+04  0.13066219807E+04 0.  0.
        3    1    3    3  502    0 -0.42527895425E+03 -0.43367726983E+03 -0.21627161869E+03  0.64475699806E+03  0.10100000352E+00 0.  1.
       -3    1    3    3    0  502  0.42527895425E+03  0.43367726983E+03  0.26521897119E+03  0.66278146940E+03  0.10100000352E+00 0. -1.
</event>
<event>
 5   0  0.1823154E-03  0.1298294E+04  0.7818609E-02  0.9030919E-01
        1   -1    0    0  501    0  0.00000000000E+00  0.00000000000E+00  0.16402615214E+04  0.16402615214E+04  0.50400001928E-02 0. -1.
       -1   -1    0    0    0  501  0.00000000000E+00  0.00000000000E+00 -0.25690522917E+03  0.25690522922E+03  0.50400001928E-02 0.  1.
    10030    2    1    2    0    0  0.00000000000E+00  0.00000000000E+00  0.13833562922E+04  0.18971667506E+04  0.12982938991E+04 0.  0.
        2    1    3    3  502    0 -0.20536625243E+03  0.14886261557E+03 -0.18149604581E+03  0.31189131216E+03  0.25500000920E-02 0.  1.
       -2    1    3    3    0  502  0.20536625243E+03 -0.14886261557E+03  0.15648523380E+04  0.15852754385E+04  0.25500000920E-02 0. -1.
</event>
<event>
 5   0  0.3262927E-03  0.1302362E+04  0.7818609E-02  0.9027694E-01
        2   -1    0    0  501    0  0.00000000000E+00  0.00000000000E+00  0.62943964990E+03  0.62943964991E+03  0.25500000920E-02 0. -1.
       -2   -1    0    0    0  501  0.00000000000E+00  0.00000000000E+00 -0.67367319251E+03  0.67367319251E+03  0.25500000920E-02 0.  1.
    10030    2    1    2    0    0  0.00000000000E+00  0.00000000000E+00 -0.44233542607E+02  0.13031128424E+04  0.13023618828E+04 0.  0.
        3    1    3    3  502    0 -0.49622487541E+02 -0.56016267712E+02  0.62512281811E+03  0.62958618270E+03  0.10100000352E+00 0. -1.
       -3    1    3    3    0  502  0.49622487541E+02  0.56016267712E+02 -0.66935636072E+03  0.67352665972E+03  0.10100000352E+00 0.  1.
</event>
<event>
 5   0  0.1873488E-03  0.1302539E+04  0.7818609E-02  0.9027554E-01
       -1   -1    0    0    0  501  0.00000000000E+00  0.00000000000E+00  0.85747701719E+03  0.85747701720E+03  0.50400001928E-02 0.  1.
        1   -1    0    0  501    0  0.00000000000E+00  0.00000000000E+00 -0.49465114794E+03  0.49465114797E+03  0.50400001928E-02 0. -1.
    10030    2    1    2    0    0  0.00000000000E+00  0.00000000000E+00  0.36282586924E+03  0.13521281652E+04  0.13025390450E+04 0.  0.
        3    1    3    3  502    0  0.22653420422E+03 -0.31716036921E+03  0.72304690729E+03  0.82140445934E+03  0.10100000352E+00 0.  1.
       -3    1    3    3    0  502 -0.22653420422E+03  0.31716036921E+03 -0.36022103805E+03  0.53072370583E+03  0.10100000352E+00 0. -1.
</event>
<event>
 5   0  0.1873488E-03  0.1287990E+04  0.7818609E-02  0.9039143E-01
       -1   -1    0    0    0  501  0.00000000000E+00  0.00000000000E+00  0.26734299081E+03  0.26734299086E+03  0.50400001928E-02 0. -1.
        1   -1    0    0  501    0  0.00000000000E+00  0.00000000000E+00 -0.15513024093E+04  0.15513024093E+04  0.50400001928E-02 0.  1.
    10030    2    1    2    0    0  0.00000000000E+00  0.00000000000E+00 -0.12839594185E+04  0.18186454001E+04  0.12879904127E+04 0.  0.
        3    1    3    3  502    0 -0.50178606239E+03  0.11847303545E+03 -0.97113838286E+02  0.52464866370E+03  0.10100000352E+00 0.  1.
       -3    1    3    3    0  502  0.50178606239E+03 -0.11847303545E+03 -0.11868455802E+04  0.12939967364E+04  0.10100000352E+00 0. -1.
</event>
<event>
 5   0  0.1873488E-03  0.1259002E+04  0.7818609E-02  0.9062724E-01
        1   -1    0    0  501    0  0.00000000000E+00  0.00000000000E+00  0.10483396463E+04  0.10483396463E+04  0.50400001928E-02 0.  1.
       -1   -1    0    0    0  501  0.00000000000E+00  0.00000000000E+00 -0.37799900890E+03  0.37799900893E+03  0.50400001928E-02 0. -1.
    10030    2    1    2    0    0  0.00000000000E+00  0.00000000000E+00  0.67034063743E+03  0.14263386553E+04  0.12590017432E+04 0.  0.
        3    1    3    3  502    0  0.14480222778E+03  0.38043032468E+02 -0.35753531351E+03  0.38761639297E+03  0.10100000352E+00 0. -1.
       -3    1    3    3    0  502 -0.14480222778E+03 -0.38043032468E+02  0.10278759509E+04  0.10387222623E+04  0.10100000352E+00 0.  1.
</event>
<event>
 5   0  0.1254125E-03  0.1299877E+04  0.7818609E-02  0.9029663E-01
       -4   -1    0    0    0  501  0.00000000000E+00  0.00000000000E+00  0.37690902024E+03  0.37691115987E+03  0.12699999809E+01 0.  1.
        4   -1    0    0  501    0  0.00000000000E+00  0.00000000000E+00 -0.11207423227E+04  0.11207430423E+04  0.12699999809E+01 0. -1.
    10030    2    1    2    0    0  0.00000000000E+00  0.00000000000E+00 -0.74383330249E+03  0.14976542022E+04  0.12998769662E+04 0.  0.
        4    1    3    3  502    0  0.42893787942E+03  0.40744179397E+03 -0.61857712904E+02  0.59483149667E+03  0.12699999809E+01 0. -1.
       -4    1    3    3    0  502 -0.42893787942E+03 -0.40744179397E+03 -0.68197558958E+03  0.90282270550E+03  0.12699999809E+01 0.  1.
</event>
<event>
 5   0  0.1803959E-03  0.1260940E+04  0.7818609E-02  0.9061127E-01
        1   -1    0    0  501    0  0.00000000000E+00  0.00000000000E+00  0.99219045391E+03  0.99219045392E+03  0.50400001928E-02 0. -1.
       -1   -1    0    0    0  501  0.00000000000E+00  0.00000000000E+00 -0.40062090210E+03  0.40062090213E+03  0.50400001928E-02 0.  1.
    10030    2    1    2    0    0  0.00000000000E+00  0.00000000000E+00  0.59156955181E+03  0.13928113561E+04  0.12609397047E+04 0.  0.
        4    1    3    3  502    0 -0.12662657229E+03 -0.48464952550E+03 -0.12710020096E+03  0.51679350360E+03  0.12699999809E+01 0. -1.
       -4    1    3    3    0  502  0.12662657229E+03  0.48464952550E+03  0.71866975277E+03  0.87601785246E+03  0.12699999809E+01 0.  1.
</event>
<event>
 5   0  0.1803959E-03  0.1753797E+04  0.7818609E-02  0.8731263E-01
        1   -1    0    0  501    0  0.00000000000E+00  0.00000000000E+00  0.10453810578E+04  0.10453810578E+04  0.50400001928E-02 0.  1.
       -1   -1    0    0    0  501  0.00000000000E+00  0.00000000000E+00 -0.73557017382E+03  0.73557017384E+03  0.50400001928E-02 0. -1.
    10030    2    1    2    0    0  0.00000000000E+00  0.00000000000E+00  0.30981088400E+03  0.17809512317E+04  0.17537971678E+04 0.  0.
        4    1    3    3  502    0 -0.75349149155E+03 -0.18642182385E+03  0.56920134144E+03  0.96254574138E+03  0.12699999809E+01 0.  1.
       -4    1    3    3    0  502  0.75349149155E+03  0.18642182385E+03 -0.25939045744E+03  0.81840549030E+03  0.12699999809E+01 0. -1.
</event>
<event>
 5   0  0.3262927E-03  0.1316627E+04  0.7818609E-02  0.9016483E-01
       -2   -1    0    0    0  501  0.00000000000E+00  0.00000000000E+00  0.23485525431E+03  0.23485525433E+03  0.25500000920E-02 0. -1.
        2   -1    0    0  501    0  0.00000000000E+00  0.00000000000E+00 -0.18452926288E+04  0.18452926288E+04  0.25500000920E-02 0.  1.
    10030    2    1    2    0    0  0.00000000000E+00  0.00000000000E+00 -0.16104373744E+04  0.20801478831E+04  0.13166270081E+04 0.  0.
        3    1    3    3  502    0  0.55373958924E+03  0.25585915997E+03 -0.11963380491E+04  0.13428760852E+04  0.10100000352E+00 0. -1.
       -3    1    3    3    0  502 -0.55373958924E+03 -0.25585915997E+03 -0.41409932536E+03  0.73727179785E+03  0.10100000352E+00 0.  1.
</event>
<event>
 5   0  0.3259968E-03  0.1132927E+04  0.7818609E-02  0.9173681E-01
        2   -1    0    0  501    0  0.00000000000E+00  0.00000000000E+00  0.13425771965E+04  0.13425771965E+04  0.25500000920E-02 0. -1.
       -2   -1    0    0    0  501  0.00000000000E+00  0.00000000000E+00 -0.23900354675E+03  0.23900354677E+03  0.25500000920E-02 0.  1.
    10030    2    1    2    0    0  0.00000000000E+00  0.00000000000E+00  0.11035736497E+04  0.15815807432E+04  0.11329266733E+04 0.  0.
        4    1    3    3  502    0  0.24349978046E+03  0.45056757602E+03  0.21391752064E+03  0.55503657734E+03  0.12699999809E+01 0.  1.
       -4    1    3    3    0  502 -0.24349978046E+03 -0.45056757602E+03  0.88965612907E+03  0.10265441659E+04  0.12699999809E+01 0. -1.
</event>
<event>
 5   0  0.3259968E-03  0.1293901E+04  0.7818609E-02  0.9034416E-01
       -2   -1    0    0    0  501  0.00000000000E+00  0.00000000000E+00  0.49331662806E+03  0.49331662807E+03  0.25500000920E-02 0.  1.
        2   -1    0    0  501    0  0.00000000000E+00  0.00000000000E+00 -0.84843037255E+03  0.84843037256E+03  0.25500000920E-02 0. -1.
    10030    2    1    2    0    0  0.00000000000E+00  0.00000000000E+00 -0.35511374449E+03  0.13417470006E+04  0.12939007853E+04 0.  0.
        4    1    3    3  502    0  0.48510981712E+03  0.11962374467E+03  0.24861700414E+03  0.55808010411E+03  0.12699999809E+01 0.  1.
       -4    1    3    3    0  502 -0.48510981712E+03 -0.11962374467E+03 -0.60373074863E+03  0.78366689652E+03  0.12699999809E+01 0. -1.
</event>
<event>
 5   0  0.1814770E-03  0.1148158E+04  0.7818609E-02  0.9159484E-01
        1   -1    0    0  501    0  0.00000000000E+00  0.00000000000E+00  0.30263990255E+04  0.30263990255E+04  0.50400001928E-02 0.  1.
       -1   -1    0    0    0  501  0.00000000000E+00  0.00000000000E+00 -0.10889738960E+03  0.10889738972E+03  0.50400001928E-02 0. -1.
    10030    2    1    2    0    0  0.00000000000E+00  0.00000000000E+00  0.29175016359E+04  0.31352964152E+04  0.11481584454E+04 0.  0.
        5    1    3    3  502    0 -0.35932998001E+03  0.87883852550E+02  0.26002099626E+03  0.45218869355E+03  0.46999998093E+01 0. -1.
       -5    1    3    3    0  502  0.35932998001E+03 -0.87883852550E+02  0.26574806396E+04  0.26831077217E+04  0.46999998093E+01 0.  1.
</event>
<event>
 5   0  0.1873488E-03  0.1309194E+04  0.7818609E-02  0.9022306E-01
        1   -1    0    0  501    0  0.00000000000E+00  0.00000000000E+00  0.10464421579E+04  0.10464421579E+04  0.50400001928E-02 0. -1.
       -1   -1    0    0    0  501  0.00000000000E+00  0.00000000000E+00 -0.40948030288E+03  0.40948030291E+03  0.50400001928E-02 0.  1.
    10030    2    1    2    0    0  0.00000000000E+00  0.00000000000E+00  0.63696185503E+03  0.14559224608E+04  0.13091943351E+04 0.  0.
        3    1    3    3  502    0  0.20796718521E+03 -0.90731577427E+02  0.10013121480E+04  0.10266979095E+04  0.10100000352E+00 0. -1.
       -3    1    3    3    0  502 -0.20796718521E+03  0.90731577427E+02 -0.36435029302E+03  0.42922455136E+03  0.10100000352E+00 0.  1.
</event>
<event>
 5   0  0.3259968E-03  0.1294079E+04  0.7818609E-02  0.9034274E-01
       -2   -1    0    0    0  501  0.00000000000E+00  0.00000000000E+00  0.36260813136E+03  0.36260813137E+03  0.25500000920E-02 0.  1.
        2   -1    0    0  501    0  0.00000000000E+00  0.00000000000E+00 -0.11545802228E+04  0.11545802228E+04  0.25500000920E-02 0. -1.
    10030    2    1    2    0    0  0.00000000000E+00  0.00000000000E+00 -0.79197209143E+03  0.15171883542E+04  0.12940790967E+04 0.  0.
        4    1    3    3  502    0  0.43309948378E+03 -0.40676244998E+03 -0.95639732289E+02  0.60181344689E+03  0.12699999809E+01 0.  1.
       -4    1    3    3    0  502 -0.43309948378E+03  0.40676244998E+03 -0.69633235914E+03  0.91537490727E+03  0.12699999809E+01 0. -1.
</event>
<event>
 5   0  0.3294720E-03  0.8373683E+03  0.7818609E-02  0.9507449E-01
       -2   -1    0    0    0  501  0.00000000000E+00  0.00000000000E+00  0.85527546641E+03  0.85527546642E+03  0.25500000920E-02 0. -1.
        2   -1    0    0  501    0  0.00000000000E+00  0.00000000000E+00 -0.20495900144E+03  0.20495900146E+03  0.25500000920E-02 0.  1.
    10030    2    1    2    0    0  0.00000000000E+00  0.00000000000E+00  0.65031646497E+03  0.10602344679E+04  0.83736827158E+03 0.  0.
        5    1    3    3  502    0  0.34053297411E+03 -0.18986421950E+03  0.13204144600E+03  0.41166510875E+03  0.46999998093E+01 0.  1.
       -5    1    3    3    0  502 -0.34053297411E+03  0.18986421950E+03  0.51827501897E+03  0.64856935912E+03  0.46999998093E+01 0. -1.
</event>
<event>
 5   0  0.1814770E-03  0.1161742E+04  0.7818609E-02  0.9147018E-01
       -1   -1    0    0    0  501  0.00000000000E+00  0.00000000000E+00  0.35484278274E+03  0.35484278278E+03  0.50400001928E-02 0.  1.
        1   -1    0    0  501    0  0.00000000000E+00  0.00000000000E+00 -0.95087565908E+03  0.95087565909E+03  0.50400001928E-02 0. -1.
    10030    2    1    2    0    0  0.00000000000E+00  0.00000000000E+00 -0.59603287634E+03  0.13057184419E+04  0.11617424240E+04 0.  0.
        5    1    3    3  502    0 -0.18245729263E+03  0.28606780017E+03 -0.82789223304E+03  0.89473632399E+03  0.46999998093E+01 0. -1.
       -5    1    3    3    0  502  0.18245729263E+03 -0.28606780017E+03  0.23185935670E+03  0.41098211788E+03  0.46999998093E+01 0.  1.
</event>
<event>
 5   0  0.1873488E-03  0.1278360E+04  0.7818609E-02  0.9046904E-01
       -1   -1    0    0    0  501  0.00000000000E+00  0.00000000000E+00  0.30246303970E+03  0.30246303974E+03  0.50400001928E-02 0. -1.
        1   -1    0    0  501    0  0.00000000000E+00  0.00000000000E+00 -0.13507464503E+04  0.13507464503E+04  0.50400001928E-02 0.  1.
    10030    2    1    2    0    0  0.00000000000E+00  0.00000000000E+00 -0.10482834106E+04  0.16532094901E+04  0.12783596947E+04 0.  0.
        3    1    3    3  502    0  0.27222754494E+03 -0.13854301088E+03 -0.12502503146E+04  0.12870228674E+04  0.10100000352E+00 0.  1.
       -3    1    3    3    0  502 -0.27222754494E+03  0.13854301088E+03  0.20196690395E+03  0.36618662261E+03  0.10100000352E+00 0. -1.
</event>
<event>
 5   0  0.3299104E-03  0.1487354E+04  0.7818609E-02  0.8892906E-01
       -2   -1    0    0    0  501  0.00000000000E+00  0.00000000000E+00  0.55091974056E+03  0.55091974056E+03  0.25500000920E-02 0. -1.
        2   -1    0    0  501    0  0.00000000000E+00  0.00000000000E+00 -0.10038764722E+04  0.10038764722E+04  0.25500000920E-02 0.  1.
    10030    2    1    2    0    0  0.00000000000E+00  0.00000000000E+00 -0.45295673166E+03  0.15547962128E+04  0.14873538458E+04 0.  0.
        2    1    3    3  502    0  0.59519916716E+03  0.43050824349E+03 -0.10521861608E+03  0.74207166330E+03  0.25500000920E-02 0. -1.
       -2    1    3    3    0  502 -0.59519916716E+03 -0.43050824349E+03 -0.34773811557E+03  0.81272454948E+03  0.25500000920E-02 0.  1.
</event>
<event>
 5   0  0.3294720E-03  0.1299126E+04  0.7818609E-02  0.9030259E-01
        2   -1    0    0  501    0  0.00000000000E+00  0.00000000000E+00  0.75927664777E+03  0.75927664778E+03  0.25500000920E-02 0.  1.
       -2   -1    0    0    0  501  0.00000000000E+00  0.00000000000E+00 -0.55570265066E+03  0.55570265066E+03  0.25500000920E-02 0. -1.
    10030    2    1    2    0    0  0.00000000000E+00  0.00000000000E+00  0.20357399712E+03  0.13149792984E+04  0.12991259304E+04 0.  0.
        5    1    3    3  502    0  0.48595564203E+03  0.36985628349E+03 -0.12219001269E+03  0.62281541861E+03  0.46999998093E+01 0. -1.
       -5    1    3    3    0  502 -0.48595564203E+03 -0.36985628349E+03  0.32576400981E+03  0.69216387983E+03  0.46999998093E+01 0.  1.
</event>
<event>
 5   0  0.3336609E-03  0.1265708E+04  0.7818609E-02  0.9057210E-01
        2   -1    0    0  501    0  0.00000000000E+00  0.00000000000E+00  0.53532805635E+03  0.53532805635E+03  0.25500000920E-02 0.  1.
       -2   -1    0    0    0  501  0.00000000000E+00  0.00000000000E+00 -0.74814683393E+03  0.74814683393E+03  0.25500000920E-02 0. -1.
    10030    2    1    2    0    0  0.00000000000E+00  0.00000000000E+00 -0.21281877758E+03  0.12834748903E+04  0.12657076921E+04 0.  0.
        1    1    3    3  502    0 -0.48590897896E+02 -0.55423904582E+03 -0.41224210792E+03  0.69244895179E+03  0.50400001928E-02 0. -1.
       -1    1    3    3    0  502  0.48590897896E+02  0.55423904582E+03  0.19942333034E+03  0.59102593850E+03  0.50400001928E-02 0.  1.
</event>
<event>
 5   0  0.3259968E-03  0.1235292E+04  0.7818609E-02  0.9082515E-01
       -2   -1    0    0    0  501  0.00000000000E+00  0.00000000000E+00  0.69758320427E+03  0.69758320428E+03  0.25500000920E-02 0.  1.
        2   -1    0    0  501    0  0.00000000000E+00  0.00000000000E+00 -0.54686857787E+03  0.54686857788E+03  0.25500000920E-02 0. -1.
    10030    2    1    2    0    0  0.00000000000E+00  0.00000000000E+00  0.15071462640E+03  0.12444517822E+04  0.12352916010E+04 0.  0.
        4    1    3    3  502    0 -0.21914270820E+03  0.25893042021E+03 -0.44462542539E+03  0.55925116975E+03  0.12699999809E+01 0. -1.
       -4    1    3    3    0  502  0.21914270820E+03 -0.25893042021E+03  0.59534005179E+03  0.68520061240E+03  0.12699999809E+01 0.  1.
</event>
<event>
 5   0  0.3294720E-03  0.1309410E+04  0.7818609E-02  0.9022136E-01
       -2   -1    0    0    0  501  0.00000000000E+00  0.00000000000E+00  0.77245058543E+03  0.77245058544E+03  0.25500000920E-02 0. -1.
        2   -1    0    0  501    0  0.00000000000E+00  0.00000000000E+00 -0.55490714115E+03  0.55490714116E+03  0.25500000920E-02 0.  1.
    10030    2    1    2    0    0  0.00000000000E+00  0.00000000000E+00  0.21754344428E+03  0.13273577266E+04  0.13094095556E+04 0.  0.
        5    1    3    3  502    0  0.34249574937E+03  0.13009186761E+03  0.65878513808E+03  0.75382171666E+03  0.46999998093E+01 0. -1.
       -5    1    3    3    0  502 -0.34249574937E+03 -0.13009186761E+03 -0.44124169380E+03  0.57353600994E+03  0.46999998093E+01 0.  1.
</event>
<event>
 5   0  0.3262927E-03  0.1315499E+04  0.7818609E-02  0.9017364E-01
        2   -1    0    0  501    0  0.00000000000E+00  0.00000000000E+00  0.23398741281E+04  0.23398741281E+04  0.25500000920E-02 0. -1.
       -2   -1    0    0    0  501  0.00000000000E+00  0.00000000000E+00 -0.18489636769E+03  0.18489636771E+03  0.25500000920E-02 0.  1.
    10030    2    1    2    0    0  0.00000000000E+00  0.00000000000E+00  0.21549777604E+04  0.25247704958E+04  0.13154987300E+04 0.  0.
        3    1    3    3  502    0  0.14178291827E+03 -0.59894021337E+03  0.15226656221E+04  0.16423587861E+04  0.10100000352E+00 0. -1.
       -3    1    3    3    0  502 -0.14178291827E+03  0.59894021337E+03  0.63231213828E+03  0.88241170976E+03  0.10100000352E+00 0.  1.
</event>
<event>
 5   0  0.1823154E-03  0.1308674E+04  0.7818609E-02  0.9022715E-01
       -1   -1    0    0    0  501  0.00000000000E+00  0.00000000000E+00  0.40665364250E+03  0.40665364253E+03  0.50400001928E-02 0.  1.
        1   -1    0    0  501    0  0.00000000000E+00  0.00000000000E+00 -0.10528789958E+04  0.10528789958E+04  0.50400001928E-02 0. -1.
    10030    2    1    2    0    0  0.00000000000E+00  0.00000000000E+00 -0.64622535329E+03  0.14595326383E+04  0.13086742586E+04 0.  0.
        2    1    3    3  502    0 -0.61780408556E+03 -0.42582310300E+02 -0.87417317745E+02  0.62540940889E+03  0.25500000920E-02 0. -1.
       -2    1    3    3    0  502  0.61780408556E+03  0.42582310300E+02 -0.55880803554E+03  0.83412322943E+03  0.25500000920E-02 0.  1.
</event>
<event>
 5   0  0.3294720E-03  0.1274855E+04  0.7818609E-02  0.9049746E-01
       -2   -1    0    0    0  501  0.00000000000E+00  0.00000000000E+00  0.21795610397E+04  0.21795610397E+04  0.25500000920E-02 0.  1.
        2   -1    0    0  501    0  0.00000000000E+00  0.00000000000E+00 -0.18642008409E+03  0.18642008411E+03  0.25500000920E-02 0. -1.
    10030    2    1    2    0    0  0.00000000000E+00  0.00000000000E+00  0.19931409556E+04  0.23659811238E+04  0.12748552111E+04 0.  0.
        5    1    3    3  502    0 -0.27183611681E+03 -0.69081578650E+02  0.20588498434E+04  0.20778719659E+04  0.46999998093E+01 0.  1.
       -5    1    3    3    0  502  0.27183611681E+03  0.69081578650E+02 -0.65708887848E+02  0.28810915788E+03  0.46999998093E+01 0. -1.
</event>
<event>
 5   0  0.1814770E-03  0.1294007E+04  0.7818609E-02  0.9034331E-01
        1   -1    0    0  501    0  0.00000000000E+00  0.00000000000E+00  0.47027627852E+03  0.47027627855E+03  0.50400001928E-02 0. -1.
       -1   -1    0    0    0  501  0.00000000000E+00  0.00000000000E+00 -0.89014361318E+03  0.89014361320E+03  0.50400001928E-02 0.  1.
    10030    2    1    2    0    0  0.00000000000E+00  0.00000000000E+00 -0.41986733466E+03  0.13604198917E+04  0.12940068405E+04 0.  0.
        5    1    3    3  502    0  0.40724953231E+03 -0.29431129862E+03  0.21856293289E+03  0.54796274298E+03  0.46999998093E+01 0. -1.
       -5    1    3    3    0  502 -0.40724953231E+03  0.29431129862E+03 -0.63843026755E+03  0.81245714877E+03  0.46999998093E+01 0.  1.
</event>
<event>
 5   0  0.1814770E-03  0.1315731E+04  0.7818609E-02  0.9017182E-01
       -1   -1    0    0    0  501  0.00000000000E+00  0.00000000000E+00  0.39932452871E+03  0.39932452874E+03  0.50400001928E-02 0. -1.
        1   -1    0    0  501    0  0.00000000000E+00  0.00000000000E+00 -0.10837978880E+04  0.10837978881E+04  0.50400001928E-02 0.  1.
    10030    2    1    2    0    0  0.00000000000E+00  0.00000000000E+00 -0.68447335934E+03  0.14831224168E+04  0.13157310985E+04 0.  0.
        5    1    3    3  502    0  0.69323362575E+02 -0.22529872022E+03  0.35006527353E+03  0.42205808565E+03  0.46999998093E+01 0. -1.
       -5    1    3    3    0  502 -0.69323362575E+02  0.22529872022E+03 -0.10345386329E+04  0.10610643311E+04  0.46999998093E+01 0.  1.
</event>
<event>
 5   0  0.1814770E-03  0.1298331E+04  0.7818609E-02  0.9030890E-01
        1   -1    0    0  501    0  0.00000000000E+00  0.00000000000E+00  0.10263719748E+04  0.10263719748E+04  0.50400001928E-02 0.  1.
       -1   -1    0    0    0  501  0.00000000000E+00  0.00000000000E+00 -0.41058777132E+03  0.41058777135E+03  0.50400001928E-02 0. -1.
    10030    2    1    2    0    0  0.00000000000E+00  0.00000000000E+00  0.61578420348E+03  0.14369597462E+04  0.12983309004E+04 0.  0.
        5    1    3    3  502    0 -0.26187862725E+03 -0.34556773297E+03  0.84258709348E+03  0.94761414805E+03  0.46999998093E+01 0.  1.
       -5    1    3    3    0  502  0.26187862725E+03  0.34556773297E+03 -0.22680289001E+03  0.48934559811E+03  0.46999998093E+01 0. -1.
</event>
<event>
 5   0  0.1803959E-03  0.1291443E+04  0.7818609E-02  0.9036378E-01
       -1   -1    0    0    0  501  0.00000000000E+00  0.00000000000E+00  0.12011070197E+04  0.12011070197E+04  0.50400001928E-02 0.  1.
        1   -1    0    0  501    0  0.00000000000E+00  0.00000000000E+00 -0.34714338213E+03  0.34714338217E+03  0.50400001928E-02 0. -1.
    10030    2    1    2    0    0  0.00000000000E+00  0.00000000000E+00  0.85396363759E+03  0.15482504019E+04  0.12914431512E+04 0.  0.
        4    1    3    3  502    0  0.34494781302E+03  0.47033614872E+03  0.94854866371E+02  0.59093497534E+03  0.12699999809E+01 0. -1.
       -4    1    3    3    0  502 -0.34494781302E+03 -0.47033614872E+03  0.75910877122E+03  0.95731542656E+03  0.12699999809E+01 0.  1.
</event>
<event>
 5   0  0.3262927E-03  0.1311147E+04  0.7818609E-02  0.9020772E-01
       -2   -1    0    0    0  501  0.00000000000E+00  0.00000000000E+00  0.16912351663E+03  0.16912351665E+03  0.25500000920E-02 0. -1.
        2   -1    0    0  501    0  0.00000000000E+00  0.00000000000E+00 -0.25412012900E+04  0.25412012900E+04  0.25500000920E-02 0.  1.
    10030    2    1    2    0    0  0.00000000000E+00  0.00000000000E+00 -0.23720777734E+04  0.27103248067E+04  0.13111474344E+04 0.  0.
        3    1    3    3  502    0  0.98152973879E+02  0.36307048361E+03 -0.22960037557E+04  0.23266042720E+04  0.10100000352E+00 0.  1.
       -3    1    3    3    0  502 -0.98152973879E+02 -0.36307048361E+03 -0.76074017756E+02  0.38372053467E+03  0.10100000352E+00 0. -1.
</event>
<event>
 5   0  0.1254125E-03  0.1139936E+04  0.7818609E-02  0.9167118E-01
       -4   -1    0    0    0  501  0.00000000000E+00  0.00000000000E+00  0.72862563868E+03  0.72862674549E+03  0.12699999809E+01 0. -1.
        4   -1    0    0  501    0  0.00000000000E+00  0.00000000000E+00 -0.44585584262E+03  0.44585765139E+03  0.12699999809E+01 0.  1.
    10030    2    1    2    0    0  0.00000000000E+00  0.00000000000E+00  0.28276979606E+03  0.11744843969E+04  0.11399363320E+04 0.  0.
        2    1    3    3  502    0 -0.33540073629E+03 -0.44098366109E+03  0.27924393031E+03  0.62043324852E+03  0.25500000920E-02 0. -1.
       -2    1    3    3    0  502  0.33540073629E+03  0.44098366109E+03  0.35258657474E+01  0.55405114835E+03  0.25500000920E-02 0.  1.
</event>
<event>
 5   0  0.1803959E-03  0.1312871E+04  0.7818609E-02  0.9019420E-01
        1   -1    0    0  501    0  0.00000000000E+00  0.00000000000E+00  0.19066847507E+04  0.19066847507E+04  0.50400001928E-02 0.  1.
       -1   -1    0    0    0  501  0.00000000000E+00  0.00000000000E+00 -0.22599847997E+03  0.22599848003E+03  0.50400001928E-02 0. -1.
    10030    2    1    2    0    0  0.00000000000E+00  0.00000000000E+00  0.16806862707E+04  0.21326832307E+04  0.13128714415E+04 0.  0.
        4    1    3    3  502    0  0.11797163417E+03  0.27483794316E+03  0.17895691789E+04  0.18143904377E+04  0.12699999809E+01 0.  1.
       -4    1    3    3    0  502 -0.11797163417E+03 -0.27483794316E+03 -0.10888290822E+03  0.31829279299E+03  0.12699999809E+01 0. -1.
</event>
<event>
 5   0  0.3299104E-03  0.1349097E+04  0.7818609E-02  0.8991512E-01
        2   -1    0    0  501    0  0.00000000000E+00  0.00000000000E+00  0.13701440566E+04  0.13701440566E+04  0.25500000920E-02 0.  1.
       -2   -1    0    0    0  501  0.00000000000E+00  0.00000000000E+00 -0.33209327306E+03  0.33209327307E+03  0.25500000920E-02 0. -1.
    10030    2    1    2    0    0  0.00000000000E+00  0.00000000000E+00  0.10380507835E+04  0.17022373297E+04  0.13490969192E+04 0.  0.
        2    1    3    3  502    0 -0.56527097761E+03  0.36425850155E+03  0.45225822101E+03  0.81040300627E+03  0.25500000920E-02 0.  1.
       -2    1    3    3    0  502  0.56527097761E+03 -0.36425850155E+03  0.58579256251E+03  0.89183432340E+03  0.25500000920E-02 0. -1.
</event>
<event>
 5   0  0.3299104E-03  0.1273759E+04  0.7818609E-02  0.9050638E-01
       -2   -1    0    0    0  501  0.00000000000E+00  0.00000000000E+00  0.35184732854E+03  0.35184732854E+03  0.25500000920E-02 0. -1.
        2   -1    0    0  501    0  0.00000000000E+00  0.00000000000E+00 -0.11528161927E+04  0.11528161927E+04  0.25500000920E-02 0.  1.
    10030    2    1    2    0    0  0.00000000000E+00  0.00000000000E+00 -0.80096886416E+03  0.15046635212E+04  0.12737586863E+04 0.  0.
        2    1    3    3  502    0  0.51118375983E+03  0.35838603013E+03 -0.25169064682E+03  0.67312522209E+03  0.25500000920E-02 0. -1.
       -2    1    3    3    0  502 -0.51118375983E+03 -0.35838603013E+03 -0.54927821735E+03  0.83153829916E+03  0.25500000920E-02 0.  1.
</event>
<event>
 5   0  0.1803959E-03  0.1305352E+04  0.7818609E-02  0.9025332E-01
       -1   -1    0    0    0  501  0.00000000000E+00  0.00000000000E+00  0.26910119991E+03  0.26910119995E+03  0.50400001928E-02 0. -1.
        1   -1    0    0  501    0  0.00000000000E+00  0.00000000000E+00 -0.15829959571E+04  0.15829959571E+04  0.50400001928E-02 0.  1.
    10030    2    1    2    0    0  0.00000000000E+00  0.00000000000E+00 -0.13138947572E+04  0.18520971570E+04  0.13053522307E+04 0.  0.
        4    1    3    3  502    0 -0.88642211368E+02 -0.57729253795E+03 -0.24362535949E+03  0.63283413680E+03  0.12699999809E+01 0. -1.
       -4    1    3    3    0  502  0.88642211368E+02  0.57729253795E+03 -0.10702693977E+04  0.12192630202E+04  0.12699999809E+01 0.  1.
</event>
<event>
 5   0  0.3294720E-03  0.1006934E+04  0.7818609E-02  0.9300972E-01
       -2   -1    0    0    0  501  0.00000000000E+00  0.00000000000E+00  0.57085628480E+03  0.57085628481E+03  0.25500000920E-02 0.  1.
        2   -1    0    0  501    0  0.00000000000E+00  0.00000000000E+00 -0.44403309224E+03  0.44403309225E+03  0.25500000920E-02 0. -1.
    10030    2    1    2    0    0  0.00000000000E+00  0.00000000000E+00  0.12682319256E+03  0.10148893771E+04  0.10069341217E+04 0.  0.
        5    1    3    3  502    0 -0.24613946232E+03 -0.17560871112E+03  0.46912620055E+03  0.55814383126E+03  0.46999998093E+01 0.  1.
       -5    1    3    3    0  502  0.24613946232E+03  0.17560871112E+03 -0.34230300798E+03  0.45674554580E+03  0.46999998093E+01 0. -1.
</event>
<event>
 5   0  0.1873488E-03  0.1290470E+04  0.7818609E-02  0.9037157E-01
        1   -1    0    0  501    0  0.00000000000E+00  0.00000000000E+00  0.12443800869E+04  0.12443800869E+04  0.50400001928E-02 0.  1.
       -1   -1    0    0    0  501  0.00000000000E+00  0.00000000000E+00 -0.33456668329E+03  0.33456668333E+03  0.50400001928E-02 0. -1.
    10030    2    1    2    0    0  0.00000000000E+00  0.00000000000E+00  0.90981340360E+03  0.15789467702E+04  0.12904698655E+04 0.  0.
        3    1    3    3  502    0  0.29803639993E+03  0.48964365076E+03  0.81735570988E+03  0.99832207583E+03  0.10100000352E+00 0.  1.
       -3    1    3    3    0  502 -0.29803639993E+03 -0.48964365076E+03  0.92457693714E+02  0.58062469440E+03  0.10100000352E+00 0. -1.
</event>
<event>
 5   0  0.3259968E-03  0.1310079E+04  0.7818609E-02  0.9021610E-01
       -2   -1    0    0    0  501  0.00000000000E+00  0.00000000000E+00  0.33535805616E+03  0.33535805617E+03  0.25500000920E-02 0.  1.
        2   -1    0    0  501    0  0.00000000000E+00  0.00000000000E+00 -0.12794594318E+04  0.12794594318E+04  0.25500000920E-02 0. -1.
    10030    2    1    2    0    0  0.00000000000E+00  0.00000000000E+00 -0.94410137566E+03  0.16148174880E+04  0.13100794296E+04 0.  0.
        4    1    3    3  502    0 -0.52279244167E+03 -0.39462275265E+03 -0.46461802537E+03  0.80306324556E+03  0.12699999809E+01 0.  1.
       -4    1    3    3    0  502  0.52279244167E+03  0.39462275265E+03 -0.47948335029E+03  0.81175424242E+03  0.12699999809E+01 0. -1.
</event>
<event>
 5   0  0.1254125E-03  0.1326978E+04  0.7818609E-02  0.9008441E-01
       -3   -1    0    0    0  501  0.00000000000E+00  0.00000000000E+00  0.16737138694E+04  0.16737138724E+04  0.10100000352E+00 0.  1.
        3   -1    0    0  501    0  0.00000000000E+00  0.00000000000E+00 -0.26301840766E+03  0.26301842706E+03  0.10100000352E+00 0. -1.
    10030    2    1    2    0    0  0.00000000000E+00  0.00000000000E+00  0.14106954617E+04  0.19367322995E+04  0.13269778876E+04 0.  0.
        1    1    3    3  502    0  0.47080417995E+03  0.62175996669E+02  0.13816129073E+04  0.14609506001E+04  0.50400001928E-02 0.  1.
       -1    1    3    3    0  502 -0.47080417995E+03 -0.62175996669E+02  0.29082554406E+02  0.47578169933E+03  0.50400001928E-02 0. -1.
</event>
<event>
 5   0  0.1254125E-03  0.1303502E+04  0.7818609E-02  0.9026793E-01
       -4   -1    0    0    0  501  0.00000000000E+00  0.00000000000E+00  0.10053898077E+04  0.10053906099E+04  0.12699999809E+01 0. -1.
        4   -1    0    0  501    0  0.00000000000E+00  0.00000000000E+00 -0.42249991245E+03  0.42250182120E+03  0.12699999809E+01 0.  1.
    10030    2    1    2    0    0  0.00000000000E+00  0.00000000000E+00  0.58288989530E+03  0.14278924311E+04  0.13035015016E+04 0.  0.
        2    1    3    3  502    0 -0.40345584787E+03 -0.50821681798E+03  0.22464999198E+03  0.68667938236E+03  0.25500000920E-02 0.  1.
       -2    1    3    3    0  502  0.40345584787E+03  0.50821681798E+03  0.35823990332E+03  0.74121304872E+03  0.25500000920E-02 0. -1.
</event>
<event>
 5   0  0.1857986E-03  0.1290750E+04  0.7818609E-02  0.9036933E-01
        1   -1    0    0  501    0  0.00000000000E+00  0.00000000000E+00  0.60021873119E+03  0.60021873122E+03  0.50400001928E-02 0.  1.
       -1   -1    0    0    0  501  0.00000000000E+00  0.00000000000E+00 -0.69392849282E+03  0.69392849284E+03  0.50400001928E-02 0. -1.
    10030    2    1    2    0    0  0.00000000000E+00  0.00000000000E+00 -0.93709761627E+02  0.12941472241E+04  0.12907499828E+04 0.  0.
        1    1    3    3  502    0 -0.26508914169E+03  0.51267641491E+03  0.24269496158E+03  0.62610718239E+03  0.50400001928E-02 0.  1.
       -1    1    3    3    0  502  0.26508914169E+03 -0.51267641491E+03 -0.33640472320E+03  0.66804004166E+03  0.50400001928E-02 0. -1.
</event>
<event>
 5   0  0.1857986E-03  0.1284657E+04  0.7818609E-02  0.9041821E-01
        1   -1    0    0  501    0  0.00000000000E+00  0.00000000000E+00  0.56907252217E+03  0.56907252220E+03  0.50400001928E-02 0.  1.
       -1   -1    0    0    0  501  0.00000000000E+00  0.00000000000E+00 -0.72501499451E+03  0.72501499453E+03  0.50400001928E-02 0. -1.
    10030    2    1    2    0    0  0.00000000000E+00  0.00000000000E+00 -0.15594247234E+03  0.12940875167E+04  0.12846573264E+04 0.  0.
        1    1    3    3  502    0 -0.24470512513E+03 -0.55911136476E+03 -0.27969102715E+03  0.67135176112E+03  0.50400001928E-02 0.  1.
       -1    1    3    3    0  502  0.24470512513E+03  0.55911136476E+03  0.12374855481E+03  0.62273575561E+03  0.50400001928E-02 0. -1.
</event>
<event>
 5   0  0.1873488E-03  0.1313108E+04  0.7818609E-02  0.9019234E-01
        1   -1    0    0  501    0  0.00000000000E+00  0.00000000000E+00  0.10290992824E+04  0.10290992824E+04  0.50400001928E-02 0. -1.
       -1   -1    0    0    0  501  0.00000000000E+00  0.00000000000E+00 -0.41887433463E+03  0.41887433466E+03  0.50400001928E-02 0.  1.
    10030    2    1    2    0    0  0.00000000000E+00  0.00000000000E+00  0.61022494777E+03  0.14479736171E+04  0.13131081863E+04 0.  0.
        3    1    3    3  502    0  0.51066101349E+03 -0.26155111654E+03  0.65708095688E+03  0.87231820533E+03  0.10100000352E+00 0. -1.
       -3    1    3    3    0  502 -0.51066101349E+03  0.26155111654E+03 -0.46856009109E+02  0.57565541173E+03  0.10100000352E+00 0.  1.
</event>
<event>
 5   0  0.3259968E-03  0.1315991E+04  0.7818609E-02  0.9016979E-01
       -2   -1    0    0    0  501  0.00000000000E+00  0.00000000000E+00  0.61688959313E+03  0.61688959314E+03  0.25500000920E-02 0.  1.
        2   -1    0    0  501    0  0.00000000000E+00  0.00000000000E+00 -0.70184055815E+03  0.70184055815E+03  0.25500000920E-02 0. -1.
    10030    2    1    2    0    0  0.00000000000E+00  0.00000000000E+00 -0.84950965012E+02  0.13187301513E+04  0.13159910887E+04 0.  0.
        4    1    3    3  502    0 -0.38169791390E+03  0.28474277608E+03 -0.49749632130E+03  0.68867695520E+03  0.12699999809E+01 0. -1.
       -4    1    3    3    0  502  0.38169791390E+03 -0.28474277608E+03  0.41254535629E+03  0.63005319609E+03  0.12699999809E+01 0.  1.
</event>
<event>
 5   0  0.3336609E-03  0.1320675E+04  0.7818609E-02  0.9013329E-01
        2   -1    0    0  501    0  0.00000000000E+00  0.00000000000E+00  0.12856472295E+04  0.12856472295E+04  0.25500000920E-02 0. -1.
       -2   -1    0    0    0  501  0.00000000000E+00  0.00000000000E+00 -0.33916427523E+03  0.33916427524E+03  0.25500000920E-02 0.  1.
    10030    2    1    2    0    0  0.00000000000E+00  0.00000000000E+00  0.94648295432E+03  0.16248115048E+04  0.13206749953E+04 0.  0.
        1    1    3    3  502    0 -0.13912058061E+03  0.60763957272E+03  0.20520444541E+03  0.65626919075E+03  0.50400001928E-02 0.  1.
       -1    1    3    3    0  502  0.13912058061E+03 -0.60763957272E+03  0.74127850890E+03  0.96854231403E+03  0.50400001928E-02 0. -1.
</event>
<event>
 5   0  0.1254125E-03  0.1286868E+04  0.7818609E-02  0.9040044E-01
        4   -1    0    0  501    0  0.00000000000E+00  0.00000000000E+00  0.75064656016E+03  0.75064763450E+03  0.12699999809E+01 0.  1.
       -4   -1    0    0    0  501  0.00000000000E+00  0.00000000000E+00 -0.55153242095E+03  0.55153388315E+03  0.12699999809E+01 0. -1.
    10030    2    1    2    0    0  0.00000000000E+00  0.00000000000E+00  0.19911413921E+03  0.13021815177E+04  0.12868683944E+04 0.  0.
        2    1    3    3  502    0 -0.33447887796E+03 -0.54257446493E+03  0.10507632791E+02  0.63747437607E+03  0.25500000920E-02 0. -1.
       -2    1    3    3    0  502  0.33447887796E+03  0.54257446493E+03  0.18860650642E+03  0.66470714158E+03  0.25500000920E-02 0.  1.
</event>
<event>
 5   0  0.1823154E-03  0.1317531E+04  0.7818609E-02  0.9015777E-01
        1   -1    0    0  501    0  0.00000000000E+00  0.00000000000E+00  0.20501188117E+04  0.20501188117E+04  0.50400001928E-02 0. -1.
       -1   -1    0    0    0  501  0.00000000000E+00  0.00000000000E+00 -0.21168136567E+03  0.21168136573E+03  0.50400001928E-02 0.  1.
    10030    2    1    2    0    0  0.00000000000E+00  0.00000000000E+00  0.18384374460E+04  0.22618001774E+04  0.13175309483E+04 0.  0.
        2    1    3    3  502    0 -0.35063115017E+03 -0.26029040470E+03  0.17659496221E+04  0.18191402822E+04  0.25500000920E-02 0. -1.
       -2    1    3    3    0  502  0.35063115017E+03  0.26029040470E+03  0.72487823873E+02  0.44265989525E+03  0.25500000920E-02 0.  1.
</event>
<event>
 5   0  0.1814770E-03  0.1317639E+04  0.7818609E-02  0.9015693E-01
       -1   -1    0    0    0  501  0.00000000000E+00  0.00000000000E+00  0.41190409772E+03  0.41190409775E+03  0.50400001928E-02 0.  1.
        1   -1    0    0  501    0  0.00000000000E+00  0.00000000000E+00 -0.10537478536E+04  0.10537478536E+04  0.50400001928E-02 0. -1.
    10030    2    1    2    0    0  0.00000000000E+00  0.00000000000E+00 -0.64184375590E+03  0.14656519514E+04  0.13176388866E+04 0.  0.
        5    1    3    3  502    0  0.10349025598E+03 -0.22903348543E+03  0.35646404046E+03  0.43618261390E+03  0.46999998093E+01 0.  1.
       -5    1    3    3    0  502 -0.10349025598E+03  0.22903348543E+03 -0.99830779636E+03  0.10294693375E+04  0.46999998093E+01 0. -1.
</event>
<event>
 5   0  0.3259968E-03  0.1302323E+04  0.7818609E-02  0.9027725E-01
        2   -1    0    0  501    0  0.00000000000E+00  0.00000000000E+00  0.12888497649E+04  0.12888497649E+04  0.25500000920E-02 0. -1.
       -2   -1    0    0    0  501  0.00000000000E+00  0.00000000000E+00 -0.32898427396E+03  0.32898427397E+03  0.25500000920E-02 0.  1.
    10030    2    1    2    0    0  0.00000000000E+00  0.00000000000E+00  0.95986549092E+03  0.16178340389E+04  0.13023230078E+04 0.  0.
        4    1    3    3  502    0  0.38705609004E+03 -0.32479677098E+03  0.99017729317E+03  0.11116465464E+04  0.12699999809E+01 0. -1.
       -4    1    3    3    0  502 -0.38705609004E+03  0.32479677098E+03 -0.30311802256E+02  0.50618749247E+03  0.12699999809E+01 0.  1.
</event>
<event>
 5   0  0.1873488E-03  0.1375354E+04  0.7818609E-02  0.8971855E-01
        1   -1    0    0  501    0  0.00000000000E+00  0.00000000000E+00  0.12287687621E+04  0.12287687621E+04  0.50400001928E-02 0. -1.
       -1   -1    0    0    0  501  0.00000000000E+00  0.00000000000E+00 -0.38485635259E+03  0.38485635263E+03  0.50400001928E-02 0.  1.
    10030    2    1    2    0    0  0.00000000000E+00  0.00000000000E+00  0.84391240948E+03  0.16136251147E+04  0.13753537203E+04 0.  0.
        3    1    3    3  502    0  0.47288927235E+03 -0.25651539297E+03 -0.80590856019E+02  0.54398465696E+03  0.10100000352E+00 0.  1.
       -3    1    3    3    0  502 -0.47288927235E+03  0.25651539297E+03  0.92450326550E+03  0.10696404577E+04  0.10100000352E+00 0. -1.
</event>
<event>
 5   0  0.3259968E-03  0.1337061E+04  0.7818609E-02  0.9000681E-01
        2   -1    0    0  501    0  0.00000000000E+00  0.00000000000E+00  0.12172724338E+04  0.12172724338E+04  0.25500000920E-02 0.  1.
       -2   -1    0    0    0  501  0.00000000000E+00  0.00000000000E+00 -0.36715963400E+03  0.36715963400E+03  0.25500000920E-02 0. -1.
    10030    2    1    2    0    0  0.00000000000E+00  0.00000000000E+00  0.85011279983E+03  0.15844320678E+04  0.13370614066E+04 0.  0.
        4    1    3    3  502    0 -0.92034846450E+02 -0.48708976127E+03 -0.10649036818E+03  0.50701938810E+03  0.12699999809E+01 0. -1.
       -4    1    3    3    0  502  0.92034846450E+02  0.48708976127E+03  0.95660316801E+03  0.10774126797E+04  0.12699999809E+01 0.  1.
</event>
<event>
 5   0  0.1857986E-03  0.1259775E+04  0.7818609E-02  0.9062086E-01
       -1   -1    0    0    0  501  0.00000000000E+00  0.00000000000E+00  0.56435114118E+03  0.56435114121E+03  0.50400001928E-02 0.  1.
        1   -1    0    0  501    0  0.00000000000E+00  0.00000000000E+00 -0.70303474808E+03  0.70303474809E+03  0.50400001928E-02 0. -1.
    10030    2    1    2    0    0  0.00000000000E+00  0.00000000000E+00 -0.13868360689E+03  0.12673858893E+04  0.12597753171E+04 0.  0.
        1    1    3    3  502    0  0.81787436037E+02 -0.44093649113E+03 -0.51433088955E+03  0.68238584238E+03  0.50400001928E-02 0. -1.
       -1    1    3    3    0  502 -0.81787436037E+02  0.44093649113E+03  0.37564728266E+03  0.58500004692E+03  0.50400001928E-02 0.  1.
</event>
<event>
 5   0  0.1857986E-03  0.1257670E+04  0.7818609E-02  0.9063824E-01
       -1   -1    0    0    0  501  0.00000000000E+00  0.00000000000E+00  0.12788882351E+04  0.12788882352E+04  0.50400001928E-02 0. -1.
        1   -1    0    0  501    0  0.00000000000E+00  0.00000000000E+00 -0.30920088694E+03  0.30920088698E+03  0.50400001928E-02 0.  1.
    10030    2    1    2    0    0  0.00000000000E+00  0.00000000000E+00  0.96968734821E+03  0.15880891221E+04  0.12576698719E+04 0.  0.
        1    1    3    3  502    0  0.60203885060E+03 -0.11786681511E+03  0.31037746507E+03  0.68751547952E+03  0.50400001928E-02 0.  1.
       -1    1    3    3    0  502 -0.60203885060E+03  0.11786681511E+03  0.65930988314E+03  0.90057364261E+03  0.50400001928E-02 0. -1.
</event>
<event>
 5   0  0.3259968E-03  0.1320462E+04  0.7818609E-02  0.9013494E-01
        2   -1    0    0  501    0  0.00000000000E+00  0.00000000000E+00  0.10477513754E+04  0.10477513754E+04  0.25500000920E-02 0. -1.
       -2   -1    0    0    0  501  0.00000000000E+00  0.00000000000E+00 -0.41603875229E+03  0.41603875230E+03  0.25500000920E-02 0.  1.
    10030    2    1    2    0    0  0.00000000000E+00  0.00000000000E+00  0.63171262312E+03  0.14637901277E+04  0.13204623053E+04 0.  0.
        4    1    3    3  502    0 -0.33826210856E+03 -0.56172574607E+03  0.23037261301E+03  0.69500375654E+03  0.12699999809E+01 0.  1.
       -4    1    3    3    0  502  0.33826210856E+03  0.56172574607E+03  0.40134001011E+03  0.76878637117E+03  0.12699999809E+01 0. -1.
</event>
<event>
 5   0  0.3336609E-03  0.1298868E+04  0.7818609E-02  0.9030464E-01
       -2   -1    0    0    0  501  0.00000000000E+00  0.00000000000E+00  0.15263295561E+04  0.15263295561E+04  0.25500000920E-02 0. -1.
        2   -1    0    0  501    0  0.00000000000E+00  0.00000000000E+00 -0.27632587625E+03  0.27632587626E+03  0.25500000920E-02 0.  1.
    10030    2    1    2    0    0  0.00000000000E+00  0.00000000000E+00  0.12500036799E+04  0.18026554324E+04  0.12988677408E+04 0.  0.
        1    1    3    3  502    0  0.76871891453E+02 -0.12518049215E+02  0.15198244477E+04  0.15218187609E+04  0.50400001928E-02 0. -1.
       -1    1    3    3    0  502 -0.76871891453E+02  0.12518049215E+02 -0.26982076783E+03  0.28083667145E+03  0.50400001928E-02 0.  1.
</event>
<event>
 5   0  0.3299104E-03  0.1298912E+04  0.7818609E-02  0.9030428E-01
        2   -1    0    0  501    0  0.00000000000E+00  0.00000000000E+00  0.61364890016E+03  0.61364890016E+03  0.25500000920E-02 0. -1.
       -2   -1    0    0    0  501  0.00000000000E+00  0.00000000000E+00 -0.68735257980E+03  0.68735257980E+03  0.25500000920E-02 0.  1.
    10030    2    1    2    0    0  0.00000000000E+00  0.00000000000E+00 -0.73703679639E+02  0.13010014800E+04  0.12989120904E+04 0.  0.
        2    1    3    3  502    0  0.95340028130E+02  0.48861030460E+03 -0.45461196030E+03  0.67416747562E+03  0.25500000920E-02 0.  1.
       -2    1    3    3    0  502 -0.95340028130E+02 -0.48861030460E+03  0.38090828066E+03  0.62683400435E+03  0.25500000920E-02 0. -1.
</event>
<event>
 5   0  0.3259968E-03  0.1323395E+04  0.7818609E-02  0.9011216E-01
        2   -1    0    0  501    0  0.00000000000E+00  0.00000000000E+00  0.11194058632E+04  0.11194058632E+04  0.25500000920E-02 0. -1.
       -2   -1    0    0    0  501  0.00000000000E+00  0.00000000000E+00 -0.39113906175E+03  0.39113906176E+03  0.25500000920E-02 0.  1.
    10030    2    1    2    0    0  0.00000000000E+00  0.00000000000E+00  0.72826680142E+03  0.15105449249E+04  0.13233946638E+04 0.  0.
        4    1    3    3  502    0  0.42538240381E+03  0.33959771646E+03  0.79359282077E+03  0.96232425750E+03  0.12699999809E+01 0. -1.
       -4    1    3    3    0  502 -0.42538240381E+03 -0.33959771646E+03 -0.65326019351E+02  0.54822066743E+03  0.12699999809E+01 0.  1.
</event>
<event>
 5   0  0.1857986E-03  0.8491472E+03  0.7818609E-02  0.9491482E-01
       -1   -1    0    0    0  501  0.00000000000E+00  0.00000000000E+00  0.15091003405E+03  0.15091003414E+03  0.50400001928E-02 0. -1.
        1   -1    0    0  501    0  0.00000000000E+00  0.00000000000E+00 -0.11945045401E+04  0.11945045401E+04  0.50400001928E-02 0.  1.
    10030    2    1    2    0    0  0.00000000000E+00  0.00000000000E+00 -0.10435945060E+04  0.13454145742E+04  0.84914715070E+03 0.  0.
        1    1    3    3  502    0  0.28079573305E+03 -0.77516885977E+02 -0.32396448955E+02  0.29309493555E+03  0.50400001928E-02 0. -1.
       -1    1    3    3    0  502 -0.28079573305E+03  0.77516885977E+02 -0.10111980571E+04  0.10523196387E+04  0.50400001928E-02 0.  1.
</event>
<event>
 5   0  0.1873488E-03  0.1232174E+04  0.7818609E-02  0.9085151E-01
        1   -1    0    0  501    0  0.00000000000E+00  0.00000000000E+00  0.44269831783E+03  0.44269831786E+03  0.50400001928E-02 0.  1.
       -1   -1    0    0    0  501  0.00000000000E+00  0.00000000000E+00 -0.85738612568E+03  0.85738612570E+03  0.50400001928E-02 0. -1.
    10030    2    1    2    0    0  0.00000000000E+00  0.00000000000E+00 -0.41468780785E+03  0.13000844436E+04  0.12321743312E+04 0.  0.
        3    1    3    3  502    0 -0.41706139980E+03 -0.16032585687E+03  0.24020208571E+03  0.50728852122E+03  0.10100000352E+00 0.  1.
       -3    1    3    3    0  502  0.41706139980E+03  0.16032585687E+03 -0.65488989357E+03  0.79279592234E+03  0.10100000352E+00 0. -1.
</event>
<event>
 5   0  0.3299104E-03  0.1302218E+04  0.7818609E-02  0.9027808E-01
        2   -1    0    0  501    0  0.00000000000E+00  0.00000000000E+00  0.71545127446E+03  0.71545127447E+03  0.25500000920E-02 0. -1.
       -2   -1    0    0    0  501  0.00000000000E+00  0.00000000000E+00 -0.59255292121E+03  0.59255292122E+03  0.25500000920E-02 0.  1.
    10030    2    1    2    0    0  0.00000000000E+00  0.00000000000E+00  0.12289835325E+03  0.13080041957E+04  0.13022177125E+04 0.  0.
        2    1    3    3  502    0  0.12306237839E+03 -0.31910801137E+03  0.61795847384E+03  0.70629097919E+03  0.25500000920E-02 0. -1.
       -2    1    3    3    0  502 -0.12306237839E+03  0.31910801137E+03 -0.49506012059E+03  0.60171321649E+03  0.25500000920E-02 0.  1.
</event>
<event>
 5   0  0.1823154E-03  0.9456394E+03  0.7818609E-02  0.9370262E-01
        1   -1    0    0  501    0  0.00000000000E+00  0.00000000000E+00  0.52312172513E+03  0.52312172515E+03  0.50400001928E-02 0. -1.
       -1   -1    0    0    0  501  0.00000000000E+00  0.00000000000E+00 -0.42735455254E+03  0.42735455257E+03  0.50400001928E-02 0.  1.
    10030    2    1    2    0    0  0.00000000000E+00  0.00000000000E+00  0.95767172586E+02  0.95047627773E+03  0.94563936211E+03 0.  0.
        2    1    3    3  502    0  0.19392501969E+03  0.19317516323E+03 -0.33962035973E+03  0.43619438980E+03  0.25500000920E-02 0.  1.
       -2    1    3    3    0  502 -0.19392501969E+03 -0.19317516323E+03  0.43538753231E+03  0.51428188792E+03  0.25500000920E-02 0. -1.
</event>
<event>
 5   0  0.1803959E-03  0.1296040E+04  0.7818609E-02  0.9032712E-01
       -1   -1    0    0    0  501  0.00000000000E+00  0.00000000000E+00  0.34894863356E+03  0.34894863359E+03  0.50400001928E-02 0. -1.
        1   -1    0    0  501    0  0.00000000000E+00  0.00000000000E+00 -0.12034138904E+04  0.12034138904E+04  0.50400001928E-02 0.  1.
    10030    2    1    2    0    0  0.00000000000E+00  0.00000000000E+00 -0.85446525684E+03  0.15523625240E+04  0.12960395560E+04 0.  0.
        4    1    3    3  502    0  0.51897485188E+03 -0.67302131812E+02  0.30535774897E+02  0.52421228551E+03  0.12699999809E+01 0. -1.
       -4    1    3    3    0  502 -0.51897485188E+03  0.67302131812E+02 -0.88500103174E+03  0.10281502385E+04  0.12699999809E+01 0.  1.
</event>
<event>
 5   0  0.1803959E-03  0.1293220E+04  0.7818609E-02  0.9034959E-01
       -1   -1    0    0    0  501  0.00000000000E+00  0.00000000000E+00  0.98171045046E+03  0.98171045047E+03  0.50400001928E-02 0. -1.
        1   -1    0    0  501    0  0.00000000000E+00  0.00000000000E+00 -0.42589357987E+03  0.42589357990E+03  0.50400001928E-02 0.  1.
    10030    2    1    2    0    0  0.00000000000E+00  0.00000000000E+00  0.55581687059E+03  0.14076040304E+04  0.12932195145E+04 0.  0.
        4    1    3    3  502    0  0.12166287566E+03 -0.43134504909E+03 -0.22940960592E+03  0.50347868562E+03  0.12699999809E+01 0.  1.
       -4    1    3    3    0  502 -0.12166287566E+03  0.43134504909E+03  0.78522647652E+03  0.90412534475E+03  0.12699999809E+01 0. -1.
</event>
<event>
 5   0  0.3299104E-03  0.1305423E+04  0.7818609E-02  0.9025276E-01
       -2   -1    0    0    0  501  0.00000000000E+00  0.00000000000E+00  0.32964524379E+03  0.32964524380E+03  0.25500000920E-02 0.  1.
        2   -1    0    0  501    0  0.00000000000E+00  0.00000000000E+00 -0.12923959360E+04  0.12923959360E+04  0.25500000920E-02 0. -1.
    10030    2    1    2    0    0  0.00000000000E+00  0.00000000000E+00 -0.96275069221E+03  0.16220411798E+04  0.13054228026E+04 0.  0.
        2    1    3    3  502    0 -0.63657864050E+03 -0.91521041250E+02 -0.34287964950E+03  0.72881748098E+03  0.25500000920E-02 0. -1.
       -2    1    3    3    0  502  0.63657864050E+03  0.91521041250E+02 -0.61987104271E+03  0.89322369882E+03  0.25500000920E-02 0.  1.
</event>
<event>
 5   0  0.1857986E-03  0.1296510E+04  0.7818609E-02  0.9032337E-01
       -1   -1    0    0    0  501  0.00000000000E+00  0.00000000000E+00  0.35569314866E+03  0.35569314870E+03  0.50400001928E-02 0. -1.
        1   -1    0    0  501    0  0.00000000000E+00  0.00000000000E+00 -0.11814528932E+04  0.11814528932E+04  0.50400001928E-02 0.  1.
    10030    2    1    2    0    0  0.00000000000E+00  0.00000000000E+00 -0.82575974451E+03  0.15371460419E+04  0.12965102385E+04 0.  0.
        1    1    3    3  502    0 -0.47947856166E+03 -0.34817708203E+03 -0.72455524544E+03  0.93600602309E+03  0.50400001928E-02 0.  1.
       -1    1    3    3    0  502  0.47947856166E+03  0.34817708203E+03 -0.10120449907E+03  0.60114001880E+03  0.50400001928E-02 0. -1.
</event>
<event>
 5   0  0.3299104E-03  0.1368452E+04  0.7818609E-02  0.8976977E-01
       -2   -1    0    0    0  501  0.00000000000E+00  0.00000000000E+00  0.52479473614E+03  0.52479473615E+03  0.25500000920E-02 0. -1.
        2   -1    0    0  501    0  0.00000000000E+00  0.00000000000E+00 -0.89209175811E+03  0.89209175812E+03  0.25500000920E-02 0.  1.
    10030    2    1    2    0    0  0.00000000000E+00  0.00000000000E+00 -0.36729702197E+03  0.14168864943E+04  0.13684517658E+04 0.  0.
        2    1    3    3  502    0  0.23152543750E+03 -0.52649869526E+03  0.20009049975E+03  0.60896725070E+03  0.25500000920E-02 0.  1.
       -2    1    3    3    0  502 -0.23152543750E+03  0.52649869526E+03 -0.56738752172E+03  0.80791924357E+03  0.25500000920E-02 0. -1.
</event>
<event>
 5   0  0.3299104E-03  0.1297820E+04  0.7818609E-02  0.9031296E-01
       -2   -1    0    0    0  501  0.00000000000E+00  0.00000000000E+00  0.24879359149E+03  0.24879359150E+03  0.25500000920E-02 0.  1.
        2   -1    0    0  501    0  0.00000000000E+00  0.00000000000E+00 -0.16925037617E+04  0.16925037617E+04  0.25500000920E-02 0. -1.
    10030    2    1    2    0    0  0.00000000000E+00  0.00000000000E+00 -0.14437101702E+04  0.19412973532E+04  0.12978198480E+04 0.  0.
        2    1    3    3  502    0  0.60085393504E+03  0.23783354787E+03 -0.63343941051E+03  0.90489542741E+03  0.25500000920E-02 0.  1.
       -2    1    3    3    0  502 -0.60085393504E+03 -0.23783354787E+03 -0.81027075967E+03  0.10364019258E+04  0.25500000920E-02 0. -1.
</event>
<event>
 5   0  0.3299104E-03  0.1312708E+04  0.7818609E-02  0.9019548E-01
       -2   -1    0    0    0  501  0.00000000000E+00  0.00000000000E+00  0.19815613847E+03  0.19815613849E+03  0.25500000920E-02 0.  1.
        2   -1    0    0  501    0  0.00000000000E+00  0.00000000000E+00 -0.21740474541E+04  0.21740474541E+04  0.25500000920E-02 0. -1.
    10030    2    1    2    0    0  0.00000000000E+00  0.00000000000E+00 -0.19758913156E+04  0.23722035926E+04  0.13127084191E+04 0.  0.
        2    1    3    3  502    0  0.21277974929E+03 -0.30223206669E+03 -0.19680928435E+04  0.20025006578E+04  0.25500000920E-02 0. -1.
       -2    1    3    3    0  502 -0.21277974929E+03  0.30223206669E+03 -0.77984721586E+01  0.36970293482E+03  0.25500000920E-02 0.  1.
</event>
<event>
 5   0  0.3336609E-03  0.1311368E+04  0.7818609E-02  0.9020598E-01
        2   -1    0    0  501    0  0.00000000000E+00  0.00000000000E+00  0.15317827586E+04  0.15317827586E+04  0.25500000920E-02 0. -1.
       -2   -1    0    0    0  501  0.00000000000E+00  0.00000000000E+00 -0.28066745721E+03  0.28066745722E+03  0.25500000920E-02 0.  1.
    10030    2    1    2    0    0  0.00000000000E+00  0.00000000000E+00  0.12511153013E+04  0.18124502158E+04  0.13113680976E+04 0.  0.
        1    1    3    3  502    0  0.25002123287E+02  0.46466705191E+03 -0.12881250757E+02  0.46551745611E+03  0.50400001928E-02 0.  1.
       -1    1    3    3    0  502 -0.25002123287E+02 -0.46466705191E+03  0.12639965521E+04  0.13469327597E+04  0.50400001928E-02 0. -1.
</event>
<event>
 5   0  0.1823154E-03  0.1245450E+04  0.7818609E-02  0.9073978E-01
       -1   -1    0    0    0  501  0.00000000000E+00  0.00000000000E+00  0.95850327255E+03  0.95850327256E+03  0.50400001928E-02 0. -1.
        1   -1    0    0  501    0  0.00000000000E+00  0.00000000000E+00 -0.40457522994E+03  0.40457522997E+03  0.50400001928E-02 0.  1.
    10030    2    1    2    0    0  0.00000000000E+00  0.00000000000E+00  0.55392804261E+03  0.13630785025E+04  0.12454504116E+04 0.  0.
        2    1    3    3  502    0 -0.51329339750E+02  0.18283228166E+03 -0.37211210881E+03  0.41776759791E+03  0.25500000920E-02 0.  1.
       -2    1    3    3    0  502  0.51329339750E+02 -0.18283228166E+03  0.92604015142E+03  0.94531090462E+03  0.25500000920E-02 0. -1.
</event>
<event>
 5   0  0.3259968E-03  0.1309736E+04  0.7818609E-02  0.9021880E-01
       -2   -1    0    0    0  501  0.00000000000E+00  0.00000000000E+00  0.56346990051E+03  0.56346990052E+03  0.25500000920E-02 0. -1.
        2   -1    0    0  501    0  0.00000000000E+00  0.00000000000E+00 -0.76109165841E+03  0.76109165842E+03  0.25500000920E-02 0.  1.
    10030    2    1    2    0    0  0.00000000000E+00  0.00000000000E+00 -0.19762175790E+03  0.13245615589E+04  0.13097362193E+04 0.  0.
        4    1    3    3  502    0 -0.14507588361E+03  0.36210350071E+03 -0.63077318334E+03  0.74164842004E+03  0.12699999809E+01 0.  1.
       -4    1    3    3    0  502  0.14507588361E+03 -0.36210350071E+03  0.43315142544E+03  0.58291313889E+03  0.12699999809E+01 0. -1.
</event>
<event>
 5   0  0.3294720E-03  0.1239621E+04  0.7818609E-02  0.9078866E-01
       -2   -1    0    0    0  501  0.00000000000E+00  0.00000000000E+00  0.19823888814E+03  0.19823888816E+03  0.25500000920E-02 0.  1.
        2   -1    0    0  501    0  0.00000000000E+00  0.00000000000E+00 -0.19378900285E+04  0.19378900285E+04  0.25500000920E-02 0. -1.
    10030    2    1    2    0    0  0.00000000000E+00  0.00000000000E+00 -0.17396511404E+04  0.21361289167E+04  0.12396211754E+04 0.  0.
        5    1    3    3  502    0 -0.37410776807E+03 -0.74366013761E+02 -0.17116563224E+04  0.17536465955E+04  0.46999998093E+01 0. -1.
       -5    1    3    3    0  502  0.37410776807E+03  0.74366013761E+02 -0.27994817988E+02  0.38248232112E+03  0.46999998093E+01 0.  1.
</event>
<event>
 5   0  0.1873488E-03  0.1296526E+04  0.7818609E-02  0.9032324E-01
       -1   -1    0    0    0  501  0.00000000000E+00  0.00000000000E+00  0.18665813078E+03  0.18665813085E+03  0.50400001928E-02 0.  1.
        1   -1    0    0  501    0  0.00000000000E+00  0.00000000000E+00 -0.22514156384E+04  0.22514156384E+04  0.50400001928E-02 0. -1.
    10030    2    1    2    0    0  0.00000000000E+00  0.00000000000E+00 -0.20647575077E+04  0.24380737693E+04  0.12965261814E+04 0.  0.
        3    1    3    3  502    0 -0.46018738600E+03 -0.65464459914E+02 -0.18265141009E+03  0.49941923627E+03  0.10100000352E+00 0.  1.
       -3    1    3    3    0  502  0.46018738600E+03  0.65464459914E+02 -0.18821060976E+04  0.19386545330E+04  0.10100000352E+00 0. -1.
</event>
<event>
 5   0  0.3294720E-03  0.9775931E+03  0.7818609E-02  0.9333468E-01
        2   -1    0    0  501    0  0.00000000000E+00  0.00000000000E+00  0.60331814217E+03  0.60331814218E+03  0.25500000920E-02 0. -1.
       -2   -1    0    0    0  501  0.00000000000E+00  0.00000000000E+00 -0.39601336815E+03  0.39601336816E+03  0.25500000920E-02 0.  1.
    10030    2    1    2    0    0  0.00000000000E+00  0.00000000000E+00  0.20730477402E+03  0.99933151034E+03  0.97759306371E+03 0.  0.
        5    1    3    3  502    0  0.36363235040E+03 -0.30694599247E+03 -0.10434134066E+02  0.47599925389E+03  0.46999998093E+01 0.  1.
       -5    1    3    3    0  502 -0.36363235040E+03  0.30694599247E+03  0.21773890809E+03  0.52333225645E+03  0.46999998093E+01 0. -1.
</event>
<event>
 5   0  0.1814770E-03  0.1428969E+04  0.7818609E-02  0.8933112E-01
        1   -1    0    0  501    0  0.00000000000E+00  0.00000000000E+00  0.59905825987E+03  0.59905825989E+03  0.50400001928E-02 0.  1.
       -1   -1    0    0    0  501  0.00000000000E+00  0.00000000000E+00 -0.85215107932E+03  0.85215107934E+03  0.50400001928E-02 0. -1.
    10030    2    1    2    0    0  0.00000000000E+00  0.00000000000E+00 -0.25309281945E+03  0.14512093392E+04  0.14289690588E+04 0.  0.
        5    1    3    3  502    0 -0.33604057090E+03 -0.19231155435E+03 -0.73635767353E+03  0.83195655691E+03  0.46999998093E+01 0. -1.
       -5    1    3    3    0  502  0.33604057090E+03  0.19231155435E+03  0.48326485408E+03  0.61925278232E+03  0.46999998093E+01 0.  1.
</event>
<event>
 5   0  0.3294720E-03  0.9768773E+03  0.7818609E-02  0.9334275E-01
        2   -1    0    0  501    0  0.00000000000E+00  0.00000000000E+00  0.11440756380E+04  0.11440756380E+04  0.25500000920E-02 0. -1.
       -2   -1    0    0    0  501  0.00000000000E+00  0.00000000000E+00 -0.20852844365E+03  0.20852844367E+03  0.25500000920E-02 0.  1.
    10030    2    1    2    0    0  0.00000000000E+00  0.00000000000E+00  0.93554719430E+03  0.13526040816E+04  0.97687729468E+03 0.  0.
        5    1    3    3  502    0  0.28751194581E+03  0.25794510675E+03  0.53886945595E+02  0.39003165254E+03  0.46999998093E+01 0.  1.
       -5    1    3    3    0  502 -0.28751194581E+03 -0.25794510675E+03  0.88166024871E+03  0.96257242909E+03  0.46999998093E+01 0. -1.
</event>
<event>
 5   0  0.3299104E-03  0.1304630E+04  0.7818609E-02  0.9025902E-01
        2   -1    0    0  501    0  0.00000000000E+00  0.00000000000E+00  0.12153377344E+04  0.12153377344E+04  0.25500000920E-02 0. -1.
       -2   -1    0    0    0  501  0.00000000000E+00  0.00000000000E+00 -0.35012068319E+03  0.35012068320E+03  0.25500000920E-02 0.  1.
    10030    2    1    2    0    0  0.00000000000E+00  0.00000000000E+00  0.86521705117E+03  0.15654584176E+04  0.13046300286E+04 0.  0.
        2    1    3    3  502    0  0.32026165343E+03 -0.30860277058E+03  0.10052025621E+04  0.10991976108E+04  0.25500000920E-02 0. -1.
       -2    1    3    3    0  502 -0.32026165343E+03  0.30860277058E+03 -0.13998551093E+03  0.46626080679E+03  0.25500000920E-02 0.  1.
</event>
<event>
 5   0  0.1857986E-03  0.1310898E+04  0.7818609E-02  0.9020967E-01
        1   -1    0    0  501    0  0.00000000000E+00  0.00000000000E+00  0.33294750208E+03  0.33294750212E+03  0.50400001928E-02 0.  1.
       -1   -1    0    0    0  501  0.00000000000E+00  0.00000000000E+00 -0.12903345901E+04  0.12903345901E+04  0.50400001928E-02 0. -1.
    10030    2    1    2    0    0  0.00000000000E+00  0.00000000000E+00 -0.95738708804E+03  0.16232820922E+04  0.13108984380E+04 0.  0.
        1    1    3    3  502    0  0.14813992754E+03  0.53396468253E+03 -0.91218599170E+03  0.10673082984E+04  0.50400001928E-02 0. -1.
       -1    1    3    3    0  502 -0.14813992754E+03 -0.53396468253E+03 -0.45201096334E+02  0.55597379385E+03  0.50400001928E-02 0.  1.
</event>
<event>
 5   0  0.1857986E-03  0.1285964E+04  0.7818609E-02  0.9040770E-01
        1   -1    0    0  501    0  0.00000000000E+00  0.00000000000E+00  0.16110570737E+04  0.16110570737E+04  0.50400001928E-02 0.  1.
       -1   -1    0    0    0  501  0.00000000000E+00  0.00000000000E+00 -0.25661786612E+03  0.25661786617E+03  0.50400001928E-02 0. -1.
    10030    2    1    2    0    0  0.00000000000E+00  0.00000000000E+00  0.13544392076E+04  0.18676749399E+04  0.12859642740E+04 0.  0.
        1    1    3    3  502    0  0.63222956659E+03 -0.84365764253E+02  0.79515771034E+03  0.10193662695E+04  0.50400001928E-02 0. -1.
       -1    1    3    3    0  502 -0.63222956659E+03  0.84365764253E+02  0.55928149725E+03  0.84830867038E+03  0.50400001928E-02 0.  1.
</event>
<event>
 5   0  0.3259968E-03  0.1295771E+04  0.7818609E-02  0.9032925E-01
       -2   -1    0    0    0  501  0.00000000000E+00  0.00000000000E+00  0.19710249157E+03  0.19710249158E+03  0.25500000920E-02 0. -1.
        2   -1    0    0  501    0  0.00000000000E+00  0.00000000000E+00 -0.21296327195E+04  0.21296327195E+04  0.25500000920E-02 0.  1.
    10030    2    1    2    0    0  0.00000000000E+00  0.00000000000E+00 -0.19325302279E+04  0.23267352110E+04  0.12957714538E+04 0.  0.
        4    1    3    3  502    0 -0.31611458999E+03  0.59676452861E+02  0.43554584899E+02  0.32463568473E+03  0.12699999809E+01 0. -1.
       -4    1    3    3    0  502  0.31611458999E+03 -0.59676452861E+02 -0.19760848128E+04  0.20020995263E+04  0.12699999809E+01 0.  1.
</event>
<event>
 5   0  0.3259968E-03  0.1304772E+04  0.7818609E-02  0.9025789E-01
       -2   -1    0    0    0  501  0.00000000000E+00  0.00000000000E+00  0.96776558167E+03  0.96776558168E+03  0.25500000920E-02 0. -1.
        2   -1    0    0  501    0  0.00000000000E+00  0.00000000000E+00 -0.43978372787E+03  0.43978372788E+03  0.25500000920E-02 0.  1.
    10030    2    1    2    0    0  0.00000000000E+00  0.00000000000E+00  0.52798185380E+03  0.14075493096E+04  0.13047720954E+04 0.  0.
        4    1    3    3  502    0 -0.77435239382E+02  0.57255464364E+03 -0.62844245061E+02  0.58117643473E+03  0.12699999809E+01 0.  1.
       -4    1    3    3    0  502  0.77435239382E+02 -0.57255464364E+03  0.59082609886E+03  0.82637287483E+03  0.12699999809E+01 0. -1.
</event>
<event>
 5   0  0.3336609E-03  0.1306203E+04  0.7818609E-02  0.9024661E-01
        2   -1    0    0  501    0  0.00000000000E+00  0.00000000000E+00  0.62246054292E+03  0.62246054293E+03  0.25500000920E-02 0. -1.
       -2   -1    0    0    0  501  0.00000000000E+00  0.00000000000E+00 -0.68525082859E+03  0.68525082860E+03  0.25500000920E-02 0.  1.
    10030    2    1    2    0    0  0.00000000000E+00  0.00000000000E+00 -0.62790285670E+02  0.13077113715E+04  0.13062030513E+04 0.  0.
        1    1    3    3  502    0  0.19944895547E+03 -0.10917362515E+03  0.58155593652E+03  0.62442459400E+03  0.50400001928E-02 0. -1.
       -1    1    3    3    0  502 -0.19944895547E+03  0.10917362515E+03 -0.64434622219E+03  0.68328677752E+03  0.50400001928E-02 0.  1.
</event>
<event>
 5   0  0.3294720E-03  0.1289627E+04  0.7818609E-02  0.9037832E-01
        2   -1    0    0  501    0  0.00000000000E+00  0.00000000000E+00  0.41032649256E+03  0.41032649257E+03  0.25500000920E-02 0.  1.
       -2   -1    0    0    0  501  0.00000000000E+00  0.00000000000E+00 -0.10133018593E+04  0.10133018593E+04  0.25500000920E-02 0. -1.
    10030    2    1    2    0    0  0.00000000000E+00  0.00000000000E+00 -0.60297536672E+03  0.14236283519E+04  0.12896272296E+04 0.  0.
        5    1    3    3  502    0 -0.64938299866E+02  0.30724121821E+03 -0.92316306310E+03  0.97512372550E+03  0.46999998093E+01 0. -1.
       -5    1    3    3    0  502  0.64938299866E+02 -0.30724121821E+03  0.32018769638E+03  0.44850462636E+03  0.46999998093E+01 0.  1.
</event>
<event>
 5   0  0.1873488E-03  0.1294450E+04  0.7818609E-02  0.9033978E-01
        1   -1    0    0  501    0  0.00000000000E+00  0.00000000000E+00  0.10013089345E+04  0.10013089345E+04  0.50400001928E-02 0.  1.
       -1   -1    0    0    0  501  0.00000000000E+00  0.00000000000E+00 -0.41835269659E+03  0.41835269662E+03  0.50400001928E-02 0. -1.
    10030    2    1    2    0    0  0.00000000000E+00  0.00000000000E+00  0.58295623787E+03  0.14196616311E+04  0.12944501425E+04 0.  0.
        3    1    3    3  502    0 -0.88711642298E+01  0.57476366052E+03 -0.34728978918E+02  0.57588026116E+03  0.10100000352E+00 0. -1.
       -3    1    3    3    0  502  0.88711642298E+01 -0.57476366052E+03  0.61768521679E+03  0.84378136994E+03  0.10100000352E+00 0.  1.
</event>
<event>
 5   0  0.1857986E-03  0.1282167E+04  0.7818609E-02  0.9043827E-01
        1   -1    0    0  501    0  0.00000000000E+00  0.00000000000E+00  0.10894845878E+04  0.10894845878E+04  0.50400001928E-02 0.  1.
       -1   -1    0    0    0  501  0.00000000000E+00  0.00000000000E+00 -0.37723183498E+03  0.37723183501E+03  0.50400001928E-02 0. -1.
    10030    2    1    2    0    0  0.00000000000E+00  0.00000000000E+00  0.71225275278E+03  0.14667164228E+04  0.12821673374E+04 0.  0.
        1    1    3    3  502    0 -0.90277182184E+02  0.59418411175E+03  0.61136379380E+03  0.85730415645E+03  0.50400001928E-02 0. -1.
       -1    1    3    3    0  502  0.90277182184E+02 -0.59418411175E+03  0.10088895898E+03  0.60941226632E+03  0.50400001928E-02 0.  1.
</event>
<event>
 5   0  0.3299104E-03  0.1281970E+04  0.7818609E-02  0.9043986E-01
       -2   -1    0    0    0  501  0.00000000000E+00  0.00000000000E+00  0.13128629830E+04  0.13128629830E+04  0.25500000920E-02 0. -1.
        2   -1    0    0  501    0  0.00000000000E+00  0.00000000000E+00 -0.31295110085E+03  0.31295110086E+03  0.25500000920E-02 0.  1.
    10030    2    1    2    0    0  0.00000000000E+00  0.00000000000E+00  0.99991188215E+03  0.16258140839E+04  0.12819702271E+04 0.  0.
        2    1    3    3  502    0 -0.15521617908E+03  0.17342308537E+02  0.12883626822E+04  0.12977947522E+04  0.25500000920E-02 0. -1.
       -2    1    3    3    0  502  0.15521617908E+03 -0.17342308537E+02 -0.28845080004E+03  0.32801933169E+03  0.25500000920E-02 0.  1.
</event>
<event>
 5   0  0.1814770E-03  0.1305551E+04  0.7818609E-02  0.9025175E-01
       -1   -1    0    0    0  501  0.00000000000E+00  0.00000000000E+00  0.47125728945E+03  0.47125728947E+03  0.50400001928E-02 0. -1.
        1   -1    0    0  501    0  0.00000000000E+00  0.00000000000E+00 -0.90421004346E+03  0.90421004348E+03  0.50400001928E-02 0.  1.
    10030    2    1    2    0    0  0.00000000000E+00  0.00000000000E+00 -0.43295275401E+03  0.13754673329E+04  0.13055505723E+04 0.  0.
        5    1    3    3  502    0  0.44655645938E+03 -0.13152687634E+03 -0.69856371810E+03  0.83947921288E+03  0.46999998093E+01 0.  1.
       -5    1    3    3    0  502 -0.44655645938E+03  0.13152687634E+03  0.26561096409E+03  0.53598812007E+03  0.46999998093E+01 0. -1.
</event>
<event>
 5   0  0.1857986E-03  0.1304144E+04  0.7818609E-02  0.9026285E-01
        1   -1    0    0  501    0  0.00000000000E+00  0.00000000000E+00  0.39287438635E+03  0.39287438638E+03  0.50400001928E-02 0.  1.
       -1   -1    0    0    0  501  0.00000000000E+00  0.00000000000E+00 -0.10822751392E+04  0.10822751392E+04  0.50400001928E-02 0. -1.
    10030    2    1    2    0    0  0.00000000000E+00  0.00000000000E+00 -0.68940075289E+03  0.14751495256E+04  0.13041444417E+04 0.  0.
        1    1    3    3  502    0  0.86276255240E+02 -0.47402435121E+03 -0.84169471607E+03  0.96984157100E+03  0.50400001928E-02 0. -1.
       -1    1    3    3    0  502 -0.86276255240E+02  0.47402435121E+03  0.15229396318E+03  0.50530795463E+03  0.50400001928E-02 0.  1.
</event>
<event>
 5   0  0.1823154E-03  0.1302188E+04  0.7818609E-02  0.9027832E-01
       -1   -1    0    0    0  501  0.00000000000E+00  0.00000000000E+00  0.67365832502E+03  0.67365832503E+03  0.50400001928E-02 0. -1.
        1   -1    0    0  501    0  0.00000000000E+00  0.00000000000E+00 -0.62928567006E+03  0.62928567008E+03  0.50400001928E-02 0.  1.
    10030    2    1    2    0    0  0.00000000000E+00  0.00000000000E+00  0.44372654952E+02  0.13029439951E+04  0.13021882053E+04 0.  0.
        2    1    3    3  502    0 -0.58835863017E+03  0.26806025233E+03 -0.54678529072E+02  0.64885431194E+03  0.25500000920E-02 0.  1.
       -2    1    3    3    0  502  0.58835863017E+03 -0.26806025233E+03  0.99051184024E+02  0.65408968318E+03  0.25500000920E-02 0. -1.
</event>
<event>
 5   0  0.3299104E-03  0.1323643E+04  0.7818609E-02  0.9011024E-01
       -2   -1    0    0    0  501  0.00000000000E+00  0.00000000000E+00  0.20252814294E+03  0.20252814295E+03  0.25500000920E-02 0.  1.
        2   -1    0    0  501    0  0.00000000000E+00  0.00000000000E+00 -0.21626997572E+04  0.21626997572E+04  0.25500000920E-02 0. -1.
    10030    2    1    2    0    0  0.00000000000E+00  0.00000000000E+00 -0.19601716143E+04  0.23652279002E+04  0.13236428001E+04 0.  0.
        2    1    3    3  502    0 -0.32262278009E+03 -0.37614057288E+03 -0.17639670831E+04  0.18322519093E+04  0.25500000920E-02 0. -1.
       -2    1    3    3    0  502  0.32262278009E+03  0.37614057288E+03 -0.19620453118E+03  0.53297599089E+03  0.25500000920E-02 0.  1.
</event>
<event>
 5   0  0.3262927E-03  0.1308789E+04  0.7818609E-02  0.9022624E-01
        2   -1    0    0  501    0  0.00000000000E+00  0.00000000000E+00  0.52465538063E+03  0.52465538064E+03  0.25500000920E-02 0. -1.
       -2   -1    0    0    0  501  0.00000000000E+00  0.00000000000E+00 -0.81621638704E+03  0.81621638705E+03  0.25500000920E-02 0.  1.
    10030    2    1    2    0    0  0.00000000000E+00  0.00000000000E+00 -0.29156100641E+03  0.13408717677E+04  0.13087892408E+04 0.  0.
        3    1    3    3  502    0  0.12516015015E+03  0.16980935679E+03  0.48886550845E+03  0.53243757981E+03  0.10100000352E+00 0. -1.
       -3    1    3    3    0  502 -0.12516015015E+03 -0.16980935679E+03 -0.78042651486E+03  0.80843418788E+03  0.10100000352E+00 0.  1.
</event>
<event>
 5   0  0.1814770E-03  0.1292410E+04  0.7818609E-02  0.9035606E-01
       -1   -1    0    0    0  501  0.00000000000E+00  0.00000000000E+00  0.64241556466E+03  0.64241556468E+03  0.50400001928E-02 0.  1.
        1   -1    0    0  501    0  0.00000000000E+00  0.00000000000E+00 -0.65001711312E+03  0.65001711314E+03  0.50400001928E-02 0. -1.
    10030    2    1    2    0    0  0.00000000000E+00  0.00000000000E+00 -0.76015484574E+01  0.12924326778E+04  0.12924103231E+04 0.  0.
        5    1    3    3  502    0  0.61369060177E+03  0.80664395202E+02 -0.18937370525E+03  0.64730780128E+03  0.46999998093E+01 0. -1.
       -5    1    3    3    0  502 -0.61369060177E+03 -0.80664395202E+02  0.18177215679E+03  0.64512487655E+03  0.46999998093E+01 0.  1.
</event>
<event>
 5   0  0.1857986E-03  0.1301394E+04  0.7818609E-02  0.9028461E-01
       -1   -1    0    0    0  501  0.00000000000E+00  0.00000000000E+00  0.20412538073E+03  0.20412538079E+03  0.50400001928E-02 0. -1.
        1   -1    0    0  501    0  0.00000000000E+00  0.00000000000E+00 -0.20742471928E+04  0.20742471928E+04  0.50400001928E-02 0.  1.
    10030    2    1    2    0    0  0.00000000000E+00  0.00000000000E+00 -0.18701218121E+04  0.22783725736E+04  0.13013938651E+04 0.  0.
        1    1    3    3  502    0  0.40593660421E+03 -0.30624640193E+01 -0.44751784071E+02  0.40840742834E+03  0.50400001928E-02 0. -1.
       -1    1    3    3    0  502 -0.40593660421E+03  0.30624640193E+01 -0.18253700280E+04  0.18699651453E+04  0.50400001928E-02 0.  1.
</event>
<event>
 5   0  0.1873488E-03  0.1259814E+04  0.7818609E-02  0.9062054E-01
        1   -1    0    0  501    0  0.00000000000E+00  0.00000000000E+00  0.60178827606E+03  0.60178827609E+03  0.50400001928E-02 0.  1.
       -1   -1    0    0    0  501  0.00000000000E+00  0.00000000000E+00 -0.65933983846E+03  0.65933983848E+03  0.50400001928E-02 0. -1.
    10030    2    1    2    0    0  0.00000000000E+00  0.00000000000E+00 -0.57551562392E+02  0.12611281146E+04  0.12598142478E+04 0.  0.
        3    1    3    3  502    0  0.19041565178E+03 -0.21619063376E+03  0.53197488024E+03  0.60497420935E+03  0.10100000352E+00 0.  1.
       -3    1    3    3    0  502 -0.19041565178E+03  0.21619063376E+03 -0.58952644263E+03  0.65615390522E+03  0.10100000352E+00 0. -1.
</event>
<event>
 5   0  0.3294720E-03  0.1195519E+04  0.7818609E-02  0.9116787E-01
       -2   -1    0    0    0  501  0.00000000000E+00  0.00000000000E+00  0.59375830147E+03  0.59375830148E+03  0.25500000920E-02 0. -1.
        2   -1    0    0  501    0  0.00000000000E+00  0.00000000000E+00 -0.60178803961E+03  0.60178803961E+03  0.25500000920E-02 0.  1.
    10030    2    1    2    0    0  0.00000000000E+00  0.00000000000E+00 -0.80297381343E+01  0.11955463411E+04  0.11955193754E+04 0.  0.
        5    1    3    3  502    0 -0.42082749958E+03  0.41209935990E+03  0.97834801317E+02  0.59708910992E+03  0.46999998093E+01 0. -1.
       -5    1    3    3    0  502  0.42082749958E+03 -0.41209935990E+03 -0.10586453945E+03  0.59845723117E+03  0.46999998093E+01 0.  1.
</event>
<event>
 5   0  0.1254125E-03  0.1435641E+04  0.7818609E-02  0.8928417E-01
        3   -1    0    0  501    0  0.00000000000E+00  0.00000000000E+00  0.23171965653E+04  0.23171965675E+04  0.10100000352E+00 0. -1.
       -3   -1    0    0    0  501  0.00000000000E+00  0.00000000000E+00 -0.22236610310E+03  0.22236612603E+03  0.10100000352E+00 0.  1.
    10030    2    1    2    0    0  0.00000000000E+00  0.00000000000E+00  0.20948304622E+04  0.25395626935E+04  0.14356406267E+04 0.  0.
        2    1    3    3  502    0  0.41616582616E+03  0.12761692245E+03  0.37745446187E+02  0.43692652983E+03  0.25500000920E-02 0.  1.
       -2    1    3    3    0  502 -0.41616582616E+03 -0.12761692245E+03  0.20570850160E+04  0.21026361637E+04  0.25500000920E-02 0. -1.
</event>
<event>
 5   0  0.3299104E-03  0.1261984E+04  0.7818609E-02  0.9060267E-01
        2   -1    0    0  501    0  0.00000000000E+00  0.00000000000E+00  0.12156311838E+04  0.12156311838E+04  0.25500000920E-02 0.  1.
       -2   -1    0    0    0  501  0.00000000000E+00  0.00000000000E+00 -0.32752632191E+03  0.32752632192E+03  0.25500000920E-02 0. -1.
    10030    2    1    2    0    0  0.00000000000E+00  0.00000000000E+00  0.88810486187E+03  0.15431575057E+04  0.12619844855E+04 0.  0.
        2    1    3    3  502    0 -0.34782516952E+03 -0.25635083225E+03 -0.11824135101E+03  0.44797222552E+03  0.25500000920E-02 0. -1.
       -2    1    3    3    0  502  0.34782516952E+03  0.25635083225E+03  0.10063462129E+04  0.10951852802E+04  0.25500000920E-02 0.  1.
</event>
<event>
 5   0  0.3299104E-03  0.1321110E+04  0.7818609E-02  0.9012990E-01
       -2   -1    0    0    0  501  0.00000000000E+00  0.00000000000E+00  0.31436881841E+03  0.31436881842E+03  0.25500000920E-02 0. -1.
        2   -1    0    0  501    0  0.00000000000E+00  0.00000000000E+00 -0.13879651264E+04  0.13879651264E+04  0.25500000920E-02 0.  1.
    10030    2    1    2    0    0  0.00000000000E+00  0.00000000000E+00 -0.10735963080E+04  0.17023339448E+04  0.13211100738E+04 0.  0.
        2    1    3    3  502    0  0.17393437004E+03  0.25610298063E+03 -0.12886955980E+04  0.13253596667E+04  0.25500000920E-02 0.  1.
       -2    1    3    3    0  502 -0.17393437004E+03 -0.25610298063E+03  0.21509929004E+03  0.37697427810E+03  0.25500000920E-02 0. -1.
</event>
<event>
 5   0  0.3294720E-03  0.1313400E+04  0.7818609E-02  0.9019006E-01
        2   -1    0    0  501    0  0.00000000000E+00  0.00000000000E+00  0.38787618996E+03  0.38787618997E+03  0.25500000920E-02 0. -1.
       -2   -1    0    0    0  501  0.00000000000E+00  0.00000000000E+00 -0.11118368347E+04  0.11118368347E+04  0.25500000920E-02 0.  1.
    10030    2    1    2    0    0  0.00000000000E+00  0.00000000000E+00 -0.72396064472E+03  0.14997130247E+04  0.13134002213E+04 0.  0.
        5    1    3    3  502    0  0.40596822002E+03  0.18207825765E+03 -0.91347428533E+03  0.10160807288E+04  0.46999998093E+01 0.  1.
       -5    1    3    3    0  502 -0.40596822002E+03 -0.18207825765E+03  0.18951364061E+03  0.48363229581E+03  0.46999998093E+01 0. -1.
</event>
<event>
 5   0  0.3336609E-03  0.1305356E+04  0.7818609E-02  0.9025329E-01
       -2   -1    0    0    0  501  0.00000000000E+00  0.00000000000E+00  0.64151534700E+03  0.64151534700E+03  0.25500000920E-02 0. -1.
        2   -1    0    0  501    0  0.00000000000E+00  0.00000000000E+00 -0.66403474131E+03  0.66403474131E+03  0.25500000920E-02 0.  1.
    10030    2    1    2    0    0  0.00000000000E+00  0.00000000000E+00 -0.22519394311E+02  0.13055500883E+04  0.13053558557E+04 0.  0.
        1    1    3    3  502    0  0.57046327279E+03  0.29426445190E+03  0.10694656954E+03  0.65073610781E+03  0.50400001928E-02 0.  1.
       -1    1    3    3    0  502 -0.57046327279E+03 -0.29426445190E+03 -0.12946596385E+03  0.65481398051E+03  0.50400001928E-02 0. -1.
</event>
<event>
 5   0  0.3299104E-03  0.1318936E+04  0.7818609E-02  0.9014682E-01
        2   -1    0    0  501    0  0.00000000000E+00  0.00000000000E+00  0.95374160374E+03  0.95374160375E+03  0.25500000920E-02 0. -1.
       -2   -1    0    0    0  501  0.00000000000E+00  0.00000000000E+00 -0.45599161890E+03  0.45599161891E+03  0.25500000920E-02 0.  1.
    10030    2    1    2    0    0  0.00000000000E+00  0.00000000000E+00  0.49774998485E+03  0.14097332227E+04  0.13189362045E+04 0.  0.
        2    1    3    3  502    0 -0.13901971820E+03  0.57949998092E+03 -0.52968966184E+02  0.59829125125E+03  0.25500000920E-02 0.  1.
       -2    1    3    3    0  502  0.13901971820E+03 -0.57949998092E+03  0.55071895103E+03  0.81144197141E+03  0.25500000920E-02 0. -1.
</event>
<event>
 5   0  0.3336609E-03  0.1301117E+04  0.7818609E-02  0.9028680E-01
       -2   -1    0    0    0  501  0.00000000000E+00  0.00000000000E+00  0.99120452137E+03  0.99120452137E+03  0.25500000920E-02 0. -1.
        2   -1    0    0  501    0  0.00000000000E+00  0.00000000000E+00 -0.42698199765E+03  0.42698199765E+03  0.25500000920E-02 0.  1.
    10030    2    1    2    0    0  0.00000000000E+00  0.00000000000E+00  0.56422252373E+03  0.14181865190E+04  0.13011171917E+04 0.  0.
        1    1    3    3  502    0  0.37339549076E+03  0.53221875575E+03  0.30756844657E+03  0.71922134691E+03  0.50400001928E-02 0. -1.
       -1    1    3    3    0  502 -0.37339549076E+03 -0.53221875575E+03  0.25665407715E+03  0.69896517212E+03  0.50400001928E-02 0.  1.
</event>
<event>
 5   0  0.1803959E-03  0.1308280E+04  0.7818609E-02  0.9023025E-01
       -1   -1    0    0    0  501  0.00000000000E+00  0.00000000000E+00  0.77299248052E+03  0.77299248053E+03  0.50400001928E-02 0. -1.
        1   -1    0    0  501    0  0.00000000000E+00  0.00000000000E+00 -0.55356197624E+03  0.55356197626E+03  0.50400001928E-02 0.  1.
    10030    2    1    2    0    0  0.00000000000E+00  0.00000000000E+00  0.21943050428E+03  0.13265544568E+04  0.13082801614E+04 0.  0.
        4    1    3    3  502    0  0.67453239353E+02 -0.95317040780E+02 -0.54290727675E+03  0.55532441132E+03  0.12699999809E+01 0.  1.
       -4    1    3    3    0  502 -0.67453239353E+02  0.95317040780E+02  0.76233778102E+03  0.77123004547E+03  0.12699999809E+01 0. -1.
</event>
<event>
 5   0  0.1803959E-03  0.1256037E+04  0.7818609E-02  0.9065173E-01
        1   -1    0    0  501    0  0.00000000000E+00  0.00000000000E+00  0.49673161641E+03  0.49673161644E+03  0.50400001928E-02 0. -1.
       -1   -1    0    0    0  501  0.00000000000E+00  0.00000000000E+00 -0.79400494546E+03  0.79400494547E+03  0.50400001928E-02 0.  1.
    10030    2    1    2    0    0  0.00000000000E+00  0.00000000000E+00 -0.29727332904E+03  0.12907365619E+04  0.12560371969E+04 0.  0.
        4    1    3    3  502    0  0.39228017305E+03  0.30503268540E+03  0.24599994123E+03  0.55447836506E+03  0.12699999809E+01 0. -1.
       -4    1    3    3    0  502 -0.39228017305E+03 -0.30503268540E+03 -0.54327327028E+03  0.73625819685E+03  0.12699999809E+01 0.  1.
</event>
<event>
 5   0  0.1803959E-03  0.1186168E+04  0.7818609E-02  0.9125051E-01
       -1   -1    0    0    0  501  0.00000000000E+00  0.00000000000E+00  0.68692651829E+03  0.68692651830E+03  0.50400001928E-02 0. -1.
        1   -1    0    0  501    0  0.00000000000E+00  0.00000000000E+00 -0.51206134212E+03  0.51206134214E+03  0.50400001928E-02 0.  1.
    10030    2    1    2    0    0  0.00000000000E+00  0.00000000000E+00  0.17486517617E+03  0.11989878604E+04  0.11861678042E+04 0.  0.
        4    1    3    3  502    0  0.37380986812E+03 -0.14126443438E+03 -0.35554752178E+03  0.53488794254E+03  0.12699999809E+01 0.  1.
       -4    1    3    3    0  502 -0.37380986812E+03  0.14126443438E+03  0.53041269795E+03  0.66409991791E+03  0.12699999809E+01 0. -1.
</event>
<event>
 5   0  0.3259968E-03  0.1302311E+04  0.7818609E-02  0.9027735E-01
        2   -1    0    0  501    0  0.00000000000E+00  0.00000000000E+00  0.84068135876E+03  0.84068135876E+03  0.25500000920E-02 0.  1.
       -2   -1    0    0    0  501  0.00000000000E+00  0.00000000000E+00 -0.50435696110E+03  0.50435696110E+03  0.25500000920E-02 0. -1.
    10030    2    1    2    0    0  0.00000000000E+00  0.00000000000E+00  0.33632439766E+03  0.13450383199E+04  0.13023110156E+04 0.  0.
        4    1    3    3  502    0 -0.64838659008E+03 -0.35895586690E+02  0.11854200455E+03  0.66011172015E+03  0.12699999809E+01 0.  1.
       -4    1    3    3    0  502  0.64838659008E+03  0.35895586690E+02  0.21778239311E+03  0.68492659971E+03  0.12699999809E+01 0. -1.
</event>
<event>
 5   0  0.1814770E-03  0.1319764E+04  0.7818609E-02  0.9014038E-01
       -1   -1    0    0    0  501  0.00000000000E+00  0.00000000000E+00  0.68881059157E+03  0.68881059158E+03  0.50400001928E-02 0.  1.
        1   -1    0    0  501    0  0.00000000000E+00  0.00000000000E+00 -0.63216786998E+03  0.63216787000E+03  0.50400001928E-02 0. -1.
    10030    2    1    2    0    0  0.00000000000E+00  0.00000000000E+00  0.56642721586E+02  0.13209784616E+04  0.13197635008E+04 0.  0.
        5    1    3    3  502    0 -0.18899090943E+03  0.43681222714E+03  0.48579720402E+03  0.68010550583E+03  0.46999998093E+01 0.  1.
       -5    1    3    3    0  502  0.18899090943E+03 -0.43681222714E+03 -0.42915448243E+03  0.64087295576E+03  0.46999998093E+01 0. -1.
</event>
<event>
 5   0  0.1823154E-03  0.1299699E+04  0.7818609E-02  0.9029804E-01
       -1   -1    0    0    0  501  0.00000000000E+00  0.00000000000E+00  0.99616517013E+03  0.99616517014E+03  0.50400001928E-02 0. -1.
        1   -1    0    0  501    0  0.00000000000E+00  0.00000000000E+00 -0.42392983527E+03  0.42392983530E+03  0.50400001928E-02 0.  1.
    10030    2    1    2    0    0  0.00000000000E+00  0.00000000000E+00  0.57223533486E+03  0.14200950054E+04  0.12996986366E+04 0.  0.
        2    1    3    3  502    0  0.18146058392E+03  0.49861556894E+03 -0.12381485192E+03  0.54486286960E+03  0.25500000920E-02 0.  1.
       -2    1    3    3    0  502 -0.18146058392E+03 -0.49861556894E+03  0.69605018677E+03  0.87523213584E+03  0.25500000920E-02 0. -1.
</event>
<event>
 5   0  0.1803959E-03  0.1304367E+04  0.7818609E-02  0.9026109E-01
        1   -1    0    0  501    0  0.00000000000E+00  0.00000000000E+00  0.13223406559E+04  0.13223406559E+04  0.50400001928E-02 0.  1.
       -1   -1    0    0    0  501  0.00000000000E+00  0.00000000000E+00 -0.32165925570E+03  0.32165925574E+03  0.50400001928E-02 0. -1.
    10030    2    1    2    0    0  0.00000000000E+00  0.00000000000E+00  0.10006814002E+04  0.16439999116E+04  0.13043666834E+04 0.  0.
        4    1    3    3  502    0 -0.53608700401E+03 -0.23833509768E+03  0.85938052052E+03  0.10405428327E+04  0.12699999809E+01 0. -1.
       -4    1    3    3    0  502  0.53608700401E+03  0.23833509768E+03  0.14130087966E+03  0.60345707896E+03  0.12699999809E+01 0.  1.
</event>
<event>
 5   0  0.1803959E-03  0.1273630E+04  0.7818609E-02  0.9050742E-01
       -1   -1    0    0    0  501  0.00000000000E+00  0.00000000000E+00  0.70321276888E+03  0.70321276890E+03  0.50400001928E-02 0.  1.
        1   -1    0    0  501    0  0.00000000000E+00  0.00000000000E+00 -0.57668677171E+03  0.57668677174E+03  0.50400001928E-02 0. -1.
    10030    2    1    2    0    0  0.00000000000E+00  0.00000000000E+00  0.12652599716E+03  0.12798995406E+04  0.12736302470E+04 0.  0.
        4    1    3    3  502    0  0.31553810720E+03  0.12164580268E+03 -0.47899472947E+03  0.58634423521E+03  0.12699999809E+01 0. -1.
       -4    1    3    3    0  502 -0.31553810720E+03 -0.12164580268E+03  0.60552072663E+03  0.69355530542E+03  0.12699999809E+01 0.  1.
</event>
<event>
 5   0  0.3262927E-03  0.1289348E+04  0.7818609E-02  0.9038055E-01
        2   -1    0    0  501    0  0.00000000000E+00  0.00000000000E+00  0.54395952326E+03  0.54395952327E+03  0.25500000920E-02 0.  1.
       -2   -1    0    0    0  501  0.00000000000E+00  0.00000000000E+00 -0.76403581351E+03  0.76403581351E+03  0.25500000920E-02 0. -1.
    10030    2    1    2    0    0  0.00000000000E+00  0.00000000000E+00 -0.22007629024E+03  0.13079953368E+04  0.12893479854E+04 0.  0.
        3    1    3    3  502    0 -0.20680483332E+03  0.41058423531E+03  0.34844609375E+03  0.57685556583E+03  0.10100000352E+00 0.  1.
       -3    1    3    3    0  502  0.20680483332E+03 -0.41058423531E+03 -0.56852238399E+03  0.73113977096E+03  0.10100000352E+00 0. -1.
</event>
<event>
 5   0  0.1823154E-03  0.1476485E+04  0.7818609E-02  0.8900243E-01
        1   -1    0    0  501    0  0.00000000000E+00  0.00000000000E+00  0.11346417939E+04  0.11346417939E+04  0.50400001928E-02 0.  1.
       -1   -1    0    0    0  501  0.00000000000E+00  0.00000000000E+00 -0.48032934327E+03  0.48032934330E+03  0.50400001928E-02 0. -1.
    10030    2    1    2    0    0  0.00000000000E+00  0.00000000000E+00  0.65431245064E+03  0.16149711372E+04  0.14764846735E+04 0.  0.
        2    1    3    3  502    0  0.12891230316E+03 -0.81575308349E+02  0.11172128915E+04  0.11275803997E+04  0.25500000920E-02 0.  1.
       -2    1    3    3    0  502 -0.12891230316E+03  0.81575308349E+02 -0.46290044088E+03  0.48739073751E+03  0.25500000920E-02 0. -1.
</event>
<event>
 5   0  0.3262927E-03  0.1295705E+04  0.7818609E-02  0.9032978E-01
        2   -1    0    0  501    0  0.00000000000E+00  0.00000000000E+00  0.95137215771E+03  0.95137215771E+03  0.25500000920E-02 0.  1.
       -2   -1    0    0    0  501  0.00000000000E+00  0.00000000000E+00 -0.44116599867E+03  0.44116599868E+03  0.25500000920E-02 0. -1.
    10030    2    1    2    0    0  0.00000000000E+00  0.00000000000E+00  0.51020615904E+03  0.13925381564E+04  0.12957052876E+04 0.  0.
        3    1    3    3  502    0  0.25660525953E+02 -0.36206810125E+03  0.83182692656E+03  0.90757248663E+03  0.10100000352E+00 0.  1.
       -3    1    3    3    0  502 -0.25660525953E+02  0.36206810125E+03 -0.32162076753E+03  0.48496566976E+03  0.10100000352E+00 0. -1.
</event>
<event>
 5   0  0.1814770E-03  0.1316031E+04  0.7818609E-02  0.9016948E-01
       -1   -1    0    0    0  501  0.00000000000E+00  0.00000000000E+00  0.42935429154E+03  0.42935429157E+03  0.50400001928E-02 0.  1.
        1   -1    0    0  501    0  0.00000000000E+00  0.00000000000E+00 -0.10084545069E+04  0.10084545069E+04  0.50400001928E-02 0. -1.
    10030    2    1    2    0    0  0.00000000000E+00  0.00000000000E+00 -0.57910021533E+03  0.14378087984E+04  0.13160308057E+04 0.  0.
        5    1    3    3  502    0  0.47638585173E+03  0.44492010076E+03 -0.19143587627E+03  0.67938734203E+03  0.46999998093E+01 0. -1.
       -5    1    3    3    0  502 -0.47638585173E+03 -0.44492010076E+03 -0.38766433906E+03  0.75842145642E+03  0.46999998093E+01 0.  1.
</event>
<event>
 5   0  0.3262927E-03  0.1300261E+04  0.7818609E-02  0.9029358E-01
       -2   -1    0    0    0  501  0.00000000000E+00  0.00000000000E+00  0.63571578456E+03  0.63571578456E+03  0.25500000920E-02 0. -1.
        2   -1    0    0  501    0  0.00000000000E+00  0.00000000000E+00 -0.66487225764E+03  0.66487225765E+03  0.25500000920E-02 0.  1.
    10030    2    1    2    0    0  0.00000000000E+00  0.00000000000E+00 -0.29156473086E+02  0.13005880422E+04  0.13002611875E+04 0.  0.
        3    1    3    3  502    0  0.28757718579E+03  0.18448455271E+03 -0.56783081848E+03  0.66269679084E+03  0.10100000352E+00 0.  1.
       -3    1    3    3    0  502 -0.28757718579E+03 -0.18448455271E+03  0.53867434540E+03  0.63789125136E+03  0.10100000352E+00 0. -1.
</event>
<event>
 5   0  0.1873488E-03  0.1285682E+04  0.7818609E-02  0.9040997E-01
        1   -1    0    0  501    0  0.00000000000E+00  0.00000000000E+00  0.10535550872E+04  0.10535550872E+04  0.50400001928E-02 0.  1.
       -1   -1    0    0    0  501  0.00000000000E+00  0.00000000000E+00 -0.39223826579E+03  0.39223826582E+03  0.50400001928E-02 0. -1.
    10030    2    1    2    0    0  0.00000000000E+00  0.00000000000E+00  0.66131682138E+03  0.14457933530E+04  0.12856821074E+04 0.  0.
        3    1    3    3  502    0  0.28581002397E+03 -0.57123289966E+03  0.24917650931E+03  0.68562623816E+03  0.10100000352E+00 0. -1.
       -3    1    3    3    0  502 -0.28581002397E+03  0.57123289966E+03  0.41214031206E+03  0.76016711484E+03  0.10100000352E+00 0.  1.
</event>
<event>
 5   0  0.1814770E-03  0.1251449E+04  0.7818609E-02  0.9068978E-01
        1   -1    0    0  501    0  0.00000000000E+00  0.00000000000E+00  0.24271662736E+04  0.24271662736E+04  0.50400001928E-02 0.  1.
       -1   -1    0    0    0  501  0.00000000000E+00  0.00000000000E+00 -0.16131194829E+03  0.16131194837E+03  0.50400001928E-02 0. -1.
    10030    2    1    2    0    0  0.00000000000E+00  0.00000000000E+00  0.22658543253E+04  0.25884782220E+04  0.12514486334E+04 0.  0.
        5    1    3    3  502    0  0.15372550247E+03  0.22051219116E+03 -0.35759475233E+02  0.27121575660E+03  0.46999998093E+01 0. -1.
       -5    1    3    3    0  502 -0.15372550247E+03 -0.22051219116E+03  0.23016138006E+04  0.23172624654E+04  0.46999998093E+01 0.  1.
</event>
<event>
 5   0  0.3294720E-03  0.1322571E+04  0.7818609E-02  0.9011855E-01
       -2   -1    0    0    0  501  0.00000000000E+00  0.00000000000E+00  0.31757163868E+03  0.31757163869E+03  0.25500000920E-02 0. -1.
        2   -1    0    0  501    0  0.00000000000E+00  0.00000000000E+00 -0.13770081857E+04  0.13770081857E+04  0.25500000920E-02 0.  1.
    10030    2    1    2    0    0  0.00000000000E+00  0.00000000000E+00 -0.10594365470E+04  0.16945798244E+04  0.13225713531E+04 0.  0.
        5    1    3    3  502    0  0.22748443238E+03 -0.60626968683E+03 -0.70145024770E+03  0.95465524674E+03  0.46999998093E+01 0.  1.
       -5    1    3    3    0  502 -0.22748443238E+03  0.60626968683E+03 -0.35798629935E+03  0.73992457768E+03  0.46999998093E+01 0. -1.
</event>
<event>
 5   0  0.1857986E-03  0.1330819E+04  0.7818609E-02  0.9005476E-01
        1   -1    0    0  501    0  0.00000000000E+00  0.00000000000E+00  0.87440168911E+03  0.87440168912E+03  0.50400001928E-02 0. -1.
       -1   -1    0    0    0  501  0.00000000000E+00  0.00000000000E+00 -0.50636880478E+03  0.50636880480E+03  0.50400001928E-02 0.  1.
    10030    2    1    2    0    0  0.00000000000E+00  0.00000000000E+00  0.36803288433E+03  0.13807704939E+04  0.13308189031E+04 0.  0.
        1    1    3    3  502    0  0.58409424091E+03  0.16189627403E+03  0.46890091298E+03  0.76631883184E+03  0.50400001928E-02 0.  1.
       -1    1    3    3    0  502 -0.58409424091E+03 -0.16189627403E+03 -0.10086802865E+03  0.61445166208E+03  0.50400001928E-02 0. -1.
</event>
<event>
 5   0  0.1823154E-03  0.1314991E+04  0.7818609E-02  0.9017761E-01
       -1   -1    0    0    0  501  0.00000000000E+00  0.00000000000E+00  0.80449547955E+03  0.80449547956E+03  0.50400001928E-02 0. -1.
        1   -1    0    0  501    0  0.00000000000E+00  0.00000000000E+00 -0.53735551346E+03  0.53735551349E+03  0.50400001928E-02 0.  1.
    10030    2    1    2    0    0  0.00000000000E+00  0.00000000000E+00  0.26713996608E+03  0.13418509931E+04  0.13149906182E+04 0.  0.
        2    1    3    3  502    0 -0.23713712885E+03 -0.40301334252E+03 -0.33809033017E+03  0.57702586033E+03  0.25500000920E-02 0.  1.
       -2    1    3    3    0  502  0.23713712885E+03  0.40301334252E+03  0.60523029626E+03  0.76482513272E+03  0.25500000920E-02 0. -1.
</event>
<event>
 5   0  0.3299104E-03  0.1319655E+04  0.7818609E-02  0.9014122E-01
        2   -1    0    0  501    0  0.00000000000E+00  0.00000000000E+00  0.13972032066E+04  0.13972032066E+04  0.25500000920E-02 0. -1.
       -2   -1    0    0    0  501  0.00000000000E+00  0.00000000000E+00 -0.31160267907E+03  0.31160267908E+03  0.25500000920E-02 0.  1.
    10030    2    1    2    0    0  0.00000000000E+00  0.00000000000E+00  0.10856005275E+04  0.17088058857E+04  0.13196548979E+04 0.  0.
        2    1    3    3  502    0 -0.11107703238E+03 -0.23309841275E+02 -0.29886807159E+03  0.31969294651E+03  0.25500000920E-02 0.  1.
       -2    1    3    3    0  502  0.11107703238E+03  0.23309841275E+02  0.13844685991E+04  0.13891129392E+04  0.25500000920E-02 0. -1.
</event>
<event>
 5   0  0.3299104E-03  0.1338993E+04  0.7818609E-02  0.8999202E-01
        2   -1    0    0  501    0  0.00000000000E+00  0.00000000000E+00  0.71726983211E+03  0.71726983212E+03  0.25500000920E-02 0.  1.
       -2   -1    0    0    0  501  0.00000000000E+00  0.00000000000E+00 -0.62490491162E+03  0.62490491162E+03  0.25500000920E-02 0. -1.
    10030    2    1    2    0    0  0.00000000000E+00  0.00000000000E+00  0.92364920494E+02  0.13421747437E+04  0.13389928171E+04 0.  0.
        2    1    3    3  502    0 -0.90041856805E+02 -0.40258284793E+03  0.57473519614E+03  0.70746097498E+03  0.25500000920E-02 0.  1.
       -2    1    3    3    0  502  0.90041856805E+02  0.40258284793E+03 -0.48237027564E+03  0.63471376877E+03  0.25500000920E-02 0. -1.
</event>
<event>
 5   0  0.3259968E-03  0.1307215E+04  0.7818609E-02  0.9023863E-01
       -2   -1    0    0    0  501  0.00000000000E+00  0.00000000000E+00  0.42727415996E+03  0.42727415997E+03  0.25500000920E-02 0.  1.
        2   -1    0    0  501    0  0.00000000000E+00  0.00000000000E+00 -0.99983240858E+03  0.99983240859E+03  0.25500000920E-02 0. -1.
    10030    2    1    2    0    0  0.00000000000E+00  0.00000000000E+00 -0.57255824862E+03  0.14271065686E+04  0.13072146763E+04 0.  0.
        4    1    3    3  502    0 -0.10300360836E+03  0.63139561870E+03 -0.43246618934E+03  0.77220385163E+03  0.12699999809E+01 0.  1.
       -4    1    3    3    0  502  0.10300360836E+03 -0.63139561870E+03 -0.14009205929E+03  0.65490271692E+03  0.12699999809E+01 0. -1.
</event>
<event>
 5   0  0.3336609E-03  0.1283053E+04  0.7818609E-02  0.9043113E-01
        2   -1    0    0  501    0  0.00000000000E+00  0.00000000000E+00  0.15259982802E+04  0.15259982802E+04  0.25500000920E-02 0.  1.
       -2   -1    0    0    0  501  0.00000000000E+00  0.00000000000E+00 -0.26969630472E+03  0.26969630473E+03  0.25500000920E-02 0. -1.
    10030    2    1    2    0    0  0.00000000000E+00  0.00000000000E+00  0.12563019755E+04  0.17956945850E+04  0.12830527615E+04 0.  0.
        1    1    3    3  502    0  0.19217003453E+03  0.47714258768E+03  0.11646761311E+04  0.12732104546E+04  0.50400001928E-02 0.  1.
       -1    1    3    3    0  502 -0.19217003453E+03 -0.47714258768E+03  0.91625844387E+02  0.52248413041E+03  0.50400001928E-02 0. -1.
</event>
<event>
 5   0  0.1254125E-03  0.1329258E+04  0.7818609E-02  0.9006680E-01
       -4   -1    0    0    0  501  0.00000000000E+00  0.00000000000E+00  0.72632205815E+03  0.72632316847E+03  0.12699999809E+01 0. -1.
        4   -1    0    0  501    0  0.00000000000E+00  0.00000000000E+00 -0.60817404370E+03  0.60817536972E+03  0.12699999809E+01 0.  1.
    10030    2    1    2    0    0  0.00000000000E+00  0.00000000000E+00  0.11814801445E+03  0.13344985382E+04  0.13292582124E+04 0.  0.
        4    1    3    3  502    0 -0.53743271594E+03 -0.17975352930E+03  0.40769646382E+03  0.69811408450E+03  0.12699999809E+01 0. -1.
       -4    1    3    3    0  502  0.53743271594E+03  0.17975352930E+03 -0.28954844937E+03  0.63638445369E+03  0.12699999809E+01 0.  1.
</event>
<event>
 5   0  0.3259968E-03  0.1312156E+04  0.7818609E-02  0.9019980E-01
        2   -1    0    0  501    0  0.00000000000E+00  0.00000000000E+00  0.46637678331E+03  0.46637678332E+03  0.25500000920E-02 0.  1.
       -2   -1    0    0    0  501  0.00000000000E+00  0.00000000000E+00 -0.92294160284E+03  0.92294160284E+03  0.25500000920E-02 0. -1.
    10030    2    1    2    0    0  0.00000000000E+00  0.00000000000E+00 -0.45656481953E+03  0.13893183862E+04  0.13121562954E+04 0.  0.
        4    1    3    3  502    0 -0.69500856299E+01  0.23969236951E+03 -0.87487910118E+03  0.90714706099E+03  0.12699999809E+01 0. -1.
       -4    1    3    3    0  502  0.69500856299E+01 -0.23969236951E+03  0.41831428164E+03  0.48217132517E+03  0.12699999809E+01 0.  1.
</event>
<event>
 5   0  0.3262927E-03  0.1255910E+04  0.7818609E-02  0.9065279E-01
        2   -1    0    0  501    0  0.00000000000E+00  0.00000000000E+00  0.11768253465E+04  0.11768253465E+04  0.25500000920E-02 0. -1.
       -2   -1    0    0    0  501  0.00000000000E+00  0.00000000000E+00 -0.33507734835E+03  0.33507734836E+03  0.25500000920E-02 0.  1.
    10030    2    1    2    0    0  0.00000000000E+00  0.00000000000E+00  0.84174799819E+03  0.15119026949E+04  0.12559100551E+04 0.  0.
        3    1    3    3  502    0 -0.24569278386E+03  0.28246140730E+03  0.10277980972E+04  0.10938548027E+04  0.10100000352E+00 0.  1.
       -3    1    3    3    0  502  0.24569278386E+03 -0.28246140730E+03 -0.18605009897E+03  0.41804789221E+03  0.10100000352E+00 0. -1.
</event>
<event>
 5   0  0.1254125E-03  0.1299852E+04  0.7818609E-02  0.9029683E-01
        3   -1    0    0  501    0  0.00000000000E+00  0.00000000000E+00  0.49286918478E+03  0.49286919513E+03  0.10100000352E+00 0.  1.
       -3   -1    0    0    0  501  0.00000000000E+00  0.00000000000E+00 -0.85702993964E+03  0.85702994559E+03  0.10100000352E+00 0. -1.
    10030    2    1    2    0    0  0.00000000000E+00  0.00000000000E+00 -0.36416075486E+03  0.13498991407E+04  0.12998517741E+04 0.  0.
        4    1    3    3  502    0  0.53350898399E+03  0.63168364613E+01  0.20332897395E+03  0.57097812828E+03  0.12699999809E+01 0.  1.
       -4    1    3    3    0  502 -0.53350898399E+03 -0.63168364613E+01 -0.56748972881E+03  0.77892101244E+03  0.12699999809E+01 0. -1.
</event>
<event>
 5   0  0.1254125E-03  0.1288299E+04  0.7818609E-02  0.9038896E-01
       -3   -1    0    0    0  501  0.00000000000E+00  0.00000000000E+00  0.38031959313E+03  0.38031960654E+03  0.10100000352E+00 0.  1.
        3   -1    0    0  501    0  0.00000000000E+00  0.00000000000E+00 -0.10909996955E+04  0.10909997001E+04  0.10100000352E+00 0. -1.
    10030    2    1    2    0    0  0.00000000000E+00  0.00000000000E+00 -0.71068010233E+03  0.14713193067E+04  0.12882989926E+04 0.  0.
        4    1    3    3  502    0 -0.35327249144E+03  0.52510084633E+03 -0.49236201822E+03  0.80184432523E+03  0.12699999809E+01 0. -1.
       -4    1    3    3    0  502  0.35327249144E+03 -0.52510084633E+03 -0.21831808411E+03  0.66947498144E+03  0.12699999809E+01 0.  1.
</event>
<event>
 5   0  0.1873488E-03  0.1282790E+04  0.7818609E-02  0.9043325E-01
        1   -1    0    0  501    0  0.00000000000E+00  0.00000000000E+00  0.50491133607E+03  0.50491133609E+03  0.50400001928E-02 0. -1.
       -1   -1    0    0    0  501  0.00000000000E+00  0.00000000000E+00 -0.81477165899E+03  0.81477165900E+03  0.50400001928E-02 0.  1.
    10030    2    1    2    0    0  0.00000000000E+00  0.00000000000E+00 -0.30986032292E+03  0.13196829951E+04  0.12827898455E+04 0.  0.
        3    1    3    3  502    0  0.74826164215E+02 -0.35836654255E+03  0.38686798060E+03  0.53262780465E+03  0.10100000352E+00 0. -1.
       -3    1    3    3    0  502 -0.74826164215E+02  0.35836654255E+03 -0.69672830352E+03  0.78705519044E+03  0.10100000352E+00 0.  1.
</event>
<event>
 5   0  0.3294720E-03  0.1195049E+04  0.7818609E-02  0.9117201E-01
       -2   -1    0    0    0  501  0.00000000000E+00  0.00000000000E+00  0.55209836313E+03  0.55209836314E+03  0.25500000920E-02 0. -1.
        2   -1    0    0  501    0  0.00000000000E+00  0.00000000000E+00 -0.64668817541E+03  0.64668817542E+03  0.25500000920E-02 0.  1.
    10030    2    1    2    0    0  0.00000000000E+00  0.00000000000E+00 -0.94589812277E+02  0.11987865386E+04  0.11950489247E+04 0.  0.
        5    1    3    3  502    0 -0.27300022187E+03  0.59958360771E+02 -0.57704625653E+03  0.64119310534E+03  0.46999998093E+01 0.  1.
       -5    1    3    3    0  502  0.27300022187E+03 -0.59958360771E+02  0.48245644425E+03  0.55759343321E+03  0.46999998093E+01 0. -1.
</event>
<event>
 5   0  0.1803959E-03  0.1346135E+04  0.7818609E-02  0.8993759E-01
       -1   -1    0    0    0  501  0.00000000000E+00  0.00000000000E+00  0.37174236958E+03  0.37174236962E+03  0.50400001928E-02 0. -1.
        1   -1    0    0  501    0  0.00000000000E+00  0.00000000000E+00 -0.12186398189E+04  0.12186398189E+04  0.50400001928E-02 0.  1.
    10030    2    1    2    0    0  0.00000000000E+00  0.00000000000E+00 -0.84689744935E+03  0.15903821886E+04  0.13461352889E+04 0.  0.
        4    1    3    3  502    0  0.36735438204E+03 -0.10545503225E+03 -0.10780027616E+04  0.11437489116E+04  0.12699999809E+01 0.  1.
       -4    1    3    3    0  502 -0.36735438204E+03  0.10545503225E+03  0.23110531227E+03  0.44663327696E+03  0.12699999809E+01 0. -1.
</event>
<event>
 5   0  0.3336609E-03  0.1286296E+04  0.7818609E-02  0.9040504E-01
       -2   -1    0    0    0  501  0.00000000000E+00  0.00000000000E+00  0.80892623785E+03  0.80892623785E+03  0.25500000920E-02 0.  1.
        2   -1    0    0  501    0  0.00000000000E+00  0.00000000000E+00 -0.51134367330E+03  0.51134367331E+03  0.25500000920E-02 0. -1.
    10030    2    1    2    0    0  0.00000000000E+00  0.00000000000E+00  0.29758256455E+03  0.13202699112E+04  0.12862959440E+04 0.  0.
        1    1    3    3  502    0  0.62973247776E+03 -0.76167567342E+02  0.25777877782E+03  0.68470021921E+03  0.50400001928E-02 0.  1.
       -1    1    3    3    0  502 -0.62973247776E+03  0.76167567342E+02  0.39803786728E+02  0.63556969195E+03  0.50400001928E-02 0. -1.
</event>
<event>
 5   0  0.1254125E-03  0.1314001E+04  0.7818609E-02  0.9018536E-01
       -3   -1    0    0    0  501  0.00000000000E+00  0.00000000000E+00  0.10768352488E+04  0.10768352535E+04  0.10100000352E+00 0.  1.
        3   -1    0    0  501    0  0.00000000000E+00  0.00000000000E+00 -0.40084992086E+03  0.40084993358E+03  0.10100000352E+00 0. -1.
    10030    2    1    2    0    0  0.00000000000E+00  0.00000000000E+00  0.67598532790E+03  0.14776851871E+04  0.13140005132E+04 0.  0.
        3    1    3    3  502    0  0.34308233241E+03 -0.48471046921E+03  0.21911341062E+02  0.59424729099E+03  0.10100000352E+00 0. -1.
       -3    1    3    3    0  502 -0.34308233241E+03  0.48471046921E+03  0.65407398684E+03  0.88343789608E+03  0.10100000352E+00 0.  1.
</event>
<event>
 5   0  0.3299104E-03  0.1258930E+04  0.7818609E-02  0.9062784E-01
       -2   -1    0    0    0  501  0.00000000000E+00  0.00000000000E+00  0.68178540504E+03  0.68178540505E+03  0.25500000920E-02 0. -1.
        2   -1    0    0  501    0  0.00000000000E+00  0.00000000000E+00 -0.58115946494E+03  0.58115946494E+03  0.25500000920E-02 0.  1.
    10030    2    1    2    0    0  0.00000000000E+00  0.00000000000E+00  0.10062594010E+03  0.12629448700E+04  0.12589297696E+04 0.  0.
        2    1    3    3  502    0  0.46528825745E+02 -0.41544787435E+03 -0.42178771388E+03  0.59385751112E+03  0.25500000920E-02 0.  1.
       -2    1    3    3    0  502 -0.46528825745E+02  0.41544787435E+03  0.52241365399E+03  0.66908735887E+03  0.25500000920E-02 0. -1.
</event>
<event>
 5   0  0.1814770E-03  0.1297792E+04  0.7818609E-02  0.9031318E-01
       -1   -1    0    0    0  501  0.00000000000E+00  0.00000000000E+00  0.47559630019E+03  0.47559630022E+03  0.50400001928E-02 0. -1.
        1   -1    0    0  501    0  0.00000000000E+00  0.00000000000E+00 -0.88534366955E+03  0.88534366956E+03  0.50400001928E-02 0.  1.
    10030    2    1    2    0    0  0.00000000000E+00  0.00000000000E+00 -0.40974736936E+03  0.13609399698E+04  0.12977922386E+04 0.  0.
        5    1    3    3  502    0 -0.53154997448E+03 -0.17857834832E+02 -0.59468647600E+03  0.79783354929E+03  0.46999998093E+01 0.  1.
       -5    1    3    3    0  502  0.53154997448E+03  0.17857834832E+02  0.18493910665E+03  0.56310642049E+03  0.46999998093E+01 0. -1.
</event>
<event>
 5   0  0.3259968E-03  0.1312672E+04  0.7818609E-02  0.9019576E-01
       -2   -1    0    0    0  501  0.00000000000E+00  0.00000000000E+00  0.44246084978E+03  0.44246084979E+03  0.25500000920E-02 0.  1.
        2   -1    0    0  501    0  0.00000000000E+00  0.00000000000E+00 -0.97359312230E+03  0.97359312230E+03  0.25500000920E-02 0. -1.
    10030    2    1    2    0    0  0.00000000000E+00  0.00000000000E+00 -0.53113227251E+03  0.14160539721E+04  0.13126718405E+04 0.  0.
        4    1    3    3  502    0  0.20648773284E+03  0.62296778013E+03 -0.27313194184E+03  0.71086476172E+03  0.12699999809E+01 0.  1.
       -4    1    3    3    0  502 -0.20648773284E+03 -0.62296778013E+03 -0.25800033067E+03  0.70518921037E+03  0.12699999809E+01 0. -1.
</event>
<event>
 5   0  0.3294720E-03  0.1297721E+04  0.7818609E-02  0.9031375E-01
       -2   -1    0    0    0  501  0.00000000000E+00  0.00000000000E+00  0.58622048116E+03  0.58622048117E+03  0.25500000920E-02 0. -1.
        2   -1    0    0  501    0  0.00000000000E+00  0.00000000000E+00 -0.71819353184E+03  0.71819353185E+03  0.25500000920E-02 0.  1.
    10030    2    1    2    0    0  0.00000000000E+00  0.00000000000E+00 -0.13197305068E+03  0.13044140130E+04  0.12977207062E+04 0.  0.
        5    1    3    3  502    0 -0.51618672421E+03  0.32818657028E+03  0.15156107357E+03  0.63019680115E+03  0.46999998093E+01 0. -1.
       -5    1    3    3    0  502  0.51618672421E+03 -0.32818657028E+03 -0.28353412426E+03  0.67421721186E+03  0.46999998093E+01 0.  1.
</event>
<event>
 5   0  0.1803959E-03  0.1273014E+04  0.7818609E-02  0.9051244E-01
        1   -1    0    0  501    0  0.00000000000E+00  0.00000000000E+00  0.97962747977E+03  0.97962747979E+03  0.50400001928E-02 0.  1.
       -1   -1    0    0    0  501  0.00000000000E+00  0.00000000000E+00 -0.41356634580E+03  0.41356634583E+03  0.50400001928E-02 0. -1.
    10030    2    1    2    0    0  0.00000000000E+00  0.00000000000E+00  0.56606113398E+03  0.13931938256E+04  0.12730136796E+04 0.  0.
        4    1    3    3  502    0  0.22823942991E+03 -0.21145618189E+03  0.89072890021E+03  0.94350757326E+03  0.12699999809E+01 0.  1.
       -4    1    3    3    0  502 -0.22823942991E+03  0.21145618189E+03 -0.32466776623E+03  0.44968625236E+03  0.12699999809E+01 0. -1.
</event>
<event>
 5   0  0.3262927E-03  0.1318867E+04  0.7818609E-02  0.9014736E-01
       -2   -1    0    0    0  501  0.00000000000E+00  0.00000000000E+00  0.28462167506E+03  0.28462167507E+03  0.25500000920E-02 0.  1.
        2   -1    0    0  501    0  0.00000000000E+00  0.00000000000E+00 -0.15278272627E+04  0.15278272627E+04  0.25500000920E-02 0. -1.
    10030    2    1    2    0    0  0.00000000000E+00  0.00000000000E+00 -0.12432055877E+04  0.18124489378E+04  0.13188673242E+04 0.  0.
        3    1    3    3  502    0  0.64289699723E+03 -0.38049138783E+02 -0.42682565683E+03  0.77262179463E+03  0.10100000352E+00 0.  1.
       -3    1    3    3    0  502 -0.64289699723E+03  0.38049138783E+02 -0.81637993085E+03  0.10398271432E+04  0.10100000352E+00 0. -1.
</event>
<event>
 5   0  0.1814770E-03  0.1305933E+04  0.7818609E-02  0.9024873E-01
        1   -1    0    0  501    0  0.00000000000E+00  0.00000000000E+00  0.15176946129E+04  0.15176946129E+04  0.50400001928E-02 0. -1.
       -1   -1    0    0    0  501  0.00000000000E+00  0.00000000000E+00 -0.28092968866E+03  0.28092968871E+03  0.50400001928E-02 0.  1.
    10030    2    1    2    0    0  0.00000000000E+00  0.00000000000E+00  0.12367649242E+04  0.17986243016E+04  0.13059333446E+04 0.  0.
        5    1    3    3  502    0 -0.15536272841E+03 -0.13913819911E+03 -0.23379827378E+03  0.31333805810E+03  0.46999998093E+01 0.  1.
       -5    1    3    3    0  502  0.15536272841E+03  0.13913819911E+03  0.14705631980E+04  0.14852862435E+04  0.46999998093E+01 0. -1.
</event>
<event>
 5   0  0.1873488E-03  0.1278819E+04  0.7818609E-02  0.9046532E-01
        1   -1    0    0  501    0  0.00000000000E+00  0.00000000000E+00  0.61087520821E+03  0.61087520823E+03  0.50400001928E-02 0.  1.
       -1   -1    0    0    0  501  0.00000000000E+00  0.00000000000E+00 -0.66927684506E+03  0.66927684508E+03  0.50400001928E-02 0. -1.
    10030    2    1    2    0    0  0.00000000000E+00  0.00000000000E+00 -0.58401636852E+02  0.12801520533E+04  0.12788191930E+04 0.  0.
        3    1    3    3  502    0 -0.57029632616E+03  0.28912739096E+03 -0.32679214642E+02  0.64023471408E+03  0.10100000352E+00 0.  1.
       -3    1    3    3    0  502  0.57029632616E+03 -0.28912739096E+03 -0.25722422210E+02  0.63991733923E+03  0.10100000352E+00 0. -1.
</event>
<event>
 5   0  0.1873488E-03  0.1283621E+04  0.7818609E-02  0.9042655E-01
       -1   -1    0    0    0  501  0.00000000000E+00  0.00000000000E+00  0.50179127658E+03  0.50179127660E+03  0.50400001928E-02 0. -1.
        1   -1    0    0  501    0  0.00000000000E+00  0.00000000000E+00 -0.82090074152E+03  0.82090074154E+03  0.50400001928E-02 0.  1.
    10030    2    1    2    0    0  0.00000000000E+00  0.00000000000E+00 -0.31910946494E+03  0.13226920181E+04  0.12836211763E+04 0.  0.
        3    1    3    3  502    0  0.11832494410E+03 -0.37584300901E+03 -0.68159343104E+03  0.78729179803E+03  0.10100000352E+00 0.  1.
       -3    1    3    3    0  502 -0.11832494410E+03  0.37584300901E+03  0.36248396609E+03  0.53540022011E+03  0.10100000352E+00 0. -1.
</event>
<event>
 5   0  0.1803959E-03  0.1311048E+04  0.7818609E-02  0.9020850E-01
       -1   -1    0    0    0  501  0.00000000000E+00  0.00000000000E+00  0.64577927241E+03  0.64577927243E+03  0.50400001928E-02 0.  1.
        1   -1    0    0  501    0  0.00000000000E+00  0.00000000000E+00 -0.66541550796E+03  0.66541550798E+03  0.50400001928E-02 0. -1.
    10030    2    1    2    0    0  0.00000000000E+00  0.00000000000E+00 -0.19636235547E+02  0.13111947804E+04  0.13110477377E+04 0.  0.
        4    1    3    3  502    0  0.63362828801E+03 -0.14413067716E+03 -0.96149698343E+02  0.65689027763E+03  0.12699999809E+01 0. -1.
       -4    1    3    3    0  502 -0.63362828801E+03  0.14413067716E+03  0.76513462796E+02  0.65430450277E+03  0.12699999809E+01 0.  1.
</event>
<event>
 5   0  0.3262927E-03  0.1245600E+04  0.7818609E-02  0.9073853E-01
        2   -1    0    0  501    0  0.00000000000E+00  0.00000000000E+00  0.11830907843E+04  0.11830907843E+04  0.25500000920E-02 0.  1.
       -2   -1    0    0    0  501  0.00000000000E+00  0.00000000000E+00 -0.32785296151E+03  0.32785296152E+03  0.25500000920E-02 0. -1.
    10030    2    1    2    0    0  0.00000000000E+00  0.00000000000E+00  0.85523782283E+03  0.15109437459E+04  0.12455999637E+04 0.  0.
        3    1    3    3  502    0  0.47465756762E+03  0.18802770080E+03 -0.50512401315E+01  0.51056806401E+03  0.10100000352E+00 0. -1.
       -3    1    3    3    0  502 -0.47465756762E+03 -0.18802770080E+03  0.86028906297E+03  0.10003756818E+04  0.10100000352E+00 0.  1.
</event>
<event>
 5   0  0.1814770E-03  0.1267700E+04  0.7818609E-02  0.9055579E-01
       -1   -1    0    0    0  501  0.00000000000E+00  0.00000000000E+00  0.47064620617E+03  0.47064620619E+03  0.50400001928E-02 0.  1.
        1   -1    0    0  501    0  0.00000000000E+00  0.00000000000E+00 -0.85364746340E+03  0.85364746342E+03  0.50400001928E-02 0. -1.
    10030    2    1    2    0    0  0.00000000000E+00  0.00000000000E+00 -0.38300125724E+03  0.13242936696E+04  0.12677001855E+04 0.  0.
        5    1    3    3  502    0  0.17190812139E+03  0.52074809537E+03  0.14051314620E+03  0.56612455810E+03  0.46999998093E+01 0.  1.
       -5    1    3    3    0  502 -0.17190812139E+03 -0.52074809537E+03 -0.52351440344E+03  0.75816911151E+03  0.46999998093E+01 0. -1.
</event>
<event>
 5   0  0.3262927E-03  0.1218376E+04  0.7818609E-02  0.9096923E-01
       -2   -1    0    0    0  501  0.00000000000E+00  0.00000000000E+00  0.74475166429E+03  0.74475166429E+03  0.25500000920E-02 0. -1.
        2   -1    0    0  501    0  0.00000000000E+00  0.00000000000E+00 -0.49830015450E+03  0.49830015450E+03  0.25500000920E-02 0.  1.
    10030    2    1    2    0    0  0.00000000000E+00  0.00000000000E+00  0.24645150979E+03  0.12430518188E+04  0.12183757538E+04 0.  0.
        3    1    3    3  502    0  0.43532705968E+03 -0.10824349943E+03 -0.29729134049E+03  0.53815281788E+03  0.10100000352E+00 0.  1.
       -3    1    3    3    0  502 -0.43532705968E+03  0.10824349943E+03  0.54374285028E+03  0.70489900091E+03  0.10100000352E+00 0. -1.
</event>
<event>
 5   0  0.3294720E-03  0.1305767E+04  0.7818609E-02  0.9025005E-01
        2   -1    0    0  501    0  0.00000000000E+00  0.00000000000E+00  0.10044846761E+04  0.10044846762E+04  0.25500000920E-02 0. -1.
       -2   -1    0    0    0  501  0.00000000000E+00  0.00000000000E+00 -0.42435361309E+03  0.42435361310E+03  0.25500000920E-02 0.  1.
    10030    2    1    2    0    0  0.00000000000E+00  0.00000000000E+00  0.58013106305E+03  0.14288382893E+04  0.13057667504E+04 0.  0.
        5    1    3    3  502    0 -0.69189133339E+02 -0.30760668799E+03  0.91563494787E+03  0.96841027382E+03  0.46999998093E+01 0. -1.
       -5    1    3    3    0  502  0.69189133339E+02  0.30760668799E+03 -0.33550388482E+03  0.46042801544E+03  0.46999998093E+01 0.  1.
</event>
<event>
 5   0  0.1823154E-03  0.1200814E+04  0.7818609E-02  0.9112145E-01
       -1   -1    0    0    0  501  0.00000000000E+00  0.00000000000E+00  0.89277642117E+03  0.89277642119E+03  0.50400001928E-02 0. -1.
        1   -1    0    0  501    0  0.00000000000E+00  0.00000000000E+00 -0.40378347814E+03  0.40378347817E+03  0.50400001928E-02 0.  1.
    10030    2    1    2    0    0  0.00000000000E+00  0.00000000000E+00  0.48899294303E+03  0.12965598994E+04  0.12008136718E+04 0.  0.
        2    1    3    3  502    0  0.18032227540E+03  0.54978515328E+03  0.41761979892E+03  0.71357279532E+03  0.25500000920E-02 0. -1.
       -2    1    3    3    0  502 -0.18032227540E+03 -0.54978515328E+03  0.71373144114E+02  0.58298710404E+03  0.25500000920E-02 0.  1.
</event>
<event>
 5   0  0.1803959E-03  0.1309363E+04  0.7818609E-02  0.9022173E-01
       -1   -1    0    0    0  501  0.00000000000E+00  0.00000000000E+00  0.30691649646E+03  0.30691649650E+03  0.50400001928E-02 0.  1.
        1   -1    0    0  501    0  0.00000000000E+00  0.00000000000E+00 -0.13964975358E+04  0.13964975359E+04  0.50400001928E-02 0. -1.
    10030    2    1    2    0    0  0.00000000000E+00  0.00000000000E+00 -0.10895810394E+04  0.17034140324E+04  0.13093634042E+04 0.  0.
        4    1    3    3  502    0  0.48911120588E+03 -0.33414692335E+03 -0.18210215236E+03  0.61971505137E+03  0.12699999809E+01 0.  1.
       -4    1    3    3    0  502 -0.48911120588E+03  0.33414692335E+03 -0.90747888703E+03  0.10836989810E+04  0.12699999809E+01 0. -1.
</event>
<event>
 5   0  0.3299104E-03  0.1290311E+04  0.7818609E-02  0.9037284E-01
       -2   -1    0    0    0  501  0.00000000000E+00  0.00000000000E+00  0.32643551509E+03  0.32643551510E+03  0.25500000920E-02 0.  1.
        2   -1    0    0  501    0  0.00000000000E+00  0.00000000000E+00 -0.12750629041E+04  0.12750629042E+04  0.25500000920E-02 0. -1.
    10030    2    1    2    0    0  0.00000000000E+00  0.00000000000E+00 -0.94862738905E+03  0.16014984193E+04  0.12903113049E+04 0.  0.
        2    1    3    3  502    0  0.52284366898E+03 -0.36739626524E+03 -0.36413355134E+03  0.73548539151E+03  0.25500000920E-02 0. -1.
       -2    1    3    3    0  502 -0.52284366898E+03  0.36739626524E+03 -0.58449383771E+03  0.86601302775E+03  0.25500000920E-02 0.  1.
</event>
<event>
 5   0  0.3262927E-03  0.1221772E+04  0.7818609E-02  0.9094010E-01
       -2   -1    0    0    0  501  0.00000000000E+00  0.00000000000E+00  0.31190317847E+03  0.31190317848E+03  0.25500000920E-02 0.  1.
        2   -1    0    0  501    0  0.00000000000E+00  0.00000000000E+00 -0.11964667419E+04  0.11964667419E+04  0.25500000920E-02 0. -1.
    10030    2    1    2    0    0  0.00000000000E+00  0.00000000000E+00 -0.88456356344E+03  0.15083699204E+04  0.12217721224E+04 0.  0.
        3    1    3    3  502    0 -0.17924400294E+03 -0.52292913431E+03 -0.12129576837E+03  0.56594696370E+03  0.10100000352E+00 0.  1.
       -3    1    3    3    0  502  0.17924400294E+03  0.52292913431E+03 -0.76326779506E+03  0.94242295668E+03  0.10100000352E+00 0. -1.
</event>
<event>
 5   0  0.1857986E-03  0.1312692E+04  0.7818609E-02  0.9019561E-01
        1   -1    0    0  501    0  0.00000000000E+00  0.00000000000E+00  0.10752541092E+04  0.10752541092E+04  0.50400001928E-02 0.  1.
       -1   -1    0    0    0  501  0.00000000000E+00  0.00000000000E+00 -0.40063999865E+03  0.40063999869E+03  0.50400001928E-02 0. -1.
    10030    2    1    2    0    0  0.00000000000E+00  0.00000000000E+00  0.67461411056E+03  0.14758941079E+04  0.13126915935E+04 0.  0.
        1    1    3    3  502    0  0.52165892254E+03 -0.39832161887E+03  0.33585787150E+03  0.73728464883E+03  0.50400001928E-02 0. -1.
       -1    1    3    3    0  502 -0.52165892254E+03  0.39832161887E+03  0.33875623906E+03  0.73860945908E+03  0.50400001928E-02 0.  1.
</event>
<event>
 5   0  0.3294720E-03  0.1290622E+04  0.7818609E-02  0.9037035E-01
        2   -1    0    0  501    0  0.00000000000E+00  0.00000000000E+00  0.12704222539E+04  0.12704222539E+04  0.25500000920E-02 0. -1.
       -2   -1    0    0    0  501  0.00000000000E+00  0.00000000000E+00 -0.32778588935E+03  0.32778588936E+03  0.25500000920E-02 0.  1.
    10030    2    1    2    0    0  0.00000000000E+00  0.00000000000E+00  0.94263636454E+03  0.15982081432E+04  0.12906223124E+04 0.  0.
        5    1    3    3  502    0  0.24813054540E+03  0.59378801095E+03  0.41256068596E+03  0.76444841494E+03  0.46999998093E+01 0. -1.
       -5    1    3    3    0  502 -0.24813054540E+03 -0.59378801095E+03  0.53007567859E+03  0.83375972830E+03  0.46999998093E+01 0.  1.
</event>
<event>
 5   0  0.1803959E-03  0.1287610E+04  0.7818609E-02  0.9039448E-01
       -1   -1    0    0    0  501  0.00000000000E+00  0.00000000000E+00  0.35600142616E+03  0.35600142619E+03  0.50400001928E-02 0. -1.
        1   -1    0    0  501    0  0.00000000000E+00  0.00000000000E+00 -0.11642795098E+04  0.11642795098E+04  0.50400001928E-02 0.  1.
    10030    2    1    2    0    0  0.00000000000E+00  0.00000000000E+00 -0.80827808362E+03  0.15202809360E+04  0.12876104472E+04 0.  0.
        4    1    3    3  502    0 -0.33252910254E+03 -0.20977914577E+03  0.19778688231E+03  0.44011834516E+03  0.12699999809E+01 0. -1.
       -4    1    3    3    0  502  0.33252910254E+03  0.20977914577E+03 -0.10060649659E+04  0.10801625908E+04  0.12699999809E+01 0.  1.
</event>
<event>
 5   0  0.1814770E-03  0.1393352E+04  0.7818609E-02  0.8958644E-01
        1   -1    0    0  501    0  0.00000000000E+00  0.00000000000E+00  0.70272763268E+03  0.70272763270E+03  0.50400001928E-02 0.  1.
       -1   -1    0    0    0  501  0.00000000000E+00  0.00000000000E+00 -0.69067691101E+03  0.69067691103E+03  0.50400001928E-02 0. -1.
    10030    2    1    2    0    0  0.00000000000E+00  0.00000000000E+00  0.12050721674E+02  0.13934045437E+04  0.13933524330E+04 0.  0.
        5    1    3    3  502    0 -0.24187062631E+03 -0.25467443233E+03 -0.59564088402E+03  0.69149882073E+03  0.46999998093E+01 0. -1.
       -5    1    3    3    0  502  0.24187062631E+03  0.25467443233E+03  0.60769160569E+03  0.70190572300E+03  0.46999998093E+01 0.  1.
</event>
<event>
 5   0  0.3299104E-03  0.1254817E+04  0.7818609E-02  0.9066183E-01
        2   -1    0    0  501    0  0.00000000000E+00  0.00000000000E+00  0.21486290881E+03  0.21486290883E+03  0.25500000920E-02 0. -1.
       -2   -1    0    0    0  501  0.00000000000E+00  0.00000000000E+00 -0.18320593172E+04  0.18320593172E+04  0.25500000920E-02 0.  1.
    10030    2    1    2    0    0  0.00000000000E+00  0.00000000000E+00 -0.16171964084E+04  0.20469222260E+04  0.12548172680E+04 0.  0.
        2    1    3    3  502    0 -0.14023453840E+03 -0.56150220441E+03 -0.12037892881E+04  0.13356867528E+04  0.25500000920E-02 0.  1.
       -2    1    3    3    0  502  0.14023453840E+03  0.56150220441E+03 -0.41340712025E+03  0.71123547324E+03  0.25500000920E-02 0. -1.
</event>
<event>
 5   0  0.1857986E-03  0.1291339E+04  0.7818609E-02  0.9036462E-01
        1   -1    0    0  501    0  0.00000000000E+00  0.00000000000E+00  0.94147739055E+03  0.94147739056E+03  0.50400001928E-02 0.  1.
       -1   -1    0    0    0  501  0.00000000000E+00  0.00000000000E+00 -0.44280309863E+03  0.44280309866E+03  0.50400001928E-02 0. -1.
    10030    2    1    2    0    0  0.00000000000E+00  0.00000000000E+00  0.49867429191E+03  0.13842804892E+04  0.12913390041E+04 0.  0.
        1    1    3    3  502    0  0.19770198011E+03 -0.52294499769E+02 -0.40716933764E+03  0.45563983274E+03  0.50400001928E-02 0. -1.
       -1    1    3    3    0  502 -0.19770198011E+03  0.52294499769E+02  0.90584362955E+03  0.92864065648E+03  0.50400001928E-02 0.  1.
</event>
<event>
 5   0  0.1823154E-03  0.1286469E+04  0.7818609E-02  0.9040365E-01
       -1   -1    0    0    0  501  0.00000000000E+00  0.00000000000E+00  0.69015836703E+03  0.69015836705E+03  0.50400001928E-02 0.  1.
        1   -1    0    0  501    0  0.00000000000E+00  0.00000000000E+00 -0.59950109861E+03  0.59950109863E+03  0.50400001928E-02 0. -1.
    10030    2    1    2    0    0  0.00000000000E+00  0.00000000000E+00  0.90657268417E+02  0.12896594657E+04  0.12864691201E+04 0.  0.
        2    1    3    3  502    0  0.23649880706E+03 -0.12915267191E+03  0.63084780078E+03  0.68598910061E+03  0.25500000920E-02 0.  1.
       -2    1    3    3    0  502 -0.23649880706E+03  0.12915267191E+03 -0.54019053236E+03  0.60367036507E+03  0.25500000920E-02 0. -1.
</event>
<event>
 5   0  0.3294720E-03  0.1301280E+04  0.7818609E-02  0.9028550E-01
        2   -1    0    0  501    0  0.00000000000E+00  0.00000000000E+00  0.16381519578E+04  0.16381519578E+04  0.25500000920E-02 0.  1.
       -2   -1    0    0    0  501  0.00000000000E+00  0.00000000000E+00 -0.25842085912E+03  0.25842085913E+03  0.25500000920E-02 0. -1.
    10030    2    1    2    0    0  0.00000000000E+00  0.00000000000E+00  0.13797310987E+04  0.18965728169E+04  0.13012803485E+04 0.  0.
        5    1    3    3  502    0 -0.16622344196E+03 -0.94278330021E+01  0.16065546918E+04  0.16151653737E+04  0.46999998093E+01 0.  1.
       -5    1    3    3    0  502  0.16622344196E+03  0.94278330021E+01 -0.22682359313E+03  0.28140744321E+03  0.46999998093E+01 0. -1.
</event>
<event>
 5   0  0.3259968E-03  0.1280631E+04  0.7818609E-02  0.9045068E-01
       -2   -1    0    0    0  501  0.00000000000E+00  0.00000000000E+00  0.39625427701E+03  0.39625427701E+03  0.25500000920E-02 0.  1.
        2   -1    0    0  501    0  0.00000000000E+00  0.00000000000E+00 -0.10346983817E+04  0.10346983817E+04  0.25500000920E-02 0. -1.
    10030    2    1    2    0    0  0.00000000000E+00  0.00000000000E+00 -0.63844410474E+03  0.14309526588E+04  0.12806305622E+04 0.  0.
        4    1    3    3  502    0  0.13159913715E+03  0.61265649114E+03 -0.17210176592E+03  0.64983608685E+03  0.12699999809E+01 0. -1.
       -4    1    3    3    0  502 -0.13159913715E+03 -0.61265649114E+03 -0.46634233882E+03  0.78111657191E+03  0.12699999809E+01 0.  1.
</event>
<event>
 5   0  0.1823154E-03  0.1304950E+04  0.7818609E-02  0.9025649E-01
        1   -1    0    0  501    0  0.00000000000E+00  0.00000000000E+00  0.90587899017E+03  0.90587899018E+03  0.50400001928E-02 0. -1.
       -1   -1    0    0    0  501  0.00000000000E+00  0.00000000000E+00 -0.46995661754E+03  0.46995661757E+03  0.50400001928E-02 0.  1.
    10030    2    1    2    0    0  0.00000000000E+00  0.00000000000E+00  0.43592237263E+03  0.13758356077E+04  0.13049503073E+04 0.  0.
        2    1    3    3  502    0  0.61909580801E+03  0.18983934347E+03  0.13358110366E+03  0.66118265788E+03  0.25500000920E-02 0. -1.
       -2    1    3    3    0  502 -0.61909580801E+03 -0.18983934347E+03  0.30234126896E+03  0.71465294986E+03  0.25500000920E-02 0.  1.
</event>
<event>
 5   0  0.1873488E-03  0.1238338E+04  0.7818609E-02  0.9079946E-01
       -1   -1    0    0    0  501  0.00000000000E+00  0.00000000000E+00  0.36708917320E+03  0.36708917324E+03  0.50400001928E-02 0. -1.
        1   -1    0    0  501    0  0.00000000000E+00  0.00000000000E+00 -0.10443509910E+04  0.10443509910E+04  0.50400001928E-02 0.  1.
    10030    2    1    2    0    0  0.00000000000E+00  0.00000000000E+00 -0.67726181778E+03  0.14114401642E+04  0.12383375014E+04 0.  0.
        3    1    3    3  502    0 -0.38374055475E+03  0.29096560372E+03 -0.78219986884E+03  0.91856107087E+03  0.10100000352E+00 0.  1.
       -3    1    3    3    0  502  0.38374055475E+03 -0.29096560372E+03  0.10493805106E+03  0.49287909336E+03  0.10100000352E+00 0. -1.
</event>
<event>
 5   0  0.1823154E-03  0.1218530E+04  0.7818609E-02  0.9096790E-01
        1   -1    0    0  501    0  0.00000000000E+00  0.00000000000E+00  0.13301954250E+04  0.13301954250E+04  0.50400001928E-02 0.  1.
       -1   -1    0    0    0  501  0.00000000000E+00  0.00000000000E+00 -0.27905964386E+03  0.27905964391E+03  0.50400001928E-02 0. -1.
    10030    2    1    2    0    0  0.00000000000E+00  0.00000000000E+00  0.10511357811E+04  0.16092550689E+04  0.12185300351E+04 0.  0.
        2    1    3    3  502    0  0.42951750202E+03  0.42603052201E+03  0.43018264008E+03  0.74232364509E+03  0.25500000920E-02 0. -1.
       -2    1    3    3    0  502 -0.42951750202E+03 -0.42603052201E+03  0.62095314107E+03  0.86693142384E+03  0.25500000920E-02 0.  1.
</event>
<event>
 5   0  0.3262927E-03  0.1299542E+04  0.7818609E-02  0.9029929E-01
       -2   -1    0    0    0  501  0.00000000000E+00  0.00000000000E+00  0.46476759972E+03  0.46476759973E+03  0.25500000920E-02 0.  1.
        2   -1    0    0  501    0  0.00000000000E+00  0.00000000000E+00 -0.90841558609E+03  0.90841558610E+03  0.25500000920E-02 0. -1.
    10030    2    1    2    0    0  0.00000000000E+00  0.00000000000E+00 -0.44364798637E+03  0.13731831858E+04  0.12995416600E+04 0.  0.
        3    1    3    3  502    0  0.61863416408E+03 -0.68025835931E+02 -0.24517359224E+02  0.62284577097E+03  0.10100000352E+00 0.  1.
       -3    1    3    3    0  502 -0.61863416408E+03  0.68025835931E+02 -0.41913062714E+03  0.75033741485E+03  0.10100000352E+00 0. -1.
</event>
<event>
 5   0  0.1814770E-03  0.1307121E+04  0.7818609E-02  0.9023937E-01
       -1   -1    0    0    0  501  0.00000000000E+00  0.00000000000E+00  0.40176019004E+03  0.40176019007E+03  0.50400001928E-02 0.  1.
        1   -1    0    0  501    0  0.00000000000E+00  0.00000000000E+00 -0.10631747222E+04  0.10631747222E+04  0.50400001928E-02 0. -1.
    10030    2    1    2    0    0  0.00000000000E+00  0.00000000000E+00 -0.66141453218E+03  0.14649349123E+04  0.13071209255E+04 0.  0.
        5    1    3    3  502    0 -0.12418243512E+03  0.27607885325E+03 -0.97984197206E+03  0.10255501892E+04  0.46999998093E+01 0. -1.
       -5    1    3    3    0  502  0.12418243512E+03 -0.27607885325E+03  0.31842743988E+03  0.43938472307E+03  0.46999998093E+01 0.  1.
</event>
<event>
 5   0  0.1803959E-03  0.1322591E+04  0.7818609E-02  0.9011840E-01
       -1   -1    0    0    0  501  0.00000000000E+00  0.00000000000E+00  0.26290997991E+03  0.26290997995E+03  0.50400001928E-02 0.  1.
        1   -1    0    0  501    0  0.00000000000E+00  0.00000000000E+00 -0.16633509034E+04  0.16633509034E+04  0.50400001928E-02 0. -1.
    10030    2    1    2    0    0  0.00000000000E+00  0.00000000000E+00 -0.14004409234E+04  0.19262608833E+04  0.13225907192E+04 0.  0.
        4    1    3    3  502    0 -0.52470052909E+03 -0.37763731478E+03 -0.49741890089E+03  0.81568852058E+03  0.12699999809E+01 0.  1.
       -4    1    3    3    0  502  0.52470052909E+03  0.37763731478E+03 -0.90302202256E+03  0.11105723627E+04  0.12699999809E+01 0. -1.
</event>
<event>
 5   0  0.1873488E-03  0.1311439E+04  0.7818609E-02  0.9020543E-01
       -1   -1    0    0    0  501  0.00000000000E+00  0.00000000000E+00  0.47863630514E+03  0.47863630516E+03  0.50400001928E-02 0. -1.
        1   -1    0    0  501    0  0.00000000000E+00  0.00000000000E+00 -0.89831919211E+03  0.89831919213E+03  0.50400001928E-02 0.  1.
    10030    2    1    2    0    0  0.00000000000E+00  0.00000000000E+00 -0.41968288697E+03  0.13769554973E+04  0.13114391774E+04 0.  0.
        3    1    3    3  502    0  0.35872623859E+03  0.47709635252E+03 -0.49480914594E+03  0.77533318318E+03  0.10100000352E+00 0.  1.
       -3    1    3    3    0  502 -0.35872623859E+03 -0.47709635252E+03  0.75126258965E+02  0.60162231410E+03  0.10100000352E+00 0. -1.
</event>
<event>
 5   0  0.3336609E-03  0.1272620E+04  0.7818609E-02  0.9051564E-01
       -2   -1    0    0    0  501  0.00000000000E+00  0.00000000000E+00  0.80704109468E+03  0.80704109469E+03  0.25500000920E-02 0.  1.
        2   -1    0    0  501    0  0.00000000000E+00  0.00000000000E+00 -0.50169716254E+03  0.50169716255E+03  0.25500000920E-02 0. -1.
    10030    2    1    2    0    0  0.00000000000E+00  0.00000000000E+00  0.30534393214E+03  0.13087382572E+04  0.12726197032E+04 0.  0.
        1    1    3    3  502    0 -0.92380413316E+02 -0.43651664027E+03  0.61920957864E+03  0.76321780659E+03  0.50400001928E-02 0.  1.
       -1    1    3    3    0  502  0.92380413316E+02  0.43651664027E+03 -0.31386564650E+03  0.54552045065E+03  0.50400001928E-02 0. -1.
</event>
<event>
 5   0  0.1857986E-03  0.1195972E+04  0.7818609E-02  0.9116390E-01
        1   -1    0    0  501    0  0.00000000000E+00  0.00000000000E+00  0.54312063559E+03  0.54312063561E+03  0.50400001928E-02 0.  1.
       -1   -1    0    0    0  501  0.00000000000E+00  0.00000000000E+00 -0.65839339427E+03  0.65839339429E+03  0.50400001928E-02 0. -1.
    10030    2    1    2    0    0  0.00000000000E+00  0.00000000000E+00 -0.11527275868E+03  0.12015140299E+04  0.11959716364E+04 0.  0.
        1    1    3    3  502    0  0.56249839947E+03 -0.19996241619E+03 -0.92403422128E+02  0.60409255065E+03  0.50400001928E-02 0.  1.
       -1    1    3    3    0  502 -0.56249839947E+03  0.19996241619E+03 -0.22869336556E+02  0.59742147926E+03  0.50400001928E-02 0. -1.
</event>
<event>
 5   0  0.3262927E-03  0.1411714E+04  0.7818609E-02  0.8945383E-01
        2   -1    0    0  501    0  0.00000000000E+00  0.00000000000E+00  0.11931847582E+04  0.11931847582E+04  0.25500000920E-02 0. -1.
       -2   -1    0    0    0  501  0.00000000000E+00  0.00000000000E+00 -0.41756633862E+03  0.41756633863E+03  0.25500000920E-02 0.  1.
    10030    2    1    2    0    0  0.00000000000E+00  0.00000000000E+00  0.77561841962E+03  0.16107510969E+04  0.14117135557E+04 0.  0.
        3    1    3    3  502    0  0.39787574625E+03 -0.23190341599E+03 -0.22253991884E+03  0.51147661675E+03  0.10100000352E+00 0.  1.
       -3    1    3    3    0  502 -0.39787574625E+03  0.23190341599E+03  0.99815833846E+03  0.10992744801E+04  0.10100000352E+00 0. -1.
</event>
<event>
 5   0  0.3262927E-03  0.1313965E+04  0.7818609E-02  0.9018564E-01
        2   -1    0    0  501    0  0.00000000000E+00  0.00000000000E+00  0.11261062167E+04  0.11261062167E+04  0.25500000920E-02 0. -1.
       -2   -1    0    0    0  501  0.00000000000E+00  0.00000000000E+00 -0.38329050993E+03  0.38329050994E+03  0.25500000920E-02 0.  1.
    10030    2    1    2    0    0  0.00000000000E+00  0.00000000000E+00  0.74281570681E+03  0.15093967267E+04  0.13139647272E+04 0.  0.
        3    1    3    3  502    0  0.14073805518E+03  0.55922009416E+03  0.73301574727E+03  0.93265556871E+03  0.10100000352E+00 0. -1.
       -3    1    3    3    0  502 -0.14073805518E+03 -0.55922009416E+03  0.97999595378E+01  0.57674115797E+03  0.10100000352E+00 0.  1.
</event>
<event>
 5   0  0.3259968E-03  0.1297939E+04  0.7818609E-02  0.9031201E-01
        2   -1    0    0  501    0  0.00000000000E+00  0.00000000000E+00  0.71740668778E+03  0.71740668778E+03  0.25500000920E-02 0. -1.
       -2   -1    0    0    0  501  0.00000000000E+00  0.00000000000E+00 -0.58706071635E+03  0.58706071636E+03  0.25500000920E-02 0.  1.
    10030    2    1    2    0    0  0.00000000000E+00  0.00000000000E+00  0.13034597143E+03  0.13044674041E+04  0.12979388029E+04 0.  0.
        4    1    3    3  502    0 -0.13143220293E+03 -0.65373481367E+02 -0.57015507027E+03  0.58874997502E+03  0.12699999809E+01 0.  1.
       -4    1    3    3    0  502  0.13143220293E+03  0.65373481367E+02  0.70050104169E+03  0.71571742912E+03  0.12699999809E+01 0. -1.
</event>
<event>
 5   0  0.1873488E-03  0.1309215E+04  0.7818609E-02  0.9022289E-01
        1   -1    0    0  501    0  0.00000000000E+00  0.00000000000E+00  0.47025122571E+03  0.47025122574E+03  0.50400001928E-02 0. -1.
       -1   -1    0    0    0  501  0.00000000000E+00  0.00000000000E+00 -0.91123814812E+03  0.91123814814E+03  0.50400001928E-02 0.  1.
    10030    2    1    2    0    0  0.00000000000E+00  0.00000000000E+00 -0.44098692241E+03  0.13814893739E+04  0.13092148122E+04 0.  0.
        3    1    3    3  502    0  0.32929959008E+03  0.24795559854E+03 -0.75708404214E+03  0.86203042634E+03  0.10100000352E+00 0.  1.
       -3    1    3    3    0  502 -0.32929959008E+03 -0.24795559854E+03  0.31609711973E+03  0.51945894754E+03  0.10100000352E+00 0. -1.
</event>
<event>
 5   0  0.3259968E-03  0.1358938E+04  0.7818609E-02  0.8984089E-01
       -2   -1    0    0    0  501  0.00000000000E+00  0.00000000000E+00  0.32580492925E+03  0.32580492926E+03  0.25500000920E-02 0.  1.
        2   -1    0    0  501    0  0.00000000000E+00  0.00000000000E+00 -0.14170392245E+04  0.14170392245E+04  0.25500000920E-02 0. -1.
    10030    2    1    2    0    0  0.00000000000E+00  0.00000000000E+00 -0.10912342952E+04  0.17428441538E+04  0.13589383566E+04 0.  0.
        4    1    3    3  502    0  0.96068771553E+02  0.44914735922E+02 -0.14063582694E+04  0.14103516360E+04  0.12699999809E+01 0. -1.
       -4    1    3    3    0  502 -0.96068771553E+02 -0.44914735922E+02  0.31512397416E+03  0.33249251775E+03  0.12699999809E+01 0.  1.
</event>
<event>
 5   0  0.1814770E-03  0.1334349E+04  0.7818609E-02  0.9002761E-01
        1   -1    0    0  501    0  0.00000000000E+00  0.00000000000E+00  0.87566638357E+03  0.87566638358E+03  0.50400001928E-02 0. -1.
       -1   -1    0    0    0  501  0.00000000000E+00  0.00000000000E+00 -0.50832374454E+03  0.50832374456E+03  0.50400001928E-02 0.  1.
    10030    2    1    2    0    0  0.00000000000E+00  0.00000000000E+00  0.36734263903E+03  0.13839901281E+04  0.13343493022E+04 0.  0.
        5    1    3    3  502    0 -0.18955075699E+03 -0.16430442264E+03  0.82487249250E+03  0.86218452297E+03  0.46999998093E+01 0. -1.
       -5    1    3    3    0  502  0.18955075699E+03  0.16430442264E+03 -0.45752985347E+03  0.52180560517E+03  0.46999998093E+01 0.  1.
</event>
<event>
 5   0  0.3336609E-03  0.1292530E+04  0.7818609E-02  0.9035510E-01
        2   -1    0    0  501    0  0.00000000000E+00  0.00000000000E+00  0.69055461974E+03  0.69055461974E+03  0.25500000920E-02 0. -1.
       -2   -1    0    0    0  501  0.00000000000E+00  0.00000000000E+00 -0.60481609601E+03  0.60481609601E+03  0.25500000920E-02 0.  1.
    10030    2    1    2    0    0  0.00000000000E+00  0.00000000000E+00  0.85738523729E+02  0.12953707158E+04  0.12925301531E+04 0.  0.
        1    1    3    3  502    0  0.40997639980E+03 -0.59658239678E+02  0.53996213315E+03  0.68058714300E+03  0.50400001928E-02 0. -1.
       -1    1    3    3    0  502 -0.40997639980E+03  0.59658239678E+02 -0.45422360942E+03  0.61478357276E+03  0.50400001928E-02 0.  1.
</event>
<event>
 5   0  0.1823154E-03  0.1305200E+04  0.7818609E-02  0.9025452E-01
       -1   -1    0    0    0  501  0.00000000000E+00  0.00000000000E+00  0.94122261679E+03  0.94122261681E+03  0.50400001928E-02 0. -1.
        1   -1    0    0  501    0  0.00000000000E+00  0.00000000000E+00 -0.45248257136E+03  0.45248257139E+03  0.50400001928E-02 0.  1.
    10030    2    1    2    0    0  0.00000000000E+00  0.00000000000E+00  0.48874004543E+03  0.13937051882E+04  0.13052001071E+04 0.  0.
        2    1    3    3  502    0 -0.30038423364E+03 -0.39016275214E+03 -0.21295821233E+03  0.53647820196E+03  0.25500000920E-02 0.  1.
       -2    1    3    3    0  502  0.30038423364E+03  0.39016275214E+03  0.70169825777E+03  0.85722698624E+03  0.25500000920E-02 0. -1.
</event>
<event>
 5   0  0.3294720E-03  0.1329168E+04  0.7818609E-02  0.9006749E-01
        2   -1    0    0  501    0  0.00000000000E+00  0.00000000000E+00  0.80297171541E+03  0.80297171541E+03  0.25500000920E-02 0. -1.
       -2   -1    0    0    0  501  0.00000000000E+00  0.00000000000E+00 -0.55004690686E+03  0.55004690686E+03  0.25500000920E-02 0.  1.
    10030    2    1    2    0    0  0.00000000000E+00  0.00000000000E+00  0.25292480855E+03  0.13530186223E+04  0.13291683240E+04 0.  0.
        5    1    3    3  502    0  0.21428051652E+03  0.38059824241E+03 -0.38340332520E+03  0.58119821202E+03  0.46999998093E+01 0. -1.
       -5    1    3    3    0  502 -0.21428051652E+03 -0.38059824241E+03  0.63632813374E+03  0.77182041025E+03  0.46999998093E+01 0.  1.
</event>
<event>
 5   0  0.1873488E-03  0.1328266E+04  0.7818609E-02  0.9007446E-01
       -1   -1    0    0    0  501  0.00000000000E+00  0.00000000000E+00  0.28456787632E+03  0.28456787636E+03  0.50400001928E-02 0. -1.
        1   -1    0    0  501    0  0.00000000000E+00  0.00000000000E+00 -0.15499730873E+04  0.15499730873E+04  0.50400001928E-02 0.  1.
    10030    2    1    2    0    0  0.00000000000E+00  0.00000000000E+00 -0.12654052110E+04  0.18345409636E+04  0.13282658617E+04 0.  0.
        3    1    3    3  502    0  0.67263646933E+02 -0.65933958710E+03 -0.57378942023E+03  0.87663413023E+03  0.10100000352E+00 0.  1.
       -3    1    3    3    0  502 -0.67263646933E+02  0.65933958710E+03 -0.69161579073E+03  0.95790683341E+03  0.10100000352E+00 0. -1.
</event>
<event>
 5   0  0.1873488E-03  0.1301533E+04  0.7818609E-02  0.9028350E-01
        1   -1    0    0  501    0  0.00000000000E+00  0.00000000000E+00  0.46952383455E+03  0.46952383458E+03  0.50400001928E-02 0. -1.
       -1   -1    0    0    0  501  0.00000000000E+00  0.00000000000E+00 -0.90197135598E+03  0.90197135599E+03  0.50400001928E-02 0.  1.
    10030    2    1    2    0    0  0.00000000000E+00  0.00000000000E+00 -0.43244752143E+03  0.13714951906E+04  0.13015330188E+04 0.  0.
        3    1    3    3  502    0  0.20629113539E+01  0.44803360634E+03  0.28111969578E+03  0.52892973217E+03  0.10100000352E+00 0. -1.
       -3    1    3    3    0  502 -0.20629113539E+01 -0.44803360634E+03 -0.71356721721E+03  0.84256545840E+03  0.10100000352E+00 0.  1.
</event>
<event>
 5   0  0.1254125E-03  0.1305198E+04  0.7818609E-02  0.9025453E-01
        3   -1    0    0  501    0  0.00000000000E+00  0.00000000000E+00  0.15901377732E+04  0.15901377764E+04  0.10100000352E+00 0. -1.
       -3   -1    0    0    0  501  0.00000000000E+00  0.00000000000E+00 -0.26782927696E+03  0.26782929600E+03  0.10100000352E+00 0.  1.
    10030    2    1    2    0    0  0.00000000000E+00  0.00000000000E+00  0.13223084962E+04  0.18579670724E+04  0.13051980244E+04 0.  0.
        2    1    3    3  502    0 -0.40775607649E+03 -0.50880389684E+03  0.69985306963E+03  0.95652534855E+03  0.25500000920E-02 0. -1.
       -2    1    3    3    0  502  0.40775607649E+03  0.50880389684E+03  0.62245542656E+03  0.90144172381E+03  0.25500000920E-02 0.  1.
</event>
<event>
 5   0  0.1857986E-03  0.1329556E+04  0.7818609E-02  0.9006450E-01
        1   -1    0    0  501    0  0.00000000000E+00  0.00000000000E+00  0.16321390380E+04  0.16321390380E+04  0.50400001928E-02 0. -1.
       -1   -1    0    0    0  501  0.00000000000E+00  0.00000000000E+00 -0.27076727662E+03  0.27076727667E+03  0.50400001928E-02 0.  1.
    10030    2    1    2    0    0  0.00000000000E+00  0.00000000000E+00  0.13613717614E+04  0.19029063146E+04  0.13295560799E+04 0.  0.
        1    1    3    3  502    0  0.65952132030E+03 -0.49077537333E+01  0.79989476618E+03  0.10367372352E+04  0.50400001928E-02 0.  1.
       -1    1    3    3    0  502 -0.65952132030E+03  0.49077537333E+01  0.56147699518E+03  0.86616907940E+03  0.50400001928E-02 0. -1.
</event>
<event>
 5   0  0.1823154E-03  0.9976770E+03  0.7818609E-02  0.9311096E-01
       -1   -1    0    0    0  501  0.00000000000E+00  0.00000000000E+00  0.27801612892E+03  0.27801612897E+03  0.50400001928E-02 0.  1.
        1   -1    0    0  501    0  0.00000000000E+00  0.00000000000E+00 -0.89505552877E+03  0.89505552878E+03  0.50400001928E-02 0. -1.
    10030    2    1    2    0    0  0.00000000000E+00  0.00000000000E+00 -0.61703939984E+03  0.11730716578E+04  0.99767704858E+03 0.  0.
        2    1    3    3  502    0 -0.40540247573E+03  0.11286116802E+03  0.64354612872E+01  0.42086841856E+03  0.25500000920E-02 0.  1.
       -2    1    3    3    0  502  0.40540247573E+03 -0.11286116802E+03 -0.62347486113E+03  0.75220323919E+03  0.25500000920E-02 0. -1.
</event>
<event>
 5   0  0.1814770E-03  0.1251047E+04  0.7818609E-02  0.9069312E-01
        1   -1    0    0  501    0  0.00000000000E+00  0.00000000000E+00  0.12702655648E+04  0.12702655648E+04  0.50400001928E-02 0.  1.
       -1   -1    0    0    0  501  0.00000000000E+00  0.00000000000E+00 -0.30802993566E+03  0.30802993570E+03  0.50400001928E-02 0. -1.
    10030    2    1    2    0    0  0.00000000000E+00  0.00000000000E+00  0.96223562915E+03  0.15782955005E+04  0.12510472737E+04 0.  0.
        5    1    3    3  502    0  0.57910089693E+03 -0.15272039801E+03  0.25341631794E+03  0.65032552540E+03  0.46999998093E+01 0. -1.
       -5    1    3    3    0  502 -0.57910089693E+03  0.15272039801E+03  0.70881931121E+03  0.92796997513E+03  0.46999998093E+01 0.  1.
</event>
<event>
 5   0  0.3294720E-03  0.1312878E+04  0.7818609E-02  0.9019415E-01
       -2   -1    0    0    0  501  0.00000000000E+00  0.00000000000E+00  0.48872072082E+03  0.48872072083E+03  0.25500000920E-02 0.  1.
        2   -1    0    0  501    0  0.00000000000E+00  0.00000000000E+00 -0.88171393026E+03  0.88171393026E+03  0.25500000920E-02 0. -1.
    10030    2    1    2    0    0  0.00000000000E+00  0.00000000000E+00 -0.39299320944E+03  0.13704346511E+04  0.13128775534E+04 0.  0.
        5    1    3    3  502    0 -0.54363587825E+03  0.89038960470E+02  0.17611476289E+03  0.57836528622E+03  0.46999998093E+01 0.  1.
       -5    1    3    3    0  502  0.54363587825E+03 -0.89038960470E+02 -0.56910797233E+03  0.79206936487E+03  0.46999998093E+01 0. -1.
</event>
<event>
 5   0  0.1814770E-03  0.1250175E+04  0.7818609E-02  0.9070038E-01
       -1   -1    0    0    0  501  0.00000000000E+00  0.00000000000E+00  0.50242846484E+03  0.50242846486E+03  0.50400001928E-02 0.  1.
        1   -1    0    0  501    0  0.00000000000E+00  0.00000000000E+00 -0.77769161855E+03  0.77769161856E+03  0.50400001928E-02 0. -1.
    10030    2    1    2    0    0  0.00000000000E+00  0.00000000000E+00 -0.27526315371E+03  0.12801200834E+04  0.12501750374E+04 0.  0.
        5    1    3    3  502    0 -0.59913617765E+03 -0.16649990649E+03 -0.20260165957E+03  0.65403050440E+03  0.46999998093E+01 0. -1.
       -5    1    3    3    0  502  0.59913617765E+03  0.16649990649E+03 -0.72661494138E+02  0.62608957902E+03  0.46999998093E+01 0.  1.
</event>
<event>
 5   0  0.3336609E-03  0.1042232E+04  0.7818609E-02  0.9263401E-01
        2   -1    0    0  501    0  0.00000000000E+00  0.00000000000E+00  0.50334711424E+03  0.50334711425E+03  0.25500000920E-02 0.  1.
       -2   -1    0    0    0  501  0.00000000000E+00  0.00000000000E+00 -0.53951183582E+03  0.53951183582E+03  0.25500000920E-02 0. -1.
    10030    2    1    2    0    0  0.00000000000E+00  0.00000000000E+00 -0.36164721573E+02  0.10428589501E+04  0.10422316934E+04 0.  0.
        1    1    3    3  502    0  0.22516207203E+03  0.10620166014E+03 -0.47616240127E+03  0.53731497626E+03  0.50400001928E-02 0. -1.
       -1    1    3    3    0  502 -0.22516207203E+03 -0.10620166014E+03  0.43999767970E+03  0.50554397382E+03  0.50400001928E-02 0.  1.
</event>
<event>
 5   0  0.1857986E-03  0.1279371E+04  0.7818609E-02  0.9046086E-01
       -1   -1    0    0    0  501  0.00000000000E+00  0.00000000000E+00  0.56370487823E+03  0.56370487826E+03  0.50400001928E-02 0.  1.
        1   -1    0    0  501    0  0.00000000000E+00  0.00000000000E+00 -0.72590751631E+03  0.72590751633E+03  0.50400001928E-02 0. -1.
    10030    2    1    2    0    0  0.00000000000E+00  0.00000000000E+00 -0.16220263808E+03  0.12896123946E+04  0.12793711082E+04 0.  0.
        1    1    3    3  502    0  0.78476462984E+02 -0.53529066887E+03  0.26295625738E+03  0.60153191831E+03  0.50400001928E-02 0.  1.
       -1    1    3    3    0  502 -0.78476462984E+02  0.53529066887E+03 -0.42515889546E+03  0.68808047628E+03  0.50400001928E-02 0. -1.
</event>
<event>
 5   0  0.3259968E-03  0.1179861E+04  0.7818609E-02  0.9130669E-01
        2   -1    0    0  501    0  0.00000000000E+00  0.00000000000E+00  0.23498533253E+04  0.23498533253E+04  0.25500000920E-02 0. -1.
       -2   -1    0    0    0  501  0.00000000000E+00  0.00000000000E+00 -0.14810199574E+03  0.14810199576E+03  0.25500000920E-02 0.  1.
    10030    2    1    2    0    0  0.00000000000E+00  0.00000000000E+00  0.22017513296E+04  0.24979553211E+04  0.11798609532E+04 0.  0.
        4    1    3    3  502    0  0.38487238535E+03  0.32100518516E+03  0.44201580405E+03  0.66824446562E+03  0.12699999809E+01 0.  1.
       -4    1    3    3    0  502 -0.38487238535E+03 -0.32100518516E+03  0.17597355255E+04  0.18297108555E+04  0.12699999809E+01 0. -1.
</event>
<event>
 5   0  0.3262927E-03  0.1301772E+04  0.7818609E-02  0.9028161E-01
       -2   -1    0    0    0  501  0.00000000000E+00  0.00000000000E+00  0.47900091452E+03  0.47900091452E+03  0.25500000920E-02 0. -1.
        2   -1    0    0  501    0  0.00000000000E+00  0.00000000000E+00 -0.88445109672E+03  0.88445109673E+03  0.25500000920E-02 0.  1.
    10030    2    1    2    0    0  0.00000000000E+00  0.00000000000E+00 -0.40545018221E+03  0.13634520112E+04  0.13017724597E+04 0.  0.
        3    1    3    3  502    0  0.31199933087E+03 -0.56970386404E+03 -0.15895008433E+03  0.66870861717E+03  0.10100000352E+00 0.  1.
       -3    1    3    3    0  502 -0.31199933087E+03  0.56970386404E+03 -0.24650009787E+03  0.69474339408E+03  0.10100000352E+00 0. -1.
</event>
<event>
 5   0  0.1873488E-03  0.1308585E+04  0.7818609E-02  0.9022785E-01
       -1   -1    0    0    0  501  0.00000000000E+00  0.00000000000E+00  0.34194028242E+03  0.34194028246E+03  0.50400001928E-02 0.  1.
        1   -1    0    0  501    0  0.00000000000E+00  0.00000000000E+00 -0.12519691993E+04  0.12519691993E+04  0.50400001928E-02 0. -1.
    10030    2    1    2    0    0  0.00000000000E+00  0.00000000000E+00 -0.91002891691E+03  0.15939094818E+04  0.13085850399E+04 0.  0.
        3    1    3    3  502    0  0.61430733731E+03 -0.51622005091E+02 -0.18798744900E+03  0.64449796529E+03  0.10100000352E+00 0.  1.
       -3    1    3    3    0  502 -0.61430733731E+03  0.51622005091E+02 -0.72204146791E+03  0.94941151650E+03  0.10100000352E+00 0. -1.
</event>
<event>
 5   0  0.1814770E-03  0.1300034E+04  0.7818609E-02  0.9029538E-01
       -1   -1    0    0    0  501  0.00000000000E+00  0.00000000000E+00  0.33858342668E+03  0.33858342672E+03  0.50400001928E-02 0.  1.
        1   -1    0    0  501    0  0.00000000000E+00  0.00000000000E+00 -0.12479109415E+04  0.12479109415E+04  0.50400001928E-02 0. -1.
    10030    2    1    2    0    0  0.00000000000E+00  0.00000000000E+00 -0.90932751479E+03  0.15864943682E+04  0.13000337885E+04 0.  0.
        5    1    3    3  502    0  0.42970022227E+03  0.69324945966E+02 -0.10437921855E+04  0.11309166396E+04  0.46999998093E+01 0. -1.
       -5    1    3    3    0  502 -0.42970022227E+03 -0.69324945966E+02  0.13446467072E+03  0.45557772862E+03  0.46999998093E+01 0.  1.
</event>
<event>
 5   0  0.1254125E-03  0.1301428E+04  0.7818609E-02  0.9028433E-01
       -3   -1    0    0    0  501  0.00000000000E+00  0.00000000000E+00  0.41362919085E+03  0.41362920318E+03  0.10100000352E+00 0.  1.
        3   -1    0    0  501    0  0.00000000000E+00  0.00000000000E+00 -0.10236920679E+04  0.10236920729E+04  0.10100000352E+00 0. -1.
    10030    2    1    2    0    0  0.00000000000E+00  0.00000000000E+00 -0.61006287708E+03  0.14373212761E+04  0.13014283448E+04 0.  0.
        4    1    3    3  502    0 -0.24497479278E+03  0.25100141362E+03 -0.91036245474E+03  0.97558996030E+03  0.12699999809E+01 0. -1.
       -4    1    3    3    0  502  0.24497479278E+03 -0.25100141362E+03  0.30029957766E+03  0.46173131579E+03  0.12699999809E+01 0.  1.
</event>
<event>
 5   0  0.1823154E-03  0.1013497E+04  0.7818609E-02  0.9293864E-01
        1   -1    0    0  501    0  0.00000000000E+00  0.00000000000E+00  0.66912702808E+03  0.66912702810E+03  0.50400001928E-02 0. -1.
       -1   -1    0    0    0  501  0.00000000000E+00  0.00000000000E+00 -0.38377498419E+03  0.38377498422E+03  0.50400001928E-02 0.  1.
    10030    2    1    2    0    0  0.00000000000E+00  0.00000000000E+00  0.28535204389E+03  0.10529020123E+04  0.10134973402E+04 0.  0.
        2    1    3    3  502    0 -0.33750258135E+03 -0.35055314010E+03  0.28959111778E+03  0.56626717366E+03  0.25500000920E-02 0. -1.
       -2    1    3    3    0  502  0.33750258135E+03  0.35055314010E+03 -0.42390738914E+01  0.48663483867E+03  0.25500000920E-02 0.  1.
</event>
<event>
 5   0  0.3262927E-03  0.1293171E+04  0.7818609E-02  0.9034998E-01
        2   -1    0    0  501    0  0.00000000000E+00  0.00000000000E+00  0.18374568990E+04  0.18374568990E+04  0.25500000920E-02 0.  1.
       -2   -1    0    0    0  501  0.00000000000E+00  0.00000000000E+00 -0.22752796445E+03  0.22752796446E+03  0.25500000920E-02 0. -1.
    10030    2    1    2    0    0  0.00000000000E+00  0.00000000000E+00  0.16099289345E+04  0.20649848634E+04  0.12931710297E+04 0.  0.
        3    1    3    3  502    0 -0.24141792620E+03 -0.21775263150E+03 -0.87515221652E+02  0.33668642360E+03  0.10100000352E+00 0. -1.
       -3    1    3    3    0  502  0.24141792620E+03  0.21775263150E+03  0.16974441562E+04  0.17282984398E+04  0.10100000352E+00 0.  1.
</event>
<event>
 5   0  0.3299104E-03  0.1309321E+04  0.7818609E-02  0.9022206E-01
       -2   -1    0    0    0  501  0.00000000000E+00  0.00000000000E+00  0.54070452043E+03  0.54070452043E+03  0.25500000920E-02 0.  1.
        2   -1    0    0  501    0  0.00000000000E+00  0.00000000000E+00 -0.79263373517E+03  0.79263373517E+03  0.25500000920E-02 0. -1.
    10030    2    1    2    0    0  0.00000000000E+00  0.00000000000E+00 -0.25192921474E+03  0.13333382556E+04  0.13093214176E+04 0.  0.
        2    1    3    3  502    0 -0.14690114924E+03 -0.17255530040E+03  0.49948814954E+03  0.54849219765E+03  0.25500000920E-02 0.  1.
       -2    1    3    3    0  502  0.14690114924E+03  0.17255530040E+03 -0.75141736427E+03  0.78484605795E+03  0.25500000920E-02 0. -1.
</event>
<event>
 5   0  0.3262927E-03  0.1291246E+04  0.7818609E-02  0.9036536E-01
        2   -1    0    0  501    0  0.00000000000E+00  0.00000000000E+00  0.12848720596E+04  0.12848720596E+04  0.25500000920E-02 0. -1.
       -2   -1    0    0    0  501  0.00000000000E+00  0.00000000000E+00 -0.32441314071E+03  0.32441314072E+03  0.25500000920E-02 0.  1.
    10030    2    1    2    0    0  0.00000000000E+00  0.00000000000E+00  0.96045891887E+03  0.16092852003E+04  0.12912464990E+04 0.  0.
        3    1    3    3  502    0 -0.17796856954E+03 -0.35018367295E+03  0.11188040549E+04  0.11857588034E+04  0.10100000352E+00 0. -1.
       -3    1    3    3    0  502  0.17796856954E+03  0.35018367295E+03 -0.15834513600E+03  0.42352639687E+03  0.10100000352E+00 0.  1.
</event>
<event>
 5   0  0.3299104E-03  0.1292290E+04  0.7818609E-02  0.9035702E-01
       -2   -1    0    0    0  501  0.00000000000E+00  0.00000000000E+00  0.23676548184E+03  0.23676548185E+03  0.25500000920E-02 0.  1.
        2   -1    0    0  501    0  0.00000000000E+00  0.00000000000E+00 -0.17633623880E+04  0.17633623880E+04  0.25500000920E-02 0. -1.
    10030    2    1    2    0    0  0.00000000000E+00  0.00000000000E+00 -0.15265969062E+04  0.20001278699E+04  0.12922899759E+04 0.  0.
        2    1    3    3  502    0  0.15168339257E+03  0.10058849066E+03 -0.17228686174E+04  0.17324555316E+04  0.25500000920E-02 0. -1.
       -2    1    3    3    0  502 -0.15168339257E+03 -0.10058849066E+03  0.19627171125E+03  0.26767233827E+03  0.25500000920E-02 0.  1.
</event>
<event>
 5   0  0.3262927E-03  0.1281785E+04  0.7818609E-02  0.9044136E-01
       -2   -1    0    0    0  501  0.00000000000E+00  0.00000000000E+00  0.23692135467E+03  0.23692135469E+03  0.25500000920E-02 0.  1.
        2   -1    0    0  501    0  0.00000000000E+00  0.00000000000E+00 -0.17336679336E+04  0.17336679336E+04  0.25500000920E-02 0. -1.
    10030    2    1    2    0    0  0.00000000000E+00  0.00000000000E+00 -0.14967465789E+04  0.19705892882E+04  0.12817846237E+04 0.  0.
        3    1    3    3  502    0 -0.41947302531E+02  0.35331104009E+03  0.71144650870E+02  0.36283582898E+03  0.10100000352E+00 0.  1.
       -3    1    3    3    0  502  0.41947302531E+02 -0.35331104009E+03 -0.15678912298E+04  0.16077534593E+04  0.10100000352E+00 0. -1.
</event>
<event>
 5   0  0.3294720E-03  0.1062025E+04  0.7818609E-02  0.9243016E-01
        2   -1    0    0  501    0  0.00000000000E+00  0.00000000000E+00  0.10910931712E+04  0.10910931712E+04  0.25500000920E-02 0. -1.
       -2   -1    0    0    0  501  0.00000000000E+00  0.00000000000E+00 -0.25843274222E+03  0.25843274223E+03  0.25500000920E-02 0.  1.
    10030    2    1    2    0    0  0.00000000000E+00  0.00000000000E+00  0.83266042899E+03  0.13495259134E+04  0.10620248590E+04 0.  0.
        5    1    3    3  502    0 -0.71421528081E+02  0.10883751683E+03  0.10704751229E+04  0.10783717905E+04  0.46999998093E+01 0. -1.
       -5    1    3    3    0  502  0.71421528081E+02 -0.10883751683E+03 -0.23781469393E+03  0.27115412295E+03  0.46999998093E+01 0.  1.
</event>
<event>
 5   0  0.3259968E-03  0.1302358E+04  0.7818609E-02  0.9027698E-01
       -2   -1    0    0    0  501  0.00000000000E+00  0.00000000000E+00  0.21632300915E+03  0.21632300916E+03  0.25500000920E-02 0. -1.
        2   -1    0    0  501    0  0.00000000000E+00  0.00000000000E+00 -0.19601885949E+04  0.19601885949E+04  0.25500000920E-02 0.  1.
    10030    2    1    2    0    0  0.00000000000E+00  0.00000000000E+00 -0.17438655858E+04  0.21765116041E+04  0.13023577011E+04 0.  0.
        4    1    3    3  502    0 -0.53780297749E+03 -0.31325628916E+03 -0.11919626700E+04  0.13446702811E+04  0.12699999809E+01 0.  1.
       -4    1    3    3    0  502  0.53780297749E+03  0.31325628916E+03 -0.55190291576E+03  0.83184132298E+03  0.12699999809E+01 0. -1.
</event>
<event>
 5   0  0.3259968E-03  0.1325035E+04  0.7818609E-02  0.9009945E-01
       -2   -1    0    0    0  501  0.00000000000E+00  0.00000000000E+00  0.47826201865E+03  0.47826201865E+03  0.25500000920E-02 0. -1.
        2   -1    0    0  501    0  0.00000000000E+00  0.00000000000E+00 -0.91775902368E+03  0.91775902368E+03  0.25500000920E-02 0.  1.
    10030    2    1    2    0    0  0.00000000000E+00  0.00000000000E+00 -0.43949700503E+03  0.13960210423E+04  0.13250347668E+04 0.  0.
        4    1    3    3  502    0 -0.48117539161E+03 -0.49496717053E+02  0.25721650732E+03  0.54785182945E+03  0.12699999809E+01 0. -1.
       -4    1    3    3    0  502  0.48117539161E+03  0.49496717053E+02 -0.69671351236E+03  0.84816921289E+03  0.12699999809E+01 0.  1.
</event>
<event>
 5   0  0.1857986E-03  0.1265538E+04  0.7818609E-02  0.9057349E-01
        1   -1    0    0  501    0  0.00000000000E+00  0.00000000000E+00  0.27037737598E+04  0.27037737598E+04  0.50400001928E-02 0.  1.
       -1   -1    0    0    0  501  0.00000000000E+00  0.00000000000E+00 -0.14808809254E+03  0.14808809263E+03  0.50400001928E-02 0. -1.
    10030    2    1    2    0    0  0.00000000000E+00  0.00000000000E+00  0.25556856673E+04  0.28518618525E+04  0.12655381446E+04 0.  0.
        1    1    3    3  502    0 -0.30655677700E+02  0.50432982482E+03  0.41942356961E+03  0.65666161267E+03  0.50400001928E-02 0.  1.
       -1    1    3    3    0  502  0.30655677700E+02 -0.50432982482E+03  0.21362620977E+04  0.21952002398E+04  0.50400001928E-02 0. -1.
</event>
<event>
 5   0  0.3299104E-03  0.8941723E+03  0.7818609E-02  0.9432896E-01
        2   -1    0    0  501    0  0.00000000000E+00  0.00000000000E+00  0.59797609861E+03  0.59797609861E+03  0.25500000920E-02 0. -1.
       -2   -1    0    0    0  501  0.00000000000E+00  0.00000000000E+00 -0.33427096415E+03  0.33427096416E+03  0.25500000920E-02 0.  1.
    10030    2    1    2    0    0  0.00000000000E+00  0.00000000000E+00  0.26370513446E+03  0.93224706277E+03  0.89417234810E+03 0.  0.
        2    1    3    3  502    0  0.95381015066E+02 -0.29685776553E+03 -0.20220308795E+03  0.37162906207E+03  0.25500000920E-02 0.  1.
       -2    1    3    3    0  502 -0.95381015066E+02  0.29685776553E+03  0.46590822241E+03  0.56061800070E+03  0.25500000920E-02 0. -1.
</event>
<event>
 5   0  0.1814770E-03  0.1296814E+04  0.7818609E-02  0.9032096E-01
       -1   -1    0    0    0  501  0.00000000000E+00  0.00000000000E+00  0.43336272001E+03  0.43336272004E+03  0.50400001928E-02 0. -1.
        1   -1    0    0  501    0  0.00000000000E+00  0.00000000000E+00 -0.97016053373E+03  0.97016053375E+03  0.50400001928E-02 0.  1.
    10030    2    1    2    0    0  0.00000000000E+00  0.00000000000E+00 -0.53679781372E+03  0.14035232538E+04  0.12968136455E+04 0.  0.
        5    1    3    3  502    0  0.35978792260E+03  0.37025514601E+03 -0.69294357018E+03  0.86413488753E+03  0.46999998093E+01 0.  1.
       -5    1    3    3    0  502 -0.35978792260E+03 -0.37025514601E+03  0.15614575646E+03  0.53938836626E+03  0.46999998093E+01 0. -1.
</event>
<event>
 5   0  0.1803959E-03  0.1332682E+04  0.7818609E-02  0.9004042E-01
        1   -1    0    0  501    0  0.00000000000E+00  0.00000000000E+00  0.45974434462E+03  0.45974434465E+03  0.50400001928E-02 0.  1.
       -1   -1    0    0    0  501  0.00000000000E+00  0.00000000000E+00 -0.96577627902E+03  0.96577627904E+03  0.50400001928E-02 0. -1.
    10030    2    1    2    0    0  0.00000000000E+00  0.00000000000E+00 -0.50603193440E+03  0.14255206237E+04  0.13326817812E+04 0.  0.
        4    1    3    3  502    0  0.62499221505E+03 -0.14119475893E+03 -0.44867177956E+03  0.78221429768E+03  0.12699999809E+01 0. -1.
       -4    1    3    3    0  502 -0.62499221505E+03  0.14119475893E+03 -0.57360154838E+02  0.64330632601E+03  0.12699999809E+01 0.  1.
</event>
<event>
 5   0  0.1814770E-03  0.1305205E+04  0.7818609E-02  0.9025448E-01
        1   -1    0    0  501    0  0.00000000000E+00  0.00000000000E+00  0.65215511131E+03  0.65215511133E+03  0.50400001928E-02 0.  1.
       -1   -1    0    0    0  501  0.00000000000E+00  0.00000000000E+00 -0.65305017720E+03  0.65305017722E+03  0.50400001928E-02 0. -1.
    10030    2    1    2    0    0  0.00000000000E+00  0.00000000000E+00 -0.89506588991E+00  0.13052052885E+04  0.13052049816E+04 0.  0.
        5    1    3    3  502    0  0.18643695126E+03 -0.17059840228E+03 -0.60211649476E+03  0.65301524861E+03  0.46999998093E+01 0. -1.
       -5    1    3    3    0  502 -0.18643695126E+03  0.17059840228E+03  0.60122142887E+03  0.65219003993E+03  0.46999998093E+01 0.  1.
</event>
<event>
 5   0  0.3336609E-03  0.1268122E+04  0.7818609E-02  0.9055234E-01
       -2   -1    0    0    0  501  0.00000000000E+00  0.00000000000E+00  0.36175100716E+03  0.36175100717E+03  0.25500000920E-02 0. -1.
        2   -1    0    0  501    0  0.00000000000E+00  0.00000000000E+00 -0.11113536455E+04  0.11113536455E+04  0.25500000920E-02 0.  1.
    10030    2    1    2    0    0  0.00000000000E+00  0.00000000000E+00 -0.74960263831E+03  0.14731046526E+04  0.12681219193E+04 0.  0.
        1    1    3    3  502    0  0.13457382139E+03  0.41258025900E+03  0.16220028311E+03  0.46329419960E+03  0.50400001928E-02 0. -1.
       -1    1    3    3    0  502 -0.13457382139E+03 -0.41258025900E+03 -0.91180292143E+03  0.10098104530E+04  0.50400001928E-02 0.  1.
</event>
<event>
 5   0  0.3262927E-03  0.1295563E+04  0.7818609E-02  0.9033091E-01
        2   -1    0    0  501    0  0.00000000000E+00  0.00000000000E+00  0.10553506884E+04  0.10553506884E+04  0.25500000920E-02 0. -1.
       -2   -1    0    0    0  501  0.00000000000E+00  0.00000000000E+00 -0.39761298429E+03  0.39761298430E+03  0.25500000920E-02 0.  1.
    10030    2    1    2    0    0  0.00000000000E+00  0.00000000000E+00  0.65773770410E+03  0.14529636727E+04  0.12955634090E+04 0.  0.
        3    1    3    3  502    0 -0.30204783345E+03  0.41877401336E+03  0.76756649151E+03  0.92507453594E+03  0.10100000352E+00 0. -1.
       -3    1    3    3    0  502  0.30204783345E+03 -0.41877401336E+03 -0.10982878742E+03  0.52788913675E+03  0.10100000352E+00 0.  1.
</event>
<event>
 5   0  0.3294720E-03  0.1291102E+04  0.7818609E-02  0.9036651E-01
        2   -1    0    0  501    0  0.00000000000E+00  0.00000000000E+00  0.11796428708E+04  0.11796428708E+04  0.25500000920E-02 0. -1.
       -2   -1    0    0    0  501  0.00000000000E+00  0.00000000000E+00 -0.35327307695E+03  0.35327307696E+03  0.25500000920E-02 0.  1.
    10030    2    1    2    0    0  0.00000000000E+00  0.00000000000E+00  0.82636979380E+03  0.15329159477E+04  0.12911019583E+04 0.  0.
        5    1    3    3  502    0  0.15472569906E+03  0.62668493605E+03  0.42068701294E+03  0.77050224132E+03  0.46999998093E+01 0. -1.
       -5    1    3    3    0  502 -0.15472569906E+03 -0.62668493605E+03  0.40568278085E+03  0.76241370640E+03  0.46999998093E+01 0.  1.
</event>
<event>
 5   0  0.1814770E-03  0.1310889E+04  0.7818609E-02  0.9020975E-01
        1   -1    0    0  501    0  0.00000000000E+00  0.00000000000E+00  0.61749479021E+03  0.61749479023E+03  0.50400001928E-02 0. -1.
       -1   -1    0    0    0  501  0.00000000000E+00  0.00000000000E+00 -0.69572609712E+03  0.69572609714E+03  0.50400001928E-02 0.  1.
    10030    2    1    2    0    0  0.00000000000E+00  0.00000000000E+00 -0.78231306911E+02  0.13132208874E+04  0.13108886153E+04 0.  0.
        5    1    3    3  502    0  0.92207890132E+02 -0.11176180582E+03 -0.67946504548E+03  0.69475739238E+03  0.46999998093E+01 0.  1.
       -5    1    3    3    0  502 -0.92207890132E+02  0.11176180582E+03  0.60123373857E+03  0.61846349499E+03  0.46999998093E+01 0. -1.
</event>
<event>
 5   0  0.3262927E-03  0.1296928E+04  0.7818609E-02  0.9032005E-01
        2   -1    0    0  501    0  0.00000000000E+00  0.00000000000E+00  0.96671796237E+03  0.96671796237E+03  0.25500000920E-02 0.  1.
       -2   -1    0    0    0  501  0.00000000000E+00  0.00000000000E+00 -0.43498249768E+03  0.43498249769E+03  0.25500000920E-02 0. -1.
    10030    2    1    2    0    0  0.00000000000E+00  0.00000000000E+00  0.53173546469E+03  0.14017004601E+04  0.12969277448E+04 0.  0.
        3    1    3    3  502    0 -0.56971834181E+03  0.11738601474E+03  0.57563467711E+03  0.81836040786E+03  0.10100000352E+00 0.  1.
       -3    1    3    3    0  502  0.56971834181E+03 -0.11738601474E+03 -0.43899212420E+02  0.58334005220E+03  0.10100000352E+00 0. -1.
</event>
<event>
 5   0  0.3259968E-03  0.9873639E+03  0.7818609E-02  0.9322513E-01
       -2   -1    0    0    0  501  0.00000000000E+00  0.00000000000E+00  0.21325934080E+03  0.21325934081E+03  0.25500000920E-02 0. -1.
        2   -1    0    0  501    0  0.00000000000E+00  0.00000000000E+00 -0.11428426007E+04  0.11428426007E+04  0.25500000920E-02 0.  1.
    10030    2    1    2    0    0  0.00000000000E+00  0.00000000000E+00 -0.92958325986E+03  0.13561019415E+04  0.98736388361E+03 0.  0.
        4    1    3    3  502    0  0.42729067114E+02 -0.14009691770E+03  0.18272796298E+03  0.23418804599E+03  0.12699999809E+01 0. -1.
       -4    1    3    3    0  502 -0.42729067114E+02  0.14009691770E+03 -0.11123112228E+04  0.11219138955E+04  0.12699999809E+01 0.  1.
</event>
<event>
 5   0  0.3294720E-03  0.1276251E+04  0.7818609E-02  0.9048614E-01
        2   -1    0    0  501    0  0.00000000000E+00  0.00000000000E+00  0.22802160664E+04  0.22802160664E+04  0.25500000920E-02 0. -1.
       -2   -1    0    0    0  501  0.00000000000E+00  0.00000000000E+00 -0.17858127127E+03  0.17858127129E+03  0.25500000920E-02 0.  1.
    10030    2    1    2    0    0  0.00000000000E+00  0.00000000000E+00  0.21016347951E+04  0.24587973377E+04  0.12762505772E+04 0.  0.
        5    1    3    3  502    0  0.64706533745E+02 -0.11576813024E+03  0.22533369082E+04  0.22572413490E+04  0.46999998093E+01 0. -1.
       -5    1    3    3    0  502 -0.64706533745E+02  0.11576813024E+03 -0.15170211308E+03  0.20155598875E+03  0.46999998093E+01 0.  1.
</event>
<event>
 5   0  0.1814770E-03  0.1049571E+04  0.7818609E-02  0.9255787E-01
        1   -1    0    0  501    0  0.00000000000E+00  0.00000000000E+00  0.11209244356E+04  0.11209244356E+04  0.50400001928E-02 0. -1.
       -1   -1    0    0    0  501  0.00000000000E+00  0.00000000000E+00 -0.24568994647E+03  0.24568994652E+03  0.50400001928E-02 0.  1.
    10030    2    1    2    0    0  0.00000000000E+00  0.00000000000E+00  0.87523448912E+03  0.13666143821E+04  0.10495710831E+04 0.  0.
        5    1    3    3  502    0 -0.17177854209E+02  0.18960065011E+03 -0.19911238092E+03  0.27552008172E+03  0.46999998093E+01 0.  1.
       -5    1    3    3    0  502  0.17177854209E+02 -0.18960065011E+03  0.10743468700E+04  0.10910943004E+04  0.46999998093E+01 0. -1.
</event>
<event>
 5   0  0.3262927E-03  0.1304106E+04  0.7818609E-02  0.9026315E-01
       -2   -1    0    0    0  501  0.00000000000E+00  0.00000000000E+00  0.49839981327E+03  0.49839981328E+03  0.25500000920E-02 0. -1.
        2   -1    0    0  501    0  0.00000000000E+00  0.00000000000E+00 -0.85307653302E+03  0.85307653302E+03  0.25500000920E-02 0.  1.
    10030    2    1    2    0    0  0.00000000000E+00  0.00000000000E+00 -0.35467671974E+03  0.13514763463E+04  0.13041061073E+04 0.  0.
        3    1    3    3  502    0 -0.81421944134E+02  0.58071877698E+03  0.11816726223E+03  0.59818671248E+03  0.10100000352E+00 0. -1.
       -3    1    3    3    0  502  0.81421944134E+02 -0.58071877698E+03 -0.47284398197E+03  0.75328963382E+03  0.10100000352E+00 0.  1.
</event>
<event>
 5   0  0.3336609E-03  0.1314596E+04  0.7818609E-02  0.9018070E-01
        2   -1    0    0  501    0  0.00000000000E+00  0.00000000000E+00  0.16816878566E+04  0.16816878566E+04  0.25500000920E-02 0. -1.
       -2   -1    0    0    0  501  0.00000000000E+00  0.00000000000E+00 -0.25690911171E+03  0.25690911173E+03  0.25500000920E-02 0.  1.
    10030    2    1    2    0    0  0.00000000000E+00  0.00000000000E+00  0.14247787448E+04  0.19385969683E+04  0.13145964148E+04 0.  0.
        1    1    3    3  502    0  0.27379951629E+03  0.28759104389E+03  0.14848215375E+04  0.15370002544E+04  0.50400001928E-02 0. -1.
       -1    1    3    3    0  502 -0.27379951629E+03 -0.28759104389E+03 -0.60042792678E+02  0.40159671391E+03  0.50400001928E-02 0.  1.
</event>
<event>
 5   0  0.3259968E-03  0.1282403E+04  0.7818609E-02  0.9043637E-01
       -2   -1    0    0    0  501  0.00000000000E+00  0.00000000000E+00  0.29075542739E+03  0.29075542740E+03  0.25500000920E-02 0.  1.
        2   -1    0    0  501    0  0.00000000000E+00  0.00000000000E+00 -0.14140382546E+04  0.14140382546E+04  0.25500000920E-02 0. -1.
    10030    2    1    2    0    0  0.00000000000E+00  0.00000000000E+00 -0.11232828272E+04  0.17047936820E+04  0.12824028963E+04 0.  0.
        4    1    3    3  502    0  0.45265771062E+02 -0.54796290611E+02 -0.14087837338E+04  0.14105760685E+04  0.12699999809E+01 0. -1.
       -4    1    3    3    0  502 -0.45265771062E+02  0.54796290611E+02  0.28550090663E+03  0.29421761348E+03  0.12699999809E+01 0.  1.
</event>
<event>
 5   0  0.3336609E-03  0.9595493E+03  0.7818609E-02  0.9354058E-01
       -2   -1    0    0    0  501  0.00000000000E+00  0.00000000000E+00  0.89719383630E+02  0.89719383666E+02  0.25500000920E-02 0. -1.
        2   -1    0    0  501    0  0.00000000000E+00  0.00000000000E+00 -0.25655965217E+04  0.25655965217E+04  0.25500000920E-02 0.  1.
    10030    2    1    2    0    0  0.00000000000E+00  0.00000000000E+00 -0.24758771380E+04  0.26553159053E+04  0.95954934968E+03 0.  0.
        1    1    3    3  502    0 -0.13976958444E+03 -0.45872824459E+03 -0.12786651152E+04  0.13656323136E+04  0.50400001928E-02 0.  1.
       -1    1    3    3    0  502  0.13976958444E+03  0.45872824459E+03 -0.11972120228E+04  0.12896835917E+04  0.50400001928E-02 0. -1.
</event>
<event>
 5   0  0.3262927E-03  0.1300902E+04  0.7818609E-02  0.9028850E-01
        2   -1    0    0  501    0  0.00000000000E+00  0.00000000000E+00  0.83667528289E+03  0.83667528289E+03  0.25500000920E-02 0.  1.
       -2   -1    0    0    0  501  0.00000000000E+00  0.00000000000E+00 -0.50567562983E+03  0.50567562984E+03  0.25500000920E-02 0. -1.
    10030    2    1    2    0    0  0.00000000000E+00  0.00000000000E+00  0.33099965306E+03  0.13423509127E+04  0.13009016883E+04 0.  0.
        3    1    3    3  502    0  0.36534437234E+03  0.34033022324E+03 -0.26465804861E+03  0.56510624147E+03  0.10100000352E+00 0. -1.
       -3    1    3    3    0  502 -0.36534437234E+03 -0.34033022324E+03  0.59565770167E+03  0.77724467126E+03  0.10100000352E+00 0.  1.
</event>
<event>
 5   0  0.3299104E-03  0.1320479E+04  0.7818609E-02  0.9013481E-01
        2   -1    0    0  501    0  0.00000000000E+00  0.00000000000E+00  0.78368776887E+03  0.78368776887E+03  0.25500000920E-02 0. -1.
       -2   -1    0    0    0  501  0.00000000000E+00  0.00000000000E+00 -0.55623669041E+03  0.55623669042E+03  0.25500000920E-02 0.  1.
    10030    2    1    2    0    0  0.00000000000E+00  0.00000000000E+00  0.22745107846E+03  0.13399244593E+04  0.13204785358E+04 0.  0.
        2    1    3    3  502    0 -0.55023280060E+03  0.33668433355E+03  0.25652251808E+03  0.69420189974E+03  0.25500000920E-02 0. -1.
       -2    1    3    3    0  502  0.55023280060E+03 -0.33668433355E+03 -0.29071439622E+02  0.64572255956E+03  0.25500000920E-02 0.  1.
</event>
<event>
 5   0  0.3336609E-03  0.1280603E+04  0.7818609E-02  0.9045090E-01
       -2   -1    0    0    0  501  0.00000000000E+00  0.00000000000E+00  0.18562282805E+04  0.18562282806E+04  0.25500000920E-02 0.  1.
        2   -1    0    0  501    0  0.00000000000E+00  0.00000000000E+00 -0.22087036035E+03  0.22087036037E+03  0.25500000920E-02 0. -1.
    10030    2    1    2    0    0  0.00000000000E+00  0.00000000000E+00  0.16353579202E+04  0.20770986409E+04  0.12806026851E+04 0.  0.
        1    1    3    3  502    0 -0.33154608621E+03 -0.44670253725E+03  0.30343568748E+03  0.63367119276E+03  0.50400001928E-02 0. -1.
       -1    1    3    3    0  502  0.33154608621E+03  0.44670253725E+03  0.13319222327E+04  0.14434274482E+04  0.50400001928E-02 0.  1.
</event>
<event>
 5   0  0.3299104E-03  0.1331328E+04  0.7818609E-02  0.9005085E-01
       -2   -1    0    0    0  501  0.00000000000E+00  0.00000000000E+00  0.11336257419E+04  0.11336257419E+04  0.25500000920E-02 0. -1.
        2   -1    0    0  501    0  0.00000000000E+00  0.00000000000E+00 -0.39087700308E+03  0.39087700309E+03  0.25500000920E-02 0.  1.
    10030    2    1    2    0    0  0.00000000000E+00  0.00000000000E+00  0.74274873884E+03  0.15245027450E+04  0.13313275068E+04 0.  0.
        2    1    3    3  502    0 -0.18325515079E+03  0.11588633328E+03 -0.34930752365E+03  0.41112995345E+03  0.25500000920E-02 0.  1.
       -2    1    3    3    0  502  0.18325515079E+03 -0.11588633328E+03  0.10920562625E+04  0.11133727916E+04  0.25500000920E-02 0. -1.
</event>
<event>
 5   0  0.1857986E-03  0.1308581E+04  0.7818609E-02  0.9022788E-01
       -1   -1    0    0    0  501  0.00000000000E+00  0.00000000000E+00  0.29411210296E+03  0.29411210301E+03  0.50400001928E-02 0.  1.
        1   -1    0    0  501    0  0.00000000000E+00  0.00000000000E+00 -0.14555533398E+04  0.14555533398E+04  0.50400001928E-02 0. -1.
    10030    2    1    2    0    0  0.00000000000E+00  0.00000000000E+00 -0.11614412368E+04  0.17496654428E+04  0.13085806873E+04 0.  0.
        1    1    3    3  502    0  0.57283977365E+03 -0.30955824516E+03 -0.49485461986E+03  0.81783421807E+03  0.50400001928E-02 0.  1.
       -1    1    3    3    0  502 -0.57283977365E+03  0.30955824516E+03 -0.66658661693E+03  0.93183122470E+03  0.50400001928E-02 0. -1.
</event>
<event>
 5   0  0.1823154E-03  0.1329618E+04  0.7818609E-02  0.9006402E-01
        1   -1    0    0  501    0  0.00000000000E+00  0.00000000000E+00  0.35219375634E+03  0.35219375638E+03  0.50400001928E-02 0. -1.
       -1   -1    0    0    0  501  0.00000000000E+00  0.00000000000E+00 -0.12549091279E+04  0.12549091279E+04  0.50400001928E-02 0.  1.
    10030    2    1    2    0    0  0.00000000000E+00  0.00000000000E+00 -0.90271537160E+03  0.16071028843E+04  0.13296182304E+04 0.  0.
        2    1    3    3  502    0 -0.18969446082E+03 -0.19872593094E+03  0.28037229661E+03  0.39253612421E+03  0.25500000920E-02 0. -1.
       -2    1    3    3    0  502  0.18969446082E+03  0.19872593094E+03 -0.11830876682E+04  0.12145667601E+04  0.25500000920E-02 0.  1.
</event>
<event>
 5   0  0.1803959E-03  0.1310324E+04  0.7818609E-02  0.9021418E-01
        1   -1    0    0  501    0  0.00000000000E+00  0.00000000000E+00  0.18254599906E+04  0.18254599906E+04  0.50400001928E-02 0. -1.
       -1   -1    0    0    0  501  0.00000000000E+00  0.00000000000E+00 -0.23513931913E+03  0.23513931918E+03  0.50400001928E-02 0.  1.
    10030    2    1    2    0    0  0.00000000000E+00  0.00000000000E+00  0.15903206714E+04  0.20605993097E+04  0.13103242642E+04 0.  0.
        4    1    3    3  502    0  0.51084194791E+03  0.14569126658E+03  0.13982026975E+04  0.14957131533E+04  0.12699999809E+01 0. -1.
       -4    1    3    3    0  502 -0.51084194791E+03 -0.14569126658E+03  0.19211797396E+03  0.56488615642E+03  0.12699999809E+01 0.  1.
</event>
<event>
 5   0  0.1814770E-03  0.1200800E+04  0.7818609E-02  0.9112157E-01
       -1   -1    0    0    0  501  0.00000000000E+00  0.00000000000E+00  0.57148653069E+03  0.57148653071E+03  0.50400001928E-02 0.  1.
        1   -1    0    0  501    0  0.00000000000E+00  0.00000000000E+00 -0.63077577991E+03  0.63077577993E+03  0.50400001928E-02 0. -1.
    10030    2    1    2    0    0  0.00000000000E+00  0.00000000000E+00 -0.59289249223E+02  0.12022623106E+04  0.12007995039E+04 0.  0.
        5    1    3    3  502    0 -0.15266954957E+03  0.40994968284E+03 -0.44135236149E+03  0.62143441394E+03  0.46999998093E+01 0. -1.
       -5    1    3    3    0  502  0.15266954957E+03 -0.40994968284E+03  0.38206311227E+03  0.58082789670E+03  0.46999998093E+01 0.  1.
</event>
<event>
 5   0  0.3262927E-03  0.1263847E+04  0.7818609E-02  0.9058736E-01
        2   -1    0    0  501    0  0.00000000000E+00  0.00000000000E+00  0.80996739419E+03  0.80996739419E+03  0.25500000920E-02 0. -1.
       -2   -1    0    0    0  501  0.00000000000E+00  0.00000000000E+00 -0.49301677168E+03  0.49301677169E+03  0.25500000920E-02 0.  1.
    10030    2    1    2    0    0  0.00000000000E+00  0.00000000000E+00  0.31695062251E+03  0.13029841659E+04  0.12638473165E+04 0.  0.
        3    1    3    3  502    0  0.54749222067E+03  0.30568353566E+03  0.23924246154E+03  0.67113867515E+03  0.10100000352E+00 0. -1.
       -3    1    3    3    0  502 -0.54749222067E+03 -0.30568353566E+03  0.77708160963E+02  0.63184549073E+03  0.10100000352E+00 0.  1.
</event>
<event>
 5   0  0.1254125E-03  0.1228421E+04  0.7818609E-02  0.9088337E-01
       -3   -1    0    0    0  501  0.00000000000E+00  0.00000000000E+00  0.34192694372E+03  0.34192695863E+03  0.10100000352E+00 0. -1.
        3   -1    0    0  501    0  0.00000000000E+00  0.00000000000E+00 -0.11033185105E+04  0.11033185151E+04  0.10100000352E+00 0.  1.
    10030    2    1    2    0    0  0.00000000000E+00  0.00000000000E+00 -0.76139156680E+03  0.14452454738E+04  0.12284206777E+04 0.  0.
        1    1    3    3  502    0  0.12340646814E+03 -0.14003585401E+03 -0.10691435279E+04  0.10853142771E+04  0.50400001928E-02 0.  1.
       -1    1    3    3    0  502 -0.12340646814E+03  0.14003585401E+03  0.30775196108E+03  0.35993119670E+03  0.50400001928E-02 0. -1.
</event>
<event>
 5   0  0.3262927E-03  0.1285605E+04  0.7818609E-02  0.9041059E-01
       -2   -1    0    0    0  501  0.00000000000E+00  0.00000000000E+00  0.67567880485E+03  0.67567880485E+03  0.25500000920E-02 0. -1.
        2   -1    0    0  501    0  0.00000000000E+00  0.00000000000E+00 -0.61152614318E+03  0.61152614319E+03  0.25500000920E-02 0.  1.
    10030    2    1    2    0    0  0.00000000000E+00  0.00000000000E+00  0.64152661666E+02  0.12872049480E+04  0.12856053104E+04 0.  0.
        3    1    3    3  502    0 -0.56175534293E+03  0.29635914795E+02  0.34350658146E+03  0.65912376263E+03  0.10100000352E+00 0. -1.
       -3    1    3    3    0  502  0.56175534293E+03 -0.29635914795E+02 -0.27935391979E+03  0.62808118541E+03  0.10100000352E+00 0.  1.
</event>
<event>
 5   0  0.1873488E-03  0.1312315E+04  0.7818609E-02  0.9019856E-01
        1   -1    0    0  501    0  0.00000000000E+00  0.00000000000E+00  0.99066722544E+03  0.99066722545E+03  0.50400001928E-02 0.  1.
       -1   -1    0    0    0  501  0.00000000000E+00  0.00000000000E+00 -0.43459852791E+03  0.43459852794E+03  0.50400001928E-02 0. -1.
    10030    2    1    2    0    0  0.00000000000E+00  0.00000000000E+00  0.55606869753E+03  0.14252657534E+04  0.13123147760E+04 0.  0.
        3    1    3    3  502    0  0.40172404325E+03 -0.12366981670E+03 -0.26918339009E+03  0.49913539064E+03  0.10100000352E+00 0. -1.
       -3    1    3    3    0  502 -0.40172404325E+03  0.12366981670E+03  0.82525208762E+03  0.92613036275E+03  0.10100000352E+00 0.  1.
</event>
<event>
 5   0  0.1803959E-03  0.1248307E+04  0.7818609E-02  0.9071593E-01
        1   -1    0    0  501    0  0.00000000000E+00  0.00000000000E+00  0.76853063084E+03  0.76853063086E+03  0.50400001928E-02 0.  1.
       -1   -1    0    0    0  501  0.00000000000E+00  0.00000000000E+00 -0.50689945062E+03  0.50689945065E+03  0.50400001928E-02 0. -1.
    10030    2    1    2    0    0  0.00000000000E+00  0.00000000000E+00  0.26163118022E+03  0.12754300815E+04  0.12483072612E+04 0.  0.
        4    1    3    3  502    0  0.68334430294E+02 -0.39595657032E+03  0.61880682954E+03  0.73781752834E+03  0.12699999809E+01 0.  1.
       -4    1    3    3    0  502 -0.68334430294E+02  0.39595657032E+03 -0.35717564933E+03  0.53761255316E+03  0.12699999809E+01 0. -1.
</event>
<event>
 5   0  0.1814770E-03  0.1380756E+04  0.7818609E-02  0.8967867E-01
       -1   -1    0    0    0  501  0.00000000000E+00  0.00000000000E+00  0.35777298447E+03  0.35777298450E+03  0.50400001928E-02 0. -1.
        1   -1    0    0  501    0  0.00000000000E+00  0.00000000000E+00 -0.13321912915E+04  0.13321912915E+04  0.50400001928E-02 0.  1.
    10030    2    1    2    0    0  0.00000000000E+00  0.00000000000E+00 -0.97441830702E+03  0.16899642760E+04  0.13807563931E+04 0.  0.
        5    1    3    3  502    0 -0.24816762050E+03  0.86474766002E+02 -0.12685542133E+04  0.12954987206E+04  0.46999998093E+01 0.  1.
       -5    1    3    3    0  502  0.24816762050E+03 -0.86474766002E+02  0.29413590628E+03  0.39446555538E+03  0.46999998093E+01 0. -1.
</event>
<event>
 5   0  0.3259968E-03  0.1301197E+04  0.7818609E-02  0.9028617E-01
        2   -1    0    0  501    0  0.00000000000E+00  0.00000000000E+00  0.12314671284E+04  0.12314671284E+04  0.25500000920E-02 0. -1.
       -2   -1    0    0    0  501  0.00000000000E+00  0.00000000000E+00 -0.34371872006E+03  0.34371872007E+03  0.25500000920E-02 0.  1.
    10030    2    1    2    0    0  0.00000000000E+00  0.00000000000E+00  0.88774840830E+03  0.15751858484E+04  0.13011968416E+04 0.  0.
        4    1    3    3  502    0  0.24885332719E+03  0.50119816640E+03  0.84564586537E+03  0.10140247152E+04  0.12699999809E+01 0. -1.
       -4    1    3    3    0  502 -0.24885332719E+03 -0.50119816640E+03  0.42102542928E+02  0.56116113326E+03  0.12699999809E+01 0.  1.
</event>
<event>
 5   0  0.3259968E-03  0.1279533E+04  0.7818609E-02  0.9045955E-01
       -2   -1    0    0    0  501  0.00000000000E+00  0.00000000000E+00  0.32029592095E+03  0.32029592096E+03  0.25500000920E-02 0. -1.
        2   -1    0    0  501    0  0.00000000000E+00  0.00000000000E+00 -0.12778845958E+04  0.12778845958E+04  0.25500000920E-02 0.  1.
    10030    2    1    2    0    0  0.00000000000E+00  0.00000000000E+00 -0.95758867487E+03  0.15981805168E+04  0.12795330765E+04 0.  0.
        4    1    3    3  502    0 -0.33293891569E+03  0.15594031691E+03  0.17517244957E+03  0.40725017374E+03  0.12699999809E+01 0. -1.
       -4    1    3    3    0  502  0.33293891569E+03 -0.15594031691E+03 -0.11327611244E+04  0.11909303430E+04  0.12699999809E+01 0.  1.
</event>
<event>
 5   0  0.3262927E-03  0.1307251E+04  0.7818609E-02  0.9023835E-01
        2   -1    0    0  501    0  0.00000000000E+00  0.00000000000E+00  0.15701802998E+04  0.15701802998E+04  0.25500000920E-02 0.  1.
       -2   -1    0    0    0  501  0.00000000000E+00  0.00000000000E+00 -0.27208730501E+03  0.27208730502E+03  0.25500000920E-02 0. -1.
    10030    2    1    2    0    0  0.00000000000E+00  0.00000000000E+00  0.12980929948E+04  0.18422676048E+04  0.13072507428E+04 0.  0.
        3    1    3    3  502    0 -0.31433361229E+03  0.40479887828E+03  0.12207275506E+04  0.13239499669E+04  0.10100000352E+00 0.  1.
       -3    1    3    3    0  502  0.31433361229E+03 -0.40479887828E+03  0.77365444153E+02  0.51831763796E+03  0.10100000352E+00 0. -1.
</event>
<event>
 5   0  0.1857986E-03  0.1281853E+04  0.7818609E-02  0.9044081E-01
        1   -1    0    0  501    0  0.00000000000E+00  0.00000000000E+00  0.97292815006E+03  0.97292815007E+03  0.50400001928E-02 0. -1.
       -1   -1    0    0    0  501  0.00000000000E+00  0.00000000000E+00 -0.42221719314E+03  0.42221719317E+03  0.50400001928E-02 0.  1.
    10030    2    1    2    0    0  0.00000000000E+00  0.00000000000E+00  0.55071095692E+03  0.13951453432E+04  0.12818533343E+04 0.  0.
        1    1    3    3  502    0  0.60745894684E+03  0.20302347150E+03  0.24955164291E+03  0.68738702678E+03  0.50400001928E-02 0.  1.
       -1    1    3    3    0  502 -0.60745894684E+03 -0.20302347150E+03  0.30115931401E+03  0.70775831646E+03  0.50400001928E-02 0. -1.
</event>
<event>
 5   0  0.3259968E-03  0.1302577E+04  0.7818609E-02  0.9027524E-01
       -2   -1    0    0    0  501  0.00000000000E+00  0.00000000000E+00  0.24299141182E+03  0.24299141183E+03  0.25500000920E-02 0.  1.
        2   -1    0    0  501    0  0.00000000000E+00  0.00000000000E+00 -0.17456455363E+04  0.17456455363E+04  0.25500000920E-02 0. -1.
    10030    2    1    2    0    0  0.00000000000E+00  0.00000000000E+00 -0.15026541245E+04  0.19886369481E+04  0.13025772505E+04 0.  0.
        4    1    3    3  502    0  0.13432348704E+02  0.52821745644E+03 -0.17001707132E+03  0.55506893871E+03  0.12699999809E+01 0. -1.
       -4    1    3    3    0  502 -0.13432348704E+02 -0.52821745644E+03 -0.13326370532E+04  0.14335680094E+04  0.12699999809E+01 0.  1.
</event>
<event>
 5   0  0.1803959E-03  0.1307477E+04  0.7818609E-02  0.9023657E-01
        1   -1    0    0  501    0  0.00000000000E+00  0.00000000000E+00  0.12834602396E+04  0.12834602397E+04  0.50400001928E-02 0. -1.
       -1   -1    0    0    0  501  0.00000000000E+00  0.00000000000E+00 -0.33298591496E+03  0.33298591499E+03  0.50400001928E-02 0.  1.
    10030    2    1    2    0    0  0.00000000000E+00  0.00000000000E+00  0.95047432469E+03  0.16164461546E+04  0.13074772384E+04 0.  0.
        4    1    3    3  502    0 -0.26540955301E+03  0.49328200927E+03  0.58538233880E+02  0.56320307991E+03  0.12699999809E+01 0.  1.
       -4    1    3    3    0  502  0.26540955301E+03 -0.49328200927E+03  0.89193609081E+03  0.10532430747E+04  0.12699999809E+01 0. -1.
</event>
<event>
 5   0  0.3336609E-03  0.1228507E+04  0.7818609E-02  0.9088264E-01
       -2   -1    0    0    0  501  0.00000000000E+00  0.00000000000E+00  0.36440673083E+03  0.36440673084E+03  0.25500000920E-02 0. -1.
        2   -1    0    0  501    0  0.00000000000E+00  0.00000000000E+00 -0.10354016988E+04  0.10354016988E+04  0.25500000920E-02 0.  1.
    10030    2    1    2    0    0  0.00000000000E+00  0.00000000000E+00 -0.67099496798E+03  0.13998084297E+04  0.12285069771E+04 0.  0.
        1    1    3    3  502    0 -0.18444758822E+03 -0.40039188296E+03 -0.82289601402E+03  0.93353758503E+03  0.50400001928E-02 0.  1.
       -1    1    3    3    0  502  0.18444758822E+03  0.40039188296E+03  0.15190104604E+03  0.46627084463E+03  0.50400001928E-02 0. -1.
</event>
<event>
 5   0  0.3294720E-03  0.1261559E+04  0.7818609E-02  0.9060618E-01
       -2   -1    0    0    0  501  0.00000000000E+00  0.00000000000E+00  0.51101213143E+03  0.51101213143E+03  0.25500000920E-02 0. -1.
        2   -1    0    0  501    0  0.00000000000E+00  0.00000000000E+00 -0.77861648503E+03  0.77861648503E+03  0.25500000920E-02 0.  1.
    10030    2    1    2    0    0  0.00000000000E+00  0.00000000000E+00 -0.26760435360E+03  0.12896286165E+04  0.12615585117E+04 0.  0.
        5    1    3    3  502    0 -0.46880975557E+03 -0.21434331367E+03  0.23778931788E+03  0.56770722448E+03  0.46999998093E+01 0. -1.
       -5    1    3    3    0  502  0.46880975557E+03  0.21434331367E+03 -0.50539367148E+03  0.72192139198E+03  0.46999998093E+01 0.  1.
</event>
<event>
 5   0  0.1803959E-03  0.1303782E+04  0.7818609E-02  0.9026572E-01
       -1   -1    0    0    0  501  0.00000000000E+00  0.00000000000E+00  0.56841886216E+03  0.56841886218E+03  0.50400001928E-02 0. -1.
        1   -1    0    0  501    0  0.00000000000E+00  0.00000000000E+00 -0.74762064670E+03  0.74762064671E+03  0.50400001928E-02 0.  1.
    10030    2    1    2    0    0  0.00000000000E+00  0.00000000000E+00 -0.17920178453E+03  0.13160395089E+04  0.13037816955E+04 0.  0.
        4    1    3    3  502    0 -0.33437652415E+03 -0.54924438102E+03  0.18565415120E+02  0.64329102087E+03  0.12699999809E+01 0.  1.
       -4    1    3    3    0  502  0.33437652415E+03  0.54924438102E+03 -0.19776719965E+03  0.67274848803E+03  0.12699999809E+01 0. -1.
</event>
<event>
 5   0  0.1857986E-03  0.1334339E+04  0.7818609E-02  0.9002769E-01
       -1   -1    0    0    0  501  0.00000000000E+00  0.00000000000E+00  0.51083393107E+03  0.51083393110E+03  0.50400001928E-02 0.  1.
        1   -1    0    0  501    0  0.00000000000E+00  0.00000000000E+00 -0.87135005305E+03  0.87135005307E+03  0.50400001928E-02 0. -1.
    10030    2    1    2    0    0  0.00000000000E+00  0.00000000000E+00 -0.36051612198E+03  0.13821839842E+04  0.13343390468E+04 0.  0.
        1    1    3    3  502    0 -0.56279429884E+03  0.78946221422E+02 -0.54228254442E+03  0.78551911924E+03  0.50400001928E-02 0. -1.
       -1    1    3    3    0  502  0.56279429884E+03 -0.78946221422E+02  0.18176642244E+03  0.59666486492E+03  0.50400001928E-02 0.  1.
</event>
<event>
 5   0  0.1803959E-03  0.1272464E+04  0.7818609E-02  0.9051691E-01
        1   -1    0    0  501    0  0.00000000000E+00  0.00000000000E+00  0.86045279362E+03  0.86045279363E+03  0.50400001928E-02 0. -1.
       -1   -1    0    0    0  501  0.00000000000E+00  0.00000000000E+00 -0.47043972893E+03  0.47043972896E+03  0.50400001928E-02 0.  1.
    10030    2    1    2    0    0  0.00000000000E+00  0.00000000000E+00  0.39001306468E+03  0.13308925226E+04  0.12724640333E+04 0.  0.
        4    1    3    3  502    0 -0.12667955462E+03  0.55365458138E+03  0.49489221271E+03  0.75332663576E+03  0.12699999809E+01 0. -1.
       -4    1    3    3    0  502  0.12667955462E+03 -0.55365458138E+03 -0.10487914803E+03  0.57756588683E+03  0.12699999809E+01 0.  1.
</event>
<event>
 5   0  0.3259968E-03  0.1307154E+04  0.7818609E-02  0.9023911E-01
       -2   -1    0    0    0  501  0.00000000000E+00  0.00000000000E+00  0.23965789296E+03  0.23965789297E+03  0.25500000920E-02 0. -1.
        2   -1    0    0  501    0  0.00000000000E+00  0.00000000000E+00 -0.17823872398E+04  0.17823872398E+04  0.25500000920E-02 0.  1.
    10030    2    1    2    0    0  0.00000000000E+00  0.00000000000E+00 -0.15427293468E+04  0.20220451327E+04  0.13071544214E+04 0.  0.
        4    1    3    3  502    0  0.51558471812E+03  0.29853823264E+02 -0.15174680038E+03  0.53828204192E+03  0.12699999809E+01 0. -1.
       -4    1    3    3    0  502 -0.51558471812E+03 -0.29853823264E+02 -0.13909825464E+04  0.14837630908E+04  0.12699999809E+01 0.  1.
</event>
<event>
 5   0  0.1857986E-03  0.1313689E+04  0.7818609E-02  0.9018780E-01
       -1   -1    0    0    0  501  0.00000000000E+00  0.00000000000E+00  0.43272150679E+03  0.43272150682E+03  0.50400001928E-02 0. -1.
        1   -1    0    0  501    0  0.00000000000E+00  0.00000000000E+00 -0.99704869924E+03  0.99704869925E+03  0.50400001928E-02 0.  1.
    10030    2    1    2    0    0  0.00000000000E+00  0.00000000000E+00 -0.56432719245E+03  0.14297702061E+04  0.13136885712E+04 0.  0.
        1    1    3    3  502    0  0.34767115658E+01 -0.22621191203E+03  0.38897841959E+03  0.44998680825E+03  0.50400001928E-02 0. -1.
       -1    1    3    3    0  502 -0.34767115658E+01  0.22621191203E+03 -0.95330561204E+03  0.97978339782E+03  0.50400001928E-02 0.  1.
</event>
<event>
 5   0  0.3336609E-03  0.1297504E+04  0.7818609E-02  0.9031547E-01
       -2   -1    0    0    0  501  0.00000000000E+00  0.00000000000E+00  0.48212853137E+03  0.48212853138E+03  0.25500000920E-02 0.  1.
        2   -1    0    0  501    0  0.00000000000E+00  0.00000000000E+00 -0.87295982001E+03  0.87295982001E+03  0.25500000920E-02 0. -1.
    10030    2    1    2    0    0  0.00000000000E+00  0.00000000000E+00 -0.39083128864E+03  0.13550883514E+04  0.12975035044E+04 0.  0.
        1    1    3    3  502    0  0.28204680110E+03  0.12522628604E+03 -0.79139674801E+03  0.84943559703E+03  0.50400001928E-02 0. -1.
       -1    1    3    3    0  502 -0.28204680110E+03 -0.12522628604E+03  0.40056545937E+03  0.50565275436E+03  0.50400001928E-02 0.  1.
</event>
<event>
 5   0  0.1254125E-03  0.1299726E+04  0.7818609E-02  0.9029782E-01
        3   -1    0    0  501    0  0.00000000000E+00  0.00000000000E+00  0.69086300161E+03  0.69086300900E+03  0.10100000352E+00 0.  1.
       -3   -1    0    0    0  501  0.00000000000E+00  0.00000000000E+00 -0.61129618461E+03  0.61129619295E+03  0.10100000352E+00 0. -1.
    10030    2    1    2    0    0  0.00000000000E+00  0.00000000000E+00  0.79566817009E+02  0.13021592019E+04  0.12997260130E+04 0.  0.
        4    1    3    3  502    0 -0.44950564867E+01 -0.62615335822E+03 -0.13441584627E+03  0.64043537237E+03  0.12699999809E+01 0. -1.
       -4    1    3    3    0  502  0.44950564867E+01  0.62615335822E+03  0.21398266328E+03  0.66172382958E+03  0.12699999809E+01 0.  1.
</event>
<event>
 5   0  0.1814770E-03  0.1310302E+04  0.7818609E-02  0.9021435E-01
       -1   -1    0    0    0  501  0.00000000000E+00  0.00000000000E+00  0.31242955538E+03  0.31242955543E+03  0.50400001928E-02 0. -1.
        1   -1    0    0  501    0  0.00000000000E+00  0.00000000000E+00 -0.13738233267E+04  0.13738233267E+04  0.50400001928E-02 0.  1.
    10030    2    1    2    0    0  0.00000000000E+00  0.00000000000E+00 -0.10613937713E+04  0.16862528821E+04  0.13103022723E+04 0.  0.
        5    1    3    3  502    0  0.48710936741E+03 -0.12517242871E+03 -0.10709841169E+04  0.11832044377E+04  0.46999998093E+01 0.  1.
       -5    1    3    3    0  502 -0.48710936741E+03  0.12517242871E+03  0.95903455868E+01  0.50304844444E+03  0.46999998093E+01 0. -1.
</event>
<event>
 5   0  0.3262927E-03  0.1349499E+04  0.7818609E-02  0.8991207E-01
        2   -1    0    0  501    0  0.00000000000E+00  0.00000000000E+00  0.94876787717E+03  0.94876787717E+03  0.25500000920E-02 0.  1.
       -2   -1    0    0    0  501  0.00000000000E+00  0.00000000000E+00 -0.47987181731E+03  0.47987181731E+03  0.25500000920E-02 0. -1.
    10030    2    1    2    0    0  0.00000000000E+00  0.00000000000E+00  0.46889605986E+03  0.14286396945E+04  0.13494991151E+04 0.  0.
        3    1    3    3  502    0 -0.36776980650E+03 -0.38871883765E+03 -0.20066640041E+03  0.57151026218E+03  0.10100000352E+00 0.  1.
       -3    1    3    3    0  502  0.36776980650E+03  0.38871883765E+03  0.66956246027E+03  0.85712943231E+03  0.10100000352E+00 0. -1.
</event>
<event>
 5   0  0.1857986E-03  0.1281897E+04  0.7818609E-02  0.9044045E-01
       -1   -1    0    0    0  501  0.00000000000E+00  0.00000000000E+00  0.65553651246E+03  0.65553651248E+03  0.50400001928E-02 0. -1.
        1   -1    0    0  501    0  0.00000000000E+00  0.00000000000E+00 -0.62668530819E+03  0.62668530821E+03  0.50400001928E-02 0.  1.
    10030    2    1    2    0    0  0.00000000000E+00  0.00000000000E+00  0.28851204270E+02  0.12822218207E+04  0.12818971899E+04 0.  0.
        1    1    3    3  502    0  0.48176878567E+03  0.96094942762E+02 -0.39735777569E+03  0.63184539469E+03  0.50400001928E-02 0.  1.
       -1    1    3    3    0  502 -0.48176878567E+03 -0.96094942762E+02  0.42620897996E+03  0.65037642599E+03  0.50400001928E-02 0. -1.
</event>
<event>
 5   0  0.1814770E-03  0.1315590E+04  0.7818609E-02  0.9017292E-01
        1   -1    0    0  501    0  0.00000000000E+00  0.00000000000E+00  0.91540649558E+03  0.91540649560E+03  0.50400001928E-02 0.  1.
       -1   -1    0    0    0  501  0.00000000000E+00  0.00000000000E+00 -0.47268026735E+03  0.47268026738E+03  0.50400001928E-02 0. -1.
    10030    2    1    2    0    0  0.00000000000E+00  0.00000000000E+00  0.44272622823E+03  0.13880867630E+04  0.13155904942E+04 0.  0.
        5    1    3    3  502    0  0.47163139731E+03 -0.32043550478E+02 -0.26123611181E+03  0.54011976465E+03  0.46999998093E+01 0. -1.
       -5    1    3    3    0  502 -0.47163139731E+03  0.32043550478E+02  0.70396234004E+03  0.84796699833E+03  0.46999998093E+01 0.  1.
</event>
<event>
 5   0  0.1254125E-03  0.1277259E+04  0.7818609E-02  0.9047796E-01
       -3   -1    0    0    0  501  0.00000000000E+00  0.00000000000E+00  0.52744193036E+03  0.52744194003E+03  0.10100000352E+00 0.  1.
        3   -1    0    0  501    0  0.00000000000E+00  0.00000000000E+00 -0.77325632025E+03  0.77325632685E+03  0.10100000352E+00 0. -1.
    10030    2    1    2    0    0  0.00000000000E+00  0.00000000000E+00 -0.24581438989E+03  0.13006982669E+04  0.12772592795E+04 0.  0.
        3    1    3    3  502    0 -0.23310884954E+03  0.10208638601E+03  0.47357745530E+03  0.53762159769E+03  0.10100000352E+00 0.  1.
       -3    1    3    3    0  502  0.23310884954E+03 -0.10208638601E+03 -0.71939184518E+03  0.76307666919E+03  0.10100000352E+00 0. -1.
</event>
<event>
 5   0  0.3294720E-03  0.1287681E+04  0.7818609E-02  0.9039391E-01
        2   -1    0    0  501    0  0.00000000000E+00  0.00000000000E+00  0.48765271298E+03  0.48765271299E+03  0.25500000920E-02 0. -1.
       -2   -1    0    0    0  501  0.00000000000E+00  0.00000000000E+00 -0.85005352315E+03  0.85005352315E+03  0.25500000920E-02 0.  1.
    10030    2    1    2    0    0  0.00000000000E+00  0.00000000000E+00 -0.36240081016E+03  0.13377062361E+04  0.12876814928E+04 0.  0.
        5    1    3    3  502    0 -0.55417173111E+01 -0.99132801741E+02 -0.84203458270E+03  0.84788109513E+03  0.46999998093E+01 0.  1.
       -5    1    3    3    0  502  0.55417173111E+01  0.99132801741E+02  0.47963377254E+03  0.48982514101E+03  0.46999998093E+01 0. -1.
</event>
<event>
 5   0  0.1857986E-03  0.1308017E+04  0.7818609E-02  0.9023232E-01
       -1   -1    0    0    0  501  0.00000000000E+00  0.00000000000E+00  0.24704651562E+03  0.24704651567E+03  0.50400001928E-02 0.  1.
        1   -1    0    0  501    0  0.00000000000E+00  0.00000000000E+00 -0.17313629243E+04  0.17313629243E+04  0.50400001928E-02 0. -1.
    10030    2    1    2    0    0  0.00000000000E+00  0.00000000000E+00 -0.14843164087E+04  0.19784094400E+04  0.13080170913E+04 0.  0.
        1    1    3    3  502    0 -0.29107642624E+03  0.35452823898E+03 -0.14472473536E+04  0.15182031026E+04  0.50400001928E-02 0. -1.
       -1    1    3    3    0  502  0.29107642624E+03 -0.35452823898E+03 -0.37069055117E+02  0.46020633744E+03  0.50400001928E-02 0.  1.
</event>
<event>
 5   0  0.1814770E-03  0.1328034E+04  0.7818609E-02  0.9007625E-01
       -1   -1    0    0    0  501  0.00000000000E+00  0.00000000000E+00  0.43583172141E+03  0.43583172144E+03  0.50400001928E-02 0. -1.
        1   -1    0    0  501    0  0.00000000000E+00  0.00000000000E+00 -0.10116719029E+04  0.10116719029E+04  0.50400001928E-02 0.  1.
    10030    2    1    2    0    0  0.00000000000E+00  0.00000000000E+00 -0.57584018147E+03  0.14475036243E+04  0.13280341968E+04 0.  0.
        5    1    3    3  502    0 -0.10398858331E+03 -0.28762334447E+03 -0.93030847749E+03  0.97930422598E+03  0.46999998093E+01 0.  1.
       -5    1    3    3    0  502  0.10398858331E+03  0.28762334447E+03  0.35446829601E+03  0.46819939836E+03  0.46999998093E+01 0. -1.
</event>
<event>
 5   0  0.1873488E-03  0.1286114E+04  0.7818609E-02  0.9040650E-01
        1   -1    0    0  501    0  0.00000000000E+00  0.00000000000E+00  0.58316083887E+03  0.58316083889E+03  0.50400001928E-02 0.  1.
       -1   -1    0    0    0  501  0.00000000000E+00  0.00000000000E+00 -0.70910470638E+03  0.70910470640E+03  0.50400001928E-02 0. -1.
    10030    2    1    2    0    0  0.00000000000E+00  0.00000000000E+00 -0.12594386751E+03  0.12922655453E+04  0.12861136737E+04 0.  0.
        3    1    3    3  502    0 -0.42693168208E+03 -0.47317660060E+03  0.23201510806E+02  0.63773433091E+03  0.10100000352E+00 0.  1.
       -3    1    3    3    0  502  0.42693168208E+03  0.47317660060E+03 -0.14914537832E+03  0.65453121438E+03  0.10100000352E+00 0. -1.
</event>
<event>
 5   0  0.3259968E-03  0.1335098E+04  0.7818609E-02  0.9002186E-01
       -2   -1    0    0    0  501  0.00000000000E+00  0.00000000000E+00  0.54812106705E+03  0.54812106705E+03  0.25500000920E-02 0. -1.
        2   -1    0    0  501    0  0.00000000000E+00  0.00000000000E+00 -0.81299899661E+03  0.81299899661E+03  0.25500000920E-02 0.  1.
    10030    2    1    2    0    0  0.00000000000E+00  0.00000000000E+00 -0.26487792956E+03  0.13611200637E+04  0.13350983148E+04 0.  0.
        4    1    3    3  502    0  0.36241048182E+03 -0.46061586261E+03 -0.45821673003E+03  0.74395733399E+03  0.12699999809E+01 0.  1.
       -4    1    3    3    0  502 -0.36241048182E+03  0.46061586261E+03  0.19333880047E+03  0.61716272967E+03  0.12699999809E+01 0. -1.
</event>
<event>
 5   0  0.1823154E-03  0.9426367E+03  0.7818609E-02  0.9373799E-01
        1   -1    0    0  501    0  0.00000000000E+00  0.00000000000E+00  0.28824789664E+03  0.28824789668E+03  0.50400001928E-02 0.  1.
       -1   -1    0    0    0  501  0.00000000000E+00  0.00000000000E+00 -0.77065945872E+03  0.77065945873E+03  0.50400001928E-02 0. -1.
    10030    2    1    2    0    0  0.00000000000E+00  0.00000000000E+00 -0.48241156208E+03  0.10589073554E+04  0.94263665966E+03 0.  0.
        2    1    3    3  502    0  0.15183062349E+03  0.30669671893E+03  0.12284429537E+03  0.36360161791E+03  0.25500000920E-02 0.  1.
       -2    1    3    3    0  502 -0.15183062349E+03 -0.30669671893E+03 -0.60525585744E+03  0.69530573751E+03  0.25500000920E-02 0. -1.
</event>
<event>
 5   0  0.1254125E-03  0.1298120E+04  0.7818609E-02  0.9031057E-01
        3   -1    0    0  501    0  0.00000000000E+00  0.00000000000E+00  0.48300019653E+03  0.48300020709E+03  0.10100000352E+00 0.  1.
       -3   -1    0    0    0  501  0.00000000000E+00  0.00000000000E+00 -0.87221250246E+03  0.87221250830E+03  0.10100000352E+00 0. -1.
    10030    2    1    2    0    0  0.00000000000E+00  0.00000000000E+00 -0.38921230593E+03  0.13552127154E+04  0.12981199039E+04 0.  0.
        2    1    3    3  502    0 -0.46767288794E+03  0.44426159180E+03 -0.11937770004E+03  0.65600101168E+03  0.25500000920E-02 0.  1.
       -2    1    3    3    0  502  0.46767288794E+03 -0.44426159180E+03 -0.26983460589E+03  0.69921170371E+03  0.25500000920E-02 0. -1.
</event>
<event>
 5   0  0.3336609E-03  0.1298770E+04  0.7818609E-02  0.9030541E-01
        2   -1    0    0  501    0  0.00000000000E+00  0.00000000000E+00  0.96823537412E+03  0.96823537413E+03  0.25500000920E-02 0. -1.
       -2   -1    0    0    0  501  0.00000000000E+00  0.00000000000E+00 -0.43553519998E+03  0.43553519999E+03  0.25500000920E-02 0.  1.
    10030    2    1    2    0    0  0.00000000000E+00  0.00000000000E+00  0.53270017414E+03  0.14037705741E+04  0.12987695520E+04 0.  0.
        1    1    3    3  502    0 -0.15303901547E+03  0.58152926357E+03  0.53133028557E+03  0.80243946627E+03  0.50400001928E-02 0. -1.
       -1    1    3    3    0  502  0.15303901547E+03 -0.58152926357E+03  0.13698885671E+01  0.60133110784E+03  0.50400001928E-02 0.  1.
</event>
<event>
 5   0  0.3259968E-03  0.1293879E+04  0.7818609E-02  0.9034434E-01
        2   -1    0    0  501    0  0.00000000000E+00  0.00000000000E+00  0.14160530299E+04  0.14160530299E+04  0.25500000920E-02 0.  1.
       -2   -1    0    0    0  501  0.00000000000E+00  0.00000000000E+00 -0.29556133151E+03  0.29556133152E+03  0.25500000920E-02 0. -1.
    10030    2    1    2    0    0  0.00000000000E+00  0.00000000000E+00  0.11204916984E+04  0.17116143615E+04  0.12938786945E+04 0.  0.
        4    1    3    3  502    0  0.44450150474E+03 -0.23177453719E+03  0.19283916287E+02  0.50167171151E+03  0.12699999809E+01 0. -1.
       -4    1    3    3    0  502 -0.44450150474E+03  0.23177453719E+03  0.11012077821E+04  0.12099426499E+04  0.12699999809E+01 0.  1.
</event>
<event>
 5   0  0.3259968E-03  0.1283920E+04  0.7818609E-02  0.9042415E-01
        2   -1    0    0  501    0  0.00000000000E+00  0.00000000000E+00  0.85703714936E+03  0.85703714937E+03  0.25500000920E-02 0.  1.
       -2   -1    0    0    0  501  0.00000000000E+00  0.00000000000E+00 -0.48085712920E+03  0.48085712921E+03  0.25500000920E-02 0. -1.
    10030    2    1    2    0    0  0.00000000000E+00  0.00000000000E+00  0.37618002016E+03  0.13378942786E+04  0.12839196599E+04 0.  0.
        4    1    3    3  502    0  0.29987593036E+03 -0.51992378212E+02 -0.40089896385E+03  0.50333922270E+03  0.12699999809E+01 0. -1.
       -4    1    3    3    0  502 -0.29987593036E+03  0.51992378212E+02  0.77707898400E+03  0.83455505587E+03  0.12699999809E+01 0.  1.
</event>
<event>
 5   0  0.3299104E-03  0.1280399E+04  0.7818609E-02  0.9045255E-01
        2   -1    0    0  501    0  0.00000000000E+00  0.00000000000E+00  0.87648353087E+03  0.87648353087E+03  0.25500000920E-02 0. -1.
       -2   -1    0    0    0  501  0.00000000000E+00  0.00000000000E+00 -0.46761299298E+03  0.46761299299E+03  0.25500000920E-02 0.  1.
    10030    2    1    2    0    0  0.00000000000E+00  0.00000000000E+00  0.40887053788E+03  0.13440965239E+04  0.12803985117E+04 0.  0.
        2    1    3    3  502    0 -0.50370689613E+02  0.63661229954E+03  0.25187950211E+03  0.68648066972E+03  0.25500000920E-02 0.  1.
       -2    1    3    3    0  502  0.50370689613E+02 -0.63661229954E+03  0.15699103577E+03  0.65761585414E+03  0.25500000920E-02 0. -1.
</event>
<event>
 5   0  0.3262927E-03  0.1258407E+04  0.7818609E-02  0.9063215E-01
        2   -1    0    0  501    0  0.00000000000E+00  0.00000000000E+00  0.91843839768E+03  0.91843839769E+03  0.25500000920E-02 0. -1.
       -2   -1    0    0    0  501  0.00000000000E+00  0.00000000000E+00 -0.43105473212E+03  0.43105473213E+03  0.25500000920E-02 0.  1.
    10030    2    1    2    0    0  0.00000000000E+00  0.00000000000E+00  0.48738366556E+03  0.13494931298E+04  0.12584072751E+04 0.  0.
        3    1    3    3  502    0  0.21327418211E+03  0.58919069923E+03  0.18240963848E+03  0.65261385461E+03  0.10100000352E+00 0.  1.
       -3    1    3    3    0  502 -0.21327418211E+03 -0.58919069923E+03  0.30497402709E+03  0.69687927521E+03  0.10100000352E+00 0. -1.
</event>
<event>
 5   0  0.1873488E-03  0.1278459E+04  0.7818609E-02  0.9046824E-01
       -1   -1    0    0    0  501  0.00000000000E+00  0.00000000000E+00  0.51356379531E+03  0.51356379533E+03  0.50400001928E-02 0.  1.
        1   -1    0    0  501    0  0.00000000000E+00  0.00000000000E+00 -0.79564459587E+03  0.79564459589E+03  0.50400001928E-02 0. -1.
    10030    2    1    2    0    0  0.00000000000E+00  0.00000000000E+00 -0.28208080057E+03  0.13092083912E+04  0.12784588510E+04 0.  0.
        3    1    3    3  502    0  0.74003821712E+02  0.25781952345E+03 -0.73522604607E+03  0.78262687235E+03  0.10100000352E+00 0. -1.
       -3    1    3    3    0  502 -0.74003821712E+02 -0.25781952345E+03  0.45314524550E+03  0.52658151887E+03  0.10100000352E+00 0.  1.
</event>
<event>
 5   0  0.1803959E-03  0.1247540E+04  0.7818609E-02  0.9072233E-01
        1   -1    0    0  501    0  0.00000000000E+00  0.00000000000E+00  0.93374112546E+03  0.93374112547E+03  0.50400001928E-02 0.  1.
       -1   -1    0    0    0  501  0.00000000000E+00  0.00000000000E+00 -0.41669910397E+03  0.41669910400E+03  0.50400001928E-02 0. -1.
    10030    2    1    2    0    0  0.00000000000E+00  0.00000000000E+00  0.51704202149E+03  0.13504402295E+04  0.12475401242E+04 0.  0.
        4    1    3    3  502    0  0.18430408801E+02  0.21019075310E+03  0.89393693081E+03  0.91850132380E+03  0.12699999809E+01 0.  1.
       -4    1    3    3    0  502 -0.18430408801E+02 -0.21019075310E+03 -0.37689490933E+03  0.43193890567E+03  0.12699999809E+01 0. -1.
</event>
<event>
 5   0  0.3262927E-03  0.1313451E+04  0.7818609E-02  0.9018966E-01
        2   -1    0    0  501    0  0.00000000000E+00  0.00000000000E+00  0.50495861831E+03  0.50495861832E+03  0.25500000920E-02 0.  1.
       -2   -1    0    0    0  501  0.00000000000E+00  0.00000000000E+00 -0.85410703760E+03  0.85410703761E+03  0.25500000920E-02 0. -1.
    10030    2    1    2    0    0  0.00000000000E+00  0.00000000000E+00 -0.34914841929E+03  0.13590656559E+04  0.13134514983E+04 0.  0.
        3    1    3    3  502    0  0.11659359046E+03  0.32305755105E+03 -0.75377122419E+03  0.82833043844E+03  0.10100000352E+00 0. -1.
       -3    1    3    3    0  502 -0.11659359046E+03 -0.32305755105E+03  0.40462280490E+03  0.53073521748E+03  0.10100000352E+00 0.  1.
</event>
<event>
 5   0  0.3299104E-03  0.1284566E+04  0.7818609E-02  0.9041895E-01
        2   -1    0    0  501    0  0.00000000000E+00  0.00000000000E+00  0.57452923304E+03  0.57452923305E+03  0.25500000920E-02 0. -1.
       -2   -1    0    0    0  501  0.00000000000E+00  0.00000000000E+00 -0.71802706473E+03  0.71802706473E+03  0.25500000920E-02 0.  1.
    10030    2    1    2    0    0  0.00000000000E+00  0.00000000000E+00 -0.14349783169E+03  0.12925562978E+04  0.12845661350E+04 0.  0.
        2    1    3    3  502    0  0.53996868311E+03 -0.33084217327E+03 -0.17967659706E+03  0.65826013239E+03  0.25500000920E-02 0.  1.
       -2    1    3    3    0  502 -0.53996868311E+03  0.33084217327E+03  0.36178765370E+02  0.63429616539E+03  0.25500000920E-02 0. -1.
</event>
<event>
 5   0  0.1857986E-03  0.1292407E+04  0.7818609E-02  0.9035608E-01
       -1   -1    0    0    0  501  0.00000000000E+00  0.00000000000E+00  0.91268802346E+03  0.91268802347E+03  0.50400001928E-02 0.  1.
        1   -1    0    0  501    0  0.00000000000E+00  0.00000000000E+00 -0.45752666835E+03  0.45752666838E+03  0.50400001928E-02 0. -1.
    10030    2    1    2    0    0  0.00000000000E+00  0.00000000000E+00  0.45516135511E+03  0.13702146918E+04  0.12924072278E+04 0.  0.
        1    1    3    3  502    0  0.28192915460E+03 -0.10662619327E+03  0.83359241339E+03  0.88641384522E+03  0.50400001928E-02 0.  1.
       -1    1    3    3    0  502 -0.28192915460E+03  0.10662619327E+03 -0.37843105828E+03  0.48380084663E+03  0.50400001928E-02 0. -1.
</event>
<event>
 5   0  0.3336609E-03  0.1284075E+04  0.7818609E-02  0.9042290E-01
        2   -1    0    0  501    0  0.00000000000E+00  0.00000000000E+00  0.68102219369E+03  0.68102219369E+03  0.25500000920E-02 0. -1.
       -2   -1    0    0    0  501  0.00000000000E+00  0.00000000000E+00 -0.60528417745E+03  0.60528417746E+03  0.25500000920E-02 0.  1.
    10030    2    1    2    0    0  0.00000000000E+00  0.00000000000E+00  0.75738016236E+02  0.12863063712E+04  0.12840746993E+04 0.  0.
        1    1    3    3  502    0  0.51481535378E+03  0.24914232686E+03 -0.25436597772E+03  0.62594632211E+03  0.50400001928E-02 0.  1.
       -1    1    3    3    0  502 -0.51481535378E+03 -0.24914232686E+03  0.33010399395E+03  0.66036004904E+03  0.50400001928E-02 0. -1.
</event>
<event>
 5   0  0.1823154E-03  0.1310087E+04  0.7818609E-02  0.9021604E-01
       -1   -1    0    0    0  501  0.00000000000E+00  0.00000000000E+00  0.61839603973E+03  0.61839603975E+03  0.50400001928E-02 0. -1.
        1   -1    0    0  501    0  0.00000000000E+00  0.00000000000E+00 -0.69386248182E+03  0.69386248184E+03  0.50400001928E-02 0.  1.
    10030    2    1    2    0    0  0.00000000000E+00  0.00000000000E+00 -0.75466442084E+02  0.13122585216E+04  0.13100867313E+04 0.  0.
        2    1    3    3  502    0  0.31733522211E+03 -0.12655074571E+03 -0.59755603088E+03  0.68832401127E+03  0.25500000920E-02 0.  1.
       -2    1    3    3    0  502 -0.31733522211E+03  0.12655074571E+03  0.52208958880E+03  0.62393451032E+03  0.25500000920E-02 0. -1.
</event>
<event>
 5   0  0.3294720E-03  0.1488898E+04  0.7818609E-02  0.8891869E-01
       -2   -1    0    0    0  501  0.00000000000E+00  0.00000000000E+00  0.73305982930E+03  0.73305982931E+03  0.25500000920E-02 0.  1.
        2   -1    0    0  501    0  0.00000000000E+00  0.00000000000E+00 -0.75601522768E+03  0.75601522769E+03  0.25500000920E-02 0. -1.
    10030    2    1    2    0    0  0.00000000000E+00  0.00000000000E+00 -0.22955398379E+02  0.14890750570E+04  0.14888981077E+04 0.  0.
        5    1    3    3  502    0 -0.22037537548E+03  0.34385044920E+03 -0.63395336105E+03  0.75413353693E+03  0.46999998093E+01 0. -1.
       -5    1    3    3    0  502  0.22037537548E+03 -0.34385044920E+03  0.61099796267E+03  0.73494152007E+03  0.46999998093E+01 0.  1.
</event>
<event>
 5   0  0.1823154E-03  0.1119009E+04  0.7818609E-02  0.9186860E-01
        1   -1    0    0  501    0  0.00000000000E+00  0.00000000000E+00  0.51621705587E+03  0.51621705590E+03  0.50400001928E-02 0.  1.
       -1   -1    0    0    0  501  0.00000000000E+00  0.00000000000E+00 -0.60642146582E+03  0.60642146584E+03  0.50400001928E-02 0. -1.
    10030    2    1    2    0    0  0.00000000000E+00  0.00000000000E+00 -0.90204409942E+02  0.11226385217E+04  0.11190086751E+04 0.  0.
        2    1    3    3  502    0  0.61781567853E+02 -0.33495091518E+03 -0.49042949184E+03  0.59710146891E+03  0.25500000920E-02 0. -1.
       -2    1    3    3    0  502 -0.61781567853E+02  0.33495091518E+03  0.40022508190E+03  0.52553705282E+03  0.25500000920E-02 0.  1.
</event>
<event>
 5   0  0.1873488E-03  0.1312636E+04  0.7818609E-02  0.9019604E-01
        1   -1    0    0  501    0  0.00000000000E+00  0.00000000000E+00  0.65855060178E+03  0.65855060180E+03  0.50400001928E-02 0.  1.
       -1   -1    0    0    0  501  0.00000000000E+00  0.00000000000E+00 -0.65409298482E+03  0.65409298484E+03  0.50400001928E-02 0. -1.
    10030    2    1    2    0    0  0.00000000000E+00  0.00000000000E+00  0.44576169634E+01  0.13126435866E+04  0.13126360178E+04 0.  0.
        3    1    3    3  502    0  0.78091512394E+02  0.24469190587E+03 -0.60174562166E+03  0.65427075167E+03  0.10100000352E+00 0. -1.
       -3    1    3    3    0  502 -0.78091512394E+02 -0.24469190587E+03  0.60620323863E+03  0.65837283497E+03  0.10100000352E+00 0.  1.
</event>
<event>
 5   0  0.1814770E-03  0.1322169E+04  0.7818609E-02  0.9012167E-01
       -1   -1    0    0    0  501  0.00000000000E+00  0.00000000000E+00  0.30926890427E+03  0.30926890431E+03  0.50400001928E-02 0.  1.
        1   -1    0    0  501    0  0.00000000000E+00  0.00000000000E+00 -0.14131166284E+04  0.14131166285E+04  0.50400001928E-02 0. -1.
    10030    2    1    2    0    0  0.00000000000E+00  0.00000000000E+00 -0.11038477242E+04  0.17223855328E+04  0.13221694768E+04 0.  0.
        5    1    3    3  502    0 -0.66098919214E+03  0.88883202507E+01 -0.55846684501E+03  0.86538605335E+03  0.46999998093E+01 0. -1.
       -5    1    3    3    0  502  0.66098919214E+03 -0.88883202507E+01 -0.54538087917E+03  0.85699947942E+03  0.46999998093E+01 0.  1.
</event>
<event>
 5   0  0.3336609E-03  0.1327221E+04  0.7818609E-02  0.9008253E-01
       -2   -1    0    0    0  501  0.00000000000E+00  0.00000000000E+00  0.43176651345E+03  0.43176651346E+03  0.25500000920E-02 0. -1.
        2   -1    0    0  501    0  0.00000000000E+00  0.00000000000E+00 -0.10199474431E+04  0.10199474431E+04  0.25500000920E-02 0.  1.
    10030    2    1    2    0    0  0.00000000000E+00  0.00000000000E+00 -0.58818092965E+03  0.14517139566E+04  0.13272213853E+04 0.  0.
        1    1    3    3  502    0 -0.13220440094E+02  0.21146142333E+03  0.39377669675E+03  0.44715858543E+03  0.50400001928E-02 0. -1.
       -1    1    3    3    0  502  0.13220440094E+02 -0.21146142333E+03 -0.98195762640E+03  0.10045553711E+04  0.50400001928E-02 0.  1.
</event>
<event>
 5   0  0.1873488E-03  0.1277894E+04  0.7818609E-02  0.9047282E-01
        1   -1    0    0  501    0  0.00000000000E+00  0.00000000000E+00  0.64100406243E+03  0.64100406245E+03  0.50400001928E-02 0.  1.
       -1   -1    0    0    0  501  0.00000000000E+00  0.00000000000E+00 -0.63689642206E+03  0.63689642208E+03  0.50400001928E-02 0. -1.
    10030    2    1    2    0    0  0.00000000000E+00  0.00000000000E+00  0.41076403708E+01  0.12779004845E+04  0.12778938828E+04 0.  0.
        3    1    3    3  502    0 -0.52317578902E+03  0.15516514836E+03 -0.33030922766E+03  0.63788190565E+03  0.10100000352E+00 0. -1.
       -3    1    3    3    0  502  0.52317578902E+03 -0.15516514836E+03  0.33441686803E+03  0.64001857888E+03  0.10100000352E+00 0.  1.
</event>
<event>
 5   0  0.3299104E-03  0.1319433E+04  0.7818609E-02  0.9014295E-01
       -2   -1    0    0    0  501  0.00000000000E+00  0.00000000000E+00  0.25480199079E+03  0.25480199081E+03  0.25500000920E-02 0. -1.
        2   -1    0    0  501    0  0.00000000000E+00  0.00000000000E+00 -0.17080931542E+04  0.17080931542E+04  0.25500000920E-02 0.  1.
    10030    2    1    2    0    0  0.00000000000E+00  0.00000000000E+00 -0.14532911634E+04  0.19628951450E+04  0.13194325086E+04 0.  0.
        2    1    3    3  502    0  0.64121247357E+03  0.85737254706E+02 -0.53427266010E+03  0.83901822891E+03  0.25500000920E-02 0. -1.
       -2    1    3    3    0  502 -0.64121247357E+03 -0.85737254706E+02 -0.91901850330E+03  0.11238769161E+04  0.25500000920E-02 0.  1.
</event>
<event>
 5   0  0.1803959E-03  0.1331064E+04  0.7818609E-02  0.9005287E-01
        1   -1    0    0  501    0  0.00000000000E+00  0.00000000000E+00  0.65766460230E+03  0.65766460232E+03  0.50400001928E-02 0. -1.
       -1   -1    0    0    0  501  0.00000000000E+00  0.00000000000E+00 -0.67349384552E+03  0.67349384554E+03  0.50400001928E-02 0.  1.
    10030    2    1    2    0    0  0.00000000000E+00  0.00000000000E+00 -0.15829243226E+02  0.13311584479E+04  0.13310643292E+04 0.  0.
        4    1    3    3  502    0 -0.66162128148E+03 -0.53395818357E+02 -0.56266935547E+02  0.66615419721E+03  0.12699999809E+01 0.  1.
       -4    1    3    3    0  502  0.66162128148E+03  0.53395818357E+02  0.40437692321E+02  0.66500425065E+03  0.12699999809E+01 0. -1.
</event>
<event>
 5   0  0.1814770E-03  0.1307821E+04  0.7818609E-02  0.9023386E-01
       -1   -1    0    0    0  501  0.00000000000E+00  0.00000000000E+00  0.27147815156E+03  0.27147815161E+03  0.50400001928E-02 0.  1.
        1   -1    0    0  501    0  0.00000000000E+00  0.00000000000E+00 -0.15750763427E+04  0.15750763427E+04  0.50400001928E-02 0. -1.
    10030    2    1    2    0    0  0.00000000000E+00  0.00000000000E+00 -0.13035981911E+04  0.18465544943E+04  0.13078208044E+04 0.  0.
        5    1    3    3  502    0 -0.35786318424E+03  0.32004399045E+03 -0.12786120003E+04  0.13657836402E+04  0.46999998093E+01 0. -1.
       -5    1    3    3    0  502  0.35786318424E+03 -0.32004399045E+03 -0.24986190838E+02  0.48077085414E+03  0.46999998093E+01 0.  1.
</event>
<event>
 5   0  0.3294720E-03  0.1302758E+04  0.7818609E-02  0.9027381E-01
       -2   -1    0    0    0  501  0.00000000000E+00  0.00000000000E+00  0.37903246058E+03  0.37903246058E+03  0.25500000920E-02 0.  1.
        2   -1    0    0  501    0  0.00000000000E+00  0.00000000000E+00 -0.11194153602E+04  0.11194153602E+04  0.25500000920E-02 0. -1.
    10030    2    1    2    0    0  0.00000000000E+00  0.00000000000E+00 -0.74038289967E+03  0.14984478208E+04  0.13027582407E+04 0.  0.
        5    1    3    3  502    0 -0.29870021461E+03 -0.47126770838E+03 -0.75676801094E+03  0.94023134576E+03  0.46999998093E+01 0. -1.
       -5    1    3    3    0  502  0.29870021461E+03  0.47126770838E+03  0.16385111274E+02  0.55821647507E+03  0.46999998093E+01 0.  1.
</event>
<event>
 5   0  0.1814770E-03  0.1309931E+04  0.7818609E-02  0.9021727E-01
        1   -1    0    0  501    0  0.00000000000E+00  0.00000000000E+00  0.11090983879E+04  0.11090983879E+04  0.50400001928E-02 0. -1.
       -1   -1    0    0    0  501  0.00000000000E+00  0.00000000000E+00 -0.38678217976E+03  0.38678217980E+03  0.50400001928E-02 0.  1.
    10030    2    1    2    0    0  0.00000000000E+00  0.00000000000E+00  0.72231620810E+03  0.14958805677E+04  0.13099305204E+04 0.  0.
        5    1    3    3  502    0 -0.28100100707E+02  0.36541916411E+03  0.98101583484E+03  0.10472511348E+04  0.46999998093E+01 0. -1.
       -5    1    3    3    0  502  0.28100100707E+02 -0.36541916411E+03 -0.25869962674E+03  0.44862943286E+03  0.46999998093E+01 0.  1.
</event>
<event>
 5   0  0.1823154E-03  0.1300637E+04  0.7818609E-02  0.9029060E-01
       -1   -1    0    0    0  501  0.00000000000E+00  0.00000000000E+00  0.23567557420E+03  0.23567557426E+03  0.50400001928E-02 0. -1.
        1   -1    0    0  501    0  0.00000000000E+00  0.00000000000E+00 -0.17944755073E+04  0.17944755073E+04  0.50400001928E-02 0.  1.
    10030    2    1    2    0    0  0.00000000000E+00  0.00000000000E+00 -0.15587999331E+04  0.20301510815E+04  0.13006368373E+04 0.  0.
        2    1    3    3  502    0 -0.63854012936E+03  0.48646103764E+02 -0.60270814219E+03  0.87940721221E+03  0.25500000920E-02 0.  1.
       -2    1    3    3    0  502  0.63854012936E+03 -0.48646103764E+02 -0.95609179087E+03  0.11507438693E+04  0.25500000920E-02 0. -1.
</event>
<event>
 5   0  0.3336609E-03  0.1290288E+04  0.7818609E-02  0.9037303E-01
        2   -1    0    0  501    0  0.00000000000E+00  0.00000000000E+00  0.99301520198E+03  0.99301520198E+03  0.25500000920E-02 0. -1.
       -2   -1    0    0    0  501  0.00000000000E+00  0.00000000000E+00 -0.41913823144E+03  0.41913823145E+03  0.25500000920E-02 0.  1.
    10030    2    1    2    0    0  0.00000000000E+00  0.00000000000E+00  0.57387697054E+03  0.14121534334E+04  0.12902877750E+04 0.  0.
        1    1    3    3  502    0 -0.24464662983E+03  0.58158500962E+03  0.13962418685E+03  0.64621050013E+03  0.50400001928E-02 0. -1.
       -1    1    3    3    0  502  0.24464662983E+03 -0.58158500962E+03  0.43425278368E+03  0.76594293329E+03  0.50400001928E-02 0.  1.
</event>
<event>
 5   0  0.1803959E-03  0.1304369E+04  0.7818609E-02  0.9026108E-01
       -1   -1    0    0    0  501  0.00000000000E+00  0.00000000000E+00  0.29700727833E+03  0.29700727837E+03  0.50400001928E-02 0. -1.
        1   -1    0    0  501    0  0.00000000000E+00  0.00000000000E+00 -0.14321010602E+04  0.14321010602E+04  0.50400001928E-02 0.  1.
    10030    2    1    2    0    0  0.00000000000E+00  0.00000000000E+00 -0.11350937818E+04  0.17291083385E+04  0.13043687181E+04 0.  0.
        4    1    3    3  502    0  0.14449169137E+02  0.55362393457E+02 -0.14287658559E+04  0.14299116255E+04  0.12699999809E+01 0.  1.
       -4    1    3    3    0  502 -0.14449169137E+02 -0.55362393457E+02  0.29367207403E+03  0.29919671299E+03  0.12699999809E+01 0. -1.
</event>
<event>
 5   0  0.3336609E-03  0.1309357E+04  0.7818609E-02  0.9022178E-01
        2   -1    0    0  501    0  0.00000000000E+00  0.00000000000E+00  0.54468050225E+03  0.54468050226E+03  0.25500000920E-02 0. -1.
       -2   -1    0    0    0  501  0.00000000000E+00  0.00000000000E+00 -0.78689078679E+03  0.78689078679E+03  0.25500000920E-02 0.  1.
    10030    2    1    2    0    0  0.00000000000E+00  0.00000000000E+00 -0.24221028453E+03  0.13315712891E+04  0.13093571995E+04 0.  0.
        1    1    3    3  502    0 -0.32290071938E+03 -0.47040775283E+03  0.20536417871E+03  0.60640149606E+03  0.50400001928E-02 0. -1.
       -1    1    3    3    0  502  0.32290071938E+03  0.47040775283E+03 -0.44757446325E+03  0.72516979299E+03  0.50400001928E-02 0.  1.
</event>
<event>
 5   0  0.3336609E-03  0.1331196E+04  0.7818609E-02  0.9005186E-01
       -2   -1    0    0    0  501  0.00000000000E+00  0.00000000000E+00  0.35922670583E+03  0.35922670583E+03  0.25500000920E-02 0.  1.
        2   -1    0    0  501    0  0.00000000000E+00  0.00000000000E+00 -0.12332622624E+04  0.12332622624E+04  0.25500000920E-02 0. -1.
    10030    2    1    2    0    0  0.00000000000E+00  0.00000000000E+00 -0.87403555658E+03  0.15924889682E+04  0.13311960636E+04 0.  0.
        1    1    3    3  502    0  0.48030980449E+03 -0.41052858182E+02 -0.98605610239E+03  0.10975834741E+04  0.50400001928E-02 0. -1.
       -1    1    3    3    0  502 -0.48030980449E+03  0.41052858182E+02  0.11202054581E+03  0.49490549418E+03  0.50400001928E-02 0.  1.
</event>
<event>
 5   0  0.1803959E-03  0.1299543E+04  0.7818609E-02  0.9029927E-01
        1   -1    0    0  501    0  0.00000000000E+00  0.00000000000E+00  0.45406777832E+03  0.45406777835E+03  0.50400001928E-02 0.  1.
       -1   -1    0    0    0  501  0.00000000000E+00  0.00000000000E+00 -0.92982402605E+03  0.92982402606E+03  0.50400001928E-02 0. -1.
    10030    2    1    2    0    0  0.00000000000E+00  0.00000000000E+00 -0.47575624773E+03  0.13838918044E+04  0.12995431963E+04 0.  0.
        4    1    3    3  502    0 -0.36384757825E+03  0.44935084017E+03  0.77845111494E+02  0.58340612959E+03  0.12699999809E+01 0.  1.
       -4    1    3    3    0  502  0.36384757825E+03 -0.44935084017E+03 -0.55360135922E+03  0.80048567482E+03  0.12699999809E+01 0. -1.
</event>
<event>
 5   0  0.1873488E-03  0.1396055E+04  0.7818609E-02  0.8956679E-01
       -1   -1    0    0    0  501  0.00000000000E+00  0.00000000000E+00  0.32444108426E+03  0.32444108430E+03  0.50400001928E-02 0.  1.
        1   -1    0    0  501    0  0.00000000000E+00  0.00000000000E+00 -0.15017897231E+04  0.15017897231E+04  0.50400001928E-02 0. -1.
    10030    2    1    2    0    0  0.00000000000E+00  0.00000000000E+00 -0.11773486389E+04  0.18262308074E+04  0.13960548501E+04 0.  0.
        3    1    3    3  502    0 -0.50153632935E+03  0.16667912308E+02 -0.12233913919E+04  0.13223097280E+04  0.10100000352E+00 0. -1.
       -3    1    3    3    0  502  0.50153632935E+03 -0.16667912308E+02  0.46042753006E+02  0.50392107940E+03  0.10100000352E+00 0.  1.
</event>
<event>
 5   0  0.3259968E-03  0.1304568E+04  0.7818609E-02  0.9025951E-01
       -2   -1    0    0    0  501  0.00000000000E+00  0.00000000000E+00  0.24996348108E+03  0.24996348109E+03  0.25500000920E-02 0. -1.
        2   -1    0    0  501    0  0.00000000000E+00  0.00000000000E+00 -0.17021454567E+04  0.17021454567E+04  0.25500000920E-02 0.  1.
    10030    2    1    2    0    0  0.00000000000E+00  0.00000000000E+00 -0.14521819757E+04  0.19521089378E+04  0.13045676735E+04 0.  0.
        4    1    3    3  502    0  0.36136068856E+03  0.50284694210E+03 -0.10328858696E+04  0.12042804603E+04  0.12699999809E+01 0.  1.
       -4    1    3    3    0  502 -0.36136068856E+03 -0.50284694210E+03 -0.41929610604E+03  0.74782847757E+03  0.12699999809E+01 0. -1.
</event>
<event>
 5   0  0.1803959E-03  0.1300526E+04  0.7818609E-02  0.9029148E-01
       -1   -1    0    0    0  501  0.00000000000E+00  0.00000000000E+00  0.24804572528E+04  0.24804572528E+04  0.50400001928E-02 0.  1.
        1   -1    0    0  501    0  0.00000000000E+00  0.00000000000E+00 -0.17046931971E+03  0.17046931979E+03  0.50400001928E-02 0. -1.
    10030    2    1    2    0    0  0.00000000000E+00  0.00000000000E+00  0.23099879331E+04  0.26509265726E+04  0.13005258330E+04 0.  0.
        4    1    3    3  502    0 -0.41409756379E+02 -0.61563108162E+03  0.73664109947E+03  0.96091525063E+03  0.12699999809E+01 0. -1.
       -4    1    3    3    0  502  0.41409756379E+02  0.61563108162E+03  0.15733468336E+04  0.16900113220E+04  0.12699999809E+01 0.  1.
</event>
<event>
 5   0  0.1857986E-03  0.1182957E+04  0.7818609E-02  0.9127906E-01
       -1   -1    0    0    0  501  0.00000000000E+00  0.00000000000E+00  0.42170069297E+03  0.42170069300E+03  0.50400001928E-02 0. -1.
        1   -1    0    0  501    0  0.00000000000E+00  0.00000000000E+00 -0.82960932382E+03  0.82960932383E+03  0.50400001928E-02 0.  1.
    10030    2    1    2    0    0  0.00000000000E+00  0.00000000000E+00 -0.40790863085E+03  0.12513100168E+04  0.11829570183E+04 0.  0.
        1    1    3    3  502    0 -0.17404945640E+02 -0.41054911057E+03  0.24606093540E+03  0.47895666639E+03  0.50400001928E-02 0. -1.
       -1    1    3    3    0  502  0.17404945640E+02  0.41054911057E+03 -0.65396956625E+03  0.77235335044E+03  0.50400001928E-02 0.  1.
</event>
<event>
 5   0  0.1814770E-03  0.1210938E+04  0.7818609E-02  0.9103336E-01
        1   -1    0    0  501    0  0.00000000000E+00  0.00000000000E+00  0.35348924255E+03  0.35348924258E+03  0.50400001928E-02 0. -1.
       -1   -1    0    0    0  501  0.00000000000E+00  0.00000000000E+00 -0.10370691357E+04  0.10370691357E+04  0.50400001928E-02 0.  1.
    10030    2    1    2    0    0  0.00000000000E+00  0.00000000000E+00 -0.68357989318E+03  0.13905583783E+04  0.12109381211E+04 0.  0.
        5    1    3    3  502    0  0.46736542706E+03  0.23877746486E+03 -0.68843691887E+03  0.86568620261E+03  0.46999998093E+01 0.  1.
       -5    1    3    3    0  502 -0.46736542706E+03 -0.23877746486E+03  0.48570256896E+01  0.52487217571E+03  0.46999998093E+01 0. -1.
</event>
<event>
 5   0  0.3259968E-03  0.1281566E+04  0.7818609E-02  0.9044313E-01
        2   -1    0    0  501    0  0.00000000000E+00  0.00000000000E+00  0.64495723894E+03  0.64495723894E+03  0.25500000920E-02 0.  1.
       -2   -1    0    0    0  501  0.00000000000E+00  0.00000000000E+00 -0.63663584927E+03  0.63663584928E+03  0.25500000920E-02 0. -1.
    10030    2    1    2    0    0  0.00000000000E+00  0.00000000000E+00  0.83213896652E+01  0.12815930882E+04  0.12815660725E+04 0.  0.
        4    1    3    3  502    0 -0.19650774985E+03 -0.60357302775E+03  0.91830045899E+02  0.64136578160E+03  0.12699999809E+01 0.  1.
       -4    1    3    3    0  502  0.19650774985E+03  0.60357302775E+03 -0.83508656233E+02  0.64022730662E+03  0.12699999809E+01 0. -1.
</event>
<event>
 5   0  0.3299104E-03  0.1368558E+04  0.7818609E-02  0.8976898E-01
        2   -1    0    0  501    0  0.00000000000E+00  0.00000000000E+00  0.25236808946E+03  0.25236808947E+03  0.25500000920E-02 0.  1.
       -2   -1    0    0    0  501  0.00000000000E+00  0.00000000000E+00 -0.18553751146E+04  0.18553751146E+04  0.25500000920E-02 0. -1.
    10030    2    1    2    0    0  0.00000000000E+00  0.00000000000E+00 -0.16030070251E+04  0.21077432041E+04  0.13685575953E+04 0.  0.
        2    1    3    3  502    0  0.57249259955E+03  0.30551005801E+03 -0.11359377012E+04  0.13082196425E+04  0.25500000920E-02 0. -1.
       -2    1    3    3    0  502 -0.57249259955E+03 -0.30551005801E+03 -0.46706932393E+03  0.79952356153E+03  0.25500000920E-02 0.  1.
</event>
<event>
 5   0  0.1814770E-03  0.1309938E+04  0.7818609E-02  0.9021721E-01
        1   -1    0    0  501    0  0.00000000000E+00  0.00000000000E+00  0.36331517829E+03  0.36331517832E+03  0.50400001928E-02 0. -1.
       -1   -1    0    0    0  501  0.00000000000E+00  0.00000000000E+00 -0.11807495390E+04  0.11807495390E+04  0.50400001928E-02 0.  1.
    10030    2    1    2    0    0  0.00000000000E+00  0.00000000000E+00 -0.81743436074E+03  0.15440647174E+04  0.13099377532E+04 0.  0.
        5    1    3    3  502    0 -0.14460792991E+02  0.54254152800E+03 -0.84084999447E+03  0.10008052894E+04  0.46999998093E+01 0.  1.
       -5    1    3    3    0  502  0.14460792991E+02 -0.54254152800E+03  0.23415633728E+02  0.54325942794E+03  0.46999998093E+01 0. -1.
</event>
<event>
 5   0  0.1857986E-03  0.1252267E+04  0.7818609E-02  0.9068298E-01
        1   -1    0    0  501    0  0.00000000000E+00  0.00000000000E+00  0.13741265126E+04  0.13741265126E+04  0.50400001928E-02 0.  1.
       -1   -1    0    0    0  501  0.00000000000E+00  0.00000000000E+00 -0.28530356901E+03  0.28530356906E+03  0.50400001928E-02 0. -1.
    10030    2    1    2    0    0  0.00000000000E+00  0.00000000000E+00  0.10888229436E+04  0.16594300817E+04  0.12522670616E+04 0.  0.
        1    1    3    3  502    0 -0.45925728403E+03 -0.12677302841E+03  0.60478023694E+01  0.47647164617E+03  0.50400001928E-02 0. -1.
       -1    1    3    3    0  502  0.45925728403E+03  0.12677302841E+03  0.10827751412E+04  0.11829584355E+04  0.50400001928E-02 0.  1.
</event>
<event>
 5   0  0.3262927E-03  0.1274253E+04  0.7818609E-02  0.9050236E-01
        2   -1    0    0  501    0  0.00000000000E+00  0.00000000000E+00  0.14314858094E+04  0.14314858094E+04  0.25500000920E-02 0.  1.
       -2   -1    0    0    0  501  0.00000000000E+00  0.00000000000E+00 -0.28357262922E+03  0.28357262924E+03  0.25500000920E-02 0. -1.
    10030    2    1    2    0    0  0.00000000000E+00  0.00000000000E+00  0.11479131802E+04  0.17150584387E+04  0.12742530278E+04 0.  0.
        3    1    3    3  502    0 -0.39853403410E+03 -0.28654337228E+03  0.11206664854E+04  0.12234499836E+04  0.10100000352E+00 0.  1.
       -3    1    3    3    0  502  0.39853403410E+03  0.28654337228E+03  0.27246694761E+02  0.49160845508E+03  0.10100000352E+00 0. -1.
</event>
<event>
 5   0  0.3259968E-03  0.1271828E+04  0.7818609E-02  0.9052209E-01
       -2   -1    0    0    0  501  0.00000000000E+00  0.00000000000E+00  0.34580055579E+03  0.34580055580E+03  0.25500000920E-02 0. -1.
        2   -1    0    0  501    0  0.00000000000E+00  0.00000000000E+00 -0.11694210229E+04  0.11694210229E+04  0.25500000920E-02 0.  1.
    10030    2    1    2    0    0  0.00000000000E+00  0.00000000000E+00 -0.82362046714E+03  0.15152215787E+04  0.12718277237E+04 0.  0.
        4    1    3    3  502    0 -0.18020331635E+03 -0.12227665766E+03 -0.11236096734E+04  0.11445196054E+04  0.12699999809E+01 0.  1.
       -4    1    3    3    0  502  0.18020331635E+03  0.12227665766E+03  0.29998920625E+03  0.37070197329E+03  0.12699999809E+01 0. -1.
</event>
<event>
 5   0  0.3259968E-03  0.1306087E+04  0.7818609E-02  0.9024752E-01
        2   -1    0    0  501    0  0.00000000000E+00  0.00000000000E+00  0.13414929600E+04  0.13414929600E+04  0.25500000920E-02 0. -1.
       -2   -1    0    0    0  501  0.00000000000E+00  0.00000000000E+00 -0.31790410695E+03  0.31790410696E+03  0.25500000920E-02 0.  1.
    10030    2    1    2    0    0  0.00000000000E+00  0.00000000000E+00  0.10235888531E+04  0.16593970670E+04  0.13060874725E+04 0.  0.
        4    1    3    3  502    0 -0.37537063997E+03  0.53189490723E+03  0.44640081337E+03  0.78936088626E+03  0.12699999809E+01 0.  1.
       -4    1    3    3    0  502  0.37537063997E+03 -0.53189490723E+03  0.57718803969E+03  0.87003618071E+03  0.12699999809E+01 0. -1.
</event>
<event>
 5   0  0.1873488E-03  0.1220585E+04  0.7818609E-02  0.9095027E-01
        1   -1    0    0  501    0  0.00000000000E+00  0.00000000000E+00  0.55283525206E+03  0.55283525208E+03  0.50400001928E-02 0.  1.
       -1   -1    0    0    0  501  0.00000000000E+00  0.00000000000E+00 -0.67372118953E+03  0.67372118955E+03  0.50400001928E-02 0. -1.
    10030    2    1    2    0    0  0.00000000000E+00  0.00000000000E+00 -0.12088593748E+03  0.12265564416E+04  0.12205848166E+04 0.  0.
        3    1    3    3  502    0 -0.52770302474E+03  0.26531059476E+03 -0.21480641595E+03  0.62849184605E+03  0.10100000352E+00 0. -1.
       -3    1    3    3    0  502  0.52770302474E+03 -0.26531059476E+03  0.93920478477E+02  0.59806459558E+03  0.10100000352E+00 0.  1.
</event>
<event>
 5   0  0.1873488E-03  0.1266395E+04  0.7818609E-02  0.9056647E-01
       -1   -1    0    0    0  501  0.00000000000E+00  0.00000000000E+00  0.38740147690E+03  0.38740147693E+03  0.50400001928E-02 0.  1.
        1   -1    0    0  501    0  0.00000000000E+00  0.00000000000E+00 -0.10349444368E+04  0.10349444368E+04  0.50400001928E-02 0. -1.
    10030    2    1    2    0    0  0.00000000000E+00  0.00000000000E+00 -0.64754295985E+03  0.14223459137E+04  0.12663948884E+04 0.  0.
        3    1    3    3  502    0 -0.50111111979E+03 -0.10475901739E+03 -0.74228784320E+03  0.90170841100E+03  0.10100000352E+00 0. -1.
       -3    1    3    3    0  502  0.50111111979E+03  0.10475901739E+03  0.94744883348E+02  0.52063750270E+03  0.10100000352E+00 0.  1.
</event>
<event>
 5   0  0.1857986E-03  0.1299447E+04  0.7818609E-02  0.9030004E-01
        1   -1    0    0  501    0  0.00000000000E+00  0.00000000000E+00  0.13114998846E+04  0.13114998846E+04  0.50400001928E-02 0. -1.
       -1   -1    0    0    0  501  0.00000000000E+00  0.00000000000E+00 -0.32187613429E+03  0.32187613433E+03  0.50400001928E-02 0.  1.
    10030    2    1    2    0    0  0.00000000000E+00  0.00000000000E+00  0.98962375034E+03  0.16333760190E+04  0.12994468254E+04 0.  0.
        1    1    3    3  502    0 -0.58280358777E+03 -0.51548219417E+02  0.84994601653E+03  0.10318553542E+04  0.50400001928E-02 0. -1.
       -1    1    3    3    0  502  0.58280358777E+03  0.51548219417E+02  0.13967773381E+03  0.60152066481E+03  0.50400001928E-02 0.  1.
</event>
<event>
 5   0  0.1823154E-03  0.1299595E+04  0.7818609E-02  0.9029887E-01
       -1   -1    0    0    0  501  0.00000000000E+00  0.00000000000E+00  0.36003122578E+03  0.36003122582E+03  0.50400001928E-02 0.  1.
        1   -1    0    0  501    0  0.00000000000E+00  0.00000000000E+00 -0.11727774293E+04  0.11727774293E+04  0.50400001928E-02 0. -1.
    10030    2    1    2    0    0  0.00000000000E+00  0.00000000000E+00 -0.81274620349E+03  0.15328086551E+04  0.12995945452E+04 0.  0.
        2    1    3    3  502    0 -0.35937231965E+03  0.14908211491E+02  0.23191151307E+03  0.42796456489E+03  0.25500000920E-02 0.  1.
       -2    1    3    3    0  502  0.35937231965E+03 -0.14908211491E+02 -0.10446577166E+04  0.11048440902E+04  0.25500000920E-02 0. -1.
</event>
<event>
 5   0  0.3262927E-03  0.1335133E+04  0.7818609E-02  0.9002159E-01
        2   -1    0    0  501    0  0.00000000000E+00  0.00000000000E+00  0.11353806915E+04  0.11353806915E+04  0.25500000920E-02 0.  1.
       -2   -1    0    0    0  501  0.00000000000E+00  0.00000000000E+00 -0.39250740725E+03  0.39250740726E+03  0.25500000920E-02 0. -1.
    10030    2    1    2    0    0  0.00000000000E+00  0.00000000000E+00  0.74287328421E+03  0.15278880987E+04  0.13351334487E+04 0.  0.
        3    1    3    3  502    0  0.22092615476E+03 -0.20815123344E+03  0.10518420166E+04  0.10947634173E+04  0.10100000352E+00 0.  1.
       -3    1    3    3    0  502 -0.22092615476E+03  0.20815123344E+03 -0.30896873239E+03  0.43312468139E+03  0.10100000352E+00 0. -1.
</event>
<event>
 5   0  0.3262927E-03  0.1309574E+04  0.7818609E-02  0.9022007E-01
       -2   -1    0    0    0  501  0.00000000000E+00  0.00000000000E+00  0.13616119254E+04  0.13616119254E+04  0.25500000920E-02 0.  1.
        2   -1    0    0  501    0  0.00000000000E+00  0.00000000000E+00 -0.31488128618E+03  0.31488128619E+03  0.25500000920E-02 0. -1.
    10030    2    1    2    0    0  0.00000000000E+00  0.00000000000E+00  0.10467306392E+04  0.16764932116E+04  0.13095741512E+04 0.  0.
        3    1    3    3  502    0 -0.43458735707E+03 -0.48772669466E+03  0.58065406397E+03  0.87401524690E+03  0.10100000352E+00 0.  1.
       -3    1    3    3    0  502  0.43458735707E+03  0.48772669466E+03  0.46607657522E+03  0.80247796466E+03  0.10100000352E+00 0. -1.
</event>
<event>
 5   0  0.1873488E-03  0.1301635E+04  0.7818609E-02  0.9028269E-01
        1   -1    0    0  501    0  0.00000000000E+00  0.00000000000E+00  0.87498295819E+03  0.87498295820E+03  0.50400001928E-02 0.  1.
       -1   -1    0    0    0  501  0.00000000000E+00  0.00000000000E+00 -0.48408219322E+03  0.48408219325E+03  0.50400001928E-02 0. -1.
    10030    2    1    2    0    0  0.00000000000E+00  0.00000000000E+00  0.39090076497E+03  0.13590651515E+04  0.13016353859E+04 0.  0.
        3    1    3    3  502    0  0.39354090019E+02  0.18426066226E+03  0.84588254089E+03  0.86661295816E+03  0.10100000352E+00 0.  1.
       -3    1    3    3    0  502 -0.39354090019E+02 -0.18426066226E+03 -0.45498177593E+03  0.49245219330E+03  0.10100000352E+00 0. -1.
</event>
<event>
 5   0  0.3299104E-03  0.1272064E+04  0.7818609E-02  0.9052017E-01
        2   -1    0    0  501    0  0.00000000000E+00  0.00000000000E+00  0.13035476873E+04  0.13035476873E+04  0.25500000920E-02 0.  1.
       -2   -1    0    0    0  501  0.00000000000E+00  0.00000000000E+00 -0.31033511878E+03  0.31033511879E+03  0.25500000920E-02 0. -1.
    10030    2    1    2    0    0  0.00000000000E+00  0.00000000000E+00  0.99321256848E+03  0.16138828061E+04  0.12720638763E+04 0.  0.
        2    1    3    3  502    0 -0.82319368697E+02 -0.17062613079E+03 -0.27370870937E+03  0.33287567133E+03  0.25500000920E-02 0. -1.
       -2    1    3    3    0  502  0.82319368697E+02  0.17062613079E+03  0.12669212778E+04  0.12810071347E+04  0.25500000920E-02 0.  1.
</event>
<event>
 5   0  0.3336609E-03  0.1300822E+04  0.7818609E-02  0.9028914E-01
       -2   -1    0    0    0  501  0.00000000000E+00  0.00000000000E+00  0.75070589264E+03  0.75070589264E+03  0.25500000920E-02 0. -1.
        2   -1    0    0  501    0  0.00000000000E+00  0.00000000000E+00 -0.56351546584E+03  0.56351546584E+03  0.25500000920E-02 0.  1.
    10030    2    1    2    0    0  0.00000000000E+00  0.00000000000E+00  0.18719042680E+03  0.13142213585E+04  0.13008218645E+04 0.  0.
        1    1    3    3  502    0 -0.28511891452E+02  0.59068522553E+01  0.75004709246E+03  0.75061205678E+03  0.50400001928E-02 0. -1.
       -1    1    3    3    0  502  0.28511891452E+02 -0.59068522553E+01 -0.56285666566E+03  0.56360930170E+03  0.50400001928E-02 0.  1.
</event>
<event>
 5   0  0.3259968E-03  0.1296519E+04  0.7818609E-02  0.9032330E-01
        2   -1    0    0  501    0  0.00000000000E+00  0.00000000000E+00  0.71318013367E+03  0.71318013367E+03  0.25500000920E-02 0.  1.
       -2   -1    0    0    0  501  0.00000000000E+00  0.00000000000E+00 -0.58924875569E+03  0.58924875569E+03  0.25500000920E-02 0. -1.
    10030    2    1    2    0    0  0.00000000000E+00  0.00000000000E+00  0.12393137798E+03  0.13024288894E+04  0.12965191959E+04 0.  0.
        4    1    3    3  502    0  0.40189078452E+03 -0.46196085881E+03 -0.15187747436E+03  0.63086640256E+03  0.12699999809E+01 0. -1.
       -4    1    3    3    0  502 -0.40189078452E+03  0.46196085881E+03  0.27580885234E+03  0.67156248681E+03  0.12699999809E+01 0.  1.
</event>
<event>
 5   0  0.1814770E-03  0.1249634E+04  0.7818609E-02  0.9070488E-01
       -1   -1    0    0    0  501  0.00000000000E+00  0.00000000000E+00  0.61363462422E+03  0.61363462424E+03  0.50400001928E-02 0.  1.
        1   -1    0    0  501    0  0.00000000000E+00  0.00000000000E+00 -0.63620289751E+03  0.63620289753E+03  0.50400001928E-02 0. -1.
    10030    2    1    2    0    0  0.00000000000E+00  0.00000000000E+00 -0.22568273286E+02  0.12498375218E+04  0.12496337479E+04 0.  0.
        5    1    3    3  502    0  0.36585589034E+03  0.10491128243E+02  0.49517126277E+03  0.61577371310E+03  0.46999998093E+01 0. -1.
       -5    1    3    3    0  502 -0.36585589034E+03 -0.10491128243E+02 -0.51773953606E+03  0.63406380867E+03  0.46999998093E+01 0.  1.
</event>
<event>
 5   0  0.3336609E-03  0.1286332E+04  0.7818609E-02  0.9040474E-01
        2   -1    0    0  501    0  0.00000000000E+00  0.00000000000E+00  0.10673944558E+04  0.10673944558E+04  0.25500000920E-02 0.  1.
       -2   -1    0    0    0  501  0.00000000000E+00  0.00000000000E+00 -0.38754441518E+03  0.38754441518E+03  0.25500000920E-02 0. -1.
    10030    2    1    2    0    0  0.00000000000E+00  0.00000000000E+00  0.67985004065E+03  0.14549388710E+04  0.12863323990E+04 0.  0.
        1    1    3    3  502    0 -0.84208561278E+02  0.27643207649E+02 -0.38060418685E+03  0.39078737927E+03  0.50400001928E-02 0. -1.
       -1    1    3    3    0  502  0.84208561278E+02 -0.27643207649E+02  0.10604542275E+04  0.10641514917E+04  0.50400001928E-02 0.  1.
</event>
<event>
 5   0  0.3262927E-03  0.1257423E+04  0.7818609E-02  0.9064028E-01
        2   -1    0    0  501    0  0.00000000000E+00  0.00000000000E+00  0.97373615727E+03  0.97373615727E+03  0.25500000920E-02 0. -1.
       -2   -1    0    0    0  501  0.00000000000E+00  0.00000000000E+00 -0.40593947677E+03  0.40593947678E+03  0.25500000920E-02 0.  1.
    10030    2    1    2    0    0  0.00000000000E+00  0.00000000000E+00  0.56779668050E+03  0.13796756341E+04  0.12574226755E+04 0.  0.
        3    1    3    3  502    0  0.39367149974E+03  0.22636173164E+03  0.76098441722E+03  0.88617953977E+03  0.10100000352E+00 0. -1.
       -3    1    3    3    0  502 -0.39367149974E+03 -0.22636173164E+03 -0.19318773672E+03  0.49349609429E+03  0.10100000352E+00 0.  1.
</event>
<event>
 5   0  0.1803959E-03  0.1283135E+04  0.7818609E-02  0.9043047E-01
        1   -1    0    0  501    0  0.00000000000E+00  0.00000000000E+00  0.14265988521E+04  0.14265988521E+04  0.50400001928E-02 0.  1.
       -1   -1    0    0    0  501  0.00000000000E+00  0.00000000000E+00 -0.28852473517E+03  0.28852473522E+03  0.50400001928E-02 0. -1.
    10030    2    1    2    0    0  0.00000000000E+00  0.00000000000E+00  0.11380741169E+04  0.17151235873E+04  0.12831353101E+04 0.  0.
        4    1    3    3  502    0  0.28898912758E+03 -0.21581055562E+03 -0.14017556544E+03  0.38696216071E+03  0.12699999809E+01 0. -1.
       -4    1    3    3    0  502 -0.28898912758E+03  0.21581055562E+03  0.12782496823E+04  0.13281614266E+04  0.12699999809E+01 0.  1.
</event>
<event>
 5   0  0.3294720E-03  0.1293237E+04  0.7818609E-02  0.9034945E-01
        2   -1    0    0  501    0  0.00000000000E+00  0.00000000000E+00  0.56354951687E+03  0.56354951687E+03  0.25500000920E-02 0.  1.
       -2   -1    0    0    0  501  0.00000000000E+00  0.00000000000E+00 -0.74193259597E+03  0.74193259597E+03  0.25500000920E-02 0. -1.
    10030    2    1    2    0    0  0.00000000000E+00  0.00000000000E+00 -0.17838307910E+03  0.13054821128E+04  0.12932374198E+04 0.  0.
        5    1    3    3  502    0  0.62731420930E+02 -0.64175215780E+03 -0.13773639219E+03  0.65937429958E+03  0.46999998093E+01 0.  1.
       -5    1    3    3    0  502 -0.62731420930E+02  0.64175215780E+03 -0.40646686915E+02  0.64610781327E+03  0.46999998093E+01 0. -1.
</event>
<event>
 5   0  0.3299104E-03  0.1106176E+04  0.7818609E-02  0.9199193E-01
       -2   -1    0    0    0  501  0.00000000000E+00  0.00000000000E+00  0.29882363992E+03  0.29882363993E+03  0.25500000920E-02 0.  1.
        2   -1    0    0  501    0  0.00000000000E+00  0.00000000000E+00 -0.10237027568E+04  0.10237027568E+04  0.25500000920E-02 0. -1.
    10030    2    1    2    0    0  0.00000000000E+00  0.00000000000E+00 -0.72487911689E+03  0.13225263967E+04  0.11061764488E+04 0.  0.
        2    1    3    3  502    0  0.18861883456E+03  0.33131318151E+03  0.11663168388E+03  0.39868338150E+03  0.25500000920E-02 0.  1.
       -2    1    3    3    0  502 -0.18861883456E+03 -0.33131318151E+03 -0.84151080077E+03  0.92384301524E+03  0.25500000920E-02 0. -1.
</event>
<event>
 5   0  0.3299104E-03  0.1258854E+04  0.7818609E-02  0.9062846E-01
        2   -1    0    0  501    0  0.00000000000E+00  0.00000000000E+00  0.14161682837E+04  0.14161682837E+04  0.25500000920E-02 0. -1.
       -2   -1    0    0    0  501  0.00000000000E+00  0.00000000000E+00 -0.27975358145E+03  0.27975358146E+03  0.25500000920E-02 0.  1.
    10030    2    1    2    0    0  0.00000000000E+00  0.00000000000E+00  0.11364147022E+04  0.16959218652E+04  0.12588536838E+04 0.  0.
        2    1    3    3  502    0 -0.48415008619E+03 -0.40154437143E+03  0.59948321389E+03  0.86891847254E+03  0.25500000920E-02 0.  1.
       -2    1    3    3    0  502  0.48415008619E+03  0.40154437143E+03  0.53693148835E+03  0.82700339261E+03  0.25500000920E-02 0. -1.
</event>
<event>
 5   0  0.1873488E-03  0.8481074E+03  0.7818609E-02  0.9492881E-01
       -1   -1    0    0    0  501  0.00000000000E+00  0.00000000000E+00  0.26814862889E+03  0.26814862894E+03  0.50400001928E-02 0. -1.
        1   -1    0    0  501    0  0.00000000000E+00  0.00000000000E+00 -0.67060402794E+03  0.67060402796E+03  0.50400001928E-02 0.  1.
    10030    2    1    2    0    0  0.00000000000E+00  0.00000000000E+00 -0.40245539905E+03  0.93875265690E+03  0.84810742398E+03 0.  0.
        3    1    3    3  502    0  0.34572333430E+02 -0.26124932105E+03 -0.56896344121E+03  0.62702939454E+03  0.10100000352E+00 0.  1.
       -3    1    3    3    0  502 -0.34572333430E+02  0.26124932105E+03  0.16650804216E+03  0.31172326236E+03  0.10100000352E+00 0. -1.
</event>
<event>
 5   0  0.1823154E-03  0.1299320E+04  0.7818609E-02  0.9030104E-01
       -1   -1    0    0    0  501  0.00000000000E+00  0.00000000000E+00  0.10644835470E+04  0.10644835470E+04  0.50400001928E-02 0.  1.
        1   -1    0    0  501    0  0.00000000000E+00  0.00000000000E+00 -0.39649108556E+03  0.39649108559E+03  0.50400001928E-02 0. -1.
    10030    2    1    2    0    0  0.00000000000E+00  0.00000000000E+00  0.66799246143E+03  0.14609746326E+04  0.12993201871E+04 0.  0.
        2    1    3    3  502    0  0.62386964700E+03  0.10045053599E+03  0.16438250208E+03  0.65293587252E+03  0.25500000920E-02 0.  1.
       -2    1    3    3    0  502 -0.62386964700E+03 -0.10045053599E+03  0.50360995934E+03  0.80803876007E+03  0.25500000920E-02 0. -1.
</event>
<event>
 5   0  0.3336609E-03  0.1289824E+04  0.7818609E-02  0.9037674E-01
        2   -1    0    0  501    0  0.00000000000E+00  0.00000000000E+00  0.55458780684E+03  0.55458780685E+03  0.25500000920E-02 0. -1.
       -2   -1    0    0    0  501  0.00000000000E+00  0.00000000000E+00 -0.74994745690E+03  0.74994745691E+03  0.25500000920E-02 0.  1.
    10030    2    1    2    0    0  0.00000000000E+00  0.00000000000E+00 -0.19535965006E+03  0.13045352638E+04  0.12898243530E+04 0.  0.
        1    1    3    3  502    0 -0.50803188628E+02 -0.23959175635E+03  0.50572035885E+03  0.56190591300E+03  0.50400001928E-02 0. -1.
       -1    1    3    3    0  502  0.50803188628E+02  0.23959175635E+03 -0.70108000891E+03  0.74262935075E+03  0.50400001928E-02 0.  1.
</event>
<event>
 5   0  0.1254125E-03  0.1389688E+04  0.7818609E-02  0.8961317E-01
        4   -1    0    0  501    0  0.00000000000E+00  0.00000000000E+00  0.10885190283E+04  0.10885197692E+04  0.12699999809E+01 0. -1.
       -4   -1    0    0    0  501  0.00000000000E+00  0.00000000000E+00 -0.44354425711E+03  0.44354607530E+03  0.12699999809E+01 0.  1.
    10030    2    1    2    0    0  0.00000000000E+00  0.00000000000E+00  0.64497477121E+03  0.15320658445E+04  0.13896882011E+04 0.  0.
        3    1    3    3  502    0  0.32023989829E+03  0.29425623221E+03 -0.27494445735E+03  0.51452384539E+03  0.10100000352E+00 0.  1.
       -3    1    3    3    0  502 -0.32023989829E+03 -0.29425623221E+03  0.91991922856E+03  0.10175419991E+04  0.10100000352E+00 0. -1.
</event>
<event>
 5   0  0.1814770E-03  0.1288006E+04  0.7818609E-02  0.9039131E-01
       -1   -1    0    0    0  501  0.00000000000E+00  0.00000000000E+00  0.92903193326E+03  0.92903193327E+03  0.50400001928E-02 0.  1.
        1   -1    0    0  501    0  0.00000000000E+00  0.00000000000E+00 -0.44642156367E+03  0.44642156370E+03  0.50400001928E-02 0. -1.
    10030    2    1    2    0    0  0.00000000000E+00  0.00000000000E+00  0.48261036959E+03  0.13754534970E+04  0.12880060378E+04 0.  0.
        5    1    3    3  502    0 -0.21185879606E+02  0.43810857851E+03 -0.26222658974E+03  0.51105072393E+03  0.46999998093E+01 0. -1.
       -5    1    3    3    0  502  0.21185879606E+02 -0.43810857851E+03  0.74483695933E+03  0.86440277304E+03  0.46999998093E+01 0.  1.
</event>
<event>
 5   0  0.3294720E-03  0.1318066E+04  0.7818609E-02  0.9015360E-01
       -2   -1    0    0    0  501  0.00000000000E+00  0.00000000000E+00  0.73671051038E+03  0.73671051038E+03  0.25500000920E-02 0.  1.
        2   -1    0    0  501    0  0.00000000000E+00  0.00000000000E+00 -0.58954575286E+03  0.58954575287E+03  0.25500000920E-02 0. -1.
    10030    2    1    2    0    0  0.00000000000E+00  0.00000000000E+00  0.14716475751E+03  0.13262562632E+04  0.13180660871E+04 0.  0.
        5    1    3    3  502    0  0.61460711890E+03  0.17336341834E+03  0.23739965964E+03  0.68130571245E+03  0.46999998093E+01 0.  1.
       -5    1    3    3    0  502 -0.61460711890E+03 -0.17336341834E+03 -0.90234902125E+02  0.64495055080E+03  0.46999998093E+01 0. -1.
</event>
<event>
 5   0  0.1823154E-03  0.1271856E+04  0.7818609E-02  0.9052186E-01
        1   -1    0    0  501    0  0.00000000000E+00  0.00000000000E+00  0.63008827431E+03  0.63008827433E+03  0.50400001928E-02 0. -1.
       -1   -1    0    0    0  501  0.00000000000E+00  0.00000000000E+00 -0.64182224296E+03  0.64182224298E+03  0.50400001928E-02 0.  1.
    10030    2    1    2    0    0  0.00000000000E+00  0.00000000000E+00 -0.11733968651E+02  0.12719105173E+04  0.12718563905E+04 0.  0.
        2    1    3    3  502    0  0.57204657468E+01 -0.48324942463E+03  0.40748090889E+03  0.63214193126E+03  0.25500000920E-02 0. -1.
       -2    1    3    3    0  502 -0.57204657468E+01  0.48324942463E+03 -0.41921487754E+03  0.63976858605E+03  0.25500000920E-02 0.  1.
</event>
<event>
 5   0  0.1873488E-03  0.1307392E+04  0.7818609E-02  0.9023724E-01
       -1   -1    0    0    0  501  0.00000000000E+00  0.00000000000E+00  0.73919175738E+03  0.73919175739E+03  0.50400001928E-02 0.  1.
        1   -1    0    0  501    0  0.00000000000E+00  0.00000000000E+00 -0.57808891903E+03  0.57808891905E+03  0.50400001928E-02 0. -1.
    10030    2    1    2    0    0  0.00000000000E+00  0.00000000000E+00  0.16110283835E+03  0.13172806764E+04  0.13073921585E+04 0.  0.
        3    1    3    3  502    0  0.19589319737E+03 -0.38714423984E+03  0.57319100450E+03  0.71888993947E+03  0.10100000352E+00 0.  1.
       -3    1    3    3    0  502 -0.19589319737E+03  0.38714423984E+03 -0.41208816616E+03  0.59839073698E+03  0.10100000352E+00 0. -1.
</event>
<event>
 5   0  0.1873488E-03  0.1319061E+04  0.7818609E-02  0.9014585E-01
        1   -1    0    0  501    0  0.00000000000E+00  0.00000000000E+00  0.80232833357E+03  0.80232833358E+03  0.50400001928E-02 0. -1.
       -1   -1    0    0    0  501  0.00000000000E+00  0.00000000000E+00 -0.54214734533E+03  0.54214734536E+03  0.50400001928E-02 0.  1.
    10030    2    1    2    0    0  0.00000000000E+00  0.00000000000E+00  0.26018098823E+03  0.13444756789E+04  0.13190605387E+04 0.  0.
        3    1    3    3  502    0 -0.33588338184E+03 -0.89041407055E+02  0.70145717526E+03  0.78280789297E+03  0.10100000352E+00 0. -1.
       -3    1    3    3    0  502  0.33588338184E+03  0.89041407055E+02 -0.44127618703E+03  0.56166778598E+03  0.10100000352E+00 0.  1.
</event>
<event>
 5   0  0.3299104E-03  0.1309069E+04  0.7818609E-02  0.9022404E-01
        2   -1    0    0  501    0  0.00000000000E+00  0.00000000000E+00  0.80127410202E+03  0.80127410202E+03  0.25500000920E-02 0. -1.
       -2   -1    0    0    0  501  0.00000000000E+00  0.00000000000E+00 -0.53466795892E+03  0.53466795892E+03  0.25500000920E-02 0.  1.
    10030    2    1    2    0    0  0.00000000000E+00  0.00000000000E+00  0.26660614310E+03  0.13359420609E+04  0.13090692704E+04 0.  0.
        2    1    3    3  502    0  0.73428742686E+02 -0.13439118305E+03 -0.51612726296E+03  0.53836801717E+03  0.25500000920E-02 0.  1.
       -2    1    3    3    0  502 -0.73428742686E+02  0.13439118305E+03  0.78273340606E+03  0.79757404377E+03  0.25500000920E-02 0. -1.
</event>
<event>
 5   0  0.3336609E-03  0.1308650E+04  0.7818609E-02  0.9022733E-01
       -2   -1    0    0    0  501  0.00000000000E+00  0.00000000000E+00  0.38136357730E+03  0.38136357731E+03  0.25500000920E-02 0.  1.
        2   -1    0    0  501    0  0.00000000000E+00  0.00000000000E+00 -0.11226592851E+04  0.11226592851E+04  0.25500000920E-02 0. -1.
    10030    2    1    2    0    0  0.00000000000E+00  0.00000000000E+00 -0.74129570775E+03  0.15040228624E+04  0.13086502375E+04 0.  0.
        1    1    3    3  502    0  0.60231853586E+03  0.25017306568E+03 -0.31019044610E+03  0.72221346866E+03  0.50400001928E-02 0.  1.
       -1    1    3    3    0  502 -0.60231853586E+03 -0.25017306568E+03 -0.43110526165E+03  0.78180939370E+03  0.50400001928E-02 0. -1.
</event>
<event>
 5   0  0.1857986E-03  0.1402920E+04  0.7818609E-02  0.8951707E-01
       -1   -1    0    0    0  501  0.00000000000E+00  0.00000000000E+00  0.10330895263E+04  0.10330895263E+04  0.50400001928E-02 0. -1.
        1   -1    0    0  501    0  0.00000000000E+00  0.00000000000E+00 -0.47628627763E+03  0.47628627766E+03  0.50400001928E-02 0.  1.
    10030    2    1    2    0    0  0.00000000000E+00  0.00000000000E+00  0.55680324865E+03  0.15093758039E+04  0.14029203327E+04 0.  0.
        1    1    3    3  502    0 -0.23305627295E+03  0.32222812870E+02 -0.43257022337E+03  0.49241297120E+03  0.50400001928E-02 0.  1.
       -1    1    3    3    0  502  0.23305627295E+03 -0.32222812870E+02  0.98937347202E+03  0.10169628327E+04  0.50400001928E-02 0. -1.
</event>
<event>
 5   0  0.3336609E-03  0.1297263E+04  0.7818609E-02  0.9031738E-01
       -2   -1    0    0    0  501  0.00000000000E+00  0.00000000000E+00  0.11458825337E+04  0.11458825337E+04  0.25500000920E-02 0. -1.
        2   -1    0    0  501    0  0.00000000000E+00  0.00000000000E+00 -0.36716054534E+03  0.36716054535E+03  0.25500000920E-02 0.  1.
    10030    2    1    2    0    0  0.00000000000E+00  0.00000000000E+00  0.77872198837E+03  0.15130430791E+04  0.12972630512E+04 0.  0.
        1    1    3    3  502    0 -0.34102268455E+03  0.25245335415E+03  0.96157119525E+03  0.10510225169E+04  0.50400001928E-02 0. -1.
       -1    1    3    3    0  502  0.34102268455E+03 -0.25245335415E+03 -0.18284920688E+03  0.46202056219E+03  0.50400001928E-02 0.  1.
</event>
<event>
 5   0  0.3336609E-03  0.1273139E+04  0.7818609E-02  0.9051142E-01
       -2   -1    0    0    0  501  0.00000000000E+00  0.00000000000E+00  0.58391574778E+03  0.58391574779E+03  0.25500000920E-02 0. -1.
        2   -1    0    0  501    0  0.00000000000E+00  0.00000000000E+00 -0.69397081822E+03  0.69397081822E+03  0.25500000920E-02 0.  1.
    10030    2    1    2    0    0  0.00000000000E+00  0.00000000000E+00 -0.11005507044E+03  0.12778865660E+04  0.12731386244E+04 0.  0.
        1    1    3    3  502    0  0.16839344555E+03  0.58012381726E+03 -0.25657601627E+03  0.65630118696E+03  0.50400001928E-02 0.  1.
       -1    1    3    3    0  502 -0.16839344555E+03 -0.58012381726E+03  0.14652094583E+03  0.62158537905E+03  0.50400001928E-02 0. -1.
</event>
<event>
 5   0  0.3294720E-03  0.1302988E+04  0.7818609E-02  0.9027199E-01
        2   -1    0    0  501    0  0.00000000000E+00  0.00000000000E+00  0.65730604698E+03  0.65730604698E+03  0.25500000920E-02 0. -1.
       -2   -1    0    0    0  501  0.00000000000E+00  0.00000000000E+00 -0.64573330676E+03  0.64573330676E+03  0.25500000920E-02 0.  1.
    10030    2    1    2    0    0  0.00000000000E+00  0.00000000000E+00  0.11572740221E+02  0.13030393537E+04  0.13029879620E+04 0.  0.
        5    1    3    3  502    0 -0.61033572220E+03 -0.28184948897E+02  0.23188870220E+03  0.65352776937E+03  0.46999998093E+01 0. -1.
       -5    1    3    3    0  502  0.61033572220E+03  0.28184948897E+02 -0.22031596198E+03  0.64951158437E+03  0.46999998093E+01 0.  1.
</event>
<event>
 5   0  0.3262927E-03  0.1293709E+04  0.7818609E-02  0.9034569E-01
        2   -1    0    0  501    0  0.00000000000E+00  0.00000000000E+00  0.74043892186E+03  0.74043892186E+03  0.25500000920E-02 0. -1.
       -2   -1    0    0    0  501  0.00000000000E+00  0.00000000000E+00 -0.56509821144E+03  0.56509821144E+03  0.25500000920E-02 0.  1.
    10030    2    1    2    0    0  0.00000000000E+00  0.00000000000E+00  0.17534071042E+03  0.13055371333E+04  0.12937089478E+04 0.  0.
        3    1    3    3  502    0 -0.28944081671E+03 -0.11646396139E+03 -0.48415032194E+03  0.57596995158E+03  0.10100000352E+00 0.  1.
       -3    1    3    3    0  502  0.28944081671E+03  0.11646396139E+03  0.65949103236E+03  0.72956718172E+03  0.10100000352E+00 0. -1.
</event>
<event>
 5   0  0.1803959E-03  0.1259558E+04  0.7818609E-02  0.9062266E-01
        1   -1    0    0  501    0  0.00000000000E+00  0.00000000000E+00  0.38738894780E+03  0.38738894783E+03  0.50400001928E-02 0.  1.
       -1   -1    0    0    0  501  0.00000000000E+00  0.00000000000E+00 -0.10238323642E+04  0.10238323642E+04  0.50400001928E-02 0. -1.
    10030    2    1    2    0    0  0.00000000000E+00  0.00000000000E+00 -0.63644341640E+03  0.14112213120E+04  0.12595576086E+04 0.  0.
        4    1    3    3  502    0 -0.35811026212E+02 -0.20465038749E+03 -0.98432943933E+03  0.10060170320E+04  0.12699999809E+01 0. -1.
       -4    1    3    3    0  502  0.35811026212E+02  0.20465038749E+03  0.34788602293E+03  0.40520428002E+03  0.12699999809E+01 0.  1.
</event>
<event>
 5   0  0.1857986E-03  0.1286502E+04  0.7818609E-02  0.9040338E-01
       -1   -1    0    0    0  501  0.00000000000E+00  0.00000000000E+00  0.49415568320E+03  0.49415568323E+03  0.50400001928E-02 0.  1.
        1   -1    0    0  501    0  0.00000000000E+00  0.00000000000E+00 -0.83733051442E+03  0.83733051444E+03  0.50400001928E-02 0. -1.
    10030    2    1    2    0    0  0.00000000000E+00  0.00000000000E+00 -0.34317483122E+03  0.13314861977E+04  0.12865016633E+04 0.  0.
        1    1    3    3  502    0 -0.46375916089E+03 -0.42371196299E+03 -0.31487421104E+03  0.70267357691E+03  0.50400001928E-02 0.  1.
       -1    1    3    3    0  502  0.46375916089E+03  0.42371196299E+03 -0.28300620185E+02  0.62881262075E+03  0.50400001928E-02 0. -1.
</event>
<event>
 5   0  0.1857986E-03  0.1121500E+04  0.7818609E-02  0.9184487E-01
        1   -1    0    0  501    0  0.00000000000E+00  0.00000000000E+00  0.58653116283E+03  0.58653116285E+03  0.50400001928E-02 0. -1.
       -1   -1    0    0    0  501  0.00000000000E+00  0.00000000000E+00 -0.53610165082E+03  0.53610165084E+03  0.50400001928E-02 0.  1.
    10030    2    1    2    0    0  0.00000000000E+00  0.00000000000E+00  0.50429512013E+02  0.11226328137E+04  0.11214995759E+04 0.  0.
        1    1    3    3  502    0  0.40185296721E+02 -0.97720068817E+02 -0.52604694719E+03  0.53655331570E+03  0.50400001928E-02 0.  1.
       -1    1    3    3    0  502 -0.40185296721E+02  0.97720068817E+02  0.57647645920E+03  0.58607949799E+03  0.50400001928E-02 0. -1.
</event>
<event>
 5   0  0.3294720E-03  0.1306492E+04  0.7818609E-02  0.9024433E-01
       -2   -1    0    0    0  501  0.00000000000E+00  0.00000000000E+00  0.28457540026E+03  0.28457540027E+03  0.25500000920E-02 0.  1.
        2   -1    0    0  501    0  0.00000000000E+00  0.00000000000E+00 -0.14995328346E+04  0.14995328346E+04  0.25500000920E-02 0. -1.
    10030    2    1    2    0    0  0.00000000000E+00  0.00000000000E+00 -0.12149574344E+04  0.17841082349E+04  0.13064917246E+04 0.  0.
        5    1    3    3  502    0 -0.16301699256E+03  0.25527857069E+03 -0.13978208657E+04  0.14302681396E+04  0.46999998093E+01 0. -1.
       -5    1    3    3    0  502  0.16301699256E+03 -0.25527857069E+03  0.18286343135E+03  0.35384009530E+03  0.46999998093E+01 0.  1.
</event>
<event>
 5   0  0.3336609E-03  0.1261009E+04  0.7818609E-02  0.9061070E-01
       -2   -1    0    0    0  501  0.00000000000E+00  0.00000000000E+00  0.18773380020E+03  0.18773380022E+03  0.25500000920E-02 0. -1.
        2   -1    0    0  501    0  0.00000000000E+00  0.00000000000E+00 -0.21175525685E+04  0.21175525685E+04  0.25500000920E-02 0.  1.
    10030    2    1    2    0    0  0.00000000000E+00  0.00000000000E+00 -0.19298187683E+04  0.23052863687E+04  0.12610094224E+04 0.  0.
        1    1    3    3  502    0  0.52506676162E+03 -0.15052714073E+03 -0.15406467821E+04  0.16346088314E+04  0.50400001928E-02 0.  1.
       -1    1    3    3    0  502 -0.52506676162E+03  0.15052714073E+03 -0.38917198615E+03  0.67067753733E+03  0.50400001928E-02 0. -1.
</event>
<event>
 5   0  0.1814770E-03  0.1269557E+04  0.7818609E-02  0.9054061E-01
       -1   -1    0    0    0  501  0.00000000000E+00  0.00000000000E+00  0.17998790820E+04  0.17998790820E+04  0.50400001928E-02 0.  1.
        1   -1    0    0  501    0  0.00000000000E+00  0.00000000000E+00 -0.22387271250E+03  0.22387271256E+03  0.50400001928E-02 0. -1.
    10030    2    1    2    0    0  0.00000000000E+00  0.00000000000E+00  0.15760063695E+04  0.20237517946E+04  0.12695571076E+04 0.  0.
        5    1    3    3  502    0  0.26850367721E+03  0.49765885947E+03  0.12476989363E+04  0.13698661580E+04  0.46999998093E+01 0.  1.
       -5    1    3    3    0  502 -0.26850367721E+03 -0.49765885947E+03  0.32830743321E+03  0.65388563663E+03  0.46999998093E+01 0. -1.
</event>
<event>
 5   0  0.1873488E-03  0.1312571E+04  0.7818609E-02  0.9019655E-01
        1   -1    0    0  501    0  0.00000000000E+00  0.00000000000E+00  0.16246552435E+04  0.16246552435E+04  0.50400001928E-02 0. -1.
       -1   -1    0    0    0  501  0.00000000000E+00  0.00000000000E+00 -0.26510883907E+03  0.26510883912E+03  0.50400001928E-02 0.  1.
    10030    2    1    2    0    0  0.00000000000E+00  0.00000000000E+00  0.13595464044E+04  0.18897640826E+04  0.13125707075E+04 0.  0.
        3    1    3    3  502    0 -0.15040301167E+03  0.50217338794E+03  0.11128213096E+03  0.53589448621E+03  0.10100000352E+00 0.  1.
       -3    1    3    3    0  502  0.15040301167E+03 -0.50217338794E+03  0.12482642734E+04  0.13538695964E+04  0.10100000352E+00 0. -1.
</event>
<event>
 5   0  0.3336609E-03  0.1261631E+04  0.7818609E-02  0.9060558E-01
       -2   -1    0    0    0  501  0.00000000000E+00  0.00000000000E+00  0.11630336395E+04  0.11630336395E+04  0.25500000920E-02 0.  1.
        2   -1    0    0  501    0  0.00000000000E+00  0.00000000000E+00 -0.34214679296E+03  0.34214679297E+03  0.25500000920E-02 0. -1.
    10030    2    1    2    0    0  0.00000000000E+00  0.00000000000E+00  0.82088684650E+03  0.15051804324E+04  0.12616310552E+04 0.  0.
        1    1    3    3  502    0  0.39958993267E+03 -0.45592196569E+03  0.20245906918E+03  0.63916087788E+03  0.50400001928E-02 0.  1.
       -1    1    3    3    0  502 -0.39958993267E+03  0.45592196569E+03  0.61842777732E+03  0.86601955456E+03  0.50400001928E-02 0. -1.
</event>
<event>
 5   0  0.1857986E-03  0.1353803E+04  0.7818609E-02  0.8987954E-01
       -1   -1    0    0    0  501  0.00000000000E+00  0.00000000000E+00  0.23543376047E+03  0.23543376052E+03  0.50400001928E-02 0. -1.
        1   -1    0    0  501    0  0.00000000000E+00  0.00000000000E+00 -0.19461764172E+04  0.19461764173E+04  0.50400001928E-02 0.  1.
    10030    2    1    2    0    0  0.00000000000E+00  0.00000000000E+00 -0.17107426568E+04  0.21816101778E+04  0.13538029879E+04 0.  0.
        1    1    3    3  502    0 -0.59935380175E+03  0.24400934932E+03 -0.11753607109E+04  0.13417296088E+04  0.50400001928E-02 0.  1.
       -1    1    3    3    0  502  0.59935380175E+03 -0.24400934932E+03 -0.53538194584E+03  0.83988056900E+03  0.50400001928E-02 0. -1.
</event>
<event>
 5   0  0.1823154E-03  0.1298659E+04  0.7818609E-02  0.9030629E-01
        1   -1    0    0  501    0  0.00000000000E+00  0.00000000000E+00  0.82000067870E+03  0.82000067872E+03  0.50400001928E-02 0. -1.
       -1   -1    0    0    0  501  0.00000000000E+00  0.00000000000E+00 -0.51418112992E+03  0.51418112995E+03  0.50400001928E-02 0.  1.
    10030    2    1    2    0    0  0.00000000000E+00  0.00000000000E+00  0.30581954878E+03  0.13341818087E+04  0.12986591170E+04 0.  0.
        2    1    3    3  502    0  0.34942489719E+03  0.34130212562E+03  0.59244892665E+03  0.76784153992E+03  0.25500000920E-02 0. -1.
       -2    1    3    3    0  502 -0.34942489719E+03 -0.34130212562E+03 -0.28662937788E+03  0.56634026874E+03  0.25500000920E-02 0.  1.
</event>
<event>
 5   0  0.1803959E-03  0.1318144E+04  0.7818609E-02  0.9015300E-01
        1   -1    0    0  501    0  0.00000000000E+00  0.00000000000E+00  0.67957612476E+03  0.67957612478E+03  0.50400001928E-02 0.  1.
       -1   -1    0    0    0  501  0.00000000000E+00  0.00000000000E+00 -0.63918618074E+03  0.63918618076E+03  0.50400001928E-02 0. -1.
    10030    2    1    2    0    0  0.00000000000E+00  0.00000000000E+00  0.40389944022E+02  0.13187623055E+04  0.13181436458E+04 0.  0.
        4    1    3    3  502    0  0.36195259000E+03  0.54941192269E+03  0.59083726610E+02  0.66057220488E+03  0.12699999809E+01 0. -1.
       -4    1    3    3    0  502 -0.36195259000E+03 -0.54941192269E+03 -0.18693782588E+02  0.65819010066E+03  0.12699999809E+01 0.  1.
</event>
<event>
 5   0  0.1823154E-03  0.1298376E+04  0.7818609E-02  0.9030854E-01
        1   -1    0    0  501    0  0.00000000000E+00  0.00000000000E+00  0.22404683604E+04  0.22404683604E+04  0.50400001928E-02 0.  1.
       -1   -1    0    0    0  501  0.00000000000E+00  0.00000000000E+00 -0.18810566809E+03  0.18810566816E+03  0.50400001928E-02 0. -1.
    10030    2    1    2    0    0  0.00000000000E+00  0.00000000000E+00  0.20523626923E+04  0.24285740286E+04  0.12983755972E+04 0.  0.
        2    1    3    3  502    0  0.41063950678E+03  0.27871538248E+03  0.18089633970E+04  0.18758079968E+04  0.25500000920E-02 0.  1.
       -2    1    3    3    0  502 -0.41063950678E+03 -0.27871538248E+03  0.24339929528E+03  0.55276603180E+03  0.25500000920E-02 0. -1.
</event>
<event>
 5   0  0.1857986E-03  0.1242972E+04  0.7818609E-02  0.9076053E-01
       -1   -1    0    0    0  501  0.00000000000E+00  0.00000000000E+00  0.21611696167E+03  0.21611696173E+03  0.50400001928E-02 0.  1.
        1   -1    0    0  501    0  0.00000000000E+00  0.00000000000E+00 -0.17872039210E+04  0.17872039210E+04  0.50400001928E-02 0. -1.
    10030    2    1    2    0    0  0.00000000000E+00  0.00000000000E+00 -0.15710869593E+04  0.20033208827E+04  0.12429723752E+04 0.  0.
        1    1    3    3  502    0 -0.15942708633E+03  0.12524209294E+03 -0.17324089169E+04  0.17442314161E+04  0.50400001928E-02 0. -1.
       -1    1    3    3    0  502  0.15942708633E+03 -0.12524209294E+03  0.16132195754E+03  0.25908946662E+03  0.50400001928E-02 0.  1.
</event>
<event>
 5   0  0.1873488E-03  0.1465491E+04  0.7818609E-02  0.8907731E-01
        1   -1    0    0  501    0  0.00000000000E+00  0.00000000000E+00  0.14319302862E+04  0.14319302862E+04  0.50400001928E-02 0. -1.
       -1   -1    0    0    0  501  0.00000000000E+00  0.00000000000E+00 -0.37495938330E+03  0.37495938333E+03  0.50400001928E-02 0.  1.
    10030    2    1    2    0    0  0.00000000000E+00  0.00000000000E+00  0.10569709029E+04  0.18068896696E+04  0.14654906306E+04 0.  0.
        3    1    3    3  502    0  0.13640270557E+03 -0.71755804683E+03  0.45637645283E+03  0.86126344724E+03  0.10100000352E+00 0. -1.
       -3    1    3    3    0  502 -0.13640270557E+03  0.71755804683E+03  0.60059445008E+03  0.94562622231E+03  0.10100000352E+00 0.  1.
</event>
<event>
 5   0  0.1803959E-03  0.1333775E+04  0.7818609E-02  0.9003202E-01
        1   -1    0    0  501    0  0.00000000000E+00  0.00000000000E+00  0.11945749524E+04  0.11945749525E+04  0.50400001928E-02 0.  1.
       -1   -1    0    0    0  501  0.00000000000E+00  0.00000000000E+00 -0.37229886552E+03  0.37229886555E+03  0.50400001928E-02 0. -1.
    10030    2    1    2    0    0  0.00000000000E+00  0.00000000000E+00  0.82227608693E+03  0.15668738180E+04  0.13337749430E+04 0.  0.
        4    1    3    3  502    0  0.63421019349E+03 -0.18656257998E+03  0.30799168534E+03  0.72930697030E+03  0.12699999809E+01 0. -1.
       -4    1    3    3    0  502 -0.63421019349E+03  0.18656257998E+03  0.51428440158E+03  0.83756684772E+03  0.12699999809E+01 0.  1.
</event>
<event>
 5   0  0.3262927E-03  0.1300236E+04  0.7818609E-02  0.9029378E-01
       -2   -1    0    0    0  501  0.00000000000E+00  0.00000000000E+00  0.40759648113E+03  0.40759648114E+03  0.25500000920E-02 0.  1.
        2   -1    0    0  501    0  0.00000000000E+00  0.00000000000E+00 -0.10369411571E+04  0.10369411571E+04  0.25500000920E-02 0. -1.
    10030    2    1    2    0    0  0.00000000000E+00  0.00000000000E+00 -0.62934467601E+03  0.14445376383E+04  0.13002362351E+04 0.  0.
        3    1    3    3  502    0  0.52576945775E+03 -0.30557410745E+03 -0.59280808722E+02  0.61100186770E+03  0.10100000352E+00 0. -1.
       -3    1    3    3    0  502 -0.52576945775E+03  0.30557410745E+03 -0.57006386729E+03  0.83353577058E+03  0.10100000352E+00 0.  1.
</event>
<event>
 5   0  0.1823154E-03  0.1304213E+04  0.7818609E-02  0.9026231E-01
        1   -1    0    0  501    0  0.00000000000E+00  0.00000000000E+00  0.10524696401E+04  0.10524696401E+04  0.50400001928E-02 0.  1.
       -1   -1    0    0    0  501  0.00000000000E+00  0.00000000000E+00 -0.40404291049E+03  0.40404291052E+03  0.50400001928E-02 0. -1.
    10030    2    1    2    0    0  0.00000000000E+00  0.00000000000E+00  0.64842672957E+03  0.14565125506E+04  0.13042130142E+04 0.  0.
        2    1    3    3  502    0 -0.46972781201E+03  0.43181919499E+03  0.47458811831E+03  0.79520180872E+03  0.25500000920E-02 0. -1.
       -2    1    3    3    0  502  0.46972781201E+03 -0.43181919499E+03  0.17383861127E+03  0.66131074187E+03  0.25500000920E-02 0.  1.
</event>
<event>
 5   0  0.1873488E-03  0.1285633E+04  0.7818609E-02  0.9041036E-01
       -1   -1    0    0    0  501  0.00000000000E+00  0.00000000000E+00  0.76731358502E+03  0.76731358504E+03  0.50400001928E-02 0. -1.
        1   -1    0    0  501    0  0.00000000000E+00  0.00000000000E+00 -0.53851953796E+03  0.53851953799E+03  0.50400001928E-02 0.  1.
    10030    2    1    2    0    0  0.00000000000E+00  0.00000000000E+00  0.22879404705E+03  0.13058331230E+04  0.12856334739E+04 0.  0.
        3    1    3    3  502    0  0.48549236430E+03 -0.20842457163E+03 -0.25751125242E+03  0.58775479001E+03  0.10100000352E+00 0.  1.
       -3    1    3    3    0  502 -0.48549236430E+03  0.20842457163E+03  0.48630529947E+03  0.71807833302E+03  0.10100000352E+00 0. -1.
</event>
<event>
 5   0  0.1823154E-03  0.1311194E+04  0.7818609E-02  0.9020735E-01
       -1   -1    0    0    0  501  0.00000000000E+00  0.00000000000E+00  0.82144088625E+03  0.82144088626E+03  0.50400001928E-02 0.  1.
        1   -1    0    0  501    0  0.00000000000E+00  0.00000000000E+00 -0.52323614778E+03  0.52323614781E+03  0.50400001928E-02 0. -1.
    10030    2    1    2    0    0  0.00000000000E+00  0.00000000000E+00  0.29820473846E+03  0.13446770341E+04  0.13111942114E+04 0.  0.
        2    1    3    3  502    0 -0.12084037961E+03 -0.50244006166E+03  0.56283871433E+03  0.76409150712E+03  0.25500000920E-02 0.  1.
       -2    1    3    3    0  502  0.12084037961E+03  0.50244006166E+03 -0.26463397586E+03  0.58058552694E+03  0.25500000920E-02 0. -1.
</event>
<event>
 5   0  0.3336609E-03  0.1363696E+04  0.7818609E-02  0.8980525E-01
        2   -1    0    0  501    0  0.00000000000E+00  0.00000000000E+00  0.20991313423E+03  0.20991313424E+03  0.25500000920E-02 0. -1.
       -2   -1    0    0    0  501  0.00000000000E+00  0.00000000000E+00 -0.22148054776E+04  0.22148054776E+04  0.25500000920E-02 0.  1.
    10030    2    1    2    0    0  0.00000000000E+00  0.00000000000E+00 -0.20048923434E+04  0.24247186118E+04  0.13636960945E+04 0.  0.
        1    1    3    3  502    0  0.20673440186E+03  0.49017016558E+03 -0.17608020497E+04  0.18394101670E+04  0.50400001928E-02 0.  1.
       -1    1    3    3    0  502 -0.20673440186E+03 -0.49017016558E+03 -0.24409029366E+03  0.58530844485E+03  0.50400001928E-02 0. -1.
</event>
<event>
 5   0  0.1857986E-03  0.1255566E+04  0.7818609E-02  0.9065563E-01
       -1   -1    0    0    0  501  0.00000000000E+00  0.00000000000E+00  0.86412303568E+03  0.86412303570E+03  0.50400001928E-02 0.  1.
        1   -1    0    0  501    0  0.00000000000E+00  0.00000000000E+00 -0.45608284139E+03  0.45608284142E+03  0.50400001928E-02 0. -1.
    10030    2    1    2    0    0  0.00000000000E+00  0.00000000000E+00  0.40804019429E+03  0.13202058771E+04  0.12555663096E+04 0.  0.
        1    1    3    3  502    0  0.19634884140E+03  0.90691840937E+02 -0.41567140291E+03  0.46857293217E+03  0.50400001928E-02 0. -1.
       -1    1    3    3    0  502 -0.19634884140E+03 -0.90691840937E+02  0.82371159720E+03  0.85163294495E+03  0.50400001928E-02 0.  1.
</event>
<event>
 5   0  0.3299104E-03  0.1371986E+04  0.7818609E-02  0.8974350E-01
        2   -1    0    0  501    0  0.00000000000E+00  0.00000000000E+00  0.10570429397E+04  0.10570429397E+04  0.25500000920E-02 0.  1.
       -2   -1    0    0    0  501  0.00000000000E+00  0.00000000000E+00 -0.44519121413E+03  0.44519121414E+03  0.25500000920E-02 0. -1.
    10030    2    1    2    0    0  0.00000000000E+00  0.00000000000E+00  0.61185172552E+03  0.15022341538E+04  0.13719857575E+04 0.  0.
        2    1    3    3  502    0  0.41467179177E+03  0.60992549728E+02 -0.28868838842E+03  0.50893395606E+03  0.25500000920E-02 0. -1.
       -2    1    3    3    0  502 -0.41467179177E+03 -0.60992549728E+02  0.90054011394E+03  0.99330019774E+03  0.25500000920E-02 0.  1.
</event>
<event>
 5   0  0.1814770E-03  0.1276432E+04  0.7818609E-02  0.9048466E-01
        1   -1    0    0  501    0  0.00000000000E+00  0.00000000000E+00  0.19903445934E+04  0.19903445934E+04  0.50400001928E-02 0.  1.
       -1   -1    0    0    0  501  0.00000000000E+00  0.00000000000E+00 -0.20464789288E+03  0.20464789294E+03  0.50400001928E-02 0. -1.
    10030    2    1    2    0    0  0.00000000000E+00  0.00000000000E+00  0.17856967005E+04  0.21949924864E+04  0.12764322579E+04 0.  0.
        5    1    3    3  502    0 -0.44903620624E+03 -0.12937957617E+03  0.14540178179E+03  0.48942451654E+03  0.46999998093E+01 0. -1.
       -5    1    3    3    0  502  0.44903620624E+03  0.12937957617E+03  0.16402949188E+04  0.17055679698E+04  0.46999998093E+01 0.  1.
</event>
<event>
 5   0  0.1803959E-03  0.1308130E+04  0.7818609E-02  0.9023143E-01
       -1   -1    0    0    0  501  0.00000000000E+00  0.00000000000E+00  0.13186984715E+04  0.13186984715E+04  0.50400001928E-02 0. -1.
        1   -1    0    0  501    0  0.00000000000E+00  0.00000000000E+00 -0.32441165769E+03  0.32441165773E+03  0.50400001928E-02 0.  1.
    10030    2    1    2    0    0  0.00000000000E+00  0.00000000000E+00  0.99428681380E+03  0.16431101292E+04  0.13081302033E+04 0.  0.
        4    1    3    3  502    0 -0.63544946921E+03  0.97401454836E+02  0.64848080195E+03  0.91313308708E+03  0.12699999809E+01 0. -1.
       -4    1    3    3    0  502  0.63544946921E+03 -0.97401454836E+02  0.34580601185E+03  0.72997704214E+03  0.12699999809E+01 0.  1.
</event>
<event>
 5   0  0.1873488E-03  0.1158556E+04  0.7818609E-02  0.9149927E-01
        1   -1    0    0  501    0  0.00000000000E+00  0.00000000000E+00  0.70792030666E+03  0.70792030668E+03  0.50400001928E-02 0. -1.
       -1   -1    0    0    0  501  0.00000000000E+00  0.00000000000E+00 -0.47401206070E+03  0.47401206073E+03  0.50400001928E-02 0.  1.
    10030    2    1    2    0    0  0.00000000000E+00  0.00000000000E+00  0.23390824596E+03  0.11819323674E+04  0.11585555893E+04 0.  0.
        3    1    3    3  502    0 -0.57695824615E+03 -0.51713582739E+02  0.11977408919E+03  0.59152426416E+03  0.10100000352E+00 0.  1.
       -3    1    3    3    0  502  0.57695824615E+03  0.51713582739E+02  0.11413415677E+03  0.59040810325E+03  0.10100000352E+00 0. -1.
</event>
<event>
 5   0  0.1254125E-03  0.1302500E+04  0.7818609E-02  0.9027585E-01
        3   -1    0    0  501    0  0.00000000000E+00  0.00000000000E+00  0.49068425567E+03  0.49068426607E+03  0.10100000352E+00 0.  1.
       -3   -1    0    0    0  501  0.00000000000E+00  0.00000000000E+00 -0.86435770824E+03  0.86435771414E+03  0.10100000352E+00 0. -1.
    10030    2    1    2    0    0  0.00000000000E+00  0.00000000000E+00 -0.37367345256E+03  0.13550419802E+04  0.13025002568E+04 0.  0.
        1    1    3    3  502    0 -0.25596198428E+03  0.54929926263E+03 -0.43495381833E+03  0.74594305509E+03  0.50400001928E-02 0. -1.
       -1    1    3    3    0  502  0.25596198428E+03 -0.54929926263E+03  0.61280365766E+02  0.60909892512E+03  0.50400001928E-02 0.  1.
</event>
<event>
 5   0  0.3262927E-03  0.1242434E+04  0.7818609E-02  0.9076504E-01
       -2   -1    0    0    0  501  0.00000000000E+00  0.00000000000E+00  0.35544979885E+03  0.35544979886E+03  0.25500000920E-02 0. -1.
        2   -1    0    0  501    0  0.00000000000E+00  0.00000000000E+00 -0.10856963277E+04  0.10856963277E+04  0.25500000920E-02 0.  1.
    10030    2    1    2    0    0  0.00000000000E+00  0.00000000000E+00 -0.73024652880E+03  0.14411461265E+04  0.12424339681E+04 0.  0.
        3    1    3    3  502    0  0.60888604998E+03 -0.65908030331E+02 -0.24444267116E+03  0.65942271724E+03  0.10100000352E+00 0.  1.
       -3    1    3    3    0  502 -0.60888604998E+03  0.65908030331E+02 -0.48580385764E+03  0.78172340928E+03  0.10100000352E+00 0. -1.
</event>
<event>
 5   0  0.3259968E-03  0.1301669E+04  0.7818609E-02  0.9028242E-01
       -2   -1    0    0    0  501  0.00000000000E+00  0.00000000000E+00  0.49664537544E+03  0.49664537545E+03  0.25500000920E-02 0. -1.
        2   -1    0    0  501    0  0.00000000000E+00  0.00000000000E+00 -0.85289372834E+03  0.85289372835E+03  0.25500000920E-02 0.  1.
    10030    2    1    2    0    0  0.00000000000E+00  0.00000000000E+00 -0.35624835290E+03  0.13495391038E+04  0.13016692759E+04 0.  0.
        4    1    3    3  502    0  0.27989411401E+03  0.57482490992E+03 -0.30433739203E+03  0.70808703787E+03  0.12699999809E+01 0.  1.
       -4    1    3    3    0  502 -0.27989411401E+03 -0.57482490992E+03 -0.51910960869E+02  0.64145206592E+03  0.12699999809E+01 0. -1.
</event>
<event>
 5   0  0.1803959E-03  0.1297363E+04  0.7818609E-02  0.9031659E-01
        1   -1    0    0  501    0  0.00000000000E+00  0.00000000000E+00  0.46830423156E+03  0.46830423159E+03  0.50400001928E-02 0. -1.
       -1   -1    0    0    0  501  0.00000000000E+00  0.00000000000E+00 -0.89853447314E+03  0.89853447316E+03  0.50400001928E-02 0.  1.
    10030    2    1    2    0    0  0.00000000000E+00  0.00000000000E+00 -0.43023024158E+03  0.13668387047E+04  0.12973627033E+04 0.  0.
        4    1    3    3  502    0  0.99287106405E+02  0.14255099484E+02  0.46008310788E+03  0.47089193709E+03  0.12699999809E+01 0. -1.
       -4    1    3    3    0  502 -0.99287106405E+02 -0.14255099484E+02 -0.89031334946E+03  0.89594676766E+03  0.12699999809E+01 0.  1.
</event>
<event>
 5   0  0.1814770E-03  0.1287634E+04  0.7818609E-02  0.9039429E-01
       -1   -1    0    0    0  501  0.00000000000E+00  0.00000000000E+00  0.52154046031E+03  0.52154046033E+03  0.50400001928E-02 0. -1.
        1   -1    0    0  501    0  0.00000000000E+00  0.00000000000E+00 -0.79476201351E+03  0.79476201352E+03  0.50400001928E-02 0.  1.
    10030    2    1    2    0    0  0.00000000000E+00  0.00000000000E+00 -0.27322155320E+03  0.13163024739E+04  0.12876343369E+04 0.  0.
        5    1    3    3  502    0  0.58276264538E+03 -0.21308930248E+03 -0.31206867380E+03  0.69457058594E+03  0.46999998093E+01 0.  1.
       -5    1    3    3    0  502 -0.58276264538E+03  0.21308930248E+03  0.38847120596E+02  0.62173188792E+03  0.46999998093E+01 0. -1.
</event>
<event>
 5   0  0.3262927E-03  0.1320723E+04  0.7818609E-02  0.9013291E-01
       -2   -1    0    0    0  501  0.00000000000E+00  0.00000000000E+00  0.68299350534E+03  0.68299350535E+03  0.25500000920E-02 0. -1.
        2   -1    0    0  501    0  0.00000000000E+00  0.00000000000E+00 -0.63847969283E+03  0.63847969283E+03  0.25500000920E-02 0.  1.
    10030    2    1    2    0    0  0.00000000000E+00  0.00000000000E+00  0.44513812518E+02  0.13214731982E+04  0.13207232617E+04 0.  0.
        3    1    3    3  502    0  0.44171099617E+03 -0.86215081295E+02  0.50578675854E+03  0.67702429771E+03  0.10100000352E+00 0. -1.
       -3    1    3    3    0  502 -0.44171099617E+03  0.86215081295E+02 -0.46127294602E+03  0.64444890047E+03  0.10100000352E+00 0.  1.
</event>
<event>
 5   0  0.1803959E-03  0.1297975E+04  0.7818609E-02  0.9031172E-01
        1   -1    0    0  501    0  0.00000000000E+00  0.00000000000E+00  0.11939702871E+04  0.11939702871E+04  0.50400001928E-02 0.  1.
       -1   -1    0    0    0  501  0.00000000000E+00  0.00000000000E+00 -0.35276004007E+03  0.35276004011E+03  0.50400001928E-02 0. -1.
    10030    2    1    2    0    0  0.00000000000E+00  0.00000000000E+00  0.84121024702E+03  0.15467303272E+04  0.12979753562E+04 0.  0.
        4    1    3    3  502    0 -0.49284962585E+03 -0.26915013374E+03  0.32923867484E+02  0.56251945934E+03  0.12699999809E+01 0.  1.
       -4    1    3    3    0  502  0.49284962585E+03  0.26915013374E+03  0.80828637953E+03  0.98421086787E+03  0.12699999809E+01 0. -1.
</event>
<event>
 5   0  0.3262927E-03  0.1284794E+04  0.7818609E-02  0.9041711E-01
        2   -1    0    0  501    0  0.00000000000E+00  0.00000000000E+00  0.93181280359E+03  0.93181280359E+03  0.25500000920E-02 0. -1.
       -2   -1    0    0    0  501  0.00000000000E+00  0.00000000000E+00 -0.44287207658E+03  0.44287207659E+03  0.25500000920E-02 0.  1.
    10030    2    1    2    0    0  0.00000000000E+00  0.00000000000E+00  0.48894072700E+03  0.13746848802E+04  0.12847939466E+04 0.  0.
        3    1    3    3  502    0 -0.58774929891E+03 -0.19059657637E+03  0.56395038341E+02  0.62044879229E+03  0.10100000352E+00 0.  1.
       -3    1    3    3    0  502  0.58774929891E+03  0.19059657637E+03  0.43254568866E+03  0.75423608789E+03  0.10100000352E+00 0. -1.
</event>
<event>
 5   0  0.1814770E-03  0.1307608E+04  0.7818609E-02  0.9023554E-01
       -1   -1    0    0    0  501  0.00000000000E+00  0.00000000000E+00  0.41042035881E+03  0.41042035884E+03  0.50400001928E-02 0. -1.
        1   -1    0    0  501    0  0.00000000000E+00  0.00000000000E+00 -0.10415166541E+04  0.10415166541E+04  0.50400001928E-02 0.  1.
    10030    2    1    2    0    0  0.00000000000E+00  0.00000000000E+00 -0.63109629524E+03  0.14519370129E+04  0.13076079518E+04 0.  0.
        5    1    3    3  502    0 -0.52342748062E+03 -0.49856399026E+02 -0.74699126911E+03  0.91349878714E+03  0.46999998093E+01 0.  1.
       -5    1    3    3    0  502  0.52342748062E+03  0.49856399026E+02  0.11589497387E+03  0.53843822576E+03  0.46999998093E+01 0. -1.
</event>
<event>
 5   0  0.1823154E-03  0.1286070E+04  0.7818609E-02  0.9040685E-01
       -1   -1    0    0    0  501  0.00000000000E+00  0.00000000000E+00  0.93863991709E+03  0.93863991711E+03  0.50400001928E-02 0.  1.
        1   -1    0    0  501    0  0.00000000000E+00  0.00000000000E+00 -0.44052451600E+03  0.44052451603E+03  0.50400001928E-02 0. -1.
    10030    2    1    2    0    0  0.00000000000E+00  0.00000000000E+00  0.49811540109E+03  0.13791644331E+04  0.12860698196E+04 0.  0.
        2    1    3    3  502    0  0.60415213828E+03 -0.22021348830E+03  0.24870431932E+03  0.68945458521E+03  0.25500000920E-02 0.  1.
       -2    1    3    3    0  502 -0.60415213828E+03  0.22021348830E+03  0.24941108177E+03  0.68970984793E+03  0.25500000920E-02 0. -1.
</event>
<event>
 5   0  0.3294720E-03  0.1299084E+04  0.7818609E-02  0.9030292E-01
        2   -1    0    0  501    0  0.00000000000E+00  0.00000000000E+00  0.79055879430E+03  0.79055879431E+03  0.25500000920E-02 0. -1.
       -2   -1    0    0    0  501  0.00000000000E+00  0.00000000000E+00 -0.53367914539E+03  0.53367914540E+03  0.25500000920E-02 0.  1.
    10030    2    1    2    0    0  0.00000000000E+00  0.00000000000E+00  0.25687964891E+03  0.13242379397E+04  0.12990838953E+04 0.  0.
        5    1    3    3  502    0 -0.11219976102E+03 -0.55124554873E+03 -0.20253494351E+03  0.59791549127E+03  0.46999998093E+01 0. -1.
       -5    1    3    3    0  502  0.11219976102E+03  0.55124554873E+03  0.45941459243E+03  0.72632244843E+03  0.46999998093E+01 0.  1.
</event>
<event>
 5   0  0.1857986E-03  0.1290524E+04  0.7818609E-02  0.9037114E-01
       -1   -1    0    0    0  501  0.00000000000E+00  0.00000000000E+00  0.43217306335E+03  0.43217306338E+03  0.50400001928E-02 0. -1.
        1   -1    0    0  501    0  0.00000000000E+00  0.00000000000E+00 -0.96341764845E+03  0.96341764847E+03  0.50400001928E-02 0.  1.
    10030    2    1    2    0    0  0.00000000000E+00  0.00000000000E+00 -0.53124458510E+03  0.13955907118E+04  0.12905241671E+04 0.  0.
        1    1    3    3  502    0  0.56296425705E+03  0.13776307340E+03 -0.57236231016E+03  0.81455879667E+03  0.50400001928E-02 0.  1.
       -1    1    3    3    0  502 -0.56296425705E+03 -0.13776307340E+03  0.41117725055E+02  0.58103191517E+03  0.50400001928E-02 0. -1.
</event>
<event>
 5   0  0.1857986E-03  0.1285041E+04  0.7818609E-02  0.9041512E-01
        1   -1    0    0  501    0  0.00000000000E+00  0.00000000000E+00  0.50322246247E+03  0.50322246250E+03  0.50400001928E-02 0.  1.
       -1   -1    0    0    0  501  0.00000000000E+00  0.00000000000E+00 -0.82037823185E+03  0.82037823187E+03  0.50400001928E-02 0. -1.
    10030    2    1    2    0    0  0.00000000000E+00  0.00000000000E+00 -0.31715576938E+03  0.13236006944E+04  0.12850412507E+04 0.  0.
        1    1    3    3  502    0 -0.32194942573E+03 -0.52728998256E+03 -0.34035751214E+03  0.70535763591E+03  0.50400001928E-02 0. -1.
       -1    1    3    3    0  502  0.32194942573E+03  0.52728998256E+03  0.23201742762E+02  0.61824305846E+03  0.50400001928E-02 0.  1.
</event>
<event>
 5   0  0.3262927E-03  0.1269402E+04  0.7818609E-02  0.9054188E-01
        2   -1    0    0  501    0  0.00000000000E+00  0.00000000000E+00  0.13992844895E+04  0.13992844895E+04  0.25500000920E-02 0. -1.
       -2   -1    0    0    0  501  0.00000000000E+00  0.00000000000E+00 -0.28789397295E+03  0.28789397296E+03  0.25500000920E-02 0.  1.
    10030    2    1    2    0    0  0.00000000000E+00  0.00000000000E+00  0.11113905166E+04  0.16871784625E+04  0.12694023334E+04 0.  0.
        3    1    3    3  502    0  0.19768368639E+03 -0.60306494799E+03  0.54385276695E+03  0.83578825888E+03  0.10100000352E+00 0.  1.
       -3    1    3    3    0  502 -0.19768368639E+03  0.60306494799E+03  0.56753774963E+03  0.85139020362E+03  0.10100000352E+00 0. -1.
</event>
<event>
 5   0  0.1803959E-03  0.1282957E+04  0.7818609E-02  0.9043191E-01
        1   -1    0    0  501    0  0.00000000000E+00  0.00000000000E+00  0.16573122898E+04  0.16573122898E+04  0.50400001928E-02 0. -1.
       -1   -1    0    0    0  501  0.00000000000E+00  0.00000000000E+00 -0.24829025208E+03  0.24829025213E+03  0.50400001928E-02 0.  1.
    10030    2    1    2    0    0  0.00000000000E+00  0.00000000000E+00  0.14090220377E+04  0.19056025419E+04  0.12829567199E+04 0.  0.
        4    1    3    3  502    0 -0.18095211245E+03  0.11784271389E+03  0.16017018239E+04  0.16161933417E+04  0.12699999809E+01 0. -1.
       -4    1    3    3    0  502  0.18095211245E+03 -0.11784271389E+03 -0.19267978624E+03  0.28940920017E+03  0.12699999809E+01 0.  1.
</event>
<event>
 5   0  0.1857986E-03  0.1222923E+04  0.7818609E-02  0.9093025E-01
        1   -1    0    0  501    0  0.00000000000E+00  0.00000000000E+00  0.12579190504E+04  0.12579190504E+04  0.50400001928E-02 0. -1.
       -1   -1    0    0    0  501  0.00000000000E+00  0.00000000000E+00 -0.29722514375E+03  0.29722514379E+03  0.50400001928E-02 0.  1.
    10030    2    1    2    0    0  0.00000000000E+00  0.00000000000E+00  0.96069390663E+03  0.15551441942E+04  0.12229230076E+04 0.  0.
        1    1    3    3  502    0  0.18152780680E+03 -0.25462778074E+03  0.11485413045E+04  0.11903506960E+04  0.50400001928E-02 0. -1.
       -1    1    3    3    0  502 -0.18152780680E+03  0.25462778074E+03 -0.18784739789E+03  0.36479349814E+03  0.50400001928E-02 0.  1.
</event>
<event>
 5   0  0.3294720E-03  0.1154949E+04  0.7818609E-02  0.9153230E-01
        2   -1    0    0  501    0  0.00000000000E+00  0.00000000000E+00  0.24747825987E+04  0.24747825987E+04  0.25500000920E-02 0. -1.
       -2   -1    0    0    0  501  0.00000000000E+00  0.00000000000E+00 -0.13475001093E+03  0.13475001095E+03  0.25500000920E-02 0.  1.
    10030    2    1    2    0    0  0.00000000000E+00  0.00000000000E+00  0.23400325877E+04  0.26095326096E+04  0.11549493188E+04 0.  0.
        5    1    3    3  502    0  0.37429910993E+03 -0.33777911635E+03  0.53391283242E+03  0.73435656037E+03  0.46999998093E+01 0.  1.
       -5    1    3    3    0  502 -0.37429910993E+03  0.33777911635E+03  0.18061197553E+04  0.18751760493E+04  0.46999998093E+01 0. -1.
</event>
<event>
 5   0  0.1814770E-03  0.1309496E+04  0.7818609E-02  0.9022069E-01
       -1   -1    0    0    0  501  0.00000000000E+00  0.00000000000E+00  0.12611940087E+04  0.12611940087E+04  0.50400001928E-02 0. -1.
        1   -1    0    0  501    0  0.00000000000E+00  0.00000000000E+00 -0.33991173832E+03  0.33991173836E+03  0.50400001928E-02 0.  1.
    10030    2    1    2    0    0  0.00000000000E+00  0.00000000000E+00  0.92128227034E+03  0.16011057470E+04  0.13094955485E+04 0.  0.
        5    1    3    3  502    0  0.34903886013E+03  0.54584037999E+02 -0.21335334596E+03  0.41273391345E+03  0.46999998093E+01 0.  1.
       -5    1    3    3    0  502 -0.34903886013E+03 -0.54584037999E+02  0.11346356163E+04  0.11883718336E+04  0.46999998093E+01 0. -1.
</event>
<event>
 5   0  0.3262927E-03  0.1420916E+04  0.7818609E-02  0.8938816E-01
       -2   -1    0    0    0  501  0.00000000000E+00  0.00000000000E+00  0.10177977687E+04  0.10177977687E+04  0.25500000920E-02 0. -1.
        2   -1    0    0  501    0  0.00000000000E+00  0.00000000000E+00 -0.49592404177E+03  0.49592404177E+03  0.25500000920E-02 0.  1.
    10030    2    1    2    0    0  0.00000000000E+00  0.00000000000E+00  0.52187372696E+03  0.15137218105E+04  0.14209157374E+04 0.  0.
        3    1    3    3  502    0 -0.19662150295E+03  0.59034608852E+03 -0.10436164149E+03  0.63091986977E+03  0.10100000352E+00 0.  1.
       -3    1    3    3    0  502  0.19662150295E+03 -0.59034608852E+03  0.62623536846E+03  0.88280194073E+03  0.10100000352E+00 0. -1.
</event>
<event>
 5   0  0.1823154E-03  0.1287446E+04  0.7818609E-02  0.9039580E-01
        1   -1    0    0  501    0  0.00000000000E+00  0.00000000000E+00  0.67256609845E+03  0.67256609846E+03  0.50400001928E-02 0. -1.
       -1   -1    0    0    0  501  0.00000000000E+00  0.00000000000E+00 -0.61611722979E+03  0.61611722981E+03  0.50400001928E-02 0.  1.
    10030    2    1    2    0    0  0.00000000000E+00  0.00000000000E+00  0.56448868657E+02  0.12886833283E+04  0.12874464050E+04 0.  0.
        2    1    3    3  502    0  0.33757382639E+01 -0.22748186170E+03  0.63098249768E+03  0.67074459029E+03  0.25500000920E-02 0. -1.
       -2    1    3    3    0  502 -0.33757382639E+01  0.22748186170E+03 -0.57453362903E+03  0.61793873798E+03  0.25500000920E-02 0.  1.
</event>
<event>
 5   0  0.1803959E-03  0.1358793E+04  0.7818609E-02  0.8984199E-01
       -1   -1    0    0    0  501  0.00000000000E+00  0.00000000000E+00  0.76466964418E+03  0.76466964420E+03  0.50400001928E-02 0. -1.
        1   -1    0    0  501    0  0.00000000000E+00  0.00000000000E+00 -0.60363227232E+03  0.60363227234E+03  0.50400001928E-02 0.  1.
    10030    2    1    2    0    0  0.00000000000E+00  0.00000000000E+00  0.16103737187E+03  0.13683019165E+04  0.13587925153E+04 0.  0.
        4    1    3    3  502    0 -0.14267630295E+03  0.14653011768E+03  0.73293403861E+03  0.76093463626E+03  0.12699999809E+01 0. -1.
       -4    1    3    3    0  502  0.14267630295E+03 -0.14653011768E+03 -0.57189666675E+03  0.60736728027E+03  0.12699999809E+01 0.  1.
</event>
<event>
 5   0  0.1857986E-03  0.1308535E+04  0.7818609E-02  0.9022824E-01
       -1   -1    0    0    0  501  0.00000000000E+00  0.00000000000E+00  0.80324919456E+03  0.80324919457E+03  0.50400001928E-02 0. -1.
        1   -1    0    0  501    0  0.00000000000E+00  0.00000000000E+00 -0.53291795148E+03  0.53291795150E+03  0.50400001928E-02 0.  1.
    10030    2    1    2    0    0  0.00000000000E+00  0.00000000000E+00  0.27033124308E+03  0.13361671461E+04  0.13085349293E+04 0.  0.
        1    1    3    3  502    0  0.60284376956E+03 -0.17700214880E+03  0.32154545718E+03  0.70579164931E+03  0.50400001928E-02 0.  1.
       -1    1    3    3    0  502 -0.60284376956E+03  0.17700214880E+03 -0.51214214104E+02  0.63037549677E+03  0.50400001928E-02 0. -1.
</event>
<event>
 5   0  0.1803959E-03  0.1289644E+04  0.7818609E-02  0.9037818E-01
       -1   -1    0    0    0  501  0.00000000000E+00  0.00000000000E+00  0.57822333065E+03  0.57822333067E+03  0.50400001928E-02 0. -1.
        1   -1    0    0  501    0  0.00000000000E+00  0.00000000000E+00 -0.71909106060E+03  0.71909106061E+03  0.50400001928E-02 0.  1.
    10030    2    1    2    0    0  0.00000000000E+00  0.00000000000E+00 -0.14086772995E+03  0.12973143913E+04  0.12896437153E+04 0.  0.
        4    1    3    3  502    0 -0.33814911004E+03 -0.15171403263E+03  0.46037086945E+03  0.59102023540E+03  0.12699999809E+01 0. -1.
       -4    1    3    3    0  502  0.33814911004E+03  0.15171403263E+03 -0.60123859940E+03  0.70629415588E+03  0.12699999809E+01 0.  1.
</event>
<event>
 5   0  0.3299104E-03  0.1280118E+04  0.7818609E-02  0.9045482E-01
       -2   -1    0    0    0  501  0.00000000000E+00  0.00000000000E+00  0.41107136523E+03  0.41107136524E+03  0.25500000920E-02 0. -1.
        2   -1    0    0  501    0  0.00000000000E+00  0.00000000000E+00 -0.99660450652E+03  0.99660450652E+03  0.25500000920E-02 0.  1.
    10030    2    1    2    0    0  0.00000000000E+00  0.00000000000E+00 -0.58553314129E+03  0.14076758718E+04  0.12801180806E+04 0.  0.
        2    1    3    3  502    0  0.37330557006E+03 -0.36679356698E+03  0.11243595668E+03  0.53529096179E+03  0.25500000920E-02 0. -1.
       -2    1    3    3    0  502 -0.37330557006E+03  0.36679356698E+03 -0.69796909797E+03  0.87238490997E+03  0.25500000920E-02 0.  1.
</event>
<event>
 5   0  0.3336609E-03  0.1266706E+04  0.7818609E-02  0.9056393E-01
       -2   -1    0    0    0  501  0.00000000000E+00  0.00000000000E+00  0.21037211390E+03  0.21037211391E+03  0.25500000920E-02 0.  1.
        2   -1    0    0  501    0  0.00000000000E+00  0.00000000000E+00 -0.19067917699E+04  0.19067917699E+04  0.25500000920E-02 0. -1.
    10030    2    1    2    0    0  0.00000000000E+00  0.00000000000E+00 -0.16964196560E+04  0.21171638838E+04  0.12667056729E+04 0.  0.
        1    1    3    3  502    0  0.46558489391E+03  0.35113856884E+03 -0.12612444132E+04  0.13895341153E+04  0.50400001928E-02 0. -1.
       -1    1    3    3    0  502 -0.46558489391E+03 -0.35113856884E+03 -0.43517524287E+03  0.72762976849E+03  0.50400001928E-02 0.  1.
</event>
<event>
 5   0  0.3262927E-03  0.1301214E+04  0.7818609E-02  0.9028603E-01
        2   -1    0    0  501    0  0.00000000000E+00  0.00000000000E+00  0.19550348143E+04  0.19550348143E+04  0.25500000920E-02 0.  1.
       -2   -1    0    0    0  501  0.00000000000E+00  0.00000000000E+00 -0.21651263254E+03  0.21651263255E+03  0.25500000920E-02 0. -1.
    10030    2    1    2    0    0  0.00000000000E+00  0.00000000000E+00  0.17385221817E+04  0.21715474468E+04  0.13012144087E+04 0.  0.
        3    1    3    3  502    0  0.29407137724E+03  0.14135216086E+03  0.18086263829E+04  0.18378214852E+04  0.10100000352E+00 0.  1.
       -3    1    3    3    0  502 -0.29407137724E+03 -0.14135216086E+03 -0.70104201121E+02  0.33372596169E+03  0.10100000352E+00 0. -1.
</event>
<event>
 5   0  0.3336609E-03  0.1258593E+04  0.7818609E-02  0.9063061E-01
       -2   -1    0    0    0  501  0.00000000000E+00  0.00000000000E+00  0.87833407407E+03  0.87833407408E+03  0.25500000920E-02 0.  1.
        2   -1    0    0  501    0  0.00000000000E+00  0.00000000000E+00 -0.45086989299E+03  0.45086989300E+03  0.25500000920E-02 0. -1.
    10030    2    1    2    0    0  0.00000000000E+00  0.00000000000E+00  0.42746418108E+03  0.13292039671E+04  0.12585934848E+04 0.  0.
        1    1    3    3  502    0  0.12710585719E+03  0.46429005043E+03  0.64180327744E+03  0.80226716050E+03  0.50400001928E-02 0.  1.
       -1    1    3    3    0  502 -0.12710585719E+03 -0.46429005043E+03 -0.21433909636E+03  0.52693680657E+03  0.50400001928E-02 0. -1.
</event>
<event>
 5   0  0.3259968E-03  0.1276345E+04  0.7818609E-02  0.9048537E-01
        2   -1    0    0  501    0  0.00000000000E+00  0.00000000000E+00  0.13457135558E+04  0.13457135558E+04  0.25500000920E-02 0. -1.
       -2   -1    0    0    0  501  0.00000000000E+00  0.00000000000E+00 -0.30263787978E+03  0.30263787979E+03  0.25500000920E-02 0.  1.
    10030    2    1    2    0    0  0.00000000000E+00  0.00000000000E+00  0.10430756760E+04  0.16483514356E+04  0.12763446201E+04 0.  0.
        4    1    3    3  502    0  0.57565939760E+03  0.23898841364E+03  0.34463535452E+03  0.71223194563E+03  0.12699999809E+01 0.  1.
       -4    1    3    3    0  502 -0.57565939760E+03 -0.23898841364E+03  0.69844032150E+03  0.93611948996E+03  0.12699999809E+01 0. -1.
</event>
<event>
 5   0  0.1873488E-03  0.1288561E+04  0.7818609E-02  0.9038686E-01
       -1   -1    0    0    0  501  0.00000000000E+00  0.00000000000E+00  0.31412020160E+03  0.31412020164E+03  0.50400001928E-02 0.  1.
        1   -1    0    0  501    0  0.00000000000E+00  0.00000000000E+00 -0.13214610984E+04  0.13214610985E+04  0.50400001928E-02 0. -1.
    10030    2    1    2    0    0  0.00000000000E+00  0.00000000000E+00 -0.10073408968E+04  0.16355813001E+04  0.12885614098E+04 0.  0.
        3    1    3    3  502    0 -0.40421758973E+03  0.12996119564E+02 -0.11402722029E+04  0.12098683671E+04  0.10100000352E+00 0. -1.
       -3    1    3    3    0  502  0.40421758973E+03 -0.12996119564E+02  0.13293130602E+03  0.42571293296E+03  0.10100000352E+00 0.  1.
</event>
<event>
 5   0  0.1857986E-03  0.1282741E+04  0.7818609E-02  0.9043365E-01
       -1   -1    0    0    0  501  0.00000000000E+00  0.00000000000E+00  0.20124478963E+03  0.20124478969E+03  0.50400001928E-02 0.  1.
        1   -1    0    0  501    0  0.00000000000E+00  0.00000000000E+00 -0.20440579090E+04  0.20440579090E+04  0.50400001928E-02 0. -1.
    10030    2    1    2    0    0  0.00000000000E+00  0.00000000000E+00 -0.18428131194E+04  0.22453026987E+04  0.12827408218E+04 0.  0.
        1    1    3    3  502    0  0.41978913237E+03  0.46138839938E+03 -0.66028760607E+03  0.90834018600E+03  0.50400001928E-02 0.  1.
       -1    1    3    3    0  502 -0.41978913237E+03 -0.46138839938E+03 -0.11825255133E+04  0.13369625127E+04  0.50400001928E-02 0. -1.
</event>
<event>
 5   0  0.1814770E-03  0.1379252E+04  0.7818609E-02  0.8968976E-01
       -1   -1    0    0    0  501  0.00000000000E+00  0.00000000000E+00  0.33999184885E+03  0.33999184889E+03  0.50400001928E-02 0.  1.
        1   -1    0    0  501    0  0.00000000000E+00  0.00000000000E+00 -0.13988094785E+04  0.13988094785E+04  0.50400001928E-02 0. -1.
    10030    2    1    2    0    0  0.00000000000E+00  0.00000000000E+00 -0.10588176297E+04  0.17388013274E+04  0.13792517114E+04 0.  0.
        5    1    3    3  502    0 -0.22391734638E+02  0.67239448890E+03 -0.33844114286E+03  0.75311369371E+03  0.46999998093E+01 0.  1.
       -5    1    3    3    0  502  0.22391734638E+02 -0.67239448890E+03 -0.72037648680E+03  0.98568763369E+03  0.46999998093E+01 0. -1.
</event>
<event>
 5   0  0.1857986E-03  0.1283817E+04  0.7818609E-02  0.9042498E-01
        1   -1    0    0  501    0  0.00000000000E+00  0.00000000000E+00  0.75484608275E+03  0.75484608277E+03  0.50400001928E-02 0.  1.
       -1   -1    0    0    0  501  0.00000000000E+00  0.00000000000E+00 -0.54586829970E+03  0.54586829973E+03  0.50400001928E-02 0. -1.
    10030    2    1    2    0    0  0.00000000000E+00  0.00000000000E+00  0.20897778305E+03  0.13007143825E+04  0.12838170395E+04 0.  0.
        1    1    3    3  502    0  0.17995403958E+03  0.35259348896E+03 -0.40747463124E+03  0.56810315959E+03  0.50400001928E-02 0. -1.
       -1    1    3    3    0  502 -0.17995403958E+03 -0.35259348896E+03  0.61645241429E+03  0.73261122290E+03  0.50400001928E-02 0.  1.
</event>
<event>
 5   0  0.1803959E-03  0.1335253E+04  0.7818609E-02  0.9002067E-01
        1   -1    0    0  501    0  0.00000000000E+00  0.00000000000E+00  0.58729967235E+03  0.58729967237E+03  0.50400001928E-02 0.  1.
       -1   -1    0    0    0  501  0.00000000000E+00  0.00000000000E+00 -0.75894041398E+03  0.75894041400E+03  0.50400001928E-02 0. -1.
    10030    2    1    2    0    0  0.00000000000E+00  0.00000000000E+00 -0.17164074163E+03  0.13462400864E+04  0.13352534688E+04 0.  0.
        4    1    3    3  502    0 -0.61193931713E+03  0.26568334648E+03 -0.11184896919E+03  0.67643859533E+03  0.12699999809E+01 0. -1.
       -4    1    3    3    0  502  0.61193931713E+03 -0.26568334648E+03 -0.59791772442E+02  0.66980149104E+03  0.12699999809E+01 0.  1.
</event>
<event>
 5   0  0.1873488E-03  0.1326213E+04  0.7818609E-02  0.9009032E-01
        1   -1    0    0  501    0  0.00000000000E+00  0.00000000000E+00  0.57698216167E+03  0.57698216169E+03  0.50400001928E-02 0. -1.
       -1   -1    0    0    0  501  0.00000000000E+00  0.00000000000E+00 -0.76208645641E+03  0.76208645642E+03  0.50400001928E-02 0.  1.
    10030    2    1    2    0    0  0.00000000000E+00  0.00000000000E+00 -0.18510429474E+03  0.13390686181E+04  0.13262130915E+04 0.  0.
        3    1    3    3  502    0 -0.10577951393E+03  0.63500645938E+03 -0.25311489942E+03  0.69172947858E+03  0.10100000352E+00 0.  1.
       -3    1    3    3    0  502  0.10577951393E+03 -0.63500645938E+03  0.68010604679E+02  0.64733913953E+03  0.10100000352E+00 0. -1.
</event>
<event>
 5   0  0.3259968E-03  0.1256932E+04  0.7818609E-02  0.9064433E-01
       -2   -1    0    0    0  501  0.00000000000E+00  0.00000000000E+00  0.25458099035E+03  0.25458099036E+03  0.25500000920E-02 0. -1.
        2   -1    0    0  501    0  0.00000000000E+00  0.00000000000E+00 -0.15514499973E+04  0.15514499973E+04  0.25500000920E-02 0.  1.
    10030    2    1    2    0    0  0.00000000000E+00  0.00000000000E+00 -0.12968690070E+04  0.18060309877E+04  0.12569322604E+04 0.  0.
        4    1    3    3  502    0  0.42915899931E+03  0.40467728069E+03 -0.33684230694E+03  0.67926835701E+03  0.12699999809E+01 0.  1.
       -4    1    3    3    0  502 -0.42915899931E+03 -0.40467728069E+03 -0.96002670005E+03  0.11267626307E+04  0.12699999809E+01 0. -1.
</event>
<event>
 5   0  0.1823154E-03  0.1333786E+04  0.7818609E-02  0.9003193E-01
        1   -1    0    0  501    0  0.00000000000E+00  0.00000000000E+00  0.15849858367E+04  0.15849858367E+04  0.50400001928E-02 0. -1.
       -1   -1    0    0    0  501  0.00000000000E+00  0.00000000000E+00 -0.28059970790E+03  0.28059970794E+03  0.50400001928E-02 0.  1.
    10030    2    1    2    0    0  0.00000000000E+00  0.00000000000E+00  0.13043861288E+04  0.18655855447E+04  0.13337864340E+04 0.  0.
        2    1    3    3  502    0 -0.59667769165E+03  0.27145623404E+03  0.48069336078E+03  0.81288305544E+03  0.25500000920E-02 0.  1.
       -2    1    3    3    0  502  0.59667769165E+03 -0.27145623404E+03  0.82369276805E+03  0.10527024892E+04  0.25500000920E-02 0. -1.
</event>
<event>
 5   0  0.1873488E-03  0.1305312E+04  0.7818609E-02  0.9025363E-01
       -1   -1    0    0    0  501  0.00000000000E+00  0.00000000000E+00  0.41394473177E+03  0.41394473180E+03  0.50400001928E-02 0.  1.
        1   -1    0    0  501    0  0.00000000000E+00  0.00000000000E+00 -0.10290257311E+04  0.10290257311E+04  0.50400001928E-02 0. -1.
    10030    2    1    2    0    0  0.00000000000E+00  0.00000000000E+00 -0.61508099936E+03  0.14429704629E+04  0.13053118865E+04 0.  0.
        3    1    3    3  502    0  0.34727819082E+03 -0.38207721600E+02  0.30186578027E+03  0.46171953750E+03  0.10100000352E+00 0.  1.
       -3    1    3    3    0  502 -0.34727819082E+03  0.38207721600E+02 -0.91694677963E+03  0.98125092544E+03  0.10100000352E+00 0. -1.
</event>
<event>
 5   0  0.3294720E-03  0.1284230E+04  0.7818609E-02  0.9042166E-01
       -2   -1    0    0    0  501  0.00000000000E+00  0.00000000000E+00  0.36449240846E+03  0.36449240847E+03  0.25500000920E-02 0.  1.
        2   -1    0    0  501    0  0.00000000000E+00  0.00000000000E+00 -0.11311933810E+04  0.11311933810E+04  0.25500000920E-02 0. -1.
    10030    2    1    2    0    0  0.00000000000E+00  0.00000000000E+00 -0.76670097251E+03  0.14956857895E+04  0.12842295743E+04 0.  0.
        5    1    3    3  502    0  0.14287838796E+03 -0.59279515249E+03 -0.14905773758E+03  0.62774248358E+03  0.46999998093E+01 0.  1.
       -5    1    3    3    0  502 -0.14287838796E+03  0.59279515249E+03 -0.61764323493E+03  0.86794330587E+03  0.46999998093E+01 0. -1.
</event>
<event>
 5   0  0.1823154E-03  0.1355367E+04  0.7818609E-02  0.8986775E-01
       -1   -1    0    0    0  501  0.00000000000E+00  0.00000000000E+00  0.46245806909E+03  0.46245806912E+03  0.50400001928E-02 0.  1.
        1   -1    0    0  501    0  0.00000000000E+00  0.00000000000E+00 -0.99307325938E+03  0.99307325939E+03  0.50400001928E-02 0. -1.
    10030    2    1    2    0    0  0.00000000000E+00  0.00000000000E+00 -0.53061519028E+03  0.14555313285E+04  0.13553667283E+04 0.  0.
        2    1    3    3  502    0  0.87217915090E+02 -0.66713309812E+03 -0.35242752211E+03  0.75952530812E+03  0.25500000920E-02 0.  1.
       -2    1    3    3    0  502 -0.87217915090E+02  0.66713309812E+03 -0.17818766817E+03  0.69600602039E+03  0.25500000920E-02 0. -1.
</event>
<event>
 5   0  0.1873488E-03  0.1302602E+04  0.7818609E-02  0.9027504E-01
       -1   -1    0    0    0  501  0.00000000000E+00  0.00000000000E+00  0.76782918910E+03  0.76782918911E+03  0.50400001928E-02 0.  1.
        1   -1    0    0  501    0  0.00000000000E+00  0.00000000000E+00 -0.55245743327E+03  0.55245743329E+03  0.50400001928E-02 0. -1.
    10030    2    1    2    0    0  0.00000000000E+00  0.00000000000E+00  0.21537175582E+03  0.13202866224E+04  0.13026019239E+04 0.  0.
        3    1    3    3  502    0  0.64688313081E+03 -0.75695804972E+02  0.11001776685E+03  0.66052370059E+03  0.10100000352E+00 0. -1.
       -3    1    3    3    0  502 -0.64688313081E+03  0.75695804972E+02  0.10535398897E+03  0.65976292182E+03  0.10100000352E+00 0.  1.
</event>
<event>
 5   0  0.1814770E-03  0.1317202E+04  0.7818609E-02  0.9016034E-01
       -1   -1    0    0    0  501  0.00000000000E+00  0.00000000000E+00  0.24003592760E+03  0.24003592765E+03  0.50400001928E-02 0.  1.
        1   -1    0    0  501    0  0.00000000000E+00  0.00000000000E+00 -0.18070438380E+04  0.18070438380E+04  0.50400001928E-02 0. -1.
    10030    2    1    2    0    0  0.00000000000E+00  0.00000000000E+00 -0.15670079104E+04  0.20470797657E+04  0.13172022532E+04 0.  0.
        5    1    3    3  502    0  0.45197180841E+03 -0.41811692612E+03 -0.11467577174E+04  0.13016050215E+04  0.46999998093E+01 0. -1.
       -5    1    3    3    0  502 -0.45197180841E+03  0.41811692612E+03 -0.42025019298E+03  0.74547474417E+03  0.46999998093E+01 0.  1.
</event>
<event>
 5   0  0.3299104E-03  0.1281006E+04  0.7818609E-02  0.9044765E-01
        2   -1    0    0  501    0  0.00000000000E+00  0.00000000000E+00  0.79848131601E+03  0.79848131601E+03  0.25500000920E-02 0. -1.
       -2   -1    0    0    0  501  0.00000000000E+00  0.00000000000E+00 -0.51378052564E+03  0.51378052565E+03  0.25500000920E-02 0.  1.
    10030    2    1    2    0    0  0.00000000000E+00  0.00000000000E+00  0.28470079037E+03  0.13122618417E+04  0.12810060894E+04 0.  0.
        2    1    3    3  502    0  0.20469630412E+03  0.59263905464E+03  0.83045981928E+01  0.62704911479E+03  0.25500000920E-02 0. -1.
       -2    1    3    3    0  502 -0.20469630412E+03 -0.59263905464E+03  0.27639619217E+03  0.68521272687E+03  0.25500000920E-02 0.  1.
</event>
<event>
 5   0  0.3299104E-03  0.1321443E+04  0.7818609E-02  0.9012732E-01
       -2   -1    0    0    0  501  0.00000000000E+00  0.00000000000E+00  0.30875388894E+03  0.30875388895E+03  0.25500000920E-02 0. -1.
        2   -1    0    0  501    0  0.00000000000E+00  0.00000000000E+00 -0.14139176624E+04  0.14139176624E+04  0.25500000920E-02 0.  1.
    10030    2    1    2    0    0  0.00000000000E+00  0.00000000000E+00 -0.11051637735E+04  0.17226715514E+04  0.13214425102E+04 0.  0.
        2    1    3    3  502    0 -0.39041923238E+03 -0.35516447960E+03 -0.10707374918E+04  0.11937536433E+04  0.25500000920E-02 0. -1.
       -2    1    3    3    0  502  0.39041923238E+03  0.35516447960E+03 -0.34426281690E+02  0.52891790806E+03  0.25500000920E-02 0.  1.
</event>
<event>
 5   0  0.3294720E-03  0.1296614E+04  0.7818609E-02  0.9032255E-01
        2   -1    0    0  501    0  0.00000000000E+00  0.00000000000E+00  0.18878740241E+04  0.18878740241E+04  0.25500000920E-02 0.  1.
       -2   -1    0    0    0  501  0.00000000000E+00  0.00000000000E+00 -0.22263226721E+03  0.22263226723E+03  0.25500000920E-02 0. -1.
    10030    2    1    2    0    0  0.00000000000E+00  0.00000000000E+00  0.16652417568E+04  0.21105062913E+04  0.12966135495E+04 0.  0.
        5    1    3    3  502    0 -0.40683477583E+03 -0.26153787157E+03  0.12994356597E+03  0.50082333555E+03  0.46999998093E+01 0. -1.
       -5    1    3    3    0  502  0.40683477583E+03  0.26153787157E+03  0.15352981909E+04  0.16096829557E+04  0.46999998093E+01 0.  1.
</event>
<event>
 5   0  0.3259968E-03  0.1320560E+04  0.7818609E-02  0.9013418E-01
        2   -1    0    0  501    0  0.00000000000E+00  0.00000000000E+00  0.22451579829E+04  0.22451579829E+04  0.25500000920E-02 0.  1.
       -2   -1    0    0    0  501  0.00000000000E+00  0.00000000000E+00 -0.19418220216E+03  0.19418220218E+03  0.25500000920E-02 0. -1.
    10030    2    1    2    0    0  0.00000000000E+00  0.00000000000E+00  0.20509757808E+04  0.24393401851E+04  0.13205600651E+04 0.  0.
        4    1    3    3  502    0 -0.15871115125E+03  0.72402020256E+02 -0.15084261539E+03  0.23062174569E+03  0.12699999809E+01 0. -1.
       -4    1    3    3    0  502  0.15871115125E+03 -0.72402020256E+02  0.22018183962E+04  0.22087184394E+04  0.12699999809E+01 0.  1.
</event>
<event>
 5   0  0.1857986E-03  0.1150753E+04  0.7818609E-02  0.9157089E-01
       -1   -1    0    0    0  501  0.00000000000E+00  0.00000000000E+00  0.45169414748E+03  0.45169414751E+03  0.50400001928E-02 0. -1.
        1   -1    0    0  501    0  0.00000000000E+00  0.00000000000E+00 -0.73292591869E+03  0.73292591871E+03  0.50400001928E-02 0.  1.
    10030    2    1    2    0    0  0.00000000000E+00  0.00000000000E+00 -0.28123177121E+03  0.11846200662E+04  0.11507534020E+04 0.  0.
        1    1    3    3  502    0  0.25992536103E+03  0.41048627262E+03 -0.45790447052E+03  0.66763513798E+03  0.50400001928E-02 0.  1.
       -1    1    3    3    0  502 -0.25992536103E+03 -0.41048627262E+03  0.17667269931E+03  0.51698492824E+03  0.50400001928E-02 0. -1.
</event>
<event>
 5   0  0.3259968E-03  0.1314640E+04  0.7818609E-02  0.9018035E-01
       -2   -1    0    0    0  501  0.00000000000E+00  0.00000000000E+00  0.41121546023E+03  0.41121546023E+03  0.25500000920E-02 0.  1.
        2   -1    0    0  501    0  0.00000000000E+00  0.00000000000E+00 -0.10507134263E+04  0.10507134263E+04  0.25500000920E-02 0. -1.
    10030    2    1    2    0    0  0.00000000000E+00  0.00000000000E+00 -0.63949796605E+03  0.14619288865E+04  0.13146400346E+04 0.  0.
        4    1    3    3  502    0 -0.19729793945E+03  0.62225076890E+03 -0.23400306834E+03  0.69345623165E+03  0.12699999809E+01 0. -1.
       -4    1    3    3    0  502  0.19729793945E+03 -0.62225076890E+03 -0.40549489771E+03  0.76847265487E+03  0.12699999809E+01 0.  1.
</event>
<event>
 5   0  0.1803959E-03  0.1307013E+04  0.7818609E-02  0.9024022E-01
        1   -1    0    0  501    0  0.00000000000E+00  0.00000000000E+00  0.46708964884E+03  0.46708964887E+03  0.50400001928E-02 0.  1.
       -1   -1    0    0    0  501  0.00000000000E+00  0.00000000000E+00 -0.91432335650E+03  0.91432335651E+03  0.50400001928E-02 0. -1.
    10030    2    1    2    0    0  0.00000000000E+00  0.00000000000E+00 -0.44723370766E+03  0.13814130054E+04  0.13070133519E+04 0.  0.
        4    1    3    3  502    0  0.83701821529E+02  0.53066509574E+03 -0.61689736329E+03  0.81803142269E+03  0.12699999809E+01 0. -1.
       -4    1    3    3    0  502 -0.83701821529E+02 -0.53066509574E+03  0.16966365564E+03  0.56338158269E+03  0.12699999809E+01 0.  1.
</event>
<event>
 5   0  0.3336609E-03  0.1266592E+04  0.7818609E-02  0.9056486E-01
       -2   -1    0    0    0  501  0.00000000000E+00  0.00000000000E+00  0.43362169377E+03  0.43362169378E+03  0.25500000920E-02 0. -1.
        2   -1    0    0  501    0  0.00000000000E+00  0.00000000000E+00 -0.92491617783E+03  0.92491617783E+03  0.25500000920E-02 0.  1.
    10030    2    1    2    0    0  0.00000000000E+00  0.00000000000E+00 -0.49129448405E+03  0.13585378716E+04  0.12665918358E+04 0.  0.
        1    1    3    3  502    0 -0.57756815204E+03 -0.11397279182E+03 -0.49602127977E+03  0.76981288476E+03  0.50400001928E-02 0.  1.
       -1    1    3    3    0  502  0.57756815204E+03  0.11397279182E+03  0.47267957165E+01  0.58872498686E+03  0.50400001928E-02 0. -1.
</event>
<event>
 5   0  0.1873488E-03  0.1281852E+04  0.7818609E-02  0.9044081E-01
        1   -1    0    0  501    0  0.00000000000E+00  0.00000000000E+00  0.39688919054E+03  0.39688919057E+03  0.50400001928E-02 0.  1.
       -1   -1    0    0    0  501  0.00000000000E+00  0.00000000000E+00 -0.10350154395E+04  0.10350154395E+04  0.50400001928E-02 0. -1.
    10030    2    1    2    0    0  0.00000000000E+00  0.00000000000E+00 -0.63812624897E+03  0.14319046301E+04  0.12818524720E+04 0.  0.
        3    1    3    3  502    0  0.46412644702E+03  0.29224843081E+03  0.51362623026E+02  0.55087261084E+03  0.10100000352E+00 0.  1.
       -3    1    3    3    0  502 -0.46412644702E+03 -0.29224843081E+03 -0.68948887200E+03  0.88103201925E+03  0.10100000352E+00 0. -1.
</event>
<event>
 5   0  0.3262927E-03  0.1297095E+04  0.7818609E-02  0.9031872E-01
        2   -1    0    0  501    0  0.00000000000E+00  0.00000000000E+00  0.19354566203E+04  0.19354566203E+04  0.25500000920E-02 0.  1.
       -2   -1    0    0    0  501  0.00000000000E+00  0.00000000000E+00 -0.21732033645E+03  0.21732033646E+03  0.25500000920E-02 0. -1.
    10030    2    1    2    0    0  0.00000000000E+00  0.00000000000E+00  0.17181362839E+04  0.21527769568E+04  0.12970953457E+04 0.  0.
        3    1    3    3  502    0  0.25402104583E+03  0.76837133139E+02  0.18412116167E+04  0.18602394643E+04  0.10100000352E+00 0.  1.
       -3    1    3    3    0  502 -0.25402104583E+03 -0.76837133139E+02 -0.12307533286E+03  0.29253749249E+03  0.10100000352E+00 0. -1.
</event>
<event>
 5   0  0.1814770E-03  0.1215489E+04  0.7818609E-02  0.9099406E-01
        1   -1    0    0  501    0  0.00000000000E+00  0.00000000000E+00  0.79236731167E+03  0.79236731168E+03  0.50400001928E-02 0. -1.
       -1   -1    0    0    0  501  0.00000000000E+00  0.00000000000E+00 -0.46613893146E+03  0.46613893148E+03  0.50400001928E-02 0.  1.
    10030    2    1    2    0    0  0.00000000000E+00  0.00000000000E+00  0.32622838021E+03  0.12585062432E+04  0.12154887939E+04 0.  0.
        5    1    3    3  502    0 -0.55632627592E+03  0.19123414328E+03  0.51984187448E+01  0.58831839712E+03  0.46999998093E+01 0.  1.
       -5    1    3    3    0  502  0.55632627592E+03 -0.19123414328E+03  0.32102996147E+03  0.67018784605E+03  0.46999998093E+01 0. -1.
</event>
<event>
 5   0  0.3336609E-03  0.1285706E+04  0.7818609E-02  0.9040978E-01
        2   -1    0    0  501    0  0.00000000000E+00  0.00000000000E+00  0.75646898400E+03  0.75646898400E+03  0.25500000920E-02 0. -1.
       -2   -1    0    0    0  501  0.00000000000E+00  0.00000000000E+00 -0.54630150680E+03  0.54630150680E+03  0.25500000920E-02 0.  1.
    10030    2    1    2    0    0  0.00000000000E+00  0.00000000000E+00  0.21016747720E+03  0.13027704908E+04  0.12857062585E+04 0.  0.
        1    1    3    3  502    0  0.33721623329E+03  0.34792939478E+03  0.53317237594E+03  0.72044599675E+03  0.50400001928E-02 0. -1.
       -1    1    3    3    0  502 -0.33721623329E+03 -0.34792939478E+03 -0.32300489873E+03  0.58232449406E+03  0.50400001928E-02 0.  1.
</event>
<event>
 5   0  0.3262927E-03  0.1320614E+04  0.7818609E-02  0.9013376E-01
        2   -1    0    0  501    0  0.00000000000E+00  0.00000000000E+00  0.17895419006E+04  0.17895419006E+04  0.25500000920E-02 0. -1.
       -2   -1    0    0    0  501  0.00000000000E+00  0.00000000000E+00 -0.24364077468E+03  0.24364077469E+03  0.25500000920E-02 0.  1.
    10030    2    1    2    0    0  0.00000000000E+00  0.00000000000E+00  0.15459011260E+04  0.20331826753E+04  0.13206140617E+04 0.  0.
        3    1    3    3  502    0  0.27230694772E+03  0.54980735133E+03  0.39719941837E+03  0.73089437370E+03  0.10100000352E+00 0.  1.
       -3    1    3    3    0  502 -0.27230694772E+03 -0.54980735133E+03  0.11487017076E+04  0.13022883016E+04  0.10100000352E+00 0. -1.
</event>
<event>
 5   0  0.1814770E-03  0.1228197E+04  0.7818609E-02  0.9088527E-01
       -1   -1    0    0    0  501  0.00000000000E+00  0.00000000000E+00  0.54545666245E+03  0.54545666247E+03  0.50400001928E-02 0. -1.
        1   -1    0    0  501    0  0.00000000000E+00  0.00000000000E+00 -0.69137857673E+03  0.69137857675E+03  0.50400001928E-02 0.  1.
    10030    2    1    2    0    0  0.00000000000E+00  0.00000000000E+00 -0.14592191428E+03  0.12368352392E+04  0.12281971356E+04 0.  0.
        5    1    3    3  502    0 -0.39077221774E+03  0.61612957034E+02 -0.54594061971E+03  0.67421979567E+03  0.46999998093E+01 0.  1.
       -5    1    3    3    0  502  0.39077221774E+03 -0.61612957034E+02  0.40001870542E+03  0.56261544355E+03  0.46999998093E+01 0. -1.
</event>
<event>
 5   0  0.1803959E-03  0.1308063E+04  0.7818609E-02  0.9023196E-01
       -1   -1    0    0    0  501  0.00000000000E+00  0.00000000000E+00  0.30771631498E+03  0.30771631503E+03  0.50400001928E-02 0. -1.
        1   -1    0    0  501    0  0.00000000000E+00  0.00000000000E+00 -0.13901022884E+04  0.13901022884E+04  0.50400001928E-02 0.  1.
    10030    2    1    2    0    0  0.00000000000E+00  0.00000000000E+00 -0.10823859734E+04  0.16978186034E+04  0.13080629246E+04 0.  0.
        4    1    3    3  502    0  0.13136086818E+03 -0.41165615715E+03 -0.11784378955E+04  0.12551629200E+04  0.12699999809E+01 0.  1.
       -4    1    3    3    0  502 -0.13136086818E+03  0.41165615715E+03  0.96051922074E+02  0.44265568340E+03  0.12699999809E+01 0. -1.
</event>
<event>
 5   0  0.1823154E-03  0.1298282E+04  0.7818609E-02  0.9030928E-01
        1   -1    0    0  501    0  0.00000000000E+00  0.00000000000E+00  0.16047818261E+04  0.16047818262E+04  0.50400001928E-02 0. -1.
       -1   -1    0    0    0  501  0.00000000000E+00  0.00000000000E+00 -0.26258036340E+03  0.26258036345E+03  0.50400001928E-02 0.  1.
    10030    2    1    2    0    0  0.00000000000E+00  0.00000000000E+00  0.13422014627E+04  0.18673621896E+04  0.12982822423E+04 0.  0.
        2    1    3    3  502    0 -0.24677943185E+03 -0.19750728733E+03 -0.14441629389E+03  0.34751299613E+03  0.25500000920E-02 0.  1.
       -2    1    3    3    0  502  0.24677943185E+03  0.19750728733E+03  0.14866177566E+04  0.15198491935E+04  0.25500000920E-02 0. -1.
</event>
<event>
 5   0  0.3259968E-03  0.1282317E+04  0.7818609E-02  0.9043707E-01
        2   -1    0    0  501    0  0.00000000000E+00  0.00000000000E+00  0.13742576775E+04  0.13742576775E+04  0.25500000920E-02 0. -1.
       -2   -1    0    0    0  501  0.00000000000E+00  0.00000000000E+00 -0.29913183021E+03  0.29913183022E+03  0.25500000920E-02 0.  1.
    10030    2    1    2    0    0  0.00000000000E+00  0.00000000000E+00  0.10751258472E+04  0.16733895077E+04  0.12823169877E+04 0.  0.
        4    1    3    3  502    0  0.92483963126E+02  0.54908887508E+01  0.13654748511E+04  0.13686148528E+04  0.12699999809E+01 0. -1.
       -4    1    3    3    0  502 -0.92483963126E+02 -0.54908887508E+01 -0.29034900389E+03  0.30477465488E+03  0.12699999809E+01 0.  1.
</event>
<event>
 5   0  0.3336609E-03  0.1283913E+04  0.7818609E-02  0.9042420E-01
       -2   -1    0    0    0  501  0.00000000000E+00  0.00000000000E+00  0.25867675840E+03  0.25867675842E+03  0.25500000920E-02 0.  1.
        2   -1    0    0  501    0  0.00000000000E+00  0.00000000000E+00 -0.15931403013E+04  0.15931403013E+04  0.25500000920E-02 0. -1.
    10030    2    1    2    0    0  0.00000000000E+00  0.00000000000E+00 -0.13344635429E+04  0.18518170597E+04  0.12839133442E+04 0.  0.
        1    1    3    3  502    0  0.43587634978E+03  0.47110416477E+03 -0.64782503180E+03  0.91192357037E+03  0.50400001928E-02 0.  1.
       -1    1    3    3    0  502 -0.43587634978E+03 -0.47110416477E+03 -0.68663851110E+03  0.93989348934E+03  0.50400001928E-02 0. -1.
</event>
<event>
 5   0  0.1857986E-03  0.1285081E+04  0.7818609E-02  0.9041480E-01
       -1   -1    0    0    0  501  0.00000000000E+00  0.00000000000E+00  0.28864546647E+03  0.28864546651E+03  0.50400001928E-02 0. -1.
        1   -1    0    0  501    0  0.00000000000E+00  0.00000000000E+00 -0.14303300850E+04  0.14303300850E+04  0.50400001928E-02 0.  1.
    10030    2    1    2    0    0  0.00000000000E+00  0.00000000000E+00 -0.11416846185E+04  0.17189755515E+04  0.12850810008E+04 0.  0.
        1    1    3    3  502    0  0.29827439137E+03  0.38576155187E+03 -0.11305430253E+04  0.12312217995E+04  0.50400001928E-02 0.  1.
       -1    1    3    3    0  502 -0.29827439137E+03 -0.38576155187E+03 -0.11141593184E+02  0.48775375198E+03  0.50400001928E-02 0. -1.
</event>
<event>
 5   0  0.3294720E-03  0.1314608E+04  0.7818609E-02  0.9018061E-01
        2   -1    0    0  501    0  0.00000000000E+00  0.00000000000E+00  0.67295472416E+03  0.67295472416E+03  0.25500000920E-02 0.  1.
       -2   -1    0    0    0  501  0.00000000000E+00  0.00000000000E+00 -0.64201703777E+03  0.64201703778E+03  0.25500000920E-02 0. -1.
    10030    2    1    2    0    0  0.00000000000E+00  0.00000000000E+00  0.30937686389E+02  0.13149717619E+04  0.13146077720E+04 0.  0.
        5    1    3    3  502    0 -0.45472442466E+03  0.47266496049E+03  0.58374091043E+02  0.65849532402E+03  0.46999998093E+01 0. -1.
       -5    1    3    3    0  502  0.45472442466E+03 -0.47266496049E+03 -0.27436404654E+02  0.65647643792E+03  0.46999998093E+01 0.  1.
</event>
<event>
 5   0  0.1803959E-03  0.1260698E+04  0.7818609E-02  0.9061326E-01
       -1   -1    0    0    0  501  0.00000000000E+00  0.00000000000E+00  0.77676237314E+03  0.77676237316E+03  0.50400001928E-02 0. -1.
        1   -1    0    0  501    0  0.00000000000E+00  0.00000000000E+00 -0.51153350721E+03  0.51153350723E+03  0.50400001928E-02 0.  1.
    10030    2    1    2    0    0  0.00000000000E+00  0.00000000000E+00  0.26522886593E+03  0.12882958804E+04  0.12606981891E+04 0.  0.
        4    1    3    3  502    0  0.35402899431E+03 -0.51874693825E+03  0.77551173337E+02  0.63281175095E+03  0.12699999809E+01 0.  1.
       -4    1    3    3    0  502 -0.35402899431E+03  0.51874693825E+03  0.18767769260E+03  0.65548412944E+03  0.12699999809E+01 0. -1.
</event>
<event>
 5   0  0.1873488E-03  0.1291883E+04  0.7818609E-02  0.9036027E-01
       -1   -1    0    0    0  501  0.00000000000E+00  0.00000000000E+00  0.52872999192E+03  0.52872999194E+03  0.50400001928E-02 0.  1.
        1   -1    0    0  501    0  0.00000000000E+00  0.00000000000E+00 -0.78913740192E+03  0.78913740194E+03  0.50400001928E-02 0. -1.
    10030    2    1    2    0    0  0.00000000000E+00  0.00000000000E+00 -0.26040741000E+03  0.13178673939E+04  0.12918832953E+04 0.  0.
        3    1    3    3  502    0 -0.53968793583E+03 -0.33877000509E+03 -0.23822218491E+03  0.68027788735E+03  0.10100000352E+00 0. -1.
       -3    1    3    3    0  502  0.53968793583E+03  0.33877000509E+03 -0.22185225093E+02  0.63758950653E+03  0.10100000352E+00 0.  1.
</event>
<event>
 5   0  0.1254125E-03  0.1319422E+04  0.7818609E-02  0.9014304E-01
        3   -1    0    0  501    0  0.00000000000E+00  0.00000000000E+00  0.23575116513E+04  0.23575116534E+04  0.10100000352E+00 0.  1.
       -3   -1    0    0    0  501  0.00000000000E+00  0.00000000000E+00 -0.18460929186E+03  0.18460931949E+03  0.10100000352E+00 0. -1.
    10030    2    1    2    0    0  0.00000000000E+00  0.00000000000E+00  0.21729023594E+04  0.25421209729E+04  0.13194219861E+04 0.  0.
        3    1    3    3  502    0  0.59896474438E+02 -0.22217527149E+03  0.22776852874E+04  0.22892793009E+04  0.10100000352E+00 0.  1.
       -3    1    3    3    0  502 -0.59896474438E+02  0.22217527149E+03 -0.10478292799E+03  0.25284167202E+03  0.10100000352E+00 0. -1.
</event>
<event>
 5   0  0.1823154E-03  0.1319820E+04  0.7818609E-02  0.9013993E-01
        1   -1    0    0  501    0  0.00000000000E+00  0.00000000000E+00  0.63925017505E+03  0.63925017507E+03  0.50400001928E-02 0. -1.
       -1   -1    0    0    0  501  0.00000000000E+00  0.00000000000E+00 -0.68123802096E+03  0.68123802097E+03  0.50400001928E-02 0.  1.
    10030    2    1    2    0    0  0.00000000000E+00  0.00000000000E+00 -0.41987845903E+02  0.13204881960E+04  0.13198204790E+04 0.  0.
        2    1    3    3  502    0 -0.43375956761E+03  0.22309729433E+03 -0.46569799135E+03  0.67438444850E+03  0.25500000920E-02 0.  1.
       -2    1    3    3    0  502  0.43375956761E+03 -0.22309729433E+03  0.42371014545E+03  0.64610374754E+03  0.25500000920E-02 0. -1.
</event>
<event>
 5   0  0.1254125E-03  0.1384136E+04  0.7818609E-02  0.8965382E-01
        3   -1    0    0  501    0  0.00000000000E+00  0.00000000000E+00  0.80483999066E+03  0.80483999700E+03  0.10100000352E+00 0.  1.
       -3   -1    0    0    0  501  0.00000000000E+00  0.00000000000E+00 -0.59509731181E+03  0.59509732038E+03  0.10100000352E+00 0. -1.
    10030    2    1    2    0    0  0.00000000000E+00  0.00000000000E+00  0.20974267885E+03  0.13999373174E+04  0.13841360126E+04 0.  0.
        5    1    3    3  502    0 -0.19809393887E+03  0.54455071836E+03 -0.27781210008E+03  0.64263391323E+03  0.46999998093E+01 0. -1.
       -5    1    3    3    0  502  0.19809393887E+03 -0.54455071836E+03  0.48755477893E+03  0.75730340415E+03  0.46999998093E+01 0.  1.
</event>
<event>
 5   0  0.3259968E-03  0.1172914E+04  0.7818609E-02  0.9136901E-01
        2   -1    0    0  501    0  0.00000000000E+00  0.00000000000E+00  0.12134238439E+04  0.12134238439E+04  0.25500000920E-02 0. -1.
       -2   -1    0    0    0  501  0.00000000000E+00  0.00000000000E+00 -0.28343896866E+03  0.28343896867E+03  0.25500000920E-02 0.  1.
    10030    2    1    2    0    0  0.00000000000E+00  0.00000000000E+00  0.92998487523E+03  0.14968628126E+04  0.11729136419E+04 0.  0.
        4    1    3    3  502    0 -0.28968325923E+03  0.47943521204E+03  0.24337748420E+03  0.61074440312E+03  0.12699999809E+01 0. -1.
       -4    1    3    3    0  502  0.28968325923E+03 -0.47943521204E+03  0.68660739103E+03  0.88611840944E+03  0.12699999809E+01 0.  1.
</event>
<event>
 5   0  0.1857986E-03  0.1315972E+04  0.7818609E-02  0.9016994E-01
        1   -1    0    0  501    0  0.00000000000E+00  0.00000000000E+00  0.69300390733E+03  0.69300390735E+03  0.50400001928E-02 0. -1.
       -1   -1    0    0    0  501  0.00000000000E+00  0.00000000000E+00 -0.62473737405E+03  0.62473737407E+03  0.50400001928E-02 0.  1.
    10030    2    1    2    0    0  0.00000000000E+00  0.00000000000E+00  0.68266533281E+02  0.13177412814E+04  0.13159717950E+04 0.  0.
        1    1    3    3  502    0 -0.30907087559E+03 -0.46992976589E+03 -0.30777372558E+03  0.64115790348E+03  0.50400001928E-02 0. -1.
       -1    1    3    3    0  502  0.30907087559E+03  0.46992976589E+03  0.37604025886E+03  0.67658337795E+03  0.50400001928E-02 0.  1.
</event>
<event>
 5   0  0.1873488E-03  0.1295254E+04  0.7818609E-02  0.9033337E-01
        1   -1    0    0  501    0  0.00000000000E+00  0.00000000000E+00  0.17989554986E+04  0.17989554987E+04  0.50400001928E-02 0. -1.
       -1   -1    0    0    0  501  0.00000000000E+00  0.00000000000E+00 -0.23314695239E+03  0.23314695244E+03  0.50400001928E-02 0.  1.
    10030    2    1    2    0    0  0.00000000000E+00  0.00000000000E+00  0.15658085463E+04  0.20321024511E+04  0.12952544029E+04 0.  0.
        3    1    3    3  502    0  0.28308995042E+03  0.57520504545E+03  0.92686770051E+03  0.11269802610E+04  0.10100000352E+00 0.  1.
       -3    1    3    3    0  502 -0.28308995042E+03 -0.57520504545E+03  0.63894084575E+03  0.90512219005E+03  0.10100000352E+00 0. -1.
</event>
<event>
 5   0  0.3299104E-03  0.1308691E+04  0.7818609E-02  0.9022701E-01
       -2   -1    0    0    0  501  0.00000000000E+00  0.00000000000E+00  0.36194633887E+03  0.36194633887E+03  0.25500000920E-02 0. -1.
        2   -1    0    0  501    0  0.00000000000E+00  0.00000000000E+00 -0.11829605477E+04  0.11829605478E+04  0.25500000920E-02 0.  1.
    10030    2    1    2    0    0  0.00000000000E+00  0.00000000000E+00 -0.82101420888E+03  0.15449068866E+04  0.13086913147E+04 0.  0.
        2    1    3    3  502    0  0.28780779928E+02  0.10305805602E+03  0.35154858599E+03  0.36747204591E+03  0.25500000920E-02 0. -1.
       -2    1    3    3    0  502 -0.28780779928E+02 -0.10305805602E+03 -0.11725627949E+04  0.11774348407E+04  0.25500000920E-02 0.  1.
</event>
<event>
 5   0  0.3259968E-03  0.1310483E+04  0.7818609E-02  0.9021293E-01
        2   -1    0    0  501    0  0.00000000000E+00  0.00000000000E+00  0.11668083384E+04  0.11668083384E+04  0.25500000920E-02 0.  1.
       -2   -1    0    0    0  501  0.00000000000E+00  0.00000000000E+00 -0.36796251080E+03  0.36796251081E+03  0.25500000920E-02 0. -1.
    10030    2    1    2    0    0  0.00000000000E+00  0.00000000000E+00  0.79884582759E+03  0.15347708492E+04  0.13104834617E+04 0.  0.
        4    1    3    3  502    0 -0.40681011261E+03  0.14731118177E+03 -0.17687865901E+03  0.46742135693E+03  0.12699999809E+01 0. -1.
       -4    1    3    3    0  502  0.40681011261E+03 -0.14731118177E+03  0.97572448660E+03  0.10673494923E+04  0.12699999809E+01 0.  1.
</event>
<event>
 5   0  0.1814770E-03  0.1284859E+04  0.7818609E-02  0.9041659E-01
        1   -1    0    0  501    0  0.00000000000E+00  0.00000000000E+00  0.84516810785E+03  0.84516810787E+03  0.50400001928E-02 0.  1.
       -1   -1    0    0    0  501  0.00000000000E+00  0.00000000000E+00 -0.48832356915E+03  0.48832356918E+03  0.50400001928E-02 0. -1.
    10030    2    1    2    0    0  0.00000000000E+00  0.00000000000E+00  0.35684453870E+03  0.13334916770E+04  0.12848587580E+04 0.  0.
        5    1    3    3  502    0  0.19567471218E+03  0.52291562774E+03 -0.15135319874E+03  0.57849738762E+03  0.46999998093E+01 0. -1.
       -5    1    3    3    0  502 -0.19567471218E+03 -0.52291562774E+03  0.50819773744E+03  0.75499428942E+03  0.46999998093E+01 0.  1.
</event>
<event>
 5   0  0.3259968E-03  0.1267225E+04  0.7818609E-02  0.9055968E-01
       -2   -1    0    0    0  501  0.00000000000E+00  0.00000000000E+00  0.29131599059E+03  0.29131599060E+03  0.25500000920E-02 0. -1.
        2   -1    0    0  501    0  0.00000000000E+00  0.00000000000E+00 -0.13781069093E+04  0.13781069093E+04  0.25500000920E-02 0.  1.
    10030    2    1    2    0    0  0.00000000000E+00  0.00000000000E+00 -0.10867909188E+04  0.16694228999E+04  0.12672246517E+04 0.  0.
        4    1    3    3  502    0  0.23805193944E+03 -0.66560551598E+02  0.22517647397E+03  0.33437268164E+03  0.12699999809E+01 0. -1.
       -4    1    3    3    0  502 -0.23805193944E+03  0.66560551598E+02 -0.13119673927E+04  0.13350502183E+04  0.12699999809E+01 0.  1.
</event>
<event>
 5   0  0.1823154E-03  0.1298391E+04  0.7818609E-02  0.9030842E-01
       -1   -1    0    0    0  501  0.00000000000E+00  0.00000000000E+00  0.35490445788E+03  0.35490445792E+03  0.50400001928E-02 0. -1.
        1   -1    0    0  501    0  0.00000000000E+00  0.00000000000E+00 -0.11875165684E+04  0.11875165684E+04  0.50400001928E-02 0.  1.
    10030    2    1    2    0    0  0.00000000000E+00  0.00000000000E+00 -0.83261211053E+03  0.15424210263E+04  0.12983911952E+04 0.  0.
        2    1    3    3  502    0  0.44654221993E+03 -0.22513741298E+03 -0.90807645567E+03  0.10366723968E+04  0.25500000920E-02 0.  1.
       -2    1    3    3    0  502 -0.44654221993E+03  0.22513741298E+03  0.75464345144E+02  0.50574862955E+03  0.25500000920E-02 0. -1.
</event>
<event>
 5   0  0.3294720E-03  0.1282955E+04  0.7818609E-02  0.9043193E-01
       -2   -1    0    0    0  501  0.00000000000E+00  0.00000000000E+00  0.27163055170E+03  0.27163055172E+03  0.25500000920E-02 0.  1.
        2   -1    0    0  501    0  0.00000000000E+00  0.00000000000E+00 -0.15148999973E+04  0.15148999973E+04  0.25500000920E-02 0. -1.
    10030    2    1    2    0    0  0.00000000000E+00  0.00000000000E+00 -0.12432694456E+04  0.17865305490E+04  0.12829545932E+04 0.  0.
        5    1    3    3  502    0  0.58984660181E+03  0.90926718079E+01 -0.97245214895E+03  0.11374036057E+04  0.46999998093E+01 0. -1.
       -5    1    3    3    0  502 -0.58984660181E+03 -0.90926718079E+01 -0.27081729667E+03  0.64912694331E+03  0.46999998093E+01 0.  1.
</event>
<event>
 5   0  0.1823154E-03  0.1306589E+04  0.7818609E-02  0.9024357E-01
       -1   -1    0    0    0  501  0.00000000000E+00  0.00000000000E+00  0.79310964648E+03  0.79310964649E+03  0.50400001928E-02 0.  1.
        1   -1    0    0  501    0  0.00000000000E+00  0.00000000000E+00 -0.53812669317E+03  0.53812669319E+03  0.50400001928E-02 0. -1.
    10030    2    1    2    0    0  0.00000000000E+00  0.00000000000E+00  0.25498295331E+03  0.13312363397E+04  0.13065886444E+04 0.  0.
        2    1    3    3  502    0  0.56524903919E+03  0.26441086089E+03  0.32446164066E+03  0.70334553097E+03  0.25500000920E-02 0.  1.
       -2    1    3    3    0  502 -0.56524903919E+03 -0.26441086089E+03 -0.69478687354E+02  0.62789080872E+03  0.25500000920E-02 0. -1.
</event>
<event>
 5   0  0.3262927E-03  0.1305805E+04  0.7818609E-02  0.9024974E-01
       -2   -1    0    0    0  501  0.00000000000E+00  0.00000000000E+00  0.29495831149E+03  0.29495831150E+03  0.25500000920E-02 0. -1.
        2   -1    0    0  501    0  0.00000000000E+00  0.00000000000E+00 -0.14452277119E+04  0.14452277119E+04  0.25500000920E-02 0.  1.
    10030    2    1    2    0    0  0.00000000000E+00  0.00000000000E+00 -0.11502694004E+04  0.17401860234E+04  0.13058053846E+04 0.  0.
        3    1    3    3  502    0  0.23077552916E+03 -0.56228540495E+03 -0.89290951915E+03  0.10801433428E+04  0.10100000352E+00 0. -1.
       -3    1    3    3    0  502 -0.23077552916E+03  0.56228540495E+03 -0.25735988127E+03  0.66004268057E+03  0.10100000352E+00 0.  1.
</event>
<event>
 5   0  0.1254125E-03  0.1333179E+04  0.7818609E-02  0.9003660E-01
       -4   -1    0    0    0  501  0.00000000000E+00  0.00000000000E+00  0.10708950321E+04  0.10708957852E+04  0.12699999809E+01 0.  1.
        4   -1    0    0  501    0  0.00000000000E+00  0.00000000000E+00 -0.41492327961E+03  0.41492522322E+03  0.12699999809E+01 0. -1.
    10030    2    1    2    0    0  0.00000000000E+00  0.00000000000E+00  0.65597175249E+03  0.14858210084E+04  0.13331785810E+04 0.  0.
        4    1    3    3  502    0 -0.49596858222E+03  0.23609882919E+03  0.74886411630E+03  0.92872308536E+03  0.12699999809E+01 0.  1.
       -4    1    3    3    0  502  0.49596858222E+03 -0.23609882919E+03 -0.92892363808E+02  0.55709792303E+03  0.12699999809E+01 0. -1.
</event>
<event>
 5   0  0.3299104E-03  0.1294028E+04  0.7818609E-02  0.9034315E-01
        2   -1    0    0  501    0  0.00000000000E+00  0.00000000000E+00  0.13339793240E+04  0.13339793240E+04  0.25500000920E-02 0.  1.
       -2   -1    0    0    0  501  0.00000000000E+00  0.00000000000E+00 -0.31381811006E+03  0.31381811007E+03  0.25500000920E-02 0. -1.
    10030    2    1    2    0    0  0.00000000000E+00  0.00000000000E+00  0.10201612139E+04  0.16477974340E+04  0.12940276200E+04 0.  0.
        2    1    3    3  502    0 -0.19591191601E+03  0.33760330579E+03 -0.14700341306E+03  0.41709408336E+03  0.25500000920E-02 0. -1.
       -2    1    3    3    0  502  0.19591191601E+03 -0.33760330579E+03  0.11671646270E+04  0.12307033507E+04  0.25500000920E-02 0.  1.
</event>
<event>
 5   0  0.1254125E-03  0.1210152E+04  0.7818609E-02  0.9104017E-01
       -3   -1    0    0    0  501  0.00000000000E+00  0.00000000000E+00  0.46067495128E+03  0.46067496235E+03  0.10100000352E+00 0. -1.
        3   -1    0    0  501    0  0.00000000000E+00  0.00000000000E+00 -0.79474013676E+03  0.79474014318E+03  0.10100000352E+00 0.  1.
    10030    2    1    2    0    0  0.00000000000E+00  0.00000000000E+00 -0.33406518548E+03  0.12554151055E+04  0.12101518661E+04 0.  0.
        2    1    3    3  502    0  0.26535556852E+03  0.53201050917E+03 -0.50270022181E+02  0.59663710474E+03  0.25500000920E-02 0. -1.
       -2    1    3    3    0  502 -0.26535556852E+03 -0.53201050917E+03 -0.28379516330E+03  0.65877800080E+03  0.25500000920E-02 0.  1.
</event>
<event>
 5   0  0.3259968E-03  0.1321114E+04  0.7818609E-02  0.9012987E-01
       -2   -1    0    0    0  501  0.00000000000E+00  0.00000000000E+00  0.10758496050E+04  0.10758496050E+04  0.25500000920E-02 0.  1.
        2   -1    0    0  501    0  0.00000000000E+00  0.00000000000E+00 -0.40557324431E+03  0.40557324432E+03  0.25500000920E-02 0. -1.
    10030    2    1    2    0    0  0.00000000000E+00  0.00000000000E+00  0.67027636068E+03  0.14814228493E+04  0.13211144003E+04 0.  0.
        4    1    3    3  502    0 -0.42870271618E+03  0.45544473522E+03  0.57332342903E+03  0.84847940038E+03  0.12699999809E+01 0.  1.
       -4    1    3    3    0  502  0.42870271618E+03 -0.45544473522E+03  0.96952931645E+02  0.63294344894E+03  0.12699999809E+01 0. -1.
</event>
<event>
 5   0  0.3294720E-03  0.1291370E+04  0.7818609E-02  0.9036437E-01
       -2   -1    0    0    0  501  0.00000000000E+00  0.00000000000E+00  0.45972915001E+03  0.45972915002E+03  0.25500000920E-02 0.  1.
        2   -1    0    0  501    0  0.00000000000E+00  0.00000000000E+00 -0.90685832449E+03  0.90685832449E+03  0.25500000920E-02 0. -1.
    10030    2    1    2    0    0  0.00000000000E+00  0.00000000000E+00 -0.44712917448E+03  0.13665874745E+04  0.12913701355E+04 0.  0.
        5    1    3    3  502    0  0.46266635773E+03 -0.11515043796E+03  0.23718870740E+03  0.53254141140E+03  0.46999998093E+01 0.  1.
       -5    1    3    3    0  502 -0.46266635773E+03  0.11515043796E+03 -0.68431788187E+03  0.83404606311E+03  0.46999998093E+01 0. -1.
</event>
<event>
 5   0  0.1803959E-03  0.1301541E+04  0.7818609E-02  0.9028344E-01
       -1   -1    0    0    0  501  0.00000000000E+00  0.00000000000E+00  0.47183201237E+03  0.47183201239E+03  0.50400001928E-02 0. -1.
        1   -1    0    0  501    0  0.00000000000E+00  0.00000000000E+00 -0.89756977569E+03  0.89756977571E+03  0.50400001928E-02 0.  1.
    10030    2    1    2    0    0  0.00000000000E+00  0.00000000000E+00 -0.42573776333E+03  0.13694017881E+04  0.13015408615E+04 0.  0.
        4    1    3    3  502    0  0.22986245664E+03 -0.59923055192E+03 -0.32612193398E+03  0.71991050280E+03  0.12699999809E+01 0.  1.
       -4    1    3    3    0  502 -0.22986245664E+03  0.59923055192E+03 -0.99615829350E+02  0.64949128530E+03  0.12699999809E+01 0. -1.
</event>
<event>
 5   0  0.1254125E-03  0.1308847E+04  0.7818609E-02  0.9022579E-01
       -4   -1    0    0    0  501  0.00000000000E+00  0.00000000000E+00  0.62666521580E+03  0.62666650269E+03  0.12699999809E+01 0.  1.
        4   -1    0    0  501    0  0.00000000000E+00  0.00000000000E+00 -0.68340843789E+03  0.68340961793E+03  0.12699999809E+01 0. -1.
    10030    2    1    2    0    0  0.00000000000E+00  0.00000000000E+00 -0.56743222088E+02  0.13100761206E+04  0.13088466864E+04 0.  0.
        3    1    3    3  502    0 -0.96542576572E+02 -0.61975453931E+03  0.15849532740E+03  0.64694430757E+03  0.10100000352E+00 0.  1.
       -3    1    3    3    0  502  0.96542576572E+02  0.61975453931E+03 -0.21523854949E+03  0.66313181305E+03  0.10100000352E+00 0. -1.
</event>
<event>
 5   0  0.3294720E-03  0.1298817E+04  0.7818609E-02  0.9030504E-01
       -2   -1    0    0    0  501  0.00000000000E+00  0.00000000000E+00  0.13746035885E+04  0.13746035885E+04  0.25500000920E-02 0.  1.
        2   -1    0    0  501    0  0.00000000000E+00  0.00000000000E+00 -0.30680223305E+03  0.30680223306E+03  0.25500000920E-02 0. -1.
    10030    2    1    2    0    0  0.00000000000E+00  0.00000000000E+00  0.10678013554E+04  0.16814058216E+04  0.12988170780E+04 0.  0.
        5    1    3    3  502    0  0.34053724399E+03  0.33834789367E+03  0.11000639372E+04  0.12002531682E+04  0.46999998093E+01 0.  1.
       -5    1    3    3    0  502 -0.34053724399E+03 -0.33834789367E+03 -0.32262581776E+02  0.48115265341E+03  0.46999998093E+01 0. -1.
</event>
<event>
 5   0  0.1873488E-03  0.1295605E+04  0.7818609E-02  0.9033057E-01
        1   -1    0    0  501    0  0.00000000000E+00  0.00000000000E+00  0.11825289781E+04  0.11825289781E+04  0.50400001928E-02 0. -1.
       -1   -1    0    0    0  501  0.00000000000E+00  0.00000000000E+00 -0.35487357192E+03  0.35487357196E+03  0.50400001928E-02 0.  1.
    10030    2    1    2    0    0  0.00000000000E+00  0.00000000000E+00  0.82765540614E+03  0.15374025500E+04  0.12956053139E+04 0.  0.
        3    1    3    3  502    0  0.55810194267E+02 -0.39498157022E+03  0.10195003440E+04  0.10947630703E+04  0.10100000352E+00 0. -1.
       -3    1    3    3    0  502 -0.55810194267E+02  0.39498157022E+03 -0.19184493785E+03  0.44263947968E+03  0.10100000352E+00 0.  1.
</event>
<event>
 5   0  0.3336609E-03  0.1263042E+04  0.7818609E-02  0.9059397E-01
       -2   -1    0    0    0  501  0.00000000000E+00  0.00000000000E+00  0.16833270606E+03  0.16833270607E+03  0.25500000920E-02 0.  1.
        2   -1    0    0  501    0  0.00000000000E+00  0.00000000000E+00 -0.23692306674E+04  0.23692306674E+04  0.25500000920E-02 0. -1.
    10030    2    1    2    0    0  0.00000000000E+00  0.00000000000E+00 -0.22008979614E+04  0.25375633735E+04  0.12630423739E+04 0.  0.
        1    1    3    3  502    0  0.35332807866E+03 -0.43370968614E+03 -0.16891981321E+04  0.17794198922E+04  0.50400001928E-02 0. -1.
       -1    1    3    3    0  502 -0.35332807866E+03  0.43370968614E+03 -0.51169982923E+03  0.75814348133E+03  0.50400001928E-02 0.  1.
</event>
<event>
 5   0  0.1857986E-03  0.1291650E+04  0.7818609E-02  0.9036213E-01
       -1   -1    0    0    0  501  0.00000000000E+00  0.00000000000E+00  0.45354085836E+03  0.45354085839E+03  0.50400001928E-02 0. -1.
        1   -1    0    0  501    0  0.00000000000E+00  0.00000000000E+00 -0.91963000670E+03  0.91963000671E+03  0.50400001928E-02 0.  1.
    10030    2    1    2    0    0  0.00000000000E+00  0.00000000000E+00 -0.46608914833E+03  0.13731708651E+04  0.12916497709E+04 0.  0.
        1    1    3    3  502    0 -0.14401080516E+02  0.26091187690E+03  0.39482963492E+03  0.47346894224E+03  0.50400001928E-02 0. -1.
       -1    1    3    3    0  502  0.14401080516E+02 -0.26091187690E+03 -0.86091878325E+03  0.89970192286E+03  0.50400001928E-02 0.  1.
</event>
<event>
 5   0  0.3336609E-03  0.1218184E+04  0.7818609E-02  0.9097087E-01
        2   -1    0    0  501    0  0.00000000000E+00  0.00000000000E+00  0.49605173101E+03  0.49605173102E+03  0.25500000920E-02 0.  1.
       -2   -1    0    0    0  501  0.00000000000E+00  0.00000000000E+00 -0.74789185274E+03  0.74789185274E+03  0.25500000920E-02 0. -1.
    10030    2    1    2    0    0  0.00000000000E+00  0.00000000000E+00 -0.25184012173E+03  0.12439435838E+04  0.12181839732E+04 0.  0.
        1    1    3    3  502    0  0.23610289425E+03  0.14504015605E+03  0.42796272070E+03  0.50983655604E+03  0.50400001928E-02 0.  1.
       -1    1    3    3    0  502 -0.23610289425E+03 -0.14504015605E+03 -0.67980284243E+03  0.73410702772E+03  0.50400001928E-02 0. -1.
</event>
<event>
 5   0  0.3336609E-03  0.1312970E+04  0.7818609E-02  0.9019343E-01
        2   -1    0    0  501    0  0.00000000000E+00  0.00000000000E+00  0.11996521915E+04  0.11996521915E+04  0.25500000920E-02 0. -1.
       -2   -1    0    0    0  501  0.00000000000E+00  0.00000000000E+00 -0.35924774114E+03  0.35924774115E+03  0.25500000920E-02 0.  1.
    10030    2    1    2    0    0  0.00000000000E+00  0.00000000000E+00  0.84040445032E+03  0.15588999326E+04  0.13129696721E+04 0.  0.
        1    1    3    3  502    0  0.42002326478E+03 -0.98473791759E+01  0.10191235040E+04  0.11023290027E+04  0.50400001928E-02 0. -1.
       -1    1    3    3    0  502 -0.42002326478E+03  0.98473791759E+01 -0.17871905369E+03  0.45657092988E+03  0.50400001928E-02 0.  1.
</event>
<event>
 5   0  0.3294720E-03  0.1327858E+04  0.7818609E-02  0.9007761E-01
       -2   -1    0    0    0  501  0.00000000000E+00  0.00000000000E+00  0.26709515965E+03  0.26709515966E+03  0.25500000920E-02 0.  1.
        2   -1    0    0  501    0  0.00000000000E+00  0.00000000000E+00 -0.16503545464E+04  0.16503545464E+04  0.25500000920E-02 0. -1.
    10030    2    1    2    0    0  0.00000000000E+00  0.00000000000E+00 -0.13832593868E+04  0.19174497061E+04  0.13278579910E+04 0.  0.
        5    1    3    3  502    0  0.10461553218E+02 -0.34449399236E+03  0.12777091892E+03  0.36760447847E+03  0.46999998093E+01 0.  1.
       -5    1    3    3    0  502 -0.10461553218E+02  0.34449399236E+03 -0.15110303057E+04  0.15498452276E+04  0.46999998093E+01 0. -1.
</event>
<event>
 5   0  0.3262927E-03  0.1317970E+04  0.7818609E-02  0.9015435E-01
        2   -1    0    0  501    0  0.00000000000E+00  0.00000000000E+00  0.83307078094E+03  0.83307078094E+03  0.25500000920E-02 0. -1.
       -2   -1    0    0    0  501  0.00000000000E+00  0.00000000000E+00 -0.52127743836E+03  0.52127743837E+03  0.25500000920E-02 0.  1.
    10030    2    1    2    0    0  0.00000000000E+00  0.00000000000E+00  0.31179334258E+03  0.13543482193E+04  0.13179696547E+04 0.  0.
        3    1    3    3  502    0 -0.44500687183E+03  0.17826200665E+03 -0.30874823259E+03  0.57020517388E+03  0.10100000352E+00 0.  1.
       -3    1    3    3    0  502  0.44500687183E+03 -0.17826200665E+03  0.62054157517E+03  0.78414304543E+03  0.10100000352E+00 0. -1.
</event>
<event>
 5   0  0.1823154E-03  0.1285220E+04  0.7818609E-02  0.9041368E-01
        1   -1    0    0  501    0  0.00000000000E+00  0.00000000000E+00  0.16776636726E+04  0.16776636726E+04  0.50400001928E-02 0. -1.
       -1   -1    0    0    0  501  0.00000000000E+00  0.00000000000E+00 -0.24614454334E+03  0.24614454339E+03  0.50400001928E-02 0.  1.
    10030    2    1    2    0    0  0.00000000000E+00  0.00000000000E+00  0.14315191293E+04  0.19238082160E+04  0.12852202280E+04 0.  0.
        2    1    3    3  502    0  0.34517893191E+03  0.37339996124E+03  0.12763663485E+03  0.52427772855E+03  0.25500000920E-02 0.  1.
       -2    1    3    3    0  502 -0.34517893191E+03 -0.37339996124E+03  0.13038824944E+04  0.13995304875E+04  0.25500000920E-02 0. -1.
</event>
<event>
 5   0  0.1873488E-03  0.1311210E+04  0.7818609E-02  0.9020723E-01
       -1   -1    0    0    0  501  0.00000000000E+00  0.00000000000E+00  0.71918857135E+03  0.71918857137E+03  0.50400001928E-02 0.  1.
        1   -1    0    0  501    0  0.00000000000E+00  0.00000000000E+00 -0.59764277369E+03  0.59764277371E+03  0.50400001928E-02 0. -1.
    10030    2    1    2    0    0  0.00000000000E+00  0.00000000000E+00  0.12154579766E+03  0.13168313451E+04  0.13112099033E+04 0.  0.
        3    1    3    3  502    0  0.51548277442E+03 -0.22207607186E+03  0.40101374354E+03  0.68982048761E+03  0.10100000352E+00 0.  1.
       -3    1    3    3    0  502 -0.51548277442E+03  0.22207607186E+03 -0.27946794588E+03  0.62701085747E+03  0.10100000352E+00 0. -1.
</event>
<event>
 5   0  0.1254125E-03  0.1068597E+04  0.7818609E-02  0.9236351E-01
        3   -1    0    0  501    0  0.00000000000E+00  0.00000000000E+00  0.97831729193E+03  0.97831729714E+03  0.10100000352E+00 0. -1.
       -3   -1    0    0    0  501  0.00000000000E+00  0.00000000000E+00 -0.29180211267E+03  0.29180213015E+03  0.10100000352E+00 0.  1.
    10030    2    1    2    0    0  0.00000000000E+00  0.00000000000E+00  0.68651517926E+03  0.12701194273E+04  0.10685973368E+04 0.  0.
        4    1    3    3  502    0  0.25063091883E+03 -0.10513494229E+03  0.89001245305E+03  0.93058744514E+03  0.12699999809E+01 0. -1.
       -4    1    3    3    0  502 -0.25063091883E+03  0.10513494229E+03 -0.20349727380E+03  0.33953198215E+03  0.12699999809E+01 0.  1.
</event>
<event>
 5   0  0.1823154E-03  0.1327418E+04  0.7818609E-02  0.9008100E-01
       -1   -1    0    0    0  501  0.00000000000E+00  0.00000000000E+00  0.44923583044E+03  0.44923583047E+03  0.50400001928E-02 0. -1.
        1   -1    0    0  501    0  0.00000000000E+00  0.00000000000E+00 -0.98057612079E+03  0.98057612081E+03  0.50400001928E-02 0.  1.
    10030    2    1    2    0    0  0.00000000000E+00  0.00000000000E+00 -0.53134029035E+03  0.14298119513E+04  0.13274184389E+04 0.  0.
        2    1    3    3  502    0 -0.16463754219E+03  0.37046459406E+03  0.30037591538E+03  0.50455448298E+03  0.25500000920E-02 0. -1.
       -2    1    3    3    0  502  0.16463754219E+03 -0.37046459406E+03 -0.83171620573E+03  0.92525746829E+03  0.25500000920E-02 0.  1.
</event>
<event>
 5   0  0.1857986E-03  0.1340227E+04  0.7818609E-02  0.8998260E-01
       -1   -1    0    0    0  501  0.00000000000E+00  0.00000000000E+00  0.39069580185E+03  0.39069580188E+03  0.50400001928E-02 0.  1.
        1   -1    0    0  501    0  0.00000000000E+00  0.00000000000E+00 -0.11493644989E+04  0.11493644989E+04  0.50400001928E-02 0. -1.
    10030    2    1    2    0    0  0.00000000000E+00  0.00000000000E+00 -0.75866869704E+03  0.15400603008E+04  0.13402266742E+04 0.  0.
        1    1    3    3  502    0  0.25636163010E+03  0.49789312559E+03 -0.80221885457E+03  0.97835266675E+03  0.50400001928E-02 0. -1.
       -1    1    3    3    0  502 -0.25636163010E+03 -0.49789312559E+03  0.43550157523E+02  0.56170763404E+03  0.50400001928E-02 0.  1.
</event>
<event>
 5   0  0.3336609E-03  0.1309197E+04  0.7818609E-02  0.9022303E-01
        2   -1    0    0  501    0  0.00000000000E+00  0.00000000000E+00  0.83914902051E+03  0.83914902051E+03  0.25500000920E-02 0.  1.
       -2   -1    0    0    0  501  0.00000000000E+00  0.00000000000E+00 -0.51063554550E+03  0.51063554551E+03  0.25500000920E-02 0. -1.
    10030    2    1    2    0    0  0.00000000000E+00  0.00000000000E+00  0.32851347501E+03  0.13497845660E+04  0.13091971858E+04 0.  0.
        1    1    3    3  502    0  0.54468557215E+02  0.51620053595E+03 -0.24694302379E+03  0.57481359941E+03  0.50400001928E-02 0. -1.
       -1    1    3    3    0  502 -0.54468557215E+02 -0.51620053595E+03  0.57545649880E+03  0.77497096661E+03  0.50400001928E-02 0.  1.
</event>
<event>
 5   0  0.1873488E-03  0.1310802E+04  0.7818609E-02  0.9021043E-01
        1   -1    0    0  501    0  0.00000000000E+00  0.00000000000E+00  0.89559133080E+03  0.89559133081E+03  0.50400001928E-02 0.  1.
       -1   -1    0    0    0  501  0.00000000000E+00  0.00000000000E+00 -0.47962768533E+03  0.47962768536E+03  0.50400001928E-02 0. -1.
    10030    2    1    2    0    0  0.00000000000E+00  0.00000000000E+00  0.41596364547E+03  0.13752190162E+04  0.13108018874E+04 0.  0.
        3    1    3    3  502    0  0.17877795578E+03 -0.37237342895E+03 -0.32587323587E+03  0.52613392223E+03  0.10100000352E+00 0. -1.
       -3    1    3    3    0  502 -0.17877795578E+03  0.37237342895E+03  0.74183688133E+03  0.84908509395E+03  0.10100000352E+00 0.  1.
</event>
<event>
 5   0  0.3299104E-03  0.1308431E+04  0.7818609E-02  0.9022906E-01
        2   -1    0    0  501    0  0.00000000000E+00  0.00000000000E+00  0.87192154857E+03  0.87192154857E+03  0.25500000920E-02 0.  1.
       -2   -1    0    0    0  501  0.00000000000E+00  0.00000000000E+00 -0.49086773686E+03  0.49086773687E+03  0.25500000920E-02 0. -1.
    10030    2    1    2    0    0  0.00000000000E+00  0.00000000000E+00  0.38105381171E+03  0.13627892854E+04  0.13084313620E+04 0.  0.
        2    1    3    3  502    0 -0.52210964420E+03 -0.21201824287E+03  0.53667072246E+03  0.77818100736E+03  0.25500000920E-02 0. -1.
       -2    1    3    3    0  502  0.52210964420E+03  0.21201824287E+03 -0.15561691075E+03  0.58460827807E+03  0.25500000920E-02 0.  1.
</event>
<event>
 5   0  0.1814770E-03  0.1327551E+04  0.7818609E-02  0.9007998E-01
       -1   -1    0    0    0  501  0.00000000000E+00  0.00000000000E+00  0.17239451091E+03  0.17239451098E+03  0.50400001928E-02 0. -1.
        1   -1    0    0  501    0  0.00000000000E+00  0.00000000000E+00 -0.25557554164E+04  0.25557554164E+04  0.50400001928E-02 0.  1.
    10030    2    1    2    0    0  0.00000000000E+00  0.00000000000E+00 -0.23833609055E+04  0.27281499274E+04  0.13275514380E+04 0.  0.
        5    1    3    3  502    0 -0.10556534608E+03  0.12731129361E+03 -0.25127010712E+04  0.25181423651E+04  0.46999998093E+01 0.  1.
       -5    1    3    3    0  502  0.10556534608E+03 -0.12731129361E+03  0.12934016567E+03  0.21000756231E+03  0.46999998093E+01 0. -1.
</event>
<event>
 5   0  0.3259968E-03  0.1302708E+04  0.7818609E-02  0.9027420E-01
       -2   -1    0    0    0  501  0.00000000000E+00  0.00000000000E+00  0.32146717790E+03  0.32146717791E+03  0.25500000920E-02 0. -1.
        2   -1    0    0  501    0  0.00000000000E+00  0.00000000000E+00 -0.13197687006E+04  0.13197687006E+04  0.25500000920E-02 0.  1.
    10030    2    1    2    0    0  0.00000000000E+00  0.00000000000E+00 -0.99830152270E+03  0.16412358785E+04  0.13027084396E+04 0.  0.
        4    1    3    3  502    0  0.50770508760E+03 -0.34675123793E+03 -0.77012361871E+03  0.98544044872E+03  0.12699999809E+01 0. -1.
       -4    1    3    3    0  502 -0.50770508760E+03  0.34675123793E+03 -0.22817790399E+03  0.65579542980E+03  0.12699999809E+01 0.  1.
</event>
<event>
 5   0  0.3336609E-03  0.1299916E+04  0.7818609E-02  0.9029631E-01
       -2   -1    0    0    0  501  0.00000000000E+00  0.00000000000E+00  0.13258742841E+03  0.13258742844E+03  0.25500000920E-02 0. -1.
        2   -1    0    0  501    0  0.00000000000E+00  0.00000000000E+00 -0.31861672521E+04  0.31861672521E+04  0.25500000920E-02 0.  1.
    10030    2    1    2    0    0  0.00000000000E+00  0.00000000000E+00 -0.30535798237E+04  0.33187546806E+04  0.12999164935E+04 0.  0.
        1    1    3    3  502    0 -0.33851143716E+03  0.17007042204E+03 -0.28751587176E+04  0.29000088953E+04  0.50400001928E-02 0.  1.
       -1    1    3    3    0  502  0.33851143716E+03 -0.17007042204E+03 -0.17842110615E+03  0.41874578528E+03  0.50400001928E-02 0. -1.
</event>
<event>
 5   0  0.3336609E-03  0.1296577E+04  0.7818609E-02  0.9032284E-01
       -2   -1    0    0    0  501  0.00000000000E+00  0.00000000000E+00  0.48108899878E+03  0.48108899878E+03  0.25500000920E-02 0.  1.
        2   -1    0    0  501    0  0.00000000000E+00  0.00000000000E+00 -0.87359715682E+03  0.87359715682E+03  0.25500000920E-02 0. -1.
    10030    2    1    2    0    0  0.00000000000E+00  0.00000000000E+00 -0.39250815804E+03  0.13546861556E+04  0.12965770035E+04 0.  0.
        1    1    3    3  502    0 -0.47597128820E+03 -0.42254876212E+03 -0.32499091750E+03  0.71464342160E+03  0.50400001928E-02 0. -1.
       -1    1    3    3    0  502  0.47597128820E+03  0.42254876212E+03 -0.67517240542E+02  0.64004273400E+03  0.50400001928E-02 0.  1.
</event>
<event>
 5   0  0.1803959E-03  0.1305592E+04  0.7818609E-02  0.9025142E-01
       -1   -1    0    0    0  501  0.00000000000E+00  0.00000000000E+00  0.38103634719E+03  0.38103634722E+03  0.50400001928E-02 0.  1.
        1   -1    0    0  501    0  0.00000000000E+00  0.00000000000E+00 -0.11183778929E+04  0.11183778929E+04  0.50400001928E-02 0. -1.
    10030    2    1    2    0    0  0.00000000000E+00  0.00000000000E+00 -0.73734154567E+03  0.14994142401E+04  0.13055920145E+04 0.  0.
        4    1    3    3  502    0  0.17873630181E+03  0.36020090420E+03  0.22191863024E+03  0.45928297195E+03  0.12699999809E+01 0.  1.
       -4    1    3    3    0  502 -0.17873630181E+03 -0.36020090420E+03 -0.95926017591E+03  0.10401312681E+04  0.12699999809E+01 0. -1.
</event>
<event>
 5   0  0.3259968E-03  0.1309017E+04  0.7818609E-02  0.9022445E-01
        2   -1    0    0  501    0  0.00000000000E+00  0.00000000000E+00  0.83741839273E+03  0.83741839273E+03  0.25500000920E-02 0. -1.
       -2   -1    0    0    0  501  0.00000000000E+00  0.00000000000E+00 -0.51155020321E+03  0.51155020322E+03  0.25500000920E-02 0.  1.
    10030    2    1    2    0    0  0.00000000000E+00  0.00000000000E+00  0.32586818951E+03  0.13489685959E+04  0.13090172634E+04 0.  0.
        4    1    3    3  502    0  0.30525064986E+03  0.25661913905E+03 -0.37189351863E+03  0.54528684549E+03  0.12699999809E+01 0.  1.
       -4    1    3    3    0  502 -0.30525064986E+03 -0.25661913905E+03  0.69776170814E+03  0.80368175046E+03  0.12699999809E+01 0. -1.
</event>
<event>
 5   0  0.3259968E-03  0.1293774E+04  0.7818609E-02  0.9034517E-01
        2   -1    0    0  501    0  0.00000000000E+00  0.00000000000E+00  0.13319054058E+04  0.13319054058E+04  0.25500000920E-02 0. -1.
       -2   -1    0    0    0  501  0.00000000000E+00  0.00000000000E+00 -0.31418366024E+03  0.31418366025E+03  0.25500000920E-02 0.  1.
    10030    2    1    2    0    0  0.00000000000E+00  0.00000000000E+00  0.10177217456E+04  0.16460890660E+04  0.12937741928E+04 0.  0.
        4    1    3    3  502    0  0.16765109854E+02  0.51871796774E+03  0.10001656687E+04  0.11268018356E+04  0.12699999809E+01 0. -1.
       -4    1    3    3    0  502 -0.16765109854E+02 -0.51871796774E+03  0.17556076864E+02  0.51928723045E+03  0.12699999809E+01 0.  1.
</event>
<event>
 5   0  0.1254125E-03  0.1302723E+04  0.7818609E-02  0.9027408E-01
       -4   -1    0    0    0  501  0.00000000000E+00  0.00000000000E+00  0.24309694639E+03  0.24310026377E+03  0.12699999809E+01 0.  1.
        4   -1    0    0  501    0  0.00000000000E+00  0.00000000000E+00 -0.17452631807E+04  0.17452636428E+04  0.12699999809E+01 0. -1.
    10030    2    1    2    0    0  0.00000000000E+00  0.00000000000E+00 -0.15021662343E+04  0.19883639065E+04  0.13027231591E+04 0.  0.
        5    1    3    3  502    0 -0.25099388986E+03 -0.21993698550E+03  0.10267012497E+03  0.34918971190E+03  0.46999998093E+01 0.  1.
       -5    1    3    3    0  502  0.25099388986E+03  0.21993698550E+03 -0.16048363593E+04  0.16391741946E+04  0.46999998093E+01 0. -1.
</event>
<event>
 5   0  0.3336609E-03  0.1279464E+04  0.7818609E-02  0.9046010E-01
        2   -1    0    0  501    0  0.00000000000E+00  0.00000000000E+00  0.55122372491E+03  0.55122372491E+03  0.25500000920E-02 0. -1.
       -2   -1    0    0    0  501  0.00000000000E+00  0.00000000000E+00 -0.74245220274E+03  0.74245220274E+03  0.25500000920E-02 0.  1.
    10030    2    1    2    0    0  0.00000000000E+00  0.00000000000E+00 -0.19122847783E+03  0.12936759277E+04  0.12794643704E+04 0.  0.
        1    1    3    3  502    0 -0.11519659988E+03  0.54581544381E+03 -0.41225801305E+03  0.69364358620E+03  0.50400001928E-02 0.  1.
       -1    1    3    3    0  502  0.11519659988E+03 -0.54581544381E+03  0.22102953522E+03  0.60003234145E+03  0.50400001928E-02 0. -1.
</event>
<event>
 5   0  0.1873488E-03  0.1229146E+04  0.7818609E-02  0.9087720E-01
        1   -1    0    0  501    0  0.00000000000E+00  0.00000000000E+00  0.94768511322E+03  0.94768511323E+03  0.50400001928E-02 0.  1.
       -1   -1    0    0    0  501  0.00000000000E+00  0.00000000000E+00 -0.39855035408E+03  0.39855035411E+03  0.50400001928E-02 0. -1.
    10030    2    1    2    0    0  0.00000000000E+00  0.00000000000E+00  0.54913475914E+03  0.13462354673E+04  0.12291464314E+04 0.  0.
        3    1    3    3  502    0  0.36773077056E+03  0.27406993001E+03  0.72263464075E+03  0.85588613750E+03  0.10100000352E+00 0.  1.
       -3    1    3    3    0  502 -0.36773077056E+03 -0.27406993001E+03 -0.17349988161E+03  0.49034932984E+03  0.10100000352E+00 0. -1.
</event>
<event>
 5   0  0.1814770E-03  0.1328346E+04  0.7818609E-02  0.9007384E-01
        1   -1    0    0  501    0  0.00000000000E+00  0.00000000000E+00  0.32878663304E+03  0.32878663308E+03  0.50400001928E-02 0.  1.
       -1   -1    0    0    0  501  0.00000000000E+00  0.00000000000E+00 -0.13416782243E+04  0.13416782243E+04  0.50400001928E-02 0. -1.
    10030    2    1    2    0    0  0.00000000000E+00  0.00000000000E+00 -0.10128915912E+04  0.16704648574E+04  0.13283461387E+04 0.  0.
        5    1    3    3  502    0  0.33596203011E+03  0.35835335710E+02  0.21261592836E+03  0.39922710322E+03  0.46999998093E+01 0.  1.
       -5    1    3    3    0  502 -0.33596203011E+03 -0.35835335710E+02 -0.12255075196E+04  0.12712377541E+04  0.46999998093E+01 0. -1.
</event>
<event>
 5   0  0.1814770E-03  0.1310128E+04  0.7818609E-02  0.9021572E-01
       -1   -1    0    0    0  501  0.00000000000E+00  0.00000000000E+00  0.26038949892E+03  0.26038949897E+03  0.50400001928E-02 0. -1.
        1   -1    0    0  501    0  0.00000000000E+00  0.00000000000E+00 -0.16479508275E+04  0.16479508275E+04  0.50400001928E-02 0.  1.
    10030    2    1    2    0    0  0.00000000000E+00  0.00000000000E+00 -0.13875613285E+04  0.19083403264E+04  0.13101283758E+04 0.  0.
        5    1    3    3  502    0 -0.35489876738E+03 -0.32415523941E+03 -0.13420229281E+04  0.14255095173E+04  0.46999998093E+01 0.  1.
       -5    1    3    3    0  502  0.35489876738E+03  0.32415523941E+03 -0.45538400409E+02  0.48283080912E+03  0.46999998093E+01 0. -1.
</event>
<event>
 5   0  0.1823154E-03  0.1314460E+04  0.7818609E-02  0.9018176E-01
        1   -1    0    0  501    0  0.00000000000E+00  0.00000000000E+00  0.50162339434E+03  0.50162339437E+03  0.50400001928E-02 0. -1.
       -1   -1    0    0    0  501  0.00000000000E+00  0.00000000000E+00 -0.86110673068E+03  0.86110673070E+03  0.50400001928E-02 0.  1.
    10030    2    1    2    0    0  0.00000000000E+00  0.00000000000E+00 -0.35948333634E+03  0.13627301251E+04  0.13144600126E+04 0.  0.
        2    1    3    3  502    0 -0.38076150410E+03 -0.31527931342E+03  0.26925717662E+03  0.56292077208E+03  0.25500000920E-02 0. -1.
       -2    1    3    3    0  502  0.38076150410E+03  0.31527931342E+03 -0.62874051296E+03  0.79980935298E+03  0.25500000920E-02 0.  1.
</event>
<event>
 5   0  0.3262927E-03  0.1328933E+04  0.7818609E-02  0.9006931E-01
        2   -1    0    0  501    0  0.00000000000E+00  0.00000000000E+00  0.67642409514E+03  0.67642409515E+03  0.25500000920E-02 0.  1.
       -2   -1    0    0    0  501  0.00000000000E+00  0.00000000000E+00 -0.65272012839E+03  0.65272012839E+03  0.25500000920E-02 0. -1.
    10030    2    1    2    0    0  0.00000000000E+00  0.00000000000E+00  0.23703966756E+02  0.13291442235E+04  0.13289328384E+04 0.  0.
        3    1    3    3  502    0  0.18487871966E+02  0.42952357331E+02 -0.65107235576E+03  0.65274951478E+03  0.10100000352E+00 0. -1.
       -3    1    3    3    0  502 -0.18487871966E+02 -0.42952357331E+02  0.67477632252E+03  0.67639470876E+03  0.10100000352E+00 0.  1.
</event>
<event>
 5   0  0.3294720E-03  0.1330308E+04  0.7818609E-02  0.9005870E-01
       -2   -1    0    0    0  501  0.00000000000E+00  0.00000000000E+00  0.60075609120E+03  0.60075609121E+03  0.25500000920E-02 0.  1.
        2   -1    0    0  501    0  0.00000000000E+00  0.00000000000E+00 -0.73645548628E+03  0.73645548628E+03  0.25500000920E-02 0. -1.
    10030    2    1    2    0    0  0.00000000000E+00  0.00000000000E+00 -0.13569939508E+03  0.13372115775E+04  0.13303084143E+04 0.  0.
        5    1    3    3  502    0  0.14692669629E+03  0.64870105987E+03 -0.70604380548E+02  0.66888533226E+03  0.46999998093E+01 0. -1.
       -5    1    3    3    0  502 -0.14692669629E+03 -0.64870105987E+03 -0.65095014530E+02  0.66832624524E+03  0.46999998093E+01 0.  1.
</event>
<event>
 5   0  0.3299104E-03  0.1291039E+04  0.7818609E-02  0.9036702E-01
        2   -1    0    0  501    0  0.00000000000E+00  0.00000000000E+00  0.19326565428E+04  0.19326565428E+04  0.25500000920E-02 0.  1.
       -2   -1    0    0    0  501  0.00000000000E+00  0.00000000000E+00 -0.21560746418E+03  0.21560746420E+03  0.25500000920E-02 0. -1.
    10030    2    1    2    0    0  0.00000000000E+00  0.00000000000E+00  0.17170490786E+04  0.21482640070E+04  0.12910386150E+04 0.  0.
        2    1    3    3  502    0 -0.53859648521E+03  0.21304638772E+03  0.13327452880E+04  0.14531637691E+04  0.25500000920E-02 0.  1.
       -2    1    3    3    0  502  0.53859648521E+03 -0.21304638772E+03  0.38430379061E+03  0.69510023787E+03  0.25500000920E-02 0. -1.
</event>
<event>
 5   0  0.1823154E-03  0.1378218E+04  0.7818609E-02  0.8969738E-01
        1   -1    0    0  501    0  0.00000000000E+00  0.00000000000E+00  0.73332496536E+03  0.73332496538E+03  0.50400001928E-02 0.  1.
       -1   -1    0    0    0  501  0.00000000000E+00  0.00000000000E+00 -0.64755880153E+03  0.64755880155E+03  0.50400001928E-02 0. -1.
    10030    2    1    2    0    0  0.00000000000E+00  0.00000000000E+00  0.85766163828E+02  0.13808837669E+04  0.13782177415E+04 0.  0.
        2    1    3    3  502    0  0.81022590316E+02  0.14193291453E+03  0.71362666029E+03  0.73210151117E+03  0.25500000920E-02 0.  1.
       -2    1    3    3    0  502 -0.81022590316E+02 -0.14193291453E+03 -0.62786049646E+03  0.64878225576E+03  0.25500000920E-02 0. -1.
</event>
<event>
 5   0  0.3336609E-03  0.1110217E+04  0.7818609E-02  0.9195291E-01
        2   -1    0    0  501    0  0.00000000000E+00  0.00000000000E+00  0.10116823329E+04  0.10116823329E+04  0.25500000920E-02 0. -1.
       -2   -1    0    0    0  501  0.00000000000E+00  0.00000000000E+00 -0.30458708853E+03  0.30458708854E+03  0.25500000920E-02 0.  1.
    10030    2    1    2    0    0  0.00000000000E+00  0.00000000000E+00  0.70709524440E+03  0.13162694215E+04  0.11102168731E+04 0.  0.
        1    1    3    3  502    0 -0.48803601583E+03 -0.25787754564E+03  0.28375438534E+03  0.62064203251E+03  0.50400001928E-02 0. -1.
       -1    1    3    3    0  502  0.48803601583E+03  0.25787754564E+03  0.42334085906E+03  0.69562738895E+03  0.50400001928E-02 0.  1.
</event>
<event>
 5   0  0.1254125E-03  0.1338204E+04  0.7818609E-02  0.8999806E-01
       -3   -1    0    0    0  501  0.00000000000E+00  0.00000000000E+00  0.98217974837E+03  0.98217975356E+03  0.10100000352E+00 0. -1.
        3   -1    0    0  501    0  0.00000000000E+00  0.00000000000E+00 -0.45582033939E+03  0.45582035058E+03  0.10100000352E+00 0.  1.
    10030    2    1    2    0    0  0.00000000000E+00  0.00000000000E+00  0.52635940898E+03  0.14380001041E+04  0.13382040473E+04 0.  0.
        4    1    3    3  502    0  0.22620736095E+02 -0.45520539419E+03  0.78958117781E+03  0.91168179638E+03  0.12699999809E+01 0. -1.
       -4    1    3    3    0  502 -0.22620736095E+02  0.45520539419E+03 -0.26322176883E+03  0.52631830776E+03  0.12699999809E+01 0.  1.
</event>
<event>
 5   0  0.1254125E-03  0.1326661E+04  0.7818609E-02  0.9008686E-01
       -4   -1    0    0    0  501  0.00000000000E+00  0.00000000000E+00  0.97190752694E+03  0.97190835670E+03  0.12699999809E+01 0.  1.
        4   -1    0    0  501    0  0.00000000000E+00  0.00000000000E+00 -0.45272350515E+03  0.45272528647E+03  0.12699999809E+01 0. -1.
    10030    2    1    2    0    0  0.00000000000E+00  0.00000000000E+00  0.51918402179E+03  0.14246336432E+04  0.13266608341E+04 0.  0.
        1    1    3    3  502    0 -0.63516492975E+03  0.37636134120E+02  0.58245217160E+02  0.63893933352E+03  0.50400001928E-02 0. -1.
       -1    1    3    3    0  502  0.63516492975E+03 -0.37636134120E+02  0.46093880463E+03  0.78569430965E+03  0.50400001928E-02 0.  1.
</event>
<event>
 5   0  0.1857986E-03  0.1292617E+04  0.7818609E-02  0.9035440E-01
        1   -1    0    0  501    0  0.00000000000E+00  0.00000000000E+00  0.15883356896E+04  0.15883356897E+04  0.50400001928E-02 0. -1.
       -1   -1    0    0    0  501  0.00000000000E+00  0.00000000000E+00 -0.26298897225E+03  0.26298897230E+03  0.50400001928E-02 0.  1.
    10030    2    1    2    0    0  0.00000000000E+00  0.00000000000E+00  0.13253467174E+04  0.18513246620E+04  0.12926171446E+04 0.  0.
        1    1    3    3  502    0 -0.58112540526E+03  0.71471835209E+02  0.10546435446E+04  0.12062702707E+04  0.50400001928E-02 0. -1.
       -1    1    3    3    0  502  0.58112540526E+03 -0.71471835209E+02  0.27070317283E+03  0.64505439125E+03  0.50400001928E-02 0.  1.
</event>
<event>
 5   0  0.1873488E-03  0.1306864E+04  0.7818609E-02  0.9024140E-01
        1   -1    0    0  501    0  0.00000000000E+00  0.00000000000E+00  0.11510564832E+04  0.11510564832E+04  0.50400001928E-02 0. -1.
       -1   -1    0    0    0  501  0.00000000000E+00  0.00000000000E+00 -0.37094041026E+03  0.37094041029E+03  0.50400001928E-02 0.  1.
    10030    2    1    2    0    0  0.00000000000E+00  0.00000000000E+00  0.78011607294E+03  0.15219968935E+04  0.13068639778E+04 0.  0.
        3    1    3    3  502    0  0.17841010161E+03  0.51439554849E+02  0.11196862834E+04  0.11349773459E+04  0.10100000352E+00 0. -1.
       -3    1    3    3    0  502 -0.17841010161E+03 -0.51439554849E+02 -0.33957021051E+03  0.38701954760E+03  0.10100000352E+00 0.  1.
</event>
<event>
 5   0  0.1823154E-03  0.1312166E+04  0.7818609E-02  0.9019973E-01
       -1   -1    0    0    0  501  0.00000000000E+00  0.00000000000E+00  0.67588185445E+03  0.67588185447E+03  0.50400001928E-02 0.  1.
        1   -1    0    0  501    0  0.00000000000E+00  0.00000000000E+00 -0.63686376888E+03  0.63686376890E+03  0.50400001928E-02 0. -1.
    10030    2    1    2    0    0  0.00000000000E+00  0.00000000000E+00  0.39018085570E+02  0.13127456234E+04  0.13121656377E+04 0.  0.
        2    1    3    3  502    0  0.26221738236E+03 -0.34848669774E+03  0.50987233317E+03  0.67094763600E+03  0.25500000920E-02 0.  1.
       -2    1    3    3    0  502 -0.26221738236E+03  0.34848669774E+03 -0.47085424760E+03  0.64179798738E+03  0.25500000920E-02 0. -1.
</event>
<event>
 5   0  0.1873488E-03  0.1282421E+04  0.7818609E-02  0.9043622E-01
       -1   -1    0    0    0  501  0.00000000000E+00  0.00000000000E+00  0.30295612752E+03  0.30295612756E+03  0.50400001928E-02 0.  1.
        1   -1    0    0  501    0  0.00000000000E+00  0.00000000000E+00 -0.13571311636E+04  0.13571311636E+04  0.50400001928E-02 0. -1.
    10030    2    1    2    0    0  0.00000000000E+00  0.00000000000E+00 -0.10541750361E+04  0.16600872912E+04  0.12824214626E+04 0.  0.
        3    1    3    3  502    0  0.45725096875E+03 -0.28387948897E+03 -0.97827993926E+03  0.11165561618E+04  0.10100000352E+00 0. -1.
       -3    1    3    3    0  502 -0.45725096875E+03  0.28387948897E+03 -0.75895096819E+02  0.54353112938E+03  0.10100000352E+00 0.  1.
</event>
<event>
 5   0  0.1803959E-03  0.1320015E+04  0.7818609E-02  0.9013842E-01
       -1   -1    0    0    0  501  0.00000000000E+00  0.00000000000E+00  0.43656667811E+03  0.43656667814E+03  0.50400001928E-02 0. -1.
        1   -1    0    0  501    0  0.00000000000E+00  0.00000000000E+00 -0.99780774557E+03  0.99780774558E+03  0.50400001928E-02 0.  1.
    10030    2    1    2    0    0  0.00000000000E+00  0.00000000000E+00 -0.56124106746E+03  0.14343744237E+04  0.13200145649E+04 0.  0.
        4    1    3    3  502    0  0.38705269782E+01  0.57756767847E+02  0.43380162261E+03  0.43764858721E+03  0.12699999809E+01 0. -1.
       -4    1    3    3    0  502 -0.38705269782E+01 -0.57756767847E+02 -0.99504269007E+03  0.99672583651E+03  0.12699999809E+01 0.  1.
</event>
<event>
 5   0  0.1823154E-03  0.1254106E+04  0.7818609E-02  0.9066773E-01
       -1   -1    0    0    0  501  0.00000000000E+00  0.00000000000E+00  0.34105375302E+03  0.34105375305E+03  0.50400001928E-02 0. -1.
        1   -1    0    0  501    0  0.00000000000E+00  0.00000000000E+00 -0.11528841171E+04  0.11528841171E+04  0.50400001928E-02 0.  1.
    10030    2    1    2    0    0  0.00000000000E+00  0.00000000000E+00 -0.81183036410E+03  0.14939378702E+04  0.12541059843E+04 0.  0.
        2    1    3    3  502    0  0.58619004087E+03 -0.96077982489E+02 -0.64518999727E+03  0.87699479777E+03  0.25500000920E-02 0.  1.
       -2    1    3    3    0  502 -0.58619004087E+03  0.96077982489E+02 -0.16664036683E+03  0.61694307241E+03  0.25500000920E-02 0. -1.
</event>
<event>
 5   0  0.3299104E-03  0.1311268E+04  0.7818609E-02  0.9020677E-01
       -2   -1    0    0    0  501  0.00000000000E+00  0.00000000000E+00  0.55223843076E+03  0.55223843077E+03  0.25500000920E-02 0. -1.
        2   -1    0    0  501    0  0.00000000000E+00  0.00000000000E+00 -0.77838888096E+03  0.77838888096E+03  0.25500000920E-02 0.  1.
    10030    2    1    2    0    0  0.00000000000E+00  0.00000000000E+00 -0.22615045020E+03  0.13306273117E+04  0.13112684762E+04 0.  0.
        2    1    3    3  502    0 -0.58686566367E+03 -0.28954537552E+03 -0.72377992526E+02  0.65839684499E+03  0.25500000920E-02 0. -1.
       -2    1    3    3    0  502  0.58686566367E+03  0.28954537552E+03 -0.15377245767E+03  0.67223046675E+03  0.25500000920E-02 0.  1.
</event>
<event>
 5   0  0.1823154E-03  0.1274314E+04  0.7818609E-02  0.9050186E-01
       -1   -1    0    0    0  501  0.00000000000E+00  0.00000000000E+00  0.18565474565E+04  0.18565474566E+04  0.50400001928E-02 0. -1.
        1   -1    0    0  501    0  0.00000000000E+00  0.00000000000E+00 -0.21866892083E+03  0.21866892089E+03  0.50400001928E-02 0.  1.
    10030    2    1    2    0    0  0.00000000000E+00  0.00000000000E+00  0.16378785357E+04  0.20752163774E+04  0.12743142923E+04 0.  0.
        2    1    3    3  502    0  0.35662640750E+03  0.51060983932E+03  0.10378156589E+04  0.12103578580E+04  0.25500000920E-02 0. -1.
       -2    1    3    3    0  502 -0.35662640750E+03 -0.51060983932E+03  0.60006287683E+03  0.86485851947E+03  0.25500000920E-02 0.  1.
</event>
<event>
 5   0  0.1814770E-03  0.1314420E+04  0.7818609E-02  0.9018208E-01
        1   -1    0    0  501    0  0.00000000000E+00  0.00000000000E+00  0.21979138707E+04  0.21979138707E+04  0.50400001928E-02 0.  1.
       -1   -1    0    0    0  501  0.00000000000E+00  0.00000000000E+00 -0.19651573533E+03  0.19651573539E+03  0.50400001928E-02 0. -1.
    10030    2    1    2    0    0  0.00000000000E+00  0.00000000000E+00  0.20013981354E+04  0.23944296061E+04  0.13144195077E+04 0.  0.
        5    1    3    3  502    0  0.53817824315E+03  0.12349512625E+03  0.16499263860E+04  0.17398752934E+04  0.46999998093E+01 0.  1.
       -5    1    3    3    0  502 -0.53817824315E+03 -0.12349512625E+03  0.35147174942E+03  0.65455431267E+03  0.46999998093E+01 0. -1.
</event>
<event>
 5   0  0.1254125E-03  0.1304133E+04  0.7818609E-02  0.9026294E-01
        3   -1    0    0  501    0  0.00000000000E+00  0.00000000000E+00  0.34962400883E+03  0.34962402342E+03  0.10100000352E+00 0.  1.
       -3   -1    0    0    0  501  0.00000000000E+00  0.00000000000E+00 -0.12161364017E+04  0.12161364059E+04  0.10100000352E+00 0. -1.
    10030    2    1    2    0    0  0.00000000000E+00  0.00000000000E+00 -0.86651239290E+03  0.15657604293E+04  0.13041326601E+04 0.  0.
        2    1    3    3  502    0 -0.22069980456E+03 -0.14257430081E+03 -0.11497671924E+04  0.11794068135E+04  0.25500000920E-02 0. -1.
       -2    1    3    3    0  502  0.22069980456E+03  0.14257430081E+03  0.28325479954E+03  0.38635361582E+03  0.25500000920E-02 0.  1.
</event>
<event>
 5   0  0.3262927E-03  0.1314739E+04  0.7818609E-02  0.9017958E-01
       -2   -1    0    0    0  501  0.00000000000E+00  0.00000000000E+00  0.21804152940E+03  0.21804152941E+03  0.25500000920E-02 0. -1.
        2   -1    0    0  501    0  0.00000000000E+00  0.00000000000E+00 -0.19818928907E+04  0.19818928907E+04  0.25500000920E-02 0.  1.
    10030    2    1    2    0    0  0.00000000000E+00  0.00000000000E+00 -0.17638513613E+04  0.21999344201E+04  0.13147394525E+04 0.  0.
        3    1    3    3  502    0  0.30396863358E+02 -0.43345410498E+03 -0.56521729608E+02  0.43817935431E+03  0.10100000352E+00 0. -1.
       -3    1    3    3    0  502 -0.30396863358E+02  0.43345410498E+03 -0.17073296317E+04  0.17617550658E+04  0.10100000352E+00 0.  1.
</event>
<event>
 5   0  0.3262927E-03  0.1297794E+04  0.7818609E-02  0.9031316E-01
       -2   -1    0    0    0  501  0.00000000000E+00  0.00000000000E+00  0.58927339494E+03  0.58927339495E+03  0.25500000920E-02 0. -1.
        2   -1    0    0  501    0  0.00000000000E+00  0.00000000000E+00 -0.71455367078E+03  0.71455367078E+03  0.25500000920E-02 0.  1.
    10030    2    1    2    0    0  0.00000000000E+00  0.00000000000E+00 -0.12528027584E+03  0.13038270657E+04  0.12977942325E+04 0.  0.
        3    1    3    3  502    0 -0.56205635476E+03 -0.17196329959E+03 -0.33885223226E+03  0.67845380671E+03  0.10100000352E+00 0.  1.
       -3    1    3    3    0  502  0.56205635476E+03  0.17196329959E+03  0.21357195642E+03  0.62537325902E+03  0.10100000352E+00 0. -1.
</event>
<event>
 5   0  0.3259968E-03  0.1312550E+04  0.7818609E-02  0.9019672E-01
       -2   -1    0    0    0  501  0.00000000000E+00  0.00000000000E+00  0.56276431904E+03  0.56276431905E+03  0.25500000920E-02 0. -1.
        2   -1    0    0  501    0  0.00000000000E+00  0.00000000000E+00 -0.76532338377E+03  0.76532338378E+03  0.25500000920E-02 0.  1.
    10030    2    1    2    0    0  0.00000000000E+00  0.00000000000E+00 -0.20255906473E+03  0.13280877028E+04  0.13125497216E+04 0.  0.
        4    1    3    3  502    0  0.53876251218E+03  0.34182674471E+03 -0.25667002349E+03  0.68774390713E+03  0.12699999809E+01 0.  1.
       -4    1    3    3    0  502 -0.53876251218E+03 -0.34182674471E+03  0.54110958756E+02  0.64034379570E+03  0.12699999809E+01 0. -1.
</event>
<event>
 5   0  0.3262927E-03  0.1282729E+04  0.7818609E-02  0.9043375E-01
        2   -1    0    0  501    0  0.00000000000E+00  0.00000000000E+00  0.72008907903E+03  0.72008907904E+03  0.25500000920E-02 0. -1.
       -2   -1    0    0    0  501  0.00000000000E+00  0.00000000000E+00 -0.57124618838E+03  0.57124618839E+03  0.25500000920E-02 0.  1.
    10030    2    1    2    0    0  0.00000000000E+00  0.00000000000E+00  0.14884289065E+03  0.12913352674E+04  0.12827285632E+04 0.  0.
        3    1    3    3  502    0 -0.48424226515E+03 -0.37927231357E+03 -0.10848435765E+03  0.62458540269E+03  0.10100000352E+00 0.  1.
       -3    1    3    3    0  502  0.48424226515E+03  0.37927231357E+03  0.25732724830E+03  0.66674986473E+03  0.10100000352E+00 0. -1.
</event>
<event>
 5   0  0.3336609E-03  0.1292065E+04  0.7818609E-02  0.9035882E-01
        2   -1    0    0  501    0  0.00000000000E+00  0.00000000000E+00  0.58025678254E+03  0.58025678255E+03  0.25500000920E-02 0. -1.
       -2   -1    0    0    0  501  0.00000000000E+00  0.00000000000E+00 -0.71926419478E+03  0.71926419478E+03  0.25500000920E-02 0.  1.
    10030    2    1    2    0    0  0.00000000000E+00  0.00000000000E+00 -0.13900741224E+03  0.12995209773E+04  0.12920649016E+04 0.  0.
        1    1    3    3  502    0  0.30711236566E+03  0.13083127740E+03  0.48679122195E+03  0.59025462478E+03  0.50400001928E-02 0. -1.
       -1    1    3    3    0  502 -0.30711236566E+03 -0.13083127740E+03 -0.62579863419E+03  0.70926635255E+03  0.50400001928E-02 0.  1.
</event>
<event>
 5   0  0.3262927E-03  0.1202857E+04  0.7818609E-02  0.9110359E-01
        2   -1    0    0  501    0  0.00000000000E+00  0.00000000000E+00  0.92238664596E+03  0.92238664597E+03  0.25500000920E-02 0.  1.
       -2   -1    0    0    0  501  0.00000000000E+00  0.00000000000E+00 -0.39215260240E+03  0.39215260241E+03  0.25500000920E-02 0. -1.
    10030    2    1    2    0    0  0.00000000000E+00  0.00000000000E+00  0.53023404356E+03  0.13145392484E+04  0.12028571381E+04 0.  0.
        3    1    3    3  502    0  0.29467021229E+03  0.48202405086E+03  0.49051554819E+03  0.74818662968E+03  0.10100000352E+00 0.  1.
       -3    1    3    3    0  502 -0.29467021229E+03 -0.48202405086E+03  0.39718495372E+02  0.56635261869E+03  0.10100000352E+00 0. -1.
</event>
<event>
 5   0  0.3294720E-03  0.1312096E+04  0.7818609E-02  0.9020027E-01
       -2   -1    0    0    0  501  0.00000000000E+00  0.00000000000E+00  0.44838401940E+03  0.44838401940E+03  0.25500000920E-02 0.  1.
        2   -1    0    0  501    0  0.00000000000E+00  0.00000000000E+00 -0.95988972271E+03  0.95988972271E+03  0.25500000920E-02 0. -1.
    10030    2    1    2    0    0  0.00000000000E+00  0.00000000000E+00 -0.51150570331E+03  0.14082737421E+04  0.13120963563E+04 0.  0.
        5    1    3    3  502    0 -0.11574586556E+03 -0.36964806911E+03 -0.82403516009E+03  0.91054535058E+03  0.46999998093E+01 0. -1.
       -5    1    3    3    0  502  0.11574586556E+03  0.36964806911E+03  0.31252945678E+03  0.49772839154E+03  0.46999998093E+01 0.  1.
</event>
<event>
 5   0  0.1873488E-03  0.1305208E+04  0.7818609E-02  0.9025446E-01
       -1   -1    0    0    0  501  0.00000000000E+00  0.00000000000E+00  0.12542567692E+04  0.12542567693E+04  0.50400001928E-02 0. -1.
        1   -1    0    0  501    0  0.00000000000E+00  0.00000000000E+00 -0.33955701210E+03  0.33955701213E+03  0.50400001928E-02 0.  1.
    10030    2    1    2    0    0  0.00000000000E+00  0.00000000000E+00  0.91469975715E+03  0.15938137814E+04  0.13052075406E+04 0.  0.
        3    1    3    3  502    0 -0.53862420518E+03  0.24367694097E+03  0.11983207875E+03  0.60320330177E+03  0.10100000352E+00 0.  1.
       -3    1    3    3    0  502  0.53862420518E+03 -0.24367694097E+03  0.79486767840E+03  0.99061047962E+03  0.10100000352E+00 0. -1.
</event>
<event>
 5   0  0.1857986E-03  0.1280460E+04  0.7818609E-02  0.9045206E-01
       -1   -1    0    0    0  501  0.00000000000E+00  0.00000000000E+00  0.31238737800E+03  0.31238737804E+03  0.50400001928E-02 0. -1.
        1   -1    0    0  501    0  0.00000000000E+00  0.00000000000E+00 -0.13121351062E+04  0.13121351062E+04  0.50400001928E-02 0.  1.
    10030    2    1    2    0    0  0.00000000000E+00  0.00000000000E+00 -0.99974772815E+03  0.16245224842E+04  0.12804599883E+04 0.  0.
        1    1    3    3  502    0 -0.69781854361E+02 -0.15968226241E+03  0.28171934016E+03  0.33126080174E+03  0.50400001928E-02 0. -1.
       -1    1    3    3    0  502  0.69781854361E+02  0.15968226241E+03 -0.12814670683E+04  0.12932616825E+04  0.50400001928E-02 0.  1.
</event>
<event>
 5   0  0.1873488E-03  0.1329881E+04  0.7818609E-02  0.9006199E-01
        1   -1    0    0  501    0  0.00000000000E+00  0.00000000000E+00  0.11358434598E+04  0.11358434598E+04  0.50400001928E-02 0.  1.
       -1   -1    0    0    0  501  0.00000000000E+00  0.00000000000E+00 -0.38926670704E+03  0.38926670708E+03  0.50400001928E-02 0. -1.
    10030    2    1    2    0    0  0.00000000000E+00  0.00000000000E+00  0.74657675274E+03  0.15251101669E+04  0.13298812629E+04 0.  0.
        3    1    3    3  502    0 -0.29966169620E+03  0.20455941382E+03  0.10123197660E+04  0.10753757505E+04  0.10100000352E+00 0.  1.
       -3    1    3    3    0  502  0.29966169620E+03 -0.20455941382E+03 -0.26574301327E+03  0.44973441635E+03  0.10100000352E+00 0. -1.
</event>
<event>
 5   0  0.1803959E-03  0.1394073E+04  0.7818609E-02  0.8958120E-01
       -1   -1    0    0    0  501  0.00000000000E+00  0.00000000000E+00  0.83816204462E+03  0.83816204464E+03  0.50400001928E-02 0. -1.
        1   -1    0    0  501    0  0.00000000000E+00  0.00000000000E+00 -0.57967284611E+03  0.57967284613E+03  0.50400001928E-02 0.  1.
    10030    2    1    2    0    0  0.00000000000E+00  0.00000000000E+00  0.25848919851E+03  0.14178348908E+04  0.13940728502E+04 0.  0.
        4    1    3    3  502    0  0.54795996890E+03 -0.43034746786E+03  0.14956246195E+03  0.71262164823E+03  0.12699999809E+01 0. -1.
       -4    1    3    3    0  502 -0.54795996890E+03  0.43034746786E+03  0.10892673656E+03  0.70521324253E+03  0.12699999809E+01 0.  1.
</event>
<event>
 5   0  0.1803959E-03  0.1304701E+04  0.7818609E-02  0.9025845E-01
        1   -1    0    0  501    0  0.00000000000E+00  0.00000000000E+00  0.10465140267E+04  0.10465140267E+04  0.50400001928E-02 0. -1.
       -1   -1    0    0    0  501  0.00000000000E+00  0.00000000000E+00 -0.40664651886E+03  0.40664651889E+03  0.50400001928E-02 0.  1.
    10030    2    1    2    0    0  0.00000000000E+00  0.00000000000E+00  0.63986750780E+03  0.14531605456E+04  0.13047011702E+04 0.  0.
        4    1    3    3  502    0  0.12658328881E+03  0.59793713731E+03  0.57393487550E+03  0.83842411905E+03  0.12699999809E+01 0. -1.
       -4    1    3    3    0  502 -0.12658328881E+03 -0.59793713731E+03  0.65932632295E+02  0.61473642652E+03  0.12699999809E+01 0.  1.
</event>
<event>
 5   0  0.3259968E-03  0.1306267E+04  0.7818609E-02  0.9024610E-01
        2   -1    0    0  501    0  0.00000000000E+00  0.00000000000E+00  0.10515659629E+04  0.10515659629E+04  0.25500000920E-02 0.  1.
       -2   -1    0    0    0  501  0.00000000000E+00  0.00000000000E+00 -0.40566457442E+03  0.40566457443E+03  0.25500000920E-02 0. -1.
    10030    2    1    2    0    0  0.00000000000E+00  0.00000000000E+00  0.64590138845E+03  0.14572305373E+04  0.13062665253E+04 0.  0.
        4    1    3    3  502    0  0.57194655556E+03 -0.37901978236E+02 -0.26316904041E+02  0.57380625190E+03  0.12699999809E+01 0. -1.
       -4    1    3    3    0  502 -0.57194655556E+03  0.37901978236E+02  0.67221829249E+03  0.88342428540E+03  0.12699999809E+01 0.  1.
</event>
<event>
 5   0  0.3294720E-03  0.1295866E+04  0.7818609E-02  0.9032850E-01
        2   -1    0    0  501    0  0.00000000000E+00  0.00000000000E+00  0.13874224079E+04  0.13874224079E+04  0.25500000920E-02 0.  1.
       -2   -1    0    0    0  501  0.00000000000E+00  0.00000000000E+00 -0.30258764904E+03  0.30258764905E+03  0.25500000920E-02 0. -1.
    10030    2    1    2    0    0  0.00000000000E+00  0.00000000000E+00  0.10848347588E+04  0.16900100569E+04  0.12958655557E+04 0.  0.
        5    1    3    3  502    0  0.22506476412E+03  0.54531153761E+03  0.19302060726E+03  0.62072366309E+03  0.46999998093E+01 0. -1.
       -5    1    3    3    0  502 -0.22506476412E+03 -0.54531153761E+03  0.89181415157E+03  0.10692863938E+04  0.46999998093E+01 0.  1.
</event>
<event>
 5   0  0.1803959E-03  0.1284527E+04  0.7818609E-02  0.9041926E-01
       -1   -1    0    0    0  501  0.00000000000E+00  0.00000000000E+00  0.64267297840E+03  0.64267297842E+03  0.50400001928E-02 0. -1.
        1   -1    0    0  501    0  0.00000000000E+00  0.00000000000E+00 -0.64185398839E+03  0.64185398841E+03  0.50400001928E-02 0.  1.
    10030    2    1    2    0    0  0.00000000000E+00  0.00000000000E+00  0.81899001469E+00  0.12845269668E+04  0.12845267057E+04 0.  0.
        4    1    3    3  502    0 -0.50351809490E+03  0.65099452628E+02 -0.39295071373E+03  0.64201268441E+03  0.12699999809E+01 0.  1.
       -4    1    3    3    0  502  0.50351809490E+03 -0.65099452628E+02  0.39376970374E+03  0.64251428242E+03  0.12699999809E+01 0. -1.
</event>
<event>
 5   0  0.3262927E-03  0.1206922E+04  0.7818609E-02  0.9106819E-01
       -2   -1    0    0    0  501  0.00000000000E+00  0.00000000000E+00  0.39612507992E+03  0.39612507993E+03  0.25500000920E-02 0. -1.
        2   -1    0    0  501    0  0.00000000000E+00  0.00000000000E+00 -0.91931920823E+03  0.91931920824E+03  0.25500000920E-02 0.  1.
    10030    2    1    2    0    0  0.00000000000E+00  0.00000000000E+00 -0.52319412831E+03  0.13154442882E+04  0.12069223585E+04 0.  0.
        3    1    3    3  502    0  0.21427719755E+03  0.25792815267E+03  0.28523655949E+03  0.44022897951E+03  0.10100000352E+00 0. -1.
       -3    1    3    3    0  502 -0.21427719755E+03 -0.25792815267E+03 -0.80843068780E+03  0.87521530866E+03  0.10100000352E+00 0.  1.
</event>
<event>
 5   0  0.3336609E-03  0.1335303E+04  0.7818609E-02  0.9002029E-01
        2   -1    0    0  501    0  0.00000000000E+00  0.00000000000E+00  0.32843965838E+03  0.32843965839E+03  0.25500000920E-02 0.  1.
       -2   -1    0    0    0  501  0.00000000000E+00  0.00000000000E+00 -0.13572006267E+04  0.13572006267E+04  0.25500000920E-02 0. -1.
    10030    2    1    2    0    0  0.00000000000E+00  0.00000000000E+00 -0.10287609684E+04  0.16856402851E+04  0.13353029772E+04 0.  0.
        1    1    3    3  502    0  0.18280855659E+03 -0.53478735162E+03 -0.96308352281E+03  0.11166675207E+04  0.50400001928E-02 0. -1.
       -1    1    3    3    0  502 -0.18280855659E+03  0.53478735162E+03 -0.65677445558E+02  0.56897276446E+03  0.50400001928E-02 0.  1.
</event>
<event>
 5   0  0.3299104E-03  0.1373717E+04  0.7818609E-02  0.8973067E-01
        2   -1    0    0  501    0  0.00000000000E+00  0.00000000000E+00  0.89087611375E+03  0.89087611375E+03  0.25500000920E-02 0.  1.
       -2   -1    0    0    0  501  0.00000000000E+00  0.00000000000E+00 -0.52956221190E+03  0.52956221190E+03  0.25500000920E-02 0. -1.
    10030    2    1    2    0    0  0.00000000000E+00  0.00000000000E+00  0.36131390186E+03  0.14204383257E+04  0.13737166015E+04 0.  0.
        2    1    3    3  502    0  0.13401498486E+03 -0.51826094440E+03  0.62566622390E+03  0.82341523328E+03  0.25500000920E-02 0.  1.
       -2    1    3    3    0  502 -0.13401498486E+03  0.51826094440E+03 -0.26435232204E+03  0.59702309238E+03  0.25500000920E-02 0. -1.
</event>
<event>
 5   0  0.1254125E-03  0.1311400E+04  0.7818609E-02  0.9020573E-01
        4   -1    0    0  501    0  0.00000000000E+00  0.00000000000E+00  0.51985899936E+03  0.51986055065E+03  0.12699999809E+01 0.  1.
       -4   -1    0    0    0  501  0.00000000000E+00  0.00000000000E+00 -0.82703331923E+03  0.82703429434E+03  0.12699999809E+01 0. -1.
    10030    2    1    2    0    0  0.00000000000E+00  0.00000000000E+00 -0.30717431987E+03  0.13468948450E+04  0.13113998859E+04 0.  0.
        3    1    3    3  502    0  0.61090401781E+03 -0.15879711467E+03  0.28763168562E+02  0.63186040600E+03  0.10100000352E+00 0. -1.
       -3    1    3    3    0  502 -0.61090401781E+03  0.15879711467E+03 -0.33593748843E+03  0.71503443899E+03  0.10100000352E+00 0.  1.
</event>
<event>
 5   0  0.1803959E-03  0.1333585E+04  0.7818609E-02  0.9003348E-01
        1   -1    0    0  501    0  0.00000000000E+00  0.00000000000E+00  0.39483597078E+03  0.39483597081E+03  0.50400001928E-02 0.  1.
       -1   -1    0    0    0  501  0.00000000000E+00  0.00000000000E+00 -0.11260683339E+04  0.11260683339E+04  0.50400001928E-02 0. -1.
    10030    2    1    2    0    0  0.00000000000E+00  0.00000000000E+00 -0.73123236310E+03  0.15209043047E+04  0.13335850686E+04 0.  0.
        4    1    3    3  502    0 -0.47726444812E+03 -0.43336845264E+03 -0.17133170013E+03  0.66704252754E+03  0.12699999809E+01 0.  1.
       -4    1    3    3    0  502  0.47726444812E+03  0.43336845264E+03 -0.55990066298E+03  0.85386177715E+03  0.12699999809E+01 0. -1.
</event>
<event>
 5   0  0.3294720E-03  0.1262821E+04  0.7818609E-02  0.9059580E-01
       -2   -1    0    0    0  501  0.00000000000E+00  0.00000000000E+00  0.10345798846E+04  0.10345798846E+04  0.25500000920E-02 0.  1.
        2   -1    0    0  501    0  0.00000000000E+00  0.00000000000E+00 -0.38535364147E+03  0.38535364148E+03  0.25500000920E-02 0. -1.
    10030    2    1    2    0    0  0.00000000000E+00  0.00000000000E+00  0.64922624309E+03  0.14199335260E+04  0.12628208518E+04 0.  0.
        5    1    3    3  502    0  0.49246320527E+03 -0.32026209809E+03  0.64367210961E+02  0.59097635135E+03  0.46999998093E+01 0. -1.
       -5    1    3    3    0  502 -0.49246320527E+03  0.32026209809E+03  0.58485903213E+03  0.82895717469E+03  0.46999998093E+01 0.  1.
</event>
<event>
 5   0  0.1254125E-03  0.1299564E+04  0.7818609E-02  0.9029911E-01
       -4   -1    0    0    0  501  0.00000000000E+00  0.00000000000E+00  0.10055382601E+04  0.10055390621E+04  0.12699999809E+01 0. -1.
        4   -1    0    0  501    0  0.00000000000E+00  0.00000000000E+00 -0.41988955729E+03  0.41989147791E+03  0.12699999809E+01 0.  1.
    10030    2    1    2    0    0  0.00000000000E+00  0.00000000000E+00  0.58564870282E+03  0.14254305400E+04  0.12995644737E+04 0.  0.
        4    1    3    3  502    0  0.16409222834E+03  0.32871960423E+03  0.88067231984E+03  0.95423696504E+03  0.12699999809E+01 0. -1.
       -4    1    3    3    0  502 -0.16409222834E+03 -0.32871960423E+03 -0.29502361702E+03  0.47119357499E+03  0.12699999809E+01 0.  1.
</event>
<event>
 5   0  0.1814770E-03  0.1327341E+04  0.7818609E-02  0.9008160E-01
       -1   -1    0    0    0  501  0.00000000000E+00  0.00000000000E+00  0.58527792595E+03  0.58527792597E+03  0.50400001928E-02 0. -1.
        1   -1    0    0  501    0  0.00000000000E+00  0.00000000000E+00 -0.75256313678E+03  0.75256313680E+03  0.50400001928E-02 0.  1.
    10030    2    1    2    0    0  0.00000000000E+00  0.00000000000E+00 -0.16728521083E+03  0.13378410628E+04  0.13273410893E+04 0.  0.
        5    1    3    3  502    0  0.30879794887E+03  0.19688757399E+03 -0.64147861946E+03  0.73867299886E+03  0.46999998093E+01 0.  1.
       -5    1    3    3    0  502 -0.30879794887E+03 -0.19688757399E+03  0.47419340863E+03  0.59916806391E+03  0.46999998093E+01 0. -1.
</event>
<event>
 5   0  0.1803959E-03  0.1299133E+04  0.7818609E-02  0.9030253E-01
       -1   -1    0    0    0  501  0.00000000000E+00  0.00000000000E+00  0.27077807560E+03  0.27077807565E+03  0.50400001928E-02 0.  1.
        1   -1    0    0  501    0  0.00000000000E+00  0.00000000000E+00 -0.15582388061E+04  0.15582388062E+04  0.50400001928E-02 0. -1.
    10030    2    1    2    0    0  0.00000000000E+00  0.00000000000E+00 -0.12874607305E+04  0.18290168818E+04  0.12991334116E+04 0.  0.
        4    1    3    3  502    0 -0.74257790756E+02 -0.10512261707E+03  0.25264503486E+03  0.28354207915E+03  0.12699999809E+01 0.  1.
       -4    1    3    3    0  502  0.74257790756E+02  0.10512261707E+03 -0.15401057654E+04  0.15454748027E+04  0.12699999809E+01 0. -1.
</event>
<event>
 5   0  0.1873488E-03  0.1156165E+04  0.7818609E-02  0.9152115E-01
       -1   -1    0    0    0  501  0.00000000000E+00  0.00000000000E+00  0.90869333226E+03  0.90869333228E+03  0.50400001928E-02 0. -1.
        1   -1    0    0  501    0  0.00000000000E+00  0.00000000000E+00 -0.36775807243E+03  0.36775807247E+03  0.50400001928E-02 0.  1.
    10030    2    1    2    0    0  0.00000000000E+00  0.00000000000E+00  0.54093525983E+03  0.12764514047E+04  0.11561648816E+04 0.  0.
        3    1    3    3  502    0  0.57511068747E+03  0.37594608314E+02  0.32000985451E+03  0.65922073284E+03  0.10100000352E+00 0. -1.
       -3    1    3    3    0  502 -0.57511068747E+03 -0.37594608314E+02  0.22092540532E+03  0.61723067190E+03  0.10100000352E+00 0.  1.
</event>
<event>
 5   0  0.1254125E-03  0.1300115E+04  0.7818609E-02  0.9029474E-01
       -3   -1    0    0    0  501  0.00000000000E+00  0.00000000000E+00  0.39131087096E+03  0.39131088399E+03  0.10100000352E+00 0.  1.
        3   -1    0    0  501    0  0.00000000000E+00  0.00000000000E+00 -0.10798953495E+04  0.10798953543E+04  0.10100000352E+00 0. -1.
    10030    2    1    2    0    0  0.00000000000E+00  0.00000000000E+00 -0.68858447858E+03  0.14712062383E+04  0.13001150762E+04 0.  0.
        3    1    3    3  502    0  0.23650874437E+02  0.62554324143E+03 -0.14598465634E+03  0.64278708827E+03  0.10100000352E+00 0.  1.
       -3    1    3    3    0  502 -0.23650874437E+02 -0.62554324143E+03 -0.54259982224E+03  0.82841914998E+03  0.10100000352E+00 0. -1.
</event>
<event>
 5   0  0.1814770E-03  0.1311986E+04  0.7818609E-02  0.9020114E-01
       -1   -1    0    0    0  501  0.00000000000E+00  0.00000000000E+00  0.78345429766E+03  0.78345429768E+03  0.50400001928E-02 0. -1.
        1   -1    0    0  501    0  0.00000000000E+00  0.00000000000E+00 -0.54926843721E+03  0.54926843723E+03  0.50400001928E-02 0.  1.
    10030    2    1    2    0    0  0.00000000000E+00  0.00000000000E+00  0.23418586045E+03  0.13327227349E+04  0.13119858501E+04 0.  0.
        5    1    3    3  502    0 -0.39625084826E+03  0.52184807681E+03  0.14863983492E+03  0.67190478532E+03  0.46999998093E+01 0.  1.
       -5    1    3    3    0  502  0.39625084826E+03 -0.52184807681E+03  0.85546025535E+02  0.66081794959E+03  0.46999998093E+01 0. -1.
</event>
<event>
 5   0  0.1857986E-03  0.1293780E+04  0.7818609E-02  0.9034512E-01
        1   -1    0    0  501    0  0.00000000000E+00  0.00000000000E+00  0.89310235983E+03  0.89310235984E+03  0.50400001928E-02 0. -1.
       -1   -1    0    0    0  501  0.00000000000E+00  0.00000000000E+00 -0.46855410037E+03  0.46855410040E+03  0.50400001928E-02 0.  1.
    10030    2    1    2    0    0  0.00000000000E+00  0.00000000000E+00  0.42454825946E+03  0.13616564602E+04  0.12937801556E+04 0.  0.
        1    1    3    3  502    0  0.57155723721E+02  0.27991593065E+02  0.88979950771E+03  0.89207256991E+03  0.50400001928E-02 0. -1.
       -1    1    3    3    0  502 -0.57155723721E+02 -0.27991593065E+02 -0.46525124825E+03  0.46958389033E+03  0.50400001928E-02 0.  1.
</event>
<event>
 5   0  0.1254125E-03  0.1300505E+04  0.7818609E-02  0.9029165E-01
        3   -1    0    0  501    0  0.00000000000E+00  0.00000000000E+00  0.11283793254E+04  0.11283793300E+04  0.10100000352E+00 0.  1.
       -3   -1    0    0    0  501  0.00000000000E+00  0.00000000000E+00 -0.37472152725E+03  0.37472154086E+03  0.10100000352E+00 0. -1.
    10030    2    1    2    0    0  0.00000000000E+00  0.00000000000E+00  0.75365779820E+03  0.15031008708E+04  0.13005045756E+04 0.  0.
        4    1    3    3  502    0 -0.39147143799E+03  0.44369035856E+03  0.68849491697E+03  0.90782040329E+03  0.12699999809E+01 0.  1.
       -4    1    3    3    0  502  0.39147143799E+03 -0.44369035856E+03  0.65162881229E+02  0.59528046754E+03  0.12699999809E+01 0. -1.
</event>
<event>
 5   0  0.3336609E-03  0.1321064E+04  0.7818609E-02  0.9013026E-01
        2   -1    0    0  501    0  0.00000000000E+00  0.00000000000E+00  0.83621750985E+03  0.83621750986E+03  0.25500000920E-02 0. -1.
       -2   -1    0    0    0  501  0.00000000000E+00  0.00000000000E+00 -0.52175688269E+03  0.52175688270E+03  0.25500000920E-02 0.  1.
    10030    2    1    2    0    0  0.00000000000E+00  0.00000000000E+00  0.31446062716E+03  0.13579743926E+04  0.13210635733E+04 0.  0.
        1    1    3    3  502    0  0.34786903561E+03  0.25862407337E+03  0.66955614041E+03  0.79762441190E+03  0.50400001928E-02 0. -1.
       -1    1    3    3    0  502 -0.34786903561E+03 -0.25862407337E+03 -0.35509551325E+03  0.56034998066E+03  0.50400001928E-02 0.  1.
</event>
<event>
 5   0  0.1857986E-03  0.1336203E+04  0.7818609E-02  0.9001339E-01
        1   -1    0    0  501    0  0.00000000000E+00  0.00000000000E+00  0.77893004818E+03  0.77893004820E+03  0.50400001928E-02 0.  1.
       -1   -1    0    0    0  501  0.00000000000E+00  0.00000000000E+00 -0.57304177003E+03  0.57304177005E+03  0.50400001928E-02 0. -1.
    10030    2    1    2    0    0  0.00000000000E+00  0.00000000000E+00  0.20588827815E+03  0.13519718183E+04  0.13362027594E+04 0.  0.
        1    1    3    3  502    0  0.33776353873E+02 -0.22689759690E+02 -0.57178689850E+03  0.57323287118E+03  0.50400001928E-02 0. -1.
       -1    1    3    3    0  502 -0.33776353873E+02  0.22689759690E+02  0.77767517665E+03  0.77873894707E+03  0.50400001928E-02 0.  1.
</event>
<event>
 5   0  0.3259968E-03  0.1307062E+04  0.7818609E-02  0.9023984E-01
       -2   -1    0    0    0  501  0.00000000000E+00  0.00000000000E+00  0.17687976887E+03  0.17687976889E+03  0.25500000920E-02 0.  1.
        2   -1    0    0  501    0  0.00000000000E+00  0.00000000000E+00 -0.24146490454E+04  0.24146490454E+04  0.25500000920E-02 0. -1.
    10030    2    1    2    0    0  0.00000000000E+00  0.00000000000E+00 -0.22377692766E+04  0.25915288143E+04  0.13070616896E+04 0.  0.
        4    1    3    3  502    0  0.59658891816E+03  0.25904530119E+03 -0.12455014538E+04  0.14050972527E+04  0.12699999809E+01 0. -1.
       -4    1    3    3    0  502 -0.59658891816E+03 -0.25904530119E+03 -0.99226782277E+03  0.11864315616E+04  0.12699999809E+01 0.  1.
</event>
<event>
 5   0  0.3294720E-03  0.1319625E+04  0.7818609E-02  0.9014145E-01
        2   -1    0    0  501    0  0.00000000000E+00  0.00000000000E+00  0.47903397511E+03  0.47903397511E+03  0.25500000920E-02 0. -1.
       -2   -1    0    0    0  501  0.00000000000E+00  0.00000000000E+00 -0.90881363505E+03  0.90881363506E+03  0.25500000920E-02 0.  1.
    10030    2    1    2    0    0  0.00000000000E+00  0.00000000000E+00 -0.42977965995E+03  0.13878476102E+04  0.13196251108E+04 0.  0.
        5    1    3    3  502    0  0.11680393845E+03  0.60050566162E+03 -0.47481110099E+03  0.77441454099E+03  0.46999998093E+01 0.  1.
       -5    1    3    3    0  502 -0.11680393845E+03 -0.60050566162E+03  0.45031441040E+02  0.61343306918E+03  0.46999998093E+01 0. -1.
</event>
<event>
 5   0  0.1823154E-03  0.1303269E+04  0.7818609E-02  0.9026977E-01
       -1   -1    0    0    0  501  0.00000000000E+00  0.00000000000E+00  0.95513699933E+03  0.95513699934E+03  0.50400001928E-02 0. -1.
        1   -1    0    0  501    0  0.00000000000E+00  0.00000000000E+00 -0.44457246362E+03  0.44457246365E+03  0.50400001928E-02 0.  1.
    10030    2    1    2    0    0  0.00000000000E+00  0.00000000000E+00  0.51056453571E+03  0.13997094630E+04  0.13032691340E+04 0.  0.
        2    1    3    3  502    0  0.17132728761E+03 -0.25379120126E+03  0.87305528837E+03  0.92519649258E+03  0.25500000920E-02 0. -1.
       -2    1    3    3    0  502 -0.17132728761E+03  0.25379120126E+03 -0.36249075266E+03  0.47451297041E+03  0.25500000920E-02 0.  1.
</event>
<event>
 5   0  0.1857986E-03  0.1333177E+04  0.7818609E-02  0.9003661E-01
       -1   -1    0    0    0  501  0.00000000000E+00  0.00000000000E+00  0.37437941560E+03  0.37437941563E+03  0.50400001928E-02 0. -1.
        1   -1    0    0  501    0  0.00000000000E+00  0.00000000000E+00 -0.11868722369E+04  0.11868722369E+04  0.50400001928E-02 0.  1.
    10030    2    1    2    0    0  0.00000000000E+00  0.00000000000E+00 -0.81249282128E+03  0.15612516525E+04  0.13331774593E+04 0.  0.
        1    1    3    3  502    0  0.47988203458E+03  0.41511216595E+03 -0.16700377612E+03  0.65612128353E+03  0.50400001928E-02 0. -1.
       -1    1    3    3    0  502 -0.47988203458E+03 -0.41511216595E+03 -0.64548904516E+03  0.90513036900E+03  0.50400001928E-02 0.  1.
</event>
<event>
 5   0  0.3299104E-03  0.1294225E+04  0.7818609E-02  0.9034157E-01
       -2   -1    0    0    0  501  0.00000000000E+00  0.00000000000E+00  0.51999974718E+03  0.51999974719E+03  0.25500000920E-02 0.  1.
        2   -1    0    0  501    0  0.00000000000E+00  0.00000000000E+00 -0.80529827613E+03  0.80529827614E+03  0.25500000920E-02 0. -1.
    10030    2    1    2    0    0  0.00000000000E+00  0.00000000000E+00 -0.28529852895E+03  0.13252980233E+04  0.12942254827E+04 0.  0.
        2    1    3    3  502    0 -0.40054544885E+03  0.36429004791E+03 -0.50557473433E+03  0.74077642214E+03  0.25500000920E-02 0. -1.
       -2    1    3    3    0  502  0.40054544885E+03 -0.36429004791E+03  0.22027620538E+03  0.58452160119E+03  0.25500000920E-02 0.  1.
</event>
<event>
 5   0  0.1873488E-03  0.1293698E+04  0.7818609E-02  0.9034578E-01
        1   -1    0    0  501    0  0.00000000000E+00  0.00000000000E+00  0.16536029256E+04  0.16536029256E+04  0.50400001928E-02 0.  1.
       -1   -1    0    0    0  501  0.00000000000E+00  0.00000000000E+00 -0.25303153527E+03  0.25303153532E+03  0.50400001928E-02 0. -1.
    10030    2    1    2    0    0  0.00000000000E+00  0.00000000000E+00  0.14005713904E+04  0.19066344609E+04  0.12936980900E+04 0.  0.
        3    1    3    3  502    0  0.15338029372E+02 -0.61853833673E+02 -0.24839376142E+03  0.25643834113E+03  0.10100000352E+00 0. -1.
       -3    1    3    3    0  502 -0.15338029372E+02  0.61853833673E+02  0.16489651518E+04  0.16501961198E+04  0.10100000352E+00 0.  1.
</event>
<event>
 5   0  0.1873488E-03  0.1297234E+04  0.7818609E-02  0.9031761E-01
       -1   -1    0    0    0  501  0.00000000000E+00  0.00000000000E+00  0.43621228871E+03  0.43621228874E+03  0.50400001928E-02 0. -1.
        1   -1    0    0  501    0  0.00000000000E+00  0.00000000000E+00 -0.96444828559E+03  0.96444828561E+03  0.50400001928E-02 0.  1.
    10030    2    1    2    0    0  0.00000000000E+00  0.00000000000E+00 -0.52823599688E+03  0.14006605743E+04  0.12972342796E+04 0.  0.
        3    1    3    3  502    0 -0.58025322514E+03 -0.10641432573E+03  0.26981178580E+02  0.59054704148E+03  0.10100000352E+00 0. -1.
       -3    1    3    3    0  502  0.58025322514E+03  0.10641432573E+03 -0.55521717546E+03  0.81011353287E+03  0.10100000352E+00 0.  1.
</event>
<event>
 5   0  0.3299104E-03  0.1367004E+04  0.7818609E-02  0.8978055E-01
       -2   -1    0    0    0  501  0.00000000000E+00  0.00000000000E+00  0.29349703512E+03  0.29349703513E+03  0.25500000920E-02 0.  1.
        2   -1    0    0  501    0  0.00000000000E+00  0.00000000000E+00 -0.15917528166E+04  0.15917528166E+04  0.25500000920E-02 0. -1.
    10030    2    1    2    0    0  0.00000000000E+00  0.00000000000E+00 -0.12982557815E+04  0.18852498518E+04  0.13670036318E+04 0.  0.
        2    1    3    3  502    0 -0.28813463616E+03 -0.44837416718E+03 -0.58981508747E+02  0.53622735918E+03  0.25500000920E-02 0.  1.
       -2    1    3    3    0  502  0.28813463616E+03  0.44837416718E+03 -0.12392742728E+04  0.13490224926E+04  0.25500000920E-02 0. -1.
</event>
<event>
 5   0  0.1814770E-03  0.1298778E+04  0.7818609E-02  0.9030535E-01
        1   -1    0    0  501    0  0.00000000000E+00  0.00000000000E+00  0.13846253326E+04  0.13846253326E+04  0.50400001928E-02 0. -1.
       -1   -1    0    0    0  501  0.00000000000E+00  0.00000000000E+00 -0.30456311268E+03  0.30456311272E+03  0.50400001928E-02 0.  1.
    10030    2    1    2    0    0  0.00000000000E+00  0.00000000000E+00  0.10800622199E+04  0.16891884453E+04  0.12987775810E+04 0.  0.
        5    1    3    3  502    0 -0.24689906723E+03 -0.42535688145E+02  0.13192137908E+04  0.13428013815E+04  0.46999998093E+01 0. -1.
       -5    1    3    3    0  502  0.24689906723E+03  0.42535688145E+02 -0.23915157089E+03  0.34638706388E+03  0.46999998093E+01 0.  1.
</event>
<event>
 5   0  0.3262927E-03  0.1315086E+04  0.7818609E-02  0.9017686E-01
        2   -1    0    0  501    0  0.00000000000E+00  0.00000000000E+00  0.21207977897E+04  0.21207977897E+04  0.25500000920E-02 0.  1.
       -2   -1    0    0    0  501  0.00000000000E+00  0.00000000000E+00 -0.20386813695E+03  0.20386813697E+03  0.25500000920E-02 0. -1.
    10030    2    1    2    0    0  0.00000000000E+00  0.00000000000E+00  0.19169296527E+04  0.23246659266E+04  0.13150864523E+04 0.  0.
        3    1    3    3  502    0 -0.47617280085E+03 -0.44139831386E+03  0.77484545166E+03  0.10109196268E+04  0.10100000352E+00 0. -1.
       -3    1    3    3    0  502  0.47617280085E+03  0.44139831386E+03  0.11420842010E+04  0.13137462998E+04  0.10100000352E+00 0.  1.
</event>
<event>
 5   0  0.3262927E-03  0.1059767E+04  0.7818609E-02  0.9245318E-01
       -2   -1    0    0    0  501  0.00000000000E+00  0.00000000000E+00  0.25917483507E+03  0.25917483508E+03  0.25500000920E-02 0. -1.
        2   -1    0    0  501    0  0.00000000000E+00  0.00000000000E+00 -0.10833481141E+04  0.10833481141E+04  0.25500000920E-02 0.  1.
    10030    2    1    2    0    0  0.00000000000E+00  0.00000000000E+00 -0.82417327901E+03  0.13425229492E+04  0.10597670853E+04 0.  0.
        3    1    3    3  502    0 -0.14348478502E+03  0.30894890388E+03  0.10208703057E+03  0.35561085579E+03  0.10100000352E+00 0. -1.
       -3    1    3    3    0  502  0.14348478502E+03 -0.30894890388E+03 -0.92626030958E+03  0.98691209337E+03  0.10100000352E+00 0.  1.
</event>
<event>
 5   0  0.3299104E-03  0.1295792E+04  0.7818609E-02  0.9032909E-01
        2   -1    0    0  501    0  0.00000000000E+00  0.00000000000E+00  0.63148516149E+03  0.63148516150E+03  0.25500000920E-02 0.  1.
       -2   -1    0    0    0  501  0.00000000000E+00  0.00000000000E+00 -0.66473341221E+03  0.66473341222E+03  0.25500000920E-02 0. -1.
    10030    2    1    2    0    0  0.00000000000E+00  0.00000000000E+00 -0.33248250721E+02  0.12962185737E+04  0.12957920916E+04 0.  0.
        2    1    3    3  502    0  0.61354539287E+03  0.12033001506E+03  0.15329061708E+03  0.64375094169E+03  0.25500000920E-02 0.  1.
       -2    1    3    3    0  502 -0.61354539287E+03 -0.12033001506E+03 -0.18653886780E+03  0.65246763203E+03  0.25500000920E-02 0. -1.
</event>
<event>
 5   0  0.1803959E-03  0.1305655E+04  0.7818609E-02  0.9025093E-01
        1   -1    0    0  501    0  0.00000000000E+00  0.00000000000E+00  0.12751096260E+04  0.12751096261E+04  0.50400001928E-02 0. -1.
       -1   -1    0    0    0  501  0.00000000000E+00  0.00000000000E+00 -0.33423291734E+03  0.33423291738E+03  0.50400001928E-02 0.  1.
    10030    2    1    2    0    0  0.00000000000E+00  0.00000000000E+00  0.94087670870E+03  0.16093425434E+04  0.13056547940E+04 0.  0.
        4    1    3    3  502    0 -0.60504477317E+03 -0.13264744286E+03  0.21631020004E+03  0.65609925863E+03  0.12699999809E+01 0.  1.
       -4    1    3    3    0  502  0.60504477317E+03  0.13264744286E+03  0.72456650866E+03  0.95324328480E+03  0.12699999809E+01 0. -1.
</event>
<event>
 5   0  0.3336609E-03  0.1350442E+04  0.7818609E-02  0.8990494E-01
       -2   -1    0    0    0  501  0.00000000000E+00  0.00000000000E+00  0.36031172975E+03  0.36031172976E+03  0.25500000920E-02 0.  1.
        2   -1    0    0  501    0  0.00000000000E+00  0.00000000000E+00 -0.12653583638E+04  0.12653583638E+04  0.25500000920E-02 0. -1.
    10030    2    1    2    0    0  0.00000000000E+00  0.00000000000E+00 -0.90504663409E+03  0.16256700936E+04  0.13504420918E+04 0.  0.
        1    1    3    3  502    0 -0.67125380752E+03 -0.42036899296E+02 -0.52449727545E+03  0.85290454740E+03  0.50400001928E-02 0. -1.
       -1    1    3    3    0  502  0.67125380752E+03  0.42036899296E+02 -0.38054935865E+03  0.77276554620E+03  0.50400001928E-02 0.  1.
</event>
<event>
 5   0  0.3299104E-03  0.1120246E+04  0.7818609E-02  0.9185681E-01
       -2   -1    0    0    0  501  0.00000000000E+00  0.00000000000E+00  0.35600474251E+03  0.35600474252E+03  0.25500000920E-02 0. -1.
        2   -1    0    0  501    0  0.00000000000E+00  0.00000000000E+00 -0.88127350263E+03  0.88127350263E+03  0.25500000920E-02 0.  1.
    10030    2    1    2    0    0  0.00000000000E+00  0.00000000000E+00 -0.52526876012E+03  0.12372782451E+04  0.11202455916E+04 0.  0.
        2    1    3    3  502    0  0.48983288481E+03  0.11369213852E+03  0.98709541989E+01  0.50295088542E+03  0.25500000920E-02 0. -1.
       -2    1    3    3    0  502 -0.48983288481E+03 -0.11369213852E+03 -0.53513971432E+03  0.73432735973E+03  0.25500000920E-02 0.  1.
</event>
<event>
 5   0  0.3336609E-03  0.1216095E+04  0.7818609E-02  0.9098884E-01
        2   -1    0    0  501    0  0.00000000000E+00  0.00000000000E+00  0.16720910986E+04  0.16720910986E+04  0.25500000920E-02 0. -1.
       -2   -1    0    0    0  501  0.00000000000E+00  0.00000000000E+00 -0.22111344265E+03  0.22111344267E+03  0.25500000920E-02 0.  1.
    10030    2    1    2    0    0  0.00000000000E+00  0.00000000000E+00  0.14509776560E+04  0.18932045413E+04  0.12160950937E+04 0.  0.
        1    1    3    3  502    0  0.36595678459E+03 -0.74301759296E+02  0.14725479952E+04  0.15191585559E+04  0.50400001928E-02 0. -1.
       -1    1    3    3    0  502 -0.36595678459E+03  0.74301759296E+02 -0.21570339288E+02  0.37404598538E+03  0.50400001928E-02 0.  1.
</event>
<event>
 5   0  0.3262927E-03  0.1229506E+04  0.7818609E-02  0.9087415E-01
       -2   -1    0    0    0  501  0.00000000000E+00  0.00000000000E+00  0.86844361091E+03  0.86844361092E+03  0.25500000920E-02 0.  1.
        2   -1    0    0  501    0  0.00000000000E+00  0.00000000000E+00 -0.43517087301E+03  0.43517087302E+03  0.25500000920E-02 0. -1.
    10030    2    1    2    0    0  0.00000000000E+00  0.00000000000E+00  0.43327273790E+03  0.13036144839E+04  0.12295061843E+04 0.  0.
        3    1    3    3  502    0 -0.39429480137E+03 -0.16915175649E+03  0.68344715789E+03  0.80695770332E+03  0.10100000352E+00 0.  1.
       -3    1    3    3    0  502  0.39429480137E+03  0.16915175649E+03 -0.25017441999E+03  0.49665678061E+03  0.10100000352E+00 0. -1.
</event>
<event>
 5   0  0.1823154E-03  0.1289090E+04  0.7818609E-02  0.9038262E-01
        1   -1    0    0  501    0  0.00000000000E+00  0.00000000000E+00  0.56586431891E+03  0.56586431894E+03  0.50400001928E-02 0.  1.
       -1   -1    0    0    0  501  0.00000000000E+00  0.00000000000E+00 -0.73416602311E+03  0.73416602313E+03  0.50400001928E-02 0. -1.
    10030    2    1    2    0    0  0.00000000000E+00  0.00000000000E+00 -0.16830170420E+03  0.13000303421E+04  0.12890901546E+04 0.  0.
        2    1    3    3  502    0  0.45379161880E+03 -0.45661366308E+03 -0.52013715581E+02  0.64585470287E+03  0.25500000920E-02 0. -1.
       -2    1    3    3    0  502 -0.45379161880E+03  0.45661366308E+03 -0.11628798862E+03  0.65417563919E+03  0.25500000920E-02 0.  1.
</event>
<event>
 5   0  0.3336609E-03  0.1315773E+04  0.7818609E-02  0.9017150E-01
        2   -1    0    0  501    0  0.00000000000E+00  0.00000000000E+00  0.51296018218E+03  0.51296018219E+03  0.25500000920E-02 0. -1.
       -2   -1    0    0    0  501  0.00000000000E+00  0.00000000000E+00 -0.84375842213E+03  0.84375842213E+03  0.25500000920E-02 0.  1.
    10030    2    1    2    0    0  0.00000000000E+00  0.00000000000E+00 -0.33079823995E+03  0.13567186043E+04  0.13157727371E+04 0.  0.
        1    1    3    3  502    0 -0.63725459895E+03 -0.12953004973E+03 -0.26821684055E+03  0.70342855447E+03  0.50400001928E-02 0.  1.
       -1    1    3    3    0  502  0.63725459895E+03  0.12953004973E+03 -0.62581399401E+02  0.65329004985E+03  0.50400001928E-02 0. -1.
</event>
<event>
 5   0  0.3259968E-03  0.1296519E+04  0.7818609E-02  0.9032330E-01
       -2   -1    0    0    0  501  0.00000000000E+00  0.00000000000E+00  0.37730134851E+03  0.37730134852E+03  0.25500000920E-02 0.  1.
        2   -1    0    0  501    0  0.00000000000E+00  0.00000000000E+00 -0.11138051168E+04  0.11138051168E+04  0.25500000920E-02 0. -1.
    10030    2    1    2    0    0  0.00000000000E+00  0.00000000000E+00 -0.73650376833E+03  0.14911064654E+04  0.12965186810E+04 0.  0.
        4    1    3    3  502    0 -0.37510892368E+03 -0.43145842155E+03 -0.71968793583E+03  0.91913840744E+03  0.12699999809E+01 0. -1.
       -4    1    3    3    0  502  0.37510892368E+03  0.43145842155E+03 -0.16815832494E+02  0.57196805792E+03  0.12699999809E+01 0.  1.
</event>
<event>
 5   0  0.1857986E-03  0.1231688E+04  0.7818609E-02  0.9085564E-01
        1   -1    0    0  501    0  0.00000000000E+00  0.00000000000E+00  0.43785032486E+03  0.43785032489E+03  0.50400001928E-02 0. -1.
       -1   -1    0    0    0  501  0.00000000000E+00  0.00000000000E+00 -0.86619468935E+03  0.86619468937E+03  0.50400001928E-02 0.  1.
    10030    2    1    2    0    0  0.00000000000E+00  0.00000000000E+00 -0.42834436449E+03  0.13040450143E+04  0.12316876652E+04 0.  0.
        1    1    3    3  502    0  0.83744793304E+02 -0.64348412413E+02  0.42819098684E+03  0.44102316246E+03  0.50400001928E-02 0. -1.
       -1    1    3    3    0  502 -0.83744793304E+02  0.64348412413E+02 -0.85653535133E+03  0.86302185180E+03  0.50400001928E-02 0.  1.
</event>
<event>
 5   0  0.1823154E-03  0.1269769E+04  0.7818609E-02  0.9053888E-01
       -1   -1    0    0    0  501  0.00000000000E+00  0.00000000000E+00  0.52695078579E+03  0.52695078581E+03  0.50400001928E-02 0.  1.
        1   -1    0    0  501    0  0.00000000000E+00  0.00000000000E+00 -0.76492607070E+03  0.76492607071E+03  0.50400001928E-02 0. -1.
    10030    2    1    2    0    0  0.00000000000E+00  0.00000000000E+00 -0.23797528491E+03  0.12918768565E+04  0.12697691035E+04 0.  0.
        2    1    3    3  502    0 -0.96830570239E+02 -0.21474690606E+03 -0.71881670091E+03  0.75643231192E+03  0.25500000920E-02 0. -1.
       -2    1    3    3    0  502  0.96830570239E+02  0.21474690606E+03  0.48084141601E+03  0.53544454461E+03  0.25500000920E-02 0.  1.
</event>
<event>
 5   0  0.1814770E-03  0.1307381E+04  0.7818609E-02  0.9023732E-01
        1   -1    0    0  501    0  0.00000000000E+00  0.00000000000E+00  0.17302241509E+04  0.17302241509E+04  0.50400001928E-02 0. -1.
       -1   -1    0    0    0  501  0.00000000000E+00  0.00000000000E+00 -0.24696876968E+03  0.24696876973E+03  0.50400001928E-02 0.  1.
    10030    2    1    2    0    0  0.00000000000E+00  0.00000000000E+00  0.14832553812E+04  0.19771929207E+04  0.13073810919E+04 0.  0.
        5    1    3    3  502    0 -0.23597717951E+03  0.28070078873E+02  0.16625566441E+04  0.16794611765E+04  0.46999998093E+01 0. -1.
       -5    1    3    3    0  502  0.23597717951E+03 -0.28070078873E+02 -0.17930126290E+03  0.29773174411E+03  0.46999998093E+01 0.  1.
</event>
<event>
 5   0  0.1254125E-03  0.1296089E+04  0.7818609E-02  0.9032672E-01
        3   -1    0    0  501    0  0.00000000000E+00  0.00000000000E+00  0.59900725154E+03  0.59900726005E+03  0.10100000352E+00 0. -1.
       -3   -1    0    0    0  501  0.00000000000E+00  0.00000000000E+00 -0.70109649809E+03  0.70109650536E+03  0.10100000352E+00 0.  1.
    10030    2    1    2    0    0  0.00000000000E+00  0.00000000000E+00 -0.10208924655E+03  0.13001037654E+04  0.12960893436E+04 0.  0.
        2    1    3    3  502    0  0.16381739465E+02  0.48678307228E+03 -0.47984471235E+03  0.68372294742E+03  0.25500000920E-02 0.  1.
       -2    1    3    3    0  502 -0.16381739465E+02 -0.48678307228E+03  0.37775546580E+03  0.61638081800E+03  0.25500000920E-02 0. -1.
</event>
<event>
 5   0  0.1873488E-03  0.1296772E+04  0.7818609E-02  0.9032129E-01
       -1   -1    0    0    0  501  0.00000000000E+00  0.00000000000E+00  0.17711108096E+04  0.17711108096E+04  0.50400001928E-02 0. -1.
        1   -1    0    0  501    0  0.00000000000E+00  0.00000000000E+00 -0.23736770284E+03  0.23736770289E+03  0.50400001928E-02 0.  1.
    10030    2    1    2    0    0  0.00000000000E+00  0.00000000000E+00  0.15337431068E+04  0.20084785125E+04  0.12967721533E+04 0.  0.
        3    1    3    3  502    0 -0.49438284246E+03 -0.41867975474E+03  0.72597066605E+03  0.97300593529E+03  0.10100000352E+00 0.  1.
       -3    1    3    3    0  502  0.49438284246E+03  0.41867975474E+03  0.80777244071E+03  0.10354725772E+04  0.10100000352E+00 0. -1.
</event>
<event>
 5   0  0.3259968E-03  0.1396121E+04  0.7818609E-02  0.8956631E-01
        2   -1    0    0  501    0  0.00000000000E+00  0.00000000000E+00  0.90894458597E+03  0.90894458598E+03  0.25500000920E-02 0.  1.
       -2   -1    0    0    0  501  0.00000000000E+00  0.00000000000E+00 -0.53610364567E+03  0.53610364568E+03  0.25500000920E-02 0. -1.
    10030    2    1    2    0    0  0.00000000000E+00  0.00000000000E+00  0.37284094030E+03  0.14450482317E+04  0.13961210639E+04 0.  0.
        4    1    3    3  502    0 -0.64941923072E+03  0.24150518454E+03  0.27434937368E+03  0.74521089842E+03  0.12699999809E+01 0. -1.
       -4    1    3    3    0  502  0.64941923072E+03 -0.24150518454E+03  0.98491566618E+02  0.69983733323E+03  0.12699999809E+01 0.  1.
</event>
<event>
 5   0  0.1857986E-03  0.1316907E+04  0.7818609E-02  0.9016264E-01
       -1   -1    0    0    0  501  0.00000000000E+00  0.00000000000E+00  0.48729946508E+03  0.48729946511E+03  0.50400001928E-02 0.  1.
        1   -1    0    0  501    0  0.00000000000E+00  0.00000000000E+00 -0.88972249077E+03  0.88972249078E+03  0.50400001928E-02 0. -1.
    10030    2    1    2    0    0  0.00000000000E+00  0.00000000000E+00 -0.40242302569E+03  0.13770219559E+04  0.13169074286E+04 0.  0.
        1    1    3    3  502    0  0.55900626200E+03  0.86291230051E+02 -0.55368512587E+03  0.79151841165E+03  0.50400001928E-02 0. -1.
       -1    1    3    3    0  502 -0.55900626200E+03 -0.86291230051E+02  0.15126210018E+03  0.58550354424E+03  0.50400001928E-02 0.  1.
</event>
<event>
 5   0  0.3294720E-03  0.1310909E+04  0.7818609E-02  0.9020959E-01
        2   -1    0    0  501    0  0.00000000000E+00  0.00000000000E+00  0.74365045609E+03  0.74365045609E+03  0.25500000920E-02 0. -1.
       -2   -1    0    0    0  501  0.00000000000E+00  0.00000000000E+00 -0.57771849985E+03  0.57771849986E+03  0.25500000920E-02 0.  1.
    10030    2    1    2    0    0  0.00000000000E+00  0.00000000000E+00  0.16593195623E+03  0.13213689559E+04  0.13109090371E+04 0.  0.
        5    1    3    3  502    0 -0.51410444683E+03 -0.37702284699E+03  0.23632769790E+03  0.67994299775E+03  0.46999998093E+01 0. -1.
       -5    1    3    3    0  502  0.51410444683E+03  0.37702284699E+03 -0.70395741663E+02  0.64142595819E+03  0.46999998093E+01 0.  1.
</event>
<event>
 5   0  0.3294720E-03  0.1183528E+04  0.7818609E-02  0.9127398E-01
        2   -1    0    0  501    0  0.00000000000E+00  0.00000000000E+00  0.13409581127E+04  0.13409581127E+04  0.25500000920E-02 0.  1.
       -2   -1    0    0    0  501  0.00000000000E+00  0.00000000000E+00 -0.26114495448E+03  0.26114495449E+03  0.25500000920E-02 0. -1.
    10030    2    1    2    0    0  0.00000000000E+00  0.00000000000E+00  0.10798131582E+04  0.16021030672E+04  0.11835276850E+04 0.  0.
        5    1    3    3  502    0  0.49129442918E+02 -0.27380818206E+03  0.12469018162E+04  0.12775644218E+04  0.46999998093E+01 0.  1.
       -5    1    3    3    0  502 -0.49129442918E+02  0.27380818206E+03 -0.16708865795E+03  0.32453864537E+03  0.46999998093E+01 0. -1.
</event>
<event>
 5   0  0.3294720E-03  0.1316818E+04  0.7818609E-02  0.9016334E-01
       -2   -1    0    0    0  501  0.00000000000E+00  0.00000000000E+00  0.27055543810E+03  0.27055543811E+03  0.25500000920E-02 0.  1.
        2   -1    0    0  501    0  0.00000000000E+00  0.00000000000E+00 -0.16022673909E+04  0.16022673909E+04  0.25500000920E-02 0. -1.
    10030    2    1    2    0    0  0.00000000000E+00  0.00000000000E+00 -0.13317119528E+04  0.18728228290E+04  0.13168176122E+04 0.  0.
        5    1    3    3  502    0 -0.24684193154E+03 -0.11666625603E+03  0.18622497155E+03  0.33052047514E+03  0.46999998093E+01 0.  1.
       -5    1    3    3    0  502  0.24684193154E+03  0.11666625603E+03 -0.15179369244E+04  0.15423023539E+04  0.46999998093E+01 0. -1.
</event>
<event>
 5   0  0.3299104E-03  0.1311364E+04  0.7818609E-02  0.9020602E-01
       -2   -1    0    0    0  501  0.00000000000E+00  0.00000000000E+00  0.27755139781E+03  0.27755139782E+03  0.25500000920E-02 0. -1.
        2   -1    0    0  501    0  0.00000000000E+00  0.00000000000E+00 -0.15489703374E+04  0.15489703374E+04  0.25500000920E-02 0.  1.
    10030    2    1    2    0    0  0.00000000000E+00  0.00000000000E+00 -0.12714189396E+04  0.18265217352E+04  0.13113639957E+04 0.  0.
        2    1    3    3  502    0 -0.22607020594E+03 -0.28040428747E+03 -0.13988346407E+04  0.14444627563E+04  0.25500000920E-02 0.  1.
       -2    1    3    3    0  502  0.22607020594E+03  0.28040428747E+03  0.12741570110E+03  0.38205897888E+03  0.25500000920E-02 0. -1.
</event>
<event>
 5   0  0.1803959E-03  0.1285190E+04  0.7818609E-02  0.9041393E-01
       -1   -1    0    0    0  501  0.00000000000E+00  0.00000000000E+00  0.26651504778E+03  0.26651504783E+03  0.50400001928E-02 0. -1.
        1   -1    0    0  501    0  0.00000000000E+00  0.00000000000E+00 -0.15493610157E+04  0.15493610157E+04  0.50400001928E-02 0.  1.
    10030    2    1    2    0    0  0.00000000000E+00  0.00000000000E+00 -0.12828459680E+04  0.18158760636E+04  0.12851895194E+04 0.  0.
        4    1    3    3  502    0  0.31414456366E+03  0.52428746127E+03 -0.36109977243E+03  0.70990056168E+03  0.12699999809E+01 0.  1.
       -4    1    3    3    0  502 -0.31414456366E+03 -0.52428746127E+03 -0.92174619553E+03  0.11059755019E+04  0.12699999809E+01 0. -1.
</event>
<event>
 5   0  0.3336609E-03  0.1297634E+04  0.7818609E-02  0.9031444E-01
       -2   -1    0    0    0  501  0.00000000000E+00  0.00000000000E+00  0.95938607908E+03  0.95938607909E+03  0.25500000920E-02 0.  1.
        2   -1    0    0  501    0  0.00000000000E+00  0.00000000000E+00 -0.43878407143E+03  0.43878407144E+03  0.25500000920E-02 0. -1.
    10030    2    1    2    0    0  0.00000000000E+00  0.00000000000E+00  0.52060200765E+03  0.13981701505E+04  0.12976337386E+04 0.  0.
        1    1    3    3  502    0  0.43206272059E+03  0.21917856933E+03  0.72529917665E+03  0.87222493398E+03  0.50400001928E-02 0.  1.
       -1    1    3    3    0  502 -0.43206272059E+03 -0.21917856933E+03 -0.20469716900E+03  0.52594521654E+03  0.50400001928E-02 0. -1.
</event>
<event>
 5   0  0.3294720E-03  0.1306607E+04  0.7818609E-02  0.9024342E-01
        2   -1    0    0  501    0  0.00000000000E+00  0.00000000000E+00  0.31611719270E+03  0.31611719271E+03  0.25500000920E-02 0.  1.
       -2   -1    0    0    0  501  0.00000000000E+00  0.00000000000E+00 -0.13501491669E+04  0.13501491669E+04  0.25500000920E-02 0. -1.
    10030    2    1    2    0    0  0.00000000000E+00  0.00000000000E+00 -0.10340319742E+04  0.16662663596E+04  0.13066068489E+04 0.  0.
        5    1    3    3  502    0  0.41828316791E+03  0.13785454647E+03  0.98314344396E+02  0.45127872192E+03  0.46999998093E+01 0.  1.
       -5    1    3    3    0  502 -0.41828316791E+03 -0.13785454647E+03 -0.11323463186E+04  0.12149876377E+04  0.46999998093E+01 0. -1.
</event>
<event>
 5   0  0.3259968E-03  0.1187138E+04  0.7818609E-02  0.9124190E-01
       -2   -1    0    0    0  501  0.00000000000E+00  0.00000000000E+00  0.39010262603E+03  0.39010262603E+03  0.25500000920E-02 0.  1.
        2   -1    0    0  501    0  0.00000000000E+00  0.00000000000E+00 -0.90315765624E+03  0.90315765624E+03  0.25500000920E-02 0. -1.
    10030    2    1    2    0    0  0.00000000000E+00  0.00000000000E+00 -0.51305503021E+03  0.12932602823E+04  0.11871380264E+04 0.  0.
        4    1    3    3  502    0 -0.56925892811E+03 -0.38789128723E+02 -0.43474320163E+03  0.71733087763E+03  0.12699999809E+01 0.  1.
       -4    1    3    3    0  502  0.56925892811E+03  0.38789128723E+02 -0.78311828576E+02  0.57592940464E+03  0.12699999809E+01 0. -1.
</event>
<event>
 5   0  0.3262927E-03  0.1296010E+04  0.7818609E-02  0.9032735E-01
       -2   -1    0    0    0  501  0.00000000000E+00  0.00000000000E+00  0.32384007482E+03  0.32384007483E+03  0.25500000920E-02 0. -1.
        2   -1    0    0  501    0  0.00000000000E+00  0.00000000000E+00 -0.12966599887E+04  0.12966599887E+04  0.25500000920E-02 0.  1.
    10030    2    1    2    0    0  0.00000000000E+00  0.00000000000E+00 -0.97281991388E+03  0.16205000635E+04  0.12960099811E+04 0.  0.
        3    1    3    3  502    0  0.98668373202E+02 -0.15786089242E+03  0.28968492422E+03  0.34434412257E+03  0.10100000352E+00 0. -1.
       -3    1    3    3    0  502 -0.98668373202E+02  0.15786089242E+03 -0.12625048381E+04  0.12761559410E+04  0.10100000352E+00 0.  1.
</event>
<event>
 5   0  0.3294720E-03  0.1252191E+04  0.7818609E-02  0.9068361E-01
        2   -1    0    0  501    0  0.00000000000E+00  0.00000000000E+00  0.11602787908E+04  0.11602787908E+04  0.25500000920E-02 0.  1.
       -2   -1    0    0    0  501  0.00000000000E+00  0.00000000000E+00 -0.33784620240E+03  0.33784620241E+03  0.25500000920E-02 0. -1.
    10030    2    1    2    0    0  0.00000000000E+00  0.00000000000E+00  0.82243258839E+03  0.14981249932E+04  0.12521913323E+04 0.  0.
        5    1    3    3  502    0  0.39324094061E+03  0.39217570116E+03  0.75700247352E+03  0.93889033058E+03  0.46999998093E+01 0.  1.
       -5    1    3    3    0  502 -0.39324094061E+03 -0.39217570116E+03  0.65430114879E+02  0.55923466262E+03  0.46999998093E+01 0. -1.
</event>
<event>
 5   0  0.1803959E-03  0.1268358E+04  0.7818609E-02  0.9055041E-01
        1   -1    0    0  501    0  0.00000000000E+00  0.00000000000E+00  0.14907546439E+04  0.14907546439E+04  0.50400001928E-02 0.  1.
       -1   -1    0    0    0  501  0.00000000000E+00  0.00000000000E+00 -0.26978471183E+03  0.26978471188E+03  0.50400001928E-02 0. -1.
    10030    2    1    2    0    0  0.00000000000E+00  0.00000000000E+00  0.12209699321E+04  0.17605393558E+04  0.12683576973E+04 0.  0.
        4    1    3    3  502    0 -0.29618979015E+03 -0.53313934250E+03  0.36920732570E+03  0.71293871585E+03  0.12699999809E+01 0.  1.
       -4    1    3    3    0  502  0.29618979015E+03  0.53313934250E+03  0.85176260640E+03  0.10476006400E+04  0.12699999809E+01 0. -1.
</event>
<event>
 5   0  0.1873488E-03  0.1315694E+04  0.7818609E-02  0.9017212E-01
        1   -1    0    0  501    0  0.00000000000E+00  0.00000000000E+00  0.80635335134E+03  0.80635335136E+03  0.50400001928E-02 0. -1.
       -1   -1    0    0    0  501  0.00000000000E+00  0.00000000000E+00 -0.53669096183E+03  0.53669096186E+03  0.50400001928E-02 0.  1.
    10030    2    1    2    0    0  0.00000000000E+00  0.00000000000E+00  0.26966238951E+03  0.13430443132E+04  0.13156938181E+04 0.  0.
        3    1    3    3  502    0  0.64585770047E+02 -0.51151675409E+03  0.55190997856E+03  0.75526508329E+03  0.10100000352E+00 0. -1.
       -3    1    3    3    0  502 -0.64585770047E+02  0.51151675409E+03 -0.28224758905E+03  0.58777922992E+03  0.10100000352E+00 0.  1.
</event>
<event>
 5   0  0.1814770E-03  0.1269489E+04  0.7818609E-02  0.9054117E-01
        1   -1    0    0  501    0  0.00000000000E+00  0.00000000000E+00  0.36607152961E+03  0.36607152965E+03  0.50400001928E-02 0.  1.
       -1   -1    0    0    0  501  0.00000000000E+00  0.00000000000E+00 -0.11006057413E+04  0.11006057413E+04  0.50400001928E-02 0. -1.
    10030    2    1    2    0    0  0.00000000000E+00  0.00000000000E+00 -0.73453421168E+03  0.14666772709E+04  0.12694887589E+04 0.  0.
        5    1    3    3  502    0  0.43660140208E+03 -0.30630105835E+03  0.30336024303E+02  0.53421296036E+03  0.46999998093E+01 0.  1.
       -5    1    3    3    0  502 -0.43660140208E+03  0.30630105835E+03 -0.76487023598E+03  0.93246431059E+03  0.46999998093E+01 0. -1.
</event>
<event>
 5   0  0.3336609E-03  0.1282623E+04  0.7818609E-02  0.9043460E-01
       -2   -1    0    0    0  501  0.00000000000E+00  0.00000000000E+00  0.28524347267E+03  0.28524347268E+03  0.25500000920E-02 0.  1.
        2   -1    0    0  501    0  0.00000000000E+00  0.00000000000E+00 -0.14418570433E+04  0.14418570433E+04  0.25500000920E-02 0. -1.
    10030    2    1    2    0    0  0.00000000000E+00  0.00000000000E+00 -0.11566135706E+04  0.17271005159E+04  0.12826227974E+04 0.  0.
        1    1    3    3  502    0  0.10635747646E+03 -0.35881185888E+03  0.12295710108E+03  0.39392424602E+03  0.50400001928E-02 0.  1.
       -1    1    3    3    0  502 -0.10635747646E+03  0.35881185888E+03 -0.12795706717E+04  0.13331762699E+04  0.50400001928E-02 0. -1.
</event>
<event>
 5   0  0.3294720E-03  0.1310646E+04  0.7818609E-02  0.9021165E-01
       -2   -1    0    0    0  501  0.00000000000E+00  0.00000000000E+00  0.20411292261E+03  0.20411292262E+03  0.25500000920E-02 0. -1.
        2   -1    0    0  501    0  0.00000000000E+00  0.00000000000E+00 -0.21039750151E+04  0.21039750151E+04  0.25500000920E-02 0.  1.
    10030    2    1    2    0    0  0.00000000000E+00  0.00000000000E+00 -0.18998620925E+04  0.23080879377E+04  0.13106463893E+04 0.  0.
        5    1    3    3  502    0  0.26772966786E+02 -0.24136052137E+02 -0.21021981267E+04  0.21025124006E+04  0.46999998093E+01 0.  1.
       -5    1    3    3    0  502 -0.26772966786E+02  0.24136052137E+02  0.20233603416E+03  0.20557553717E+03  0.46999998093E+01 0. -1.
</event>
<event>
 5   0  0.1814770E-03  0.1273679E+04  0.7818609E-02  0.9050703E-01
        1   -1    0    0  501    0  0.00000000000E+00  0.00000000000E+00  0.64763269953E+03  0.64763269955E+03  0.50400001928E-02 0. -1.
       -1   -1    0    0    0  501  0.00000000000E+00  0.00000000000E+00 -0.62622589917E+03  0.62622589919E+03  0.50400001928E-02 0.  1.
    10030    2    1    2    0    0  0.00000000000E+00  0.00000000000E+00  0.21406800361E+02  0.12738585987E+04  0.12736787187E+04 0.  0.
        5    1    3    3  502    0  0.15384006959E+03 -0.25528260312E+03 -0.55214273113E+03  0.62747084395E+03  0.46999998093E+01 0.  1.
       -5    1    3    3    0  502 -0.15384006959E+03  0.25528260312E+03  0.57354953149E+03  0.64638775479E+03  0.46999998093E+01 0. -1.
</event>
<event>
 5   0  0.1857986E-03  0.1416799E+04  0.7818609E-02  0.8941748E-01
        1   -1    0    0  501    0  0.00000000000E+00  0.00000000000E+00  0.51454848994E+03  0.51454848996E+03  0.50400001928E-02 0. -1.
       -1   -1    0    0    0  501  0.00000000000E+00  0.00000000000E+00 -0.97528129918E+03  0.97528129919E+03  0.50400001928E-02 0.  1.
    10030    2    1    2    0    0  0.00000000000E+00  0.00000000000E+00 -0.46073280924E+03  0.14898297892E+04  0.14167985316E+04 0.  0.
        1    1    3    3  502    0  0.62560902882E+03 -0.32861560478E+03 -0.17826816033E+03  0.72880340948E+03  0.50400001928E-02 0. -1.
       -1    1    3    3    0  502 -0.62560902882E+03  0.32861560478E+03 -0.28246464891E+03  0.76102637968E+03  0.50400001928E-02 0.  1.
</event>
<event>
 5   0  0.3259968E-03  0.1284230E+04  0.7818609E-02  0.9042165E-01
        2   -1    0    0  501    0  0.00000000000E+00  0.00000000000E+00  0.14203029741E+04  0.14203029741E+04  0.25500000920E-02 0. -1.
       -2   -1    0    0    0  501  0.00000000000E+00  0.00000000000E+00 -0.29029855710E+03  0.29029855711E+03  0.25500000920E-02 0.  1.
    10030    2    1    2    0    0  0.00000000000E+00  0.00000000000E+00  0.11300044170E+04  0.17106015312E+04  0.12842303595E+04 0.  0.
        4    1    3    3  502    0 -0.56981735374E+03  0.28119263652E+03  0.68816174468E+03  0.93665859053E+03  0.12699999809E+01 0. -1.
       -4    1    3    3    0  502  0.56981735374E+03 -0.28119263652E+03  0.44184267234E+03  0.77394294070E+03  0.12699999809E+01 0.  1.
</event>
<event>
 5   0  0.1857986E-03  0.1291853E+04  0.7818609E-02  0.9036051E-01
       -1   -1    0    0    0  501  0.00000000000E+00  0.00000000000E+00  0.43338858114E+03  0.43338858117E+03  0.50400001928E-02 0.  1.
        1   -1    0    0  501    0  0.00000000000E+00  0.00000000000E+00 -0.96269444714E+03  0.96269444715E+03  0.50400001928E-02 0. -1.
    10030    2    1    2    0    0  0.00000000000E+00  0.00000000000E+00 -0.52930586600E+03  0.13960830283E+04  0.12918525931E+04 0.  0.
        1    1    3    3  502    0  0.23780608984E+02  0.45076165694E+03  0.23465203725E+03  0.50873683506E+03  0.50400001928E-02 0.  1.
       -1    1    3    3    0  502 -0.23780608984E+02 -0.45076165694E+03 -0.76395790325E+03  0.88734619326E+03  0.50400001928E-02 0. -1.
</event>
<event>
 5   0  0.3259968E-03  0.1317854E+04  0.7818609E-02  0.9015525E-01
        2   -1    0    0  501    0  0.00000000000E+00  0.00000000000E+00  0.10532791639E+04  0.10532791639E+04  0.25500000920E-02 0.  1.
       -2   -1    0    0    0  501  0.00000000000E+00  0.00000000000E+00 -0.41222210576E+03  0.41222210576E+03  0.25500000920E-02 0. -1.
    10030    2    1    2    0    0  0.00000000000E+00  0.00000000000E+00  0.64105705816E+03  0.14655012697E+04  0.13178542482E+04 0.  0.
        4    1    3    3  502    0  0.14078653981E+03  0.61053658827E+03  0.93696187177E+02  0.63352692429E+03  0.12699999809E+01 0. -1.
       -4    1    3    3    0  502 -0.14078653981E+03 -0.61053658827E+03  0.54736087098E+03  0.83197434539E+03  0.12699999809E+01 0.  1.
</event>
<event>
 5   0  0.3336609E-03  0.1305683E+04  0.7818609E-02  0.9025071E-01
        2   -1    0    0  501    0  0.00000000000E+00  0.00000000000E+00  0.58573345160E+03  0.58573345161E+03  0.25500000920E-02 0. -1.
       -2   -1    0    0    0  501  0.00000000000E+00  0.00000000000E+00 -0.72763779387E+03  0.72763779387E+03  0.25500000920E-02 0.  1.
    10030    2    1    2    0    0  0.00000000000E+00  0.00000000000E+00 -0.14190434226E+03  0.13133712455E+04  0.13056826514E+04 0.  0.
        1    1    3    3  502    0  0.49983917536E+03  0.19540608292E+03 -0.44486553209E+03  0.69708541810E+03  0.50400001928E-02 0.  1.
       -1    1    3    3    0  502 -0.49983917536E+03 -0.19540608292E+03  0.30296118982E+03  0.61628582738E+03  0.50400001928E-02 0. -1.
</event>
<event>
 5   0  0.1254125E-03  0.1292525E+04  0.7818609E-02  0.9035514E-01
        4   -1    0    0  501    0  0.00000000000E+00  0.00000000000E+00  0.46885845415E+03  0.46886017418E+03  0.12699999809E+01 0.  1.
       -4   -1    0    0    0  501  0.00000000000E+00  0.00000000000E+00 -0.89078770688E+03  0.89078861220E+03  0.12699999809E+01 0. -1.
    10030    2    1    2    0    0  0.00000000000E+00  0.00000000000E+00 -0.42192925273E+03  0.13596487864E+04  0.12925248655E+04 0.  0.
        4    1    3    3  502    0  0.61536782651E+02  0.97745574959E+02  0.45791264933E+03  0.47225690081E+03  0.12699999809E+01 0.  1.
       -4    1    3    3    0  502 -0.61536782651E+02 -0.97745574959E+02 -0.87984190206E+03  0.88739188556E+03  0.12699999809E+01 0. -1.
</event>
<event>
 5   0  0.1857986E-03  0.1310027E+04  0.7818609E-02  0.9021651E-01
       -1   -1    0    0    0  501  0.00000000000E+00  0.00000000000E+00  0.35250557349E+03  0.35250557353E+03  0.50400001928E-02 0. -1.
        1   -1    0    0  501    0  0.00000000000E+00  0.00000000000E+00 -0.12171237180E+04  0.12171237180E+04  0.50400001928E-02 0.  1.
    10030    2    1    2    0    0  0.00000000000E+00  0.00000000000E+00 -0.86461814452E+03  0.15696292916E+04  0.13100273192E+04 0.  0.
        1    1    3    3  502    0 -0.59613540540E+02  0.13330312821E+03  0.33275433147E+03  0.36338539230E+03  0.50400001928E-02 0. -1.
       -1    1    3    3    0  502  0.59613540540E+02 -0.13330312821E+03 -0.11973724760E+04  0.12062438992E+04  0.50400001928E-02 0.  1.
</event>
<event>
 5   0  0.1814770E-03  0.1279680E+04  0.7818609E-02  0.9045836E-01
        1   -1    0    0  501    0  0.00000000000E+00  0.00000000000E+00  0.63154900140E+03  0.63154900142E+03  0.50400001928E-02 0.  1.
       -1   -1    0    0    0  501  0.00000000000E+00  0.00000000000E+00 -0.64824024004E+03  0.64824024006E+03  0.50400001928E-02 0. -1.
    10030    2    1    2    0    0  0.00000000000E+00  0.00000000000E+00 -0.16691238642E+02  0.12797892415E+04  0.12796803918E+04 0.  0.
        5    1    3    3  502    0  0.19127247412E+03  0.52390943390E+03 -0.32191197073E+03  0.64398420880E+03  0.46999998093E+01 0. -1.
       -5    1    3    3    0  502 -0.19127247412E+03 -0.52390943390E+03  0.30522073209E+03  0.63580503268E+03  0.46999998093E+01 0.  1.
</event>
<event>
 5   0  0.3259968E-03  0.1255754E+04  0.7818609E-02  0.9065407E-01
        2   -1    0    0  501    0  0.00000000000E+00  0.00000000000E+00  0.18584965643E+04  0.18584965643E+04  0.25500000920E-02 0.  1.
       -2   -1    0    0    0  501  0.00000000000E+00  0.00000000000E+00 -0.21212298078E+03  0.21212298079E+03  0.25500000920E-02 0. -1.
    10030    2    1    2    0    0  0.00000000000E+00  0.00000000000E+00  0.16463735835E+04  0.20706195450E+04  0.12557544840E+04 0.  0.
        4    1    3    3  502    0 -0.38792661383E+03  0.28997239767E+03  0.14820416969E+04  0.15591729389E+04  0.12699999809E+01 0. -1.
       -4    1    3    3    0  502  0.38792661383E+03 -0.28997239767E+03  0.16433188661E+03  0.51144660619E+03  0.12699999809E+01 0.  1.
</event>
<event>
 5   0  0.1803959E-03  0.1315003E+04  0.7818609E-02  0.9017752E-01
       -1   -1    0    0    0  501  0.00000000000E+00  0.00000000000E+00  0.73002988080E+03  0.73002988081E+03  0.50400001928E-02 0. -1.
        1   -1    0    0  501    0  0.00000000000E+00  0.00000000000E+00 -0.59217866543E+03  0.59217866545E+03  0.50400001928E-02 0.  1.
    10030    2    1    2    0    0  0.00000000000E+00  0.00000000000E+00  0.13785121537E+03  0.13222085463E+04  0.13150028450E+04 0.  0.
        4    1    3    3  502    0 -0.26399111090E+03 -0.51912058403E+03 -0.23791708455E+03  0.62911337565E+03  0.12699999809E+01 0.  1.
       -4    1    3    3    0  502  0.26399111090E+03  0.51912058403E+03  0.37576829992E+03  0.69309517061E+03  0.12699999809E+01 0. -1.
</event>
<event>
 5   0  0.3259968E-03  0.1189715E+04  0.7818609E-02  0.9121907E-01
        2   -1    0    0  501    0  0.00000000000E+00  0.00000000000E+00  0.21793580714E+04  0.21793580714E+04  0.25500000920E-02 0. -1.
       -2   -1    0    0    0  501  0.00000000000E+00  0.00000000000E+00 -0.16236688785E+03  0.16236688787E+03  0.25500000920E-02 0.  1.
    10030    2    1    2    0    0  0.00000000000E+00  0.00000000000E+00  0.20169911835E+04  0.23417249592E+04  0.11897152392E+04 0.  0.
        4    1    3    3  502    0 -0.33707308355E+02 -0.45019951809E+03  0.17709146830E+04  0.18275547095E+04  0.12699999809E+01 0. -1.
       -4    1    3    3    0  502  0.33707308355E+02  0.45019951809E+03  0.24607650048E+03  0.51417024974E+03  0.12699999809E+01 0.  1.
</event>
<event>
 5   0  0.1823154E-03  0.1132067E+04  0.7818609E-02  0.9174489E-01
       -1   -1    0    0    0  501  0.00000000000E+00  0.00000000000E+00  0.35133675697E+03  0.35133675701E+03  0.50400001928E-02 0. -1.
        1   -1    0    0  501    0  0.00000000000E+00  0.00000000000E+00 -0.91192803633E+03  0.91192803635E+03  0.50400001928E-02 0.  1.
    10030    2    1    2    0    0  0.00000000000E+00  0.00000000000E+00 -0.56059127936E+03  0.12632647934E+04  0.11320668512E+04 0.  0.
        2    1    3    3  502    0 -0.22058095287E+03 -0.40461707057E+03  0.86462914378E+02  0.46887819968E+03  0.25500000920E-02 0. -1.
       -2    1    3    3    0  502  0.22058095287E+03  0.40461707057E+03 -0.64705419374E+03  0.79438659367E+03  0.25500000920E-02 0.  1.
</event>
<event>
 5   0  0.3336609E-03  0.1309795E+04  0.7818609E-02  0.9021833E-01
       -2   -1    0    0    0  501  0.00000000000E+00  0.00000000000E+00  0.69707591805E+03  0.69707591806E+03  0.25500000920E-02 0.  1.
        2   -1    0    0  501    0  0.00000000000E+00  0.00000000000E+00 -0.61527166323E+03  0.61527166323E+03  0.25500000920E-02 0. -1.
    10030    2    1    2    0    0  0.00000000000E+00  0.00000000000E+00  0.81804254823E+02  0.13123475813E+04  0.13097954947E+04 0.  0.
        1    1    3    3  502    0 -0.57399759169E+03  0.71647111422E+02 -0.26675400067E+03  0.63699626431E+03  0.50400001928E-02 0. -1.
       -1    1    3    3    0  502  0.57399759169E+03 -0.71647111422E+02  0.34855825550E+03  0.67535131698E+03  0.50400001928E-02 0.  1.
</event>
<event>
 5   0  0.1857986E-03  0.1042905E+04  0.7818609E-02  0.9262700E-01
       -1   -1    0    0    0  501  0.00000000000E+00  0.00000000000E+00  0.24135088602E+03  0.24135088607E+03  0.50400001928E-02 0. -1.
        1   -1    0    0  501    0  0.00000000000E+00  0.00000000000E+00 -0.11266273110E+04  0.11266273110E+04  0.50400001928E-02 0.  1.
    10030    2    1    2    0    0  0.00000000000E+00  0.00000000000E+00 -0.88527642501E+03  0.13679781971E+04  0.10429045973E+04 0.  0.
        1    1    3    3  502    0 -0.87432139526E+02 -0.12803435990E+03  0.21041901563E+03  0.26136820484E+03  0.50400001928E-02 0. -1.
       -1    1    3    3    0  502  0.87432139526E+02  0.12803435990E+03 -0.10956954406E+04  0.11066099923E+04  0.50400001928E-02 0.  1.
</event>
<event>
 5   0  0.1857986E-03  0.1295351E+04  0.7818609E-02  0.9033260E-01
        1   -1    0    0  501    0  0.00000000000E+00  0.00000000000E+00  0.79714430571E+03  0.79714430573E+03  0.50400001928E-02 0. -1.
       -1   -1    0    0    0  501  0.00000000000E+00  0.00000000000E+00 -0.52623253858E+03  0.52623253860E+03  0.50400001928E-02 0.  1.
    10030    2    1    2    0    0  0.00000000000E+00  0.00000000000E+00  0.27091176714E+03  0.13233768443E+04  0.12953505651E+04 0.  0.
        1    1    3    3  502    0 -0.65312917587E+02 -0.51633781401E+03  0.52929990465E+03  0.74231321184E+03  0.50400001928E-02 0. -1.
       -1    1    3    3    0  502  0.65312917587E+02  0.51633781401E+03 -0.25838813751E+03  0.58106363250E+03  0.50400001928E-02 0.  1.
</event>
<event>
 5   0  0.1873488E-03  0.1299926E+04  0.7818609E-02  0.9029624E-01
        1   -1    0    0  501    0  0.00000000000E+00  0.00000000000E+00  0.16335368779E+04  0.16335368779E+04  0.50400001928E-02 0. -1.
       -1   -1    0    0    0  501  0.00000000000E+00  0.00000000000E+00 -0.25861171193E+03  0.25861171198E+03  0.50400001928E-02 0.  1.
    10030    2    1    2    0    0  0.00000000000E+00  0.00000000000E+00  0.13749251659E+04  0.18921485898E+04  0.12999257956E+04 0.  0.
        3    1    3    3  502    0 -0.64711588820E+03  0.55440281038E+02  0.65124342032E+03  0.91975572857E+03  0.10100000352E+00 0. -1.
       -3    1    3    3    0  502  0.64711588820E+03 -0.55440281038E+02  0.72368174562E+03  0.97239286128E+03  0.10100000352E+00 0.  1.
</event>
<event>
 5   0  0.3262927E-03  0.1300153E+04  0.7818609E-02  0.9029444E-01
       -2   -1    0    0    0  501  0.00000000000E+00  0.00000000000E+00  0.66242634475E+03  0.66242634475E+03  0.25500000920E-02 0. -1.
        2   -1    0    0  501    0  0.00000000000E+00  0.00000000000E+00 -0.63795723868E+03  0.63795723869E+03  0.25500000920E-02 0.  1.
    10030    2    1    2    0    0  0.00000000000E+00  0.00000000000E+00  0.24469106066E+02  0.13003835834E+04  0.13001533475E+04 0.  0.
        3    1    3    3  502    0 -0.26345645828E+03 -0.39530973518E+03 -0.43160137208E+03  0.64184020342E+03  0.10100000352E+00 0.  1.
       -3    1    3    3    0  502  0.26345645828E+03  0.39530973518E+03  0.45607047814E+03  0.65854338003E+03  0.10100000352E+00 0. -1.
</event>
<event>
 5   0  0.3299104E-03  0.1302117E+04  0.7818609E-02  0.9027888E-01
        2   -1    0    0  501    0  0.00000000000E+00  0.00000000000E+00  0.15965991226E+04  0.15965991226E+04  0.25500000920E-02 0. -1.
       -2   -1    0    0    0  501  0.00000000000E+00  0.00000000000E+00 -0.26548758905E+03  0.26548758907E+03  0.25500000920E-02 0.  1.
    10030    2    1    2    0    0  0.00000000000E+00  0.00000000000E+00  0.13311115336E+04  0.18620867117E+04  0.13021171249E+04 0.  0.
        2    1    3    3  502    0 -0.36079161698E+03  0.37529627110E+03  0.12246639936E+04  0.13307215258E+04  0.25500000920E-02 0. -1.
       -2    1    3    3    0  502  0.36079161698E+03 -0.37529627110E+03  0.10644753994E+03  0.53136518587E+03  0.25500000920E-02 0.  1.
</event>
<event>
 5   0  0.1823154E-03  0.1277149E+04  0.7818609E-02  0.9047885E-01
       -1   -1    0    0    0  501  0.00000000000E+00  0.00000000000E+00  0.42149457995E+03  0.42149457998E+03  0.50400001928E-02 0.  1.
        1   -1    0    0  501    0  0.00000000000E+00  0.00000000000E+00 -0.96745581735E+03  0.96745581737E+03  0.50400001928E-02 0. -1.
    10030    2    1    2    0    0  0.00000000000E+00  0.00000000000E+00 -0.54596123740E+03  0.13889503974E+04  0.12771489864E+04 0.  0.
        2    1    3    3  502    0  0.46569690069E+02 -0.41171912230E+03 -0.80141309268E+03  0.90218862597E+03  0.25500000920E-02 0. -1.
       -2    1    3    3    0  502 -0.46569690069E+02  0.41171912230E+03  0.25545185528E+03  0.48676177138E+03  0.25500000920E-02 0.  1.
</event>
<event>
 5   0  0.3336609E-03  0.1295224E+04  0.7818609E-02  0.9033361E-01
       -2   -1    0    0    0  501  0.00000000000E+00  0.00000000000E+00  0.70380603236E+03  0.70380603236E+03  0.25500000920E-02 0. -1.
        2   -1    0    0  501    0  0.00000000000E+00  0.00000000000E+00 -0.59590512134E+03  0.59590512135E+03  0.25500000920E-02 0.  1.
    10030    2    1    2    0    0  0.00000000000E+00  0.00000000000E+00  0.10790091102E+03  0.12997111537E+04  0.12952244888E+04 0.  0.
        1    1    3    3  502    0 -0.47403224937E+03 -0.18914542521E+03  0.45397789667E+03  0.68306551370E+03  0.50400001928E-02 0.  1.
       -1    1    3    3    0  502  0.47403224937E+03  0.18914542521E+03 -0.34607698565E+03  0.61664564001E+03  0.50400001928E-02 0. -1.
</event>
<event>
 5   0  0.3294720E-03  0.1306869E+04  0.7818609E-02  0.9024135E-01
       -2   -1    0    0    0  501  0.00000000000E+00  0.00000000000E+00  0.17628481506E+03  0.17628481508E+03  0.25500000920E-02 0.  1.
        2   -1    0    0  501    0  0.00000000000E+00  0.00000000000E+00 -0.24220856115E+04  0.24220856115E+04  0.25500000920E-02 0. -1.
    10030    2    1    2    0    0  0.00000000000E+00  0.00000000000E+00 -0.22458007965E+04  0.25983704266E+04  0.13068694106E+04 0.  0.
        5    1    3    3  502    0  0.51468254529E+03  0.10571504625E+03 -0.35060011697E+03  0.63167739032E+03  0.46999998093E+01 0.  1.
       -5    1    3    3    0  502 -0.51468254529E+03 -0.10571504625E+03 -0.18952006795E+04  0.19666930363E+04  0.46999998093E+01 0. -1.
</event>
<event>
 5   0  0.1803959E-03  0.1301091E+04  0.7818609E-02  0.9028701E-01
        1   -1    0    0  501    0  0.00000000000E+00  0.00000000000E+00  0.84797696618E+03  0.84797696619E+03  0.50400001928E-02 0. -1.
       -1   -1    0    0    0  501  0.00000000000E+00  0.00000000000E+00 -0.49908110451E+03  0.49908110453E+03  0.50400001928E-02 0.  1.
    10030    2    1    2    0    0  0.00000000000E+00  0.00000000000E+00  0.34889586167E+03  0.13470580707E+04  0.13010907438E+04 0.  0.
        4    1    3    3  502    0  0.17824935238E+03 -0.61303839498E+03  0.45057534318E+02  0.64001617139E+03  0.12699999809E+01 0.  1.
       -4    1    3    3    0  502 -0.17824935238E+03  0.61303839498E+03  0.30383832736E+03  0.70704189933E+03  0.12699999809E+01 0. -1.
</event>
<event>
 5   0  0.3336609E-03  0.1293434E+04  0.7818609E-02  0.9034788E-01
        2   -1    0    0  501    0  0.00000000000E+00  0.00000000000E+00  0.13479603551E+04  0.13479603551E+04  0.25500000920E-02 0. -1.
       -2   -1    0    0    0  501  0.00000000000E+00  0.00000000000E+00 -0.31027841882E+03  0.31027841883E+03  0.25500000920E-02 0.  1.
    10030    2    1    2    0    0  0.00000000000E+00  0.00000000000E+00  0.10376819363E+04  0.16582387739E+04  0.12934342003E+04 0.  0.
        1    1    3    3  502    0  0.12333901581E+03  0.13500675344E+03 -0.27644318570E+03  0.33145161221E+03  0.50400001928E-02 0.  1.
       -1    1    3    3    0  502 -0.12333901581E+03 -0.13500675344E+03  0.13141251220E+04  0.13267871617E+04  0.50400001928E-02 0. -1.
</event>
<event>
 5   0  0.1857986E-03  0.1289549E+04  0.7818609E-02  0.9037894E-01
        1   -1    0    0  501    0  0.00000000000E+00  0.00000000000E+00  0.16726529806E+04  0.16726529806E+04  0.50400001928E-02 0. -1.
       -1   -1    0    0    0  501  0.00000000000E+00  0.00000000000E+00 -0.24854795503E+03  0.24854795508E+03  0.50400001928E-02 0.  1.
    10030    2    1    2    0    0  0.00000000000E+00  0.00000000000E+00  0.14241050255E+04  0.19212009357E+04  0.12895494994E+04 0.  0.
        1    1    3    3  502    0 -0.37970624109E+03 -0.43594476103E+03  0.11373959363E+04  0.12758895642E+04  0.50400001928E-02 0. -1.
       -1    1    3    3    0  502  0.37970624109E+03  0.43594476103E+03  0.28670908923E+03  0.64531137140E+03  0.50400001928E-02 0.  1.
</event>
<event>
 5   0  0.3336609E-03  0.1405675E+04  0.7818609E-02  0.8949721E-01
       -2   -1    0    0    0  501  0.00000000000E+00  0.00000000000E+00  0.15219911885E+04  0.15219911885E+04  0.25500000920E-02 0.  1.
        2   -1    0    0  501    0  0.00000000000E+00  0.00000000000E+00 -0.32456194913E+03  0.32456194914E+03  0.25500000920E-02 0. -1.
    10030    2    1    2    0    0  0.00000000000E+00  0.00000000000E+00  0.11974292394E+04  0.18465531377E+04  0.14056748226E+04 0.  0.
        1    1    3    3  502    0 -0.57979252214E+03 -0.26894373044E+03  0.98280677289E+03  0.11723477520E+04  0.50400001928E-02 0.  1.
       -1    1    3    3    0  502  0.57979252214E+03  0.26894373044E+03  0.21462246652E+03  0.67420538564E+03  0.50400001928E-02 0. -1.
</event>
<event>
 5   0  0.1803959E-03  0.1300581E+04  0.7818609E-02  0.9029105E-01
        1   -1    0    0  501    0  0.00000000000E+00  0.00000000000E+00  0.44356235973E+03  0.44356235976E+03  0.50400001928E-02 0. -1.
       -1   -1    0    0    0  501  0.00000000000E+00  0.00000000000E+00 -0.95336690755E+03  0.95336690756E+03  0.50400001928E-02 0.  1.
    10030    2    1    2    0    0  0.00000000000E+00  0.00000000000E+00 -0.50980454782E+03  0.13969292673E+04  0.13005809090E+04 0.  0.
        4    1    3    3  502    0 -0.42012394443E+02  0.41032442472E+03 -0.79488296627E+03  0.89552873643E+03  0.12699999809E+01 0.  1.
       -4    1    3    3    0  502  0.42012394443E+02 -0.41032442472E+03  0.28507841845E+03  0.50140053089E+03  0.12699999809E+01 0. -1.
</event>
<event>
 5   0  0.3299104E-03  0.1293431E+04  0.7818609E-02  0.9034790E-01
       -2   -1    0    0    0  501  0.00000000000E+00  0.00000000000E+00  0.29300143725E+03  0.29300143726E+03  0.25500000920E-02 0.  1.
        2   -1    0    0  501    0  0.00000000000E+00  0.00000000000E+00 -0.14274372187E+04  0.14274372187E+04  0.25500000920E-02 0. -1.
    10030    2    1    2    0    0  0.00000000000E+00  0.00000000000E+00 -0.11344357814E+04  0.17204386560E+04  0.12934313382E+04 0.  0.
        2    1    3    3  502    0 -0.33780004650E+03  0.28774409037E+03  0.58561811437E+02  0.44758800109E+03  0.25500000920E-02 0.  1.
       -2    1    3    3    0  502  0.33780004650E+03 -0.28774409037E+03 -0.11929975929E+04  0.12728506549E+04  0.25500000920E-02 0. -1.
</event>
<event>
 5   0  0.3299104E-03  0.1327981E+04  0.7818609E-02  0.9007666E-01
       -2   -1    0    0    0  501  0.00000000000E+00  0.00000000000E+00  0.55627068673E+03  0.55627068673E+03  0.25500000920E-02 0.  1.
        2   -1    0    0  501    0  0.00000000000E+00  0.00000000000E+00 -0.79256942941E+03  0.79256942941E+03  0.25500000920E-02 0. -1.
    10030    2    1    2    0    0  0.00000000000E+00  0.00000000000E+00 -0.23629874268E+03  0.13488401161E+04  0.13279806336E+04 0.  0.
        2    1    3    3  502    0 -0.10709627836E+03 -0.45665069981E+03 -0.59551432706E+03  0.75804801181E+03  0.25500000920E-02 0. -1.
       -2    1    3    3    0  502  0.10709627836E+03  0.45665069981E+03  0.35921558438E+03  0.59079210433E+03  0.25500000920E-02 0.  1.
</event>
<event>
 5   0  0.1803959E-03  0.1284261E+04  0.7818609E-02  0.9042140E-01
       -1   -1    0    0    0  501  0.00000000000E+00  0.00000000000E+00  0.90545697392E+03  0.90545697393E+03  0.50400001928E-02 0. -1.
        1   -1    0    0  501    0  0.00000000000E+00  0.00000000000E+00 -0.45538504665E+03  0.45538504667E+03  0.50400001928E-02 0.  1.
    10030    2    1    2    0    0  0.00000000000E+00  0.00000000000E+00  0.45007192727E+03  0.13608420206E+04  0.12842609802E+04 0.  0.
        4    1    3    3  502    0  0.50570977702E+03 -0.39448369661E+03  0.19203076396E+03  0.66950518495E+03  0.12699999809E+01 0. -1.
       -4    1    3    3    0  502 -0.50570977702E+03  0.39448369661E+03  0.25804116332E+03  0.69133683566E+03  0.12699999809E+01 0.  1.
</event>
<event>
 5   0  0.1814770E-03  0.1296451E+04  0.7818609E-02  0.9032384E-01
       -1   -1    0    0    0  501  0.00000000000E+00  0.00000000000E+00  0.62409608931E+03  0.62409608933E+03  0.50400001928E-02 0.  1.
        1   -1    0    0  501    0  0.00000000000E+00  0.00000000000E+00 -0.67328814806E+03  0.67328814808E+03  0.50400001928E-02 0. -1.
    10030    2    1    2    0    0  0.00000000000E+00  0.00000000000E+00 -0.49192058750E+02  0.12973842374E+04  0.12964513106E+04 0.  0.
        5    1    3    3  502    0 -0.33360137624E+02 -0.41262545328E+03  0.47456321496E+03  0.62976582828E+03  0.46999998093E+01 0.  1.
       -5    1    3    3    0  502  0.33360137624E+02  0.41262545328E+03 -0.52375527371E+03  0.66761840914E+03  0.46999998093E+01 0. -1.
</event>
<event>
 5   0  0.1823154E-03  0.1269563E+04  0.7818609E-02  0.9054057E-01
        1   -1    0    0  501    0  0.00000000000E+00  0.00000000000E+00  0.12532109243E+04  0.12532109243E+04  0.50400001928E-02 0.  1.
       -1   -1    0    0    0  501  0.00000000000E+00  0.00000000000E+00 -0.32153195783E+03  0.32153195787E+03  0.50400001928E-02 0. -1.
    10030    2    1    2    0    0  0.00000000000E+00  0.00000000000E+00  0.93167896646E+03  0.15747428822E+04  0.12695626997E+04 0.  0.
        2    1    3    3  502    0 -0.12516066434E+03  0.32261317509E+03 -0.19425234331E+03  0.39683551444E+03  0.25500000920E-02 0. -1.
       -2    1    3    3    0  502  0.12516066434E+03 -0.32261317509E+03  0.11259313098E+04  0.11779073677E+04  0.25500000920E-02 0.  1.
</event>
<event>
 5   0  0.3262927E-03  0.1262716E+04  0.7818609E-02  0.9059665E-01
        2   -1    0    0  501    0  0.00000000000E+00  0.00000000000E+00  0.23947975316E+04  0.23947975316E+04  0.25500000920E-02 0. -1.
       -2   -1    0    0    0  501  0.00000000000E+00  0.00000000000E+00 -0.16644963531E+03  0.16644963533E+03  0.25500000920E-02 0.  1.
    10030    2    1    2    0    0  0.00000000000E+00  0.00000000000E+00  0.22283478963E+04  0.25612471669E+04  0.12627163986E+04 0.  0.
        3    1    3    3  502    0 -0.53923021831E+02 -0.19122424294E+03 -0.10138720150E+03  0.22305554959E+03  0.10100000352E+00 0.  1.
       -3    1    3    3    0  502  0.53923021831E+02  0.19122424294E+03  0.23297350978E+04  0.23381916174E+04  0.10100000352E+00 0. -1.
</event>
<event>
 5   0  0.1823154E-03  0.1346283E+04  0.7818609E-02  0.8993646E-01
        1   -1    0    0  501    0  0.00000000000E+00  0.00000000000E+00  0.66914183093E+03  0.66914183095E+03  0.50400001928E-02 0.  1.
       -1   -1    0    0    0  501  0.00000000000E+00  0.00000000000E+00 -0.67716534417E+03  0.67716534419E+03  0.50400001928E-02 0. -1.
    10030    2    1    2    0    0  0.00000000000E+00  0.00000000000E+00 -0.80235132416E+01  0.13463071751E+04  0.13462832663E+04 0.  0.
        2    1    3    3  502    0 -0.38616925717E+03 -0.50064215258E+03 -0.23499290967E+03  0.67453015331E+03  0.25500000920E-02 0. -1.
       -2    1    3    3    0  502  0.38616925717E+03  0.50064215258E+03  0.22696939643E+03  0.67177702182E+03  0.25500000920E-02 0.  1.
</event>
<event>
 5   0  0.1857986E-03  0.1328350E+04  0.7818609E-02  0.9007380E-01
        1   -1    0    0  501    0  0.00000000000E+00  0.00000000000E+00  0.15037561143E+04  0.15037561143E+04  0.50400001928E-02 0.  1.
       -1   -1    0    0    0  501  0.00000000000E+00  0.00000000000E+00 -0.29335124206E+03  0.29335124210E+03  0.50400001928E-02 0. -1.
    10030    2    1    2    0    0  0.00000000000E+00  0.00000000000E+00  0.12104048722E+04  0.17971073564E+04  0.13283504416E+04 0.  0.
        1    1    3    3  502    0 -0.51201794351E+03  0.10641374437E+03  0.11591305092E+04  0.12716405926E+04  0.50400001928E-02 0.  1.
       -1    1    3    3    0  502  0.51201794351E+03 -0.10641374437E+03  0.51274363008E+02  0.52546676374E+03  0.50400001928E-02 0. -1.
</event>
<event>
 5   0  0.3336609E-03  0.1288060E+04  0.7818609E-02  0.9039087E-01
        2   -1    0    0  501    0  0.00000000000E+00  0.00000000000E+00  0.79611844294E+03  0.79611844295E+03  0.25500000920E-02 0. -1.
       -2   -1    0    0    0  501  0.00000000000E+00  0.00000000000E+00 -0.52099635598E+03  0.52099635598E+03  0.25500000920E-02 0.  1.
    10030    2    1    2    0    0  0.00000000000E+00  0.00000000000E+00  0.27512208697E+03  0.13171147989E+04  0.12880602590E+04 0.  0.
        1    1    3    3  502    0  0.57919490262E+03 -0.20411808192E+03 -0.60835748254E+02  0.61711580346E+03  0.50400001928E-02 0.  1.
       -1    1    3    3    0  502 -0.57919490262E+03  0.20411808192E+03  0.33595783522E+03  0.69999899547E+03  0.50400001928E-02 0. -1.
</event>
<event>
 5   0  0.1814770E-03  0.1342755E+04  0.7818609E-02  0.8996331E-01
        1   -1    0    0  501    0  0.00000000000E+00  0.00000000000E+00  0.42807866880E+03  0.42807866883E+03  0.50400001928E-02 0. -1.
       -1   -1    0    0    0  501  0.00000000000E+00  0.00000000000E+00 -0.10529546673E+04  0.10529546673E+04  0.50400001928E-02 0.  1.
    10030    2    1    2    0    0  0.00000000000E+00  0.00000000000E+00 -0.62487599853E+03  0.14810333362E+04  0.13427545305E+04 0.  0.
        5    1    3    3  502    0  0.23321909861E+03 -0.42130539385E+03  0.20353568398E+03  0.52281760442E+03  0.46999998093E+01 0. -1.
       -5    1    3    3    0  502 -0.23321909861E+03  0.42130539385E+03 -0.82841168251E+03  0.95821573174E+03  0.46999998093E+01 0.  1.
</event>
<event>
 5   0  0.1814770E-03  0.1271935E+04  0.7818609E-02  0.9052122E-01
        1   -1    0    0  501    0  0.00000000000E+00  0.00000000000E+00  0.10663199218E+04  0.10663199218E+04  0.50400001928E-02 0. -1.
       -1   -1    0    0    0  501  0.00000000000E+00  0.00000000000E+00 -0.37929970213E+03  0.37929970216E+03  0.50400001928E-02 0.  1.
    10030    2    1    2    0    0  0.00000000000E+00  0.00000000000E+00  0.68702021963E+03  0.14456196239E+04  0.12719352637E+04 0.  0.
        5    1    3    3  502    0 -0.24738741838E+03 -0.46356024363E+03  0.75068125083E+03  0.91631493744E+03  0.46999998093E+01 0. -1.
       -5    1    3    3    0  502  0.24738741838E+03  0.46356024363E+03 -0.63661031198E+02  0.52930468649E+03  0.46999998093E+01 0.  1.
</event>
<event>
 5   0  0.3299104E-03  0.1316660E+04  0.7818609E-02  0.9016457E-01
       -2   -1    0    0    0  501  0.00000000000E+00  0.00000000000E+00  0.34267007548E+03  0.34267007549E+03  0.25500000920E-02 0.  1.
        2   -1    0    0  501    0  0.00000000000E+00  0.00000000000E+00 -0.12647695958E+04  0.12647695958E+04  0.25500000920E-02 0. -1.
    10030    2    1    2    0    0  0.00000000000E+00  0.00000000000E+00 -0.92209952035E+03  0.16074396713E+04  0.13166604617E+04 0.  0.
        2    1    3    3  502    0 -0.32316117774E+03  0.57355465425E+03 -0.46010043368E+03  0.80317525939E+03  0.25500000920E-02 0. -1.
       -2    1    3    3    0  502  0.32316117774E+03 -0.57355465425E+03 -0.46199908667E+03  0.80426441193E+03  0.25500000920E-02 0.  1.
</event>
<event>
 5   0  0.3299104E-03  0.1307067E+04  0.7818609E-02  0.9023979E-01
        2   -1    0    0  501    0  0.00000000000E+00  0.00000000000E+00  0.10602321705E+04  0.10602321705E+04  0.25500000920E-02 0. -1.
       -2   -1    0    0    0  501  0.00000000000E+00  0.00000000000E+00 -0.40284221371E+03  0.40284221372E+03  0.25500000920E-02 0.  1.
    10030    2    1    2    0    0  0.00000000000E+00  0.00000000000E+00  0.65738995681E+03  0.14630743842E+04  0.13070673657E+04 0.  0.
        2    1    3    3  502    0 -0.41426741015E+01 -0.37512747612E+03 -0.27031085195E+03  0.46239132969E+03  0.25500000920E-02 0.  1.
       -2    1    3    3    0  502  0.41426741015E+01  0.37512747612E+03  0.92770080876E+03  0.10006830546E+04  0.25500000920E-02 0. -1.
</event>
<event>
 5   0  0.1873488E-03  0.1277221E+04  0.7818609E-02  0.9047826E-01
        1   -1    0    0  501    0  0.00000000000E+00  0.00000000000E+00  0.10988456468E+04  0.10988456468E+04  0.50400001928E-02 0.  1.
       -1   -1    0    0    0  501  0.00000000000E+00  0.00000000000E+00 -0.37113820023E+03  0.37113820026E+03  0.50400001928E-02 0. -1.
    10030    2    1    2    0    0  0.00000000000E+00  0.00000000000E+00  0.72770744660E+03  0.14699838471E+04  0.12772213524E+04 0.  0.
        3    1    3    3  502    0  0.17935552394E+03 -0.58249858924E+03  0.58328677108E+03  0.84362105115E+03  0.10100000352E+00 0.  1.
       -3    1    3    3    0  502 -0.17935552394E+03  0.58249858924E+03  0.14442067552E+03  0.62636279595E+03  0.10100000352E+00 0. -1.
</event>
<event>
 5   0  0.3294720E-03  0.1193627E+04  0.7818609E-02  0.9118453E-01
        2   -1    0    0  501    0  0.00000000000E+00  0.00000000000E+00  0.13709922693E+04  0.13709922693E+04  0.25500000920E-02 0. -1.
       -2   -1    0    0    0  501  0.00000000000E+00  0.00000000000E+00 -0.25980203634E+03  0.25980203635E+03  0.25500000920E-02 0.  1.
    10030    2    1    2    0    0  0.00000000000E+00  0.00000000000E+00  0.11111902330E+04  0.16307943057E+04  0.11936273847E+04 0.  0.
        5    1    3    3  502    0 -0.50368891701E+02 -0.28108158291E+03  0.12715686648E+04  0.13032470375E+04  0.46999998093E+01 0. -1.
       -5    1    3    3    0  502  0.50368891701E+02  0.28108158291E+03 -0.16037843180E+03  0.32754726817E+03  0.46999998093E+01 0.  1.
</event>
<event>
 5   0  0.1803959E-03  0.1300707E+04  0.7818609E-02  0.9029004E-01
        1   -1    0    0  501    0  0.00000000000E+00  0.00000000000E+00  0.16126480989E+04  0.16126480989E+04  0.50400001928E-02 0. -1.
       -1   -1    0    0    0  501  0.00000000000E+00  0.00000000000E+00 -0.26227664433E+03  0.26227664438E+03  0.50400001928E-02 0.  1.
    10030    2    1    2    0    0  0.00000000000E+00  0.00000000000E+00  0.13503714546E+04  0.18749247433E+04  0.13007073951E+04 0.  0.
        4    1    3    3  502    0 -0.19612526618E+03  0.13886681749E+03  0.15462999194E+04  0.15648623475E+04  0.12699999809E+01 0. -1.
       -4    1    3    3    0  502  0.19612526618E+03 -0.13886681749E+03 -0.19592846484E+03  0.31006239577E+03  0.12699999809E+01 0.  1.
</event>
<event>
 5   0  0.3299104E-03  0.1260026E+04  0.7818609E-02  0.9061880E-01
        2   -1    0    0  501    0  0.00000000000E+00  0.00000000000E+00  0.52746269029E+03  0.52746269029E+03  0.25500000920E-02 0. -1.
       -2   -1    0    0    0  501  0.00000000000E+00  0.00000000000E+00 -0.75250131514E+03  0.75250131515E+03  0.25500000920E-02 0.  1.
    10030    2    1    2    0    0  0.00000000000E+00  0.00000000000E+00 -0.22503862486E+03  0.12799640054E+04  0.12600259809E+04 0.  0.
        2    1    3    3  502    0  0.47316788926E+03 -0.14082470241E+03  0.28507784752E+03  0.57007791343E+03  0.25500000920E-02 0. -1.
       -2    1    3    3    0  502 -0.47316788926E+03  0.14082470241E+03 -0.51011647238E+03  0.70988609201E+03  0.25500000920E-02 0.  1.
</event>
<event>
 5   0  0.1873488E-03  0.1297695E+04  0.7818609E-02  0.9031395E-01
        1   -1    0    0  501    0  0.00000000000E+00  0.00000000000E+00  0.18345649046E+04  0.18345649046E+04  0.50400001928E-02 0. -1.
       -1   -1    0    0    0  501  0.00000000000E+00  0.00000000000E+00 -0.22948397453E+03  0.22948397458E+03  0.50400001928E-02 0.  1.
    10030    2    1    2    0    0  0.00000000000E+00  0.00000000000E+00  0.16050809301E+04  0.20640488792E+04  0.12976952584E+04 0.  0.
        3    1    3    3  502    0 -0.29649285655E+02  0.45964483966E+03  0.15294247967E+04  0.15972766441E+04  0.10100000352E+00 0. -1.
       -3    1    3    3    0  502  0.29649285655E+02 -0.45964483966E+03  0.75656133388E+02  0.46677223513E+03  0.10100000352E+00 0.  1.
</event>
<event>
 5   0  0.1814770E-03  0.1389774E+04  0.7818609E-02  0.8961254E-01
       -1   -1    0    0    0  501  0.00000000000E+00  0.00000000000E+00  0.34346692029E+03  0.34346692032E+03  0.50400001928E-02 0. -1.
        1   -1    0    0  501    0  0.00000000000E+00  0.00000000000E+00 -0.14058638232E+04  0.14058638232E+04  0.50400001928E-02 0.  1.
    10030    2    1    2    0    0  0.00000000000E+00  0.00000000000E+00 -0.10623969029E+04  0.17493307435E+04  0.13897736761E+04 0.  0.
        5    1    3    3  502    0 -0.63327946274E+03  0.28129318079E+03 -0.46607406925E+03  0.83511427931E+03  0.46999998093E+01 0.  1.
       -5    1    3    3    0  502  0.63327946274E+03 -0.28129318079E+03 -0.59632283362E+03  0.91421646418E+03  0.46999998093E+01 0. -1.
</event>
<event>
 5   0  0.1823154E-03  0.1323237E+04  0.7818609E-02  0.9011338E-01
        1   -1    0    0  501    0  0.00000000000E+00  0.00000000000E+00  0.14352833668E+04  0.14352833668E+04  0.50400001928E-02 0.  1.
       -1   -1    0    0    0  501  0.00000000000E+00  0.00000000000E+00 -0.30498439488E+03  0.30498439492E+03  0.50400001928E-02 0. -1.
    10030    2    1    2    0    0  0.00000000000E+00  0.00000000000E+00  0.11302989719E+04  0.17402677617E+04  0.13232369843E+04 0.  0.
        2    1    3    3  502    0 -0.22747322322E+02 -0.66096253606E+03  0.54054108320E+03  0.85415079312E+03  0.25500000920E-02 0.  1.
       -2    1    3    3    0  502  0.22747322322E+02  0.66096253606E+03  0.58975788874E+03  0.88611696863E+03  0.25500000920E-02 0. -1.
</event>
<event>
 5   0  0.1814770E-03  0.1212990E+04  0.7818609E-02  0.9101562E-01
        1   -1    0    0  501    0  0.00000000000E+00  0.00000000000E+00  0.78499533889E+03  0.78499533891E+03  0.50400001928E-02 0. -1.
       -1   -1    0    0    0  501  0.00000000000E+00  0.00000000000E+00 -0.46858395344E+03  0.46858395347E+03  0.50400001928E-02 0.  1.
    10030    2    1    2    0    0  0.00000000000E+00  0.00000000000E+00  0.31641138545E+03  0.12535792924E+04  0.12129900566E+04 0.  0.
        5    1    3    3  502    0  0.25452532019E+03  0.20639587747E+03 -0.36919599926E+03  0.49367010516E+03  0.46999998093E+01 0.  1.
       -5    1    3    3    0  502 -0.25452532019E+03 -0.20639587747E+03  0.68560738471E+03  0.75990918722E+03  0.46999998093E+01 0. -1.
</event>
<event>
 5   0  0.3299104E-03  0.1320296E+04  0.7818609E-02  0.9013623E-01
       -2   -1    0    0    0  501  0.00000000000E+00  0.00000000000E+00  0.58633403813E+03  0.58633403813E+03  0.25500000920E-02 0. -1.
        2   -1    0    0  501    0  0.00000000000E+00  0.00000000000E+00 -0.74325455630E+03  0.74325455631E+03  0.25500000920E-02 0.  1.
    10030    2    1    2    0    0  0.00000000000E+00  0.00000000000E+00 -0.15692051818E+03  0.13295885944E+04  0.13202960961E+04 0.  0.
        2    1    3    3  502    0 -0.10184313500E+03  0.38140626701E+03  0.45436923549E+03  0.60190876952E+03  0.25500000920E-02 0. -1.
       -2    1    3    3    0  502  0.10184313500E+03 -0.38140626701E+03 -0.61128975366E+03  0.72767982492E+03  0.25500000920E-02 0.  1.
</event>
<event>
 5   0  0.3299104E-03  0.1420565E+04  0.7818609E-02  0.8939066E-01
        2   -1    0    0  501    0  0.00000000000E+00  0.00000000000E+00  0.16353281584E+04  0.16353281584E+04  0.25500000920E-02 0. -1.
       -2   -1    0    0    0  501  0.00000000000E+00  0.00000000000E+00 -0.30850138045E+03  0.30850138046E+03  0.25500000920E-02 0.  1.
    10030    2    1    2    0    0  0.00000000000E+00  0.00000000000E+00  0.13268267780E+04  0.19438295389E+04  0.14205646685E+04 0.  0.
        2    1    3    3  502    0 -0.49880342935E+03 -0.50475174672E+03  0.62186853211E+03  0.94355691836E+03  0.25500000920E-02 0. -1.
       -2    1    3    3    0  502  0.49880342935E+03  0.50475174672E+03  0.70495824586E+03  0.10002726205E+04  0.25500000920E-02 0.  1.
</event>
<event>
 5   0  0.1823154E-03  0.1255884E+04  0.7818609E-02  0.9065300E-01
       -1   -1    0    0    0  501  0.00000000000E+00  0.00000000000E+00  0.36949274560E+03  0.36949274563E+03  0.50400001928E-02 0.  1.
        1   -1    0    0  501    0  0.00000000000E+00  0.00000000000E+00 -0.10671687233E+04  0.10671687233E+04  0.50400001928E-02 0. -1.
    10030    2    1    2    0    0  0.00000000000E+00  0.00000000000E+00 -0.69767597773E+03  0.14366614690E+04  0.12558839144E+04 0.  0.
        2    1    3    3  502    0  0.24575333702E+03 -0.10735186162E+02 -0.10097579423E+04  0.10392887226E+04  0.25500000920E-02 0. -1.
       -2    1    3    3    0  502 -0.24575333702E+03  0.10735186162E+02  0.31208196462E+03  0.39737274633E+03  0.25500000920E-02 0.  1.
</event>
<event>
 5   0  0.3259968E-03  0.1303367E+04  0.7818609E-02  0.9026899E-01
       -2   -1    0    0    0  501  0.00000000000E+00  0.00000000000E+00  0.54447793421E+03  0.54447793421E+03  0.25500000920E-02 0. -1.
        2   -1    0    0  501    0  0.00000000000E+00  0.00000000000E+00 -0.77999778796E+03  0.77999778796E+03  0.25500000920E-02 0.  1.
    10030    2    1    2    0    0  0.00000000000E+00  0.00000000000E+00 -0.23551985375E+03  0.13244757222E+04  0.13033673071E+04 0.  0.
        4    1    3    3  502    0  0.40528685811E+03 -0.31380472477E+03 -0.52671904415E+03  0.73495945944E+03  0.12699999809E+01 0.  1.
       -4    1    3    3    0  502 -0.40528685811E+03  0.31380472477E+03  0.29119919041E+03  0.58951626274E+03  0.12699999809E+01 0. -1.
</event>
<event>
 5   0  0.1814770E-03  0.1302121E+04  0.7818609E-02  0.9027885E-01
        1   -1    0    0  501    0  0.00000000000E+00  0.00000000000E+00  0.65595518560E+03  0.65595518562E+03  0.50400001928E-02 0. -1.
       -1   -1    0    0    0  501  0.00000000000E+00  0.00000000000E+00 -0.64620199775E+03  0.64620199777E+03  0.50400001928E-02 0.  1.
    10030    2    1    2    0    0  0.00000000000E+00  0.00000000000E+00  0.97531878528E+01  0.13021571834E+04  0.13021206571E+04 0.  0.
        5    1    3    3  502    0 -0.16919286883E+03  0.44782511770E+03  0.44611895472E+03  0.65438350733E+03  0.46999998093E+01 0. -1.
       -5    1    3    3    0  502  0.16919286883E+03 -0.44782511770E+03 -0.43636576687E+03  0.64777367606E+03  0.46999998093E+01 0.  1.
</event>
<event>
 5   0  0.1814770E-03  0.1284084E+04  0.7818609E-02  0.9042283E-01
        1   -1    0    0  501    0  0.00000000000E+00  0.00000000000E+00  0.61382676534E+03  0.61382676536E+03  0.50400001928E-02 0. -1.
       -1   -1    0    0    0  501  0.00000000000E+00  0.00000000000E+00 -0.67155429363E+03  0.67155429365E+03  0.50400001928E-02 0.  1.
    10030    2    1    2    0    0  0.00000000000E+00  0.00000000000E+00 -0.57727528289E+02  0.12853810590E+04  0.12840841091E+04 0.  0.
        5    1    3    3  502    0 -0.33503478021E+03 -0.42612692637E+03  0.31552361661E+03  0.62722380692E+03  0.46999998093E+01 0. -1.
       -5    1    3    3    0  502  0.33503478021E+03  0.42612692637E+03 -0.37325114489E+03  0.65815725210E+03  0.46999998093E+01 0.  1.
</event>
<event>
 5   0  0.1873488E-03  0.1300824E+04  0.7818609E-02  0.9028912E-01
        1   -1    0    0  501    0  0.00000000000E+00  0.00000000000E+00  0.64242389857E+03  0.64242389859E+03  0.50400001928E-02 0. -1.
       -1   -1    0    0    0  501  0.00000000000E+00  0.00000000000E+00 -0.65849982868E+03  0.65849982870E+03  0.50400001928E-02 0.  1.
    10030    2    1    2    0    0  0.00000000000E+00  0.00000000000E+00 -0.16075930113E+02  0.13009237273E+04  0.13008243958E+04 0.  0.
        3    1    3    3  502    0  0.21072513798E+03 -0.26901253211E+03  0.54541480197E+03  0.64362267099E+03  0.10100000352E+00 0. -1.
       -3    1    3    3    0  502 -0.21072513798E+03  0.26901253211E+03 -0.56149073208E+03  0.65730105631E+03  0.10100000352E+00 0.  1.
</event>
<event>
 5   0  0.3299104E-03  0.1319548E+04  0.7818609E-02  0.9014205E-01
        2   -1    0    0  501    0  0.00000000000E+00  0.00000000000E+00  0.19850160569E+04  0.19850160569E+04  0.25500000920E-02 0.  1.
       -2   -1    0    0    0  501  0.00000000000E+00  0.00000000000E+00 -0.21929391066E+03  0.21929391067E+03  0.25500000920E-02 0. -1.
    10030    2    1    2    0    0  0.00000000000E+00  0.00000000000E+00  0.17657221462E+04  0.22043099676E+04  0.13195483073E+04 0.  0.
        2    1    3    3  502    0 -0.12951371224E+03  0.53461009063E+03  0.27428362224E+03  0.61466515771E+03  0.25500000920E-02 0. -1.
       -2    1    3    3    0  502  0.12951371224E+03 -0.53461009063E+03  0.14914385240E+04  0.15896448099E+04  0.25500000920E-02 0.  1.
</event>
<event>
 5   0  0.1857986E-03  0.1286881E+04  0.7818609E-02  0.9040034E-01
       -1   -1    0    0    0  501  0.00000000000E+00  0.00000000000E+00  0.45352734353E+03  0.45352734356E+03  0.50400001928E-02 0. -1.
        1   -1    0    0  501    0  0.00000000000E+00  0.00000000000E+00 -0.91287918825E+03  0.91287918826E+03  0.50400001928E-02 0.  1.
    10030    2    1    2    0    0  0.00000000000E+00  0.00000000000E+00 -0.45935184472E+03  0.13664065318E+04  0.12868809941E+04 0.  0.
        1    1    3    3  502    0  0.57751735406E+03 -0.18059635475E+03 -0.46199930512E+03  0.76130460103E+03  0.50400001928E-02 0.  1.
       -1    1    3    3    0  502 -0.57751735406E+03  0.18059635475E+03  0.26474604072E+01  0.60510193080E+03  0.50400001928E-02 0. -1.
</event>
<event>
 5   0  0.3299104E-03  0.1317747E+04  0.7818609E-02  0.9015609E-01
        2   -1    0    0  501    0  0.00000000000E+00  0.00000000000E+00  0.13180857898E+04  0.13180857898E+04  0.25500000920E-02 0.  1.
       -2   -1    0    0    0  501  0.00000000000E+00  0.00000000000E+00 -0.32935195133E+03  0.32935195134E+03  0.25500000920E-02 0. -1.
    10030    2    1    2    0    0  0.00000000000E+00  0.00000000000E+00  0.98873383845E+03  0.16474377411E+04  0.13177467540E+04 0.  0.
        2    1    3    3  502    0 -0.56808549862E+03  0.31883244818E+03  0.37099077673E+03  0.74967287544E+03  0.25500000920E-02 0. -1.
       -2    1    3    3    0  502  0.56808549862E+03 -0.31883244818E+03  0.61774306171E+03  0.89776486568E+03  0.25500000920E-02 0.  1.
</event>
<event>
 5   0  0.3299104E-03  0.1232507E+04  0.7818609E-02  0.9084870E-01
        2   -1    0    0  501    0  0.00000000000E+00  0.00000000000E+00  0.70855247137E+03  0.70855247138E+03  0.25500000920E-02 0. -1.
       -2   -1    0    0    0  501  0.00000000000E+00  0.00000000000E+00 -0.53597751173E+03  0.53597751173E+03  0.25500000920E-02 0.  1.
    10030    2    1    2    0    0  0.00000000000E+00  0.00000000000E+00  0.17257495964E+03  0.12445299831E+04  0.12325066986E+04 0.  0.
        2    1    3    3  502    0  0.29405403385E+03  0.27583378631E+03  0.55689852925E+03  0.68752310825E+03  0.25500000920E-02 0. -1.
       -2    1    3    3    0  502 -0.29405403385E+03 -0.27583378631E+03 -0.38432356960E+03  0.55700687486E+03  0.25500000920E-02 0.  1.
</event>
<event>
 5   0  0.1873488E-03  0.1276068E+04  0.7818609E-02  0.9048761E-01
        1   -1    0    0  501    0  0.00000000000E+00  0.00000000000E+00  0.53559282839E+03  0.53559282842E+03  0.50400001928E-02 0.  1.
       -1   -1    0    0    0  501  0.00000000000E+00  0.00000000000E+00 -0.76006933145E+03  0.76006933147E+03  0.50400001928E-02 0. -1.
    10030    2    1    2    0    0  0.00000000000E+00  0.00000000000E+00 -0.22447650306E+03  0.12956621599E+04  0.12760684669E+04 0.  0.
        3    1    3    3  502    0 -0.30897997648E+03  0.10118588357E+03 -0.66964901032E+03  0.74440379911E+03  0.10100000352E+00 0. -1.
       -3    1    3    3    0  502  0.30897997648E+03 -0.10118588357E+03  0.44517250726E+03  0.55125836078E+03  0.10100000352E+00 0.  1.
</event>
<event>
 5   0  0.1857986E-03  0.1309726E+04  0.7818609E-02  0.9021888E-01
       -1   -1    0    0    0  501  0.00000000000E+00  0.00000000000E+00  0.91813162663E+03  0.91813162665E+03  0.50400001928E-02 0. -1.
        1   -1    0    0  501    0  0.00000000000E+00  0.00000000000E+00 -0.46708469384E+03  0.46708469386E+03  0.50400001928E-02 0.  1.
    10030    2    1    2    0    0  0.00000000000E+00  0.00000000000E+00  0.45104693280E+03  0.13852163205E+04  0.13097255129E+04 0.  0.
        1    1    3    3  502    0  0.54144425259E+03  0.61933188934E+01 -0.16400499675E+03  0.56577192829E+03  0.50400001928E-02 0.  1.
       -1    1    3    3    0  502 -0.54144425259E+03 -0.61933188934E+01  0.61505192955E+03  0.81944439221E+03  0.50400001928E-02 0. -1.
</event>
<event>
 5   0  0.1873488E-03  0.1329463E+04  0.7818609E-02  0.9006522E-01
       -1   -1    0    0    0  501  0.00000000000E+00  0.00000000000E+00  0.21136489554E+03  0.21136489560E+03  0.50400001928E-02 0. -1.
        1   -1    0    0  501    0  0.00000000000E+00  0.00000000000E+00 -0.20905452055E+04  0.20905452055E+04  0.50400001928E-02 0.  1.
    10030    2    1    2    0    0  0.00000000000E+00  0.00000000000E+00 -0.18791803100E+04  0.23019101011E+04  0.13294628525E+04 0.  0.
        3    1    3    3  502    0  0.61333382450E+03 -0.19143600576E+03 -0.64452126322E+03  0.91007350996E+03  0.10100000352E+00 0. -1.
       -3    1    3    3    0  502 -0.61333382450E+03  0.19143600576E+03 -0.12346590468E+04  0.13918365912E+04  0.10100000352E+00 0.  1.
</event>
<event>
 5   0  0.1814770E-03  0.1249047E+04  0.7818609E-02  0.9070977E-01
       -1   -1    0    0    0  501  0.00000000000E+00  0.00000000000E+00  0.47854233552E+03  0.47854233554E+03  0.50400001928E-02 0. -1.
        1   -1    0    0  501    0  0.00000000000E+00  0.00000000000E+00 -0.81503661861E+03  0.81503661862E+03  0.50400001928E-02 0.  1.
    10030    2    1    2    0    0  0.00000000000E+00  0.00000000000E+00 -0.33649428309E+03  0.12935789542E+04  0.12490468799E+04 0.  0.
        5    1    3    3  502    0  0.17627659122E+03  0.31572907426E+03 -0.69556547965E+03  0.78395899856E+03  0.46999998093E+01 0.  1.
       -5    1    3    3    0  502 -0.17627659122E+03 -0.31572907426E+03  0.35907119656E+03  0.50961995560E+03  0.46999998093E+01 0. -1.
</event>
<event>
 5   0  0.1803959E-03  0.1301222E+04  0.7818609E-02  0.9028596E-01
       -1   -1    0    0    0  501  0.00000000000E+00  0.00000000000E+00  0.42339359826E+03  0.42339359829E+03  0.50400001928E-02 0. -1.
        1   -1    0    0  501    0  0.00000000000E+00  0.00000000000E+00 -0.99976681836E+03  0.99976681837E+03  0.50400001928E-02 0.  1.
    10030    2    1    2    0    0  0.00000000000E+00  0.00000000000E+00 -0.57637322010E+03  0.14231604167E+04  0.13012223033E+04 0.  0.
        4    1    3    3  502    0 -0.23983341249E+02 -0.30724770761E+03  0.33849792665E+03  0.45777594272E+03  0.12699999809E+01 0. -1.
       -4    1    3    3    0  502  0.23983341249E+02  0.30724770761E+03 -0.91487114674E+03  0.96538447394E+03  0.12699999809E+01 0.  1.
</event>
<event>
 5   0  0.1803959E-03  0.1262357E+04  0.7818609E-02  0.9059961E-01
       -1   -1    0    0    0  501  0.00000000000E+00  0.00000000000E+00  0.13616371555E+04  0.13616371555E+04  0.50400001928E-02 0.  1.
        1   -1    0    0  501    0  0.00000000000E+00  0.00000000000E+00 -0.29257882482E+03  0.29257882486E+03  0.50400001928E-02 0. -1.
    10030    2    1    2    0    0  0.00000000000E+00  0.00000000000E+00  0.10690583307E+04  0.16542159804E+04  0.12623568415E+04 0.  0.
        4    1    3    3  502    0 -0.45337172990E+03 -0.95539373401E+02  0.10961943735E+04  0.11900913472E+04  0.12699999809E+01 0.  1.
       -4    1    3    3    0  502  0.45337172990E+03  0.95539373401E+02 -0.27136042845E+02  0.46412463312E+03  0.12699999809E+01 0. -1.
</event>
<event>
 5   0  0.3336609E-03  0.1304038E+04  0.7818609E-02  0.9026369E-01
        2   -1    0    0  501    0  0.00000000000E+00  0.00000000000E+00  0.14526225105E+04  0.14526225105E+04  0.25500000920E-02 0. -1.
       -2   -1    0    0    0  501  0.00000000000E+00  0.00000000000E+00 -0.29266275182E+03  0.29266275183E+03  0.25500000920E-02 0.  1.
    10030    2    1    2    0    0  0.00000000000E+00  0.00000000000E+00  0.11599597587E+04  0.17452852623E+04  0.13040375781E+04 0.  0.
        1    1    3    3  502    0 -0.43755728757E+03 -0.17690847135E+03 -0.22101640667E+02  0.47248435920E+03  0.50400001928E-02 0. -1.
       -1    1    3    3    0  502  0.43755728757E+03  0.17690847135E+03  0.11820613994E+04  0.12728009031E+04  0.50400001928E-02 0.  1.
</event>
<event>
 5   0  0.3262927E-03  0.1212832E+04  0.7818609E-02  0.9101698E-01
       -2   -1    0    0    0  501  0.00000000000E+00  0.00000000000E+00  0.46267037187E+03  0.46267037188E+03  0.25500000920E-02 0. -1.
        2   -1    0    0  501    0  0.00000000000E+00  0.00000000000E+00 -0.79482156288E+03  0.79482156289E+03  0.25500000920E-02 0.  1.
    10030    2    1    2    0    0  0.00000000000E+00  0.00000000000E+00 -0.33215119101E+03  0.12574919348E+04  0.12128320380E+04 0.  0.
        3    1    3    3  502    0 -0.52668385647E+03  0.25708445895E+03 -0.46103744210E+01  0.58609689425E+03  0.10100000352E+00 0. -1.
       -3    1    3    3    0  502  0.52668385647E+03 -0.25708445895E+03 -0.32754081659E+03  0.67139504051E+03  0.10100000352E+00 0.  1.
</event>
<event>
 5   0  0.1814770E-03  0.1288724E+04  0.7818609E-02  0.9038555E-01
        1   -1    0    0  501    0  0.00000000000E+00  0.00000000000E+00  0.64623126473E+03  0.64623126475E+03  0.50400001928E-02 0. -1.
       -1   -1    0    0    0  501  0.00000000000E+00  0.00000000000E+00 -0.64249812286E+03  0.64249812288E+03  0.50400001928E-02 0.  1.
    10030    2    1    2    0    0  0.00000000000E+00  0.00000000000E+00  0.37331418710E+01  0.12887293876E+04  0.12887239806E+04 0.  0.
        5    1    3    3  502    0  0.41792252511E+03  0.38011101398E+03  0.31176570047E+03  0.64526239773E+03  0.46999998093E+01 0.  1.
       -5    1    3    3    0  502 -0.41792252511E+03 -0.38011101398E+03 -0.30803255860E+03  0.64346698990E+03  0.46999998093E+01 0. -1.
</event>
<event>
 5   0  0.3299104E-03  0.1255544E+04  0.7818609E-02  0.9065582E-01
        2   -1    0    0  501    0  0.00000000000E+00  0.00000000000E+00  0.65336324330E+03  0.65336324330E+03  0.25500000920E-02 0.  1.
       -2   -1    0    0    0  501  0.00000000000E+00  0.00000000000E+00 -0.60318308250E+03  0.60318308250E+03  0.25500000920E-02 0. -1.
    10030    2    1    2    0    0  0.00000000000E+00  0.00000000000E+00  0.50180160800E+02  0.12565463258E+04  0.12555439540E+04 0.  0.
        2    1    3    3  502    0 -0.38513008450E+03  0.28759541720E+03  0.42922101865E+03  0.64441212654E+03  0.25500000920E-02 0.  1.
       -2    1    3    3    0  502  0.38513008450E+03 -0.28759541720E+03 -0.37904085785E+03  0.61213419926E+03  0.25500000920E-02 0. -1.
</event>
<event>
 5   0  0.3259968E-03  0.1328062E+04  0.7818609E-02  0.9007603E-01
        2   -1    0    0  501    0  0.00000000000E+00  0.00000000000E+00  0.77446942317E+03  0.77446942317E+03  0.25500000920E-02 0.  1.
       -2   -1    0    0    0  501  0.00000000000E+00  0.00000000000E+00 -0.56934097434E+03  0.56934097435E+03  0.25500000920E-02 0. -1.
    10030    2    1    2    0    0  0.00000000000E+00  0.00000000000E+00  0.20512844883E+03  0.13438103975E+04  0.13280620106E+04 0.  0.
        4    1    3    3  502    0  0.18018464881E+03  0.85642208314E+02 -0.53829794183E+03  0.57407959604E+03  0.12699999809E+01 0. -1.
       -4    1    3    3    0  502 -0.18018464881E+03 -0.85642208314E+02  0.74342639066E+03  0.76973080148E+03  0.12699999809E+01 0.  1.
</event>
<event>
 5   0  0.1803959E-03  0.1254325E+04  0.7818609E-02  0.9066591E-01
       -1   -1    0    0    0  501  0.00000000000E+00  0.00000000000E+00  0.62770283481E+03  0.62770283483E+03  0.50400001928E-02 0. -1.
        1   -1    0    0  501    0  0.00000000000E+00  0.00000000000E+00 -0.62662291181E+03  0.62662291183E+03  0.50400001928E-02 0.  1.
    10030    2    1    2    0    0  0.00000000000E+00  0.00000000000E+00  0.10799230041E+01  0.12543257467E+04  0.12543252818E+04 0.  0.
        4    1    3    3  502    0 -0.60616283546E+03  0.12508328204E+03  0.10179292339E+03  0.62725004798E+03  0.12699999809E+01 0. -1.
       -4    1    3    3    0  502  0.60616283546E+03 -0.12508328204E+03 -0.10071300038E+03  0.62707569869E+03  0.12699999809E+01 0.  1.
</event>
<event>
 5   0  0.3294720E-03  0.1332815E+04  0.7818609E-02  0.9003940E-01
        2   -1    0    0  501    0  0.00000000000E+00  0.00000000000E+00  0.11722099290E+04  0.11722099290E+04  0.25500000920E-02 0.  1.
       -2   -1    0    0    0  501  0.00000000000E+00  0.00000000000E+00 -0.37885591629E+03  0.37885591630E+03  0.25500000920E-02 0. -1.
    10030    2    1    2    0    0  0.00000000000E+00  0.00000000000E+00  0.79335401271E+03  0.15510658453E+04  0.13328145659E+04 0.  0.
        5    1    3    3  502    0 -0.52391543045E+03  0.35143212894E+03  0.64650361079E+03  0.90331662681E+03  0.46999998093E+01 0.  1.
       -5    1    3    3    0  502  0.52391543045E+03 -0.35143212894E+03  0.14685040192E+03  0.64774921849E+03  0.46999998093E+01 0. -1.
</event>
<event>
 5   0  0.3262927E-03  0.1302841E+04  0.7818609E-02  0.9027315E-01
        2   -1    0    0  501    0  0.00000000000E+00  0.00000000000E+00  0.11572399442E+04  0.11572399442E+04  0.25500000920E-02 0. -1.
       -2   -1    0    0    0  501  0.00000000000E+00  0.00000000000E+00 -0.36669035564E+03  0.36669035565E+03  0.25500000920E-02 0.  1.
    10030    2    1    2    0    0  0.00000000000E+00  0.00000000000E+00  0.79054958857E+03  0.15239302999E+04  0.13028410904E+04 0.  0.
        3    1    3    3  502    0  0.26365687547E+03  0.39340164535E+03 -0.12792006010E+03  0.49055413007E+03  0.10100000352E+00 0.  1.
       -3    1    3    3    0  502 -0.26365687547E+03 -0.39340164535E+03  0.91846964867E+03  0.10333761698E+04  0.10100000352E+00 0. -1.
</event>
<event>
 5   0  0.1803959E-03  0.1125123E+04  0.7818609E-02  0.9181046E-01
       -1   -1    0    0    0  501  0.00000000000E+00  0.00000000000E+00  0.44383075822E+03  0.44383075825E+03  0.50400001928E-02 0.  1.
        1   -1    0    0  501    0  0.00000000000E+00  0.00000000000E+00 -0.71305404783E+03  0.71305404784E+03  0.50400001928E-02 0. -1.
    10030    2    1    2    0    0  0.00000000000E+00  0.00000000000E+00 -0.26922328961E+03  0.11568848061E+04  0.11251227821E+04 0.  0.
        4    1    3    3  502    0 -0.13905801092E+03 -0.48207504525E+03 -0.39623547823E+03  0.63932593156E+03  0.12699999809E+01 0. -1.
       -4    1    3    3    0  502  0.13905801092E+03  0.48207504525E+03  0.12701218862E+03  0.51755887454E+03  0.12699999809E+01 0.  1.
</event>
<event>
 5   0  0.1254125E-03  0.1282569E+04  0.7818609E-02  0.9043503E-01
       -3   -1    0    0    0  501  0.00000000000E+00  0.00000000000E+00  0.64649033207E+03  0.64649033996E+03  0.10100000352E+00 0.  1.
        3   -1    0    0  501    0  0.00000000000E+00  0.00000000000E+00 -0.63612085375E+03  0.63612086177E+03  0.10100000352E+00 0. -1.
    10030    2    1    2    0    0  0.00000000000E+00  0.00000000000E+00  0.10369478311E+02  0.12826112017E+04  0.12825692842E+04 0.  0.
        5    1    3    3  502    0 -0.54589757720E+03 -0.29544059034E+03  0.16623221726E+03  0.64260761532E+03  0.46999998093E+01 0.  1.
       -5    1    3    3    0  502  0.54589757720E+03  0.29544059034E+03 -0.15586273895E+03  0.64000358640E+03  0.46999998093E+01 0. -1.
</event>
<event>
 5   0  0.1857986E-03  0.1265785E+04  0.7818609E-02  0.9057146E-01
        1   -1    0    0  501    0  0.00000000000E+00  0.00000000000E+00  0.49967237424E+03  0.49967237427E+03  0.50400001928E-02 0. -1.
       -1   -1    0    0    0  501  0.00000000000E+00  0.00000000000E+00 -0.80163171944E+03  0.80163171945E+03  0.50400001928E-02 0.  1.
    10030    2    1    2    0    0  0.00000000000E+00  0.00000000000E+00 -0.30195934520E+03  0.13013040937E+04  0.12657854866E+04 0.  0.
        1    1    3    3  502    0 -0.13707123533E+03  0.43577916474E+03 -0.60129039249E+03  0.75514378770E+03  0.50400001928E-02 0.  1.
       -1    1    3    3    0  502  0.13707123533E+03 -0.43577916474E+03  0.29933104729E+03  0.54616030602E+03  0.50400001928E-02 0. -1.
</event>
<event>
 5   0  0.3259968E-03  0.1323532E+04  0.7818609E-02  0.9011109E-01
       -2   -1    0    0    0  501  0.00000000000E+00  0.00000000000E+00  0.57548210714E+03  0.57548210714E+03  0.25500000920E-02 0.  1.
        2   -1    0    0  501    0  0.00000000000E+00  0.00000000000E+00 -0.76098683853E+03  0.76098683854E+03  0.25500000920E-02 0. -1.
    10030    2    1    2    0    0  0.00000000000E+00  0.00000000000E+00 -0.18550473140E+03  0.13364689457E+04  0.13235321067E+04 0.  0.
        4    1    3    3  502    0  0.32717821403E+03 -0.53280635986E+03  0.12617199453E+03  0.63784730614E+03  0.12699999809E+01 0.  1.
       -4    1    3    3    0  502 -0.32717821403E+03  0.53280635986E+03 -0.31167672592E+03  0.69862163954E+03  0.12699999809E+01 0. -1.
</event>
<event>
 5   0  0.3262927E-03  0.1321384E+04  0.7818609E-02  0.9012777E-01
        2   -1    0    0  501    0  0.00000000000E+00  0.00000000000E+00  0.90997247554E+03  0.90997247554E+03  0.25500000920E-02 0.  1.
       -2   -1    0    0    0  501  0.00000000000E+00  0.00000000000E+00 -0.47970034897E+03  0.47970034898E+03  0.25500000920E-02 0. -1.
    10030    2    1    2    0    0  0.00000000000E+00  0.00000000000E+00  0.43027212657E+03  0.13896728245E+04  0.13213842955E+04 0.  0.
        3    1    3    3  502    0 -0.28509484730E+03  0.15396530448E+03  0.82067859924E+03  0.88232520104E+03  0.10100000352E+00 0.  1.
       -3    1    3    3    0  502  0.28509484730E+03 -0.15396530448E+03 -0.39040647267E+03  0.50734762348E+03  0.10100000352E+00 0. -1.
</event>
<event>
 5   0  0.3299104E-03  0.1300120E+04  0.7818609E-02  0.9029470E-01
        2   -1    0    0  501    0  0.00000000000E+00  0.00000000000E+00  0.57048791398E+03  0.57048791399E+03  0.25500000920E-02 0.  1.
       -2   -1    0    0    0  501  0.00000000000E+00  0.00000000000E+00 -0.74073109522E+03  0.74073109522E+03  0.25500000920E-02 0. -1.
    10030    2    1    2    0    0  0.00000000000E+00  0.00000000000E+00 -0.17024318123E+03  0.13112190092E+04  0.13001202057E+04 0.  0.
        2    1    3    3  502    0 -0.55617898190E+03  0.16653144406E+03  0.20979627691E+03  0.61731860460E+03  0.25500000920E-02 0.  1.
       -2    1    3    3    0  502  0.55617898190E+03 -0.16653144406E+03 -0.38003945814E+03  0.69390040461E+03  0.25500000920E-02 0. -1.
</event>
<event>
 5   0  0.3299104E-03  0.1297839E+04  0.7818609E-02  0.9031281E-01
        2   -1    0    0  501    0  0.00000000000E+00  0.00000000000E+00  0.16588142758E+04  0.16588142758E+04  0.25500000920E-02 0.  1.
       -2   -1    0    0    0  501  0.00000000000E+00  0.00000000000E+00 -0.25385385177E+03  0.25385385178E+03  0.25500000920E-02 0. -1.
    10030    2    1    2    0    0  0.00000000000E+00  0.00000000000E+00  0.14049604240E+04  0.19126681276E+04  0.12978388086E+04 0.  0.
        2    1    3    3  502    0  0.30647992044E+03 -0.54583269478E+03  0.95445463318E+03  0.11414231990E+04  0.25500000920E-02 0.  1.
       -2    1    3    3    0  502 -0.30647992044E+03  0.54583269478E+03  0.45050579084E+03  0.77124492861E+03  0.25500000920E-02 0. -1.
</event>
<event>
 5   0  0.3259968E-03  0.1299760E+04  0.7818609E-02  0.9029756E-01
        2   -1    0    0  501    0  0.00000000000E+00  0.00000000000E+00  0.93435635987E+03  0.93435635987E+03  0.25500000920E-02 0.  1.
       -2   -1    0    0    0  501  0.00000000000E+00  0.00000000000E+00 -0.45201581387E+03  0.45201581388E+03  0.25500000920E-02 0. -1.
    10030    2    1    2    0    0  0.00000000000E+00  0.00000000000E+00  0.48234054600E+03  0.13863721737E+04  0.12997597477E+04 0.  0.
        4    1    3    3  502    0 -0.14323745281E+03 -0.54380754019E+03 -0.10626318235E+03  0.57230855793E+03  0.12699999809E+01 0. -1.
       -4    1    3    3    0  502  0.14323745281E+03  0.54380754019E+03  0.58860372835E+03  0.81406361581E+03  0.12699999809E+01 0.  1.
</event>
<event>
 5   0  0.3294720E-03  0.1307835E+04  0.7818609E-02  0.9023375E-01
        2   -1    0    0  501    0  0.00000000000E+00  0.00000000000E+00  0.58892748111E+03  0.58892748112E+03  0.25500000920E-02 0.  1.
       -2   -1    0    0    0  501  0.00000000000E+00  0.00000000000E+00 -0.72607949468E+03  0.72607949469E+03  0.25500000920E-02 0. -1.
    10030    2    1    2    0    0  0.00000000000E+00  0.00000000000E+00 -0.13715201357E+03  0.13150069758E+04  0.13078351087E+04 0.  0.
        5    1    3    3  502    0 -0.83017043268E+02  0.12380154152E+03  0.57160014117E+03  0.59073468032E+03  0.46999998093E+01 0.  1.
       -5    1    3    3    0  502  0.83017043268E+02 -0.12380154152E+03 -0.70875215474E+03  0.72427229548E+03  0.46999998093E+01 0. -1.
</event>
<event>
 5   0  0.3294720E-03  0.1317217E+04  0.7818609E-02  0.9016023E-01
        2   -1    0    0  501    0  0.00000000000E+00  0.00000000000E+00  0.97455556659E+03  0.97455556659E+03  0.25500000920E-02 0.  1.
       -2   -1    0    0    0  501  0.00000000000E+00  0.00000000000E+00 -0.44508994219E+03  0.44508994219E+03  0.25500000920E-02 0. -1.
    10030    2    1    2    0    0  0.00000000000E+00  0.00000000000E+00  0.52946562440E+03  0.14196455088E+04  0.13172165817E+04 0.  0.
        5    1    3    3  502    0  0.63102903531E+01  0.37860308354E+03  0.84548802799E+03  0.92641902512E+03  0.46999998093E+01 0.  1.
       -5    1    3    3    0  502 -0.63102903531E+01 -0.37860308354E+03 -0.31602240358E+03  0.49322648367E+03  0.46999998093E+01 0. -1.
</event>
<event>
 5   0  0.3262927E-03  0.1436292E+04  0.7818609E-02  0.8927960E-01
       -2   -1    0    0    0  501  0.00000000000E+00  0.00000000000E+00  0.10100998566E+04  0.10100998566E+04  0.25500000920E-02 0.  1.
        2   -1    0    0  501    0  0.00000000000E+00  0.00000000000E+00 -0.51057660246E+03  0.51057660247E+03  0.25500000920E-02 0. -1.
    10030    2    1    2    0    0  0.00000000000E+00  0.00000000000E+00  0.49952325414E+03  0.15206764591E+04  0.14362915483E+04 0.  0.
        3    1    3    3  502    0  0.44083823773E+03  0.55976214199E+03  0.34482160527E+03  0.79156424699E+03  0.10100000352E+00 0.  1.
       -3    1    3    3    0  502 -0.44083823773E+03 -0.55976214199E+03  0.15470164887E+03  0.72911221209E+03  0.10100000352E+00 0. -1.
</event>
<event>
 5   0  0.1803959E-03  0.1365027E+04  0.7818609E-02  0.8979530E-01
        1   -1    0    0  501    0  0.00000000000E+00  0.00000000000E+00  0.10728554554E+04  0.10728554554E+04  0.50400001928E-02 0. -1.
       -1   -1    0    0    0  501  0.00000000000E+00  0.00000000000E+00 -0.43419166110E+03  0.43419166113E+03  0.50400001928E-02 0.  1.
    10030    2    1    2    0    0  0.00000000000E+00  0.00000000000E+00  0.63866379430E+03  0.15070471165E+04  0.13650273145E+04 0.  0.
        4    1    3    3  502    0 -0.58428294792E+03 -0.33245442643E+03  0.44954691725E+03  0.80870671605E+03  0.12699999809E+01 0. -1.
       -4    1    3    3    0  502  0.58428294792E+03  0.33245442643E+03  0.18911687705E+03  0.69834040049E+03  0.12699999809E+01 0.  1.
</event>
<event>
 5   0  0.1857986E-03  0.1387788E+04  0.7818609E-02  0.8962706E-01
        1   -1    0    0  501    0  0.00000000000E+00  0.00000000000E+00  0.50128491395E+03  0.50128491397E+03  0.50400001928E-02 0. -1.
       -1   -1    0    0    0  501  0.00000000000E+00  0.00000000000E+00 -0.96050978238E+03  0.96050978240E+03  0.50400001928E-02 0.  1.
    10030    2    1    2    0    0  0.00000000000E+00  0.00000000000E+00 -0.45922486844E+03  0.14617946964E+04  0.13877882600E+04 0.  0.
        1    1    3    3  502    0 -0.11519207646E+03  0.34123500687E+03  0.39512543330E+03  0.53463506475E+03  0.50400001928E-02 0. -1.
       -1    1    3    3    0  502  0.11519207646E+03 -0.34123500687E+03 -0.85435030174E+03  0.92715963162E+03  0.50400001928E-02 0.  1.
</event>
<event>
 5   0  0.3299104E-03  0.1262049E+04  0.7818609E-02  0.9060214E-01
        2   -1    0    0  501    0  0.00000000000E+00  0.00000000000E+00  0.18136448909E+04  0.18136448910E+04  0.25500000920E-02 0. -1.
       -2   -1    0    0    0  501  0.00000000000E+00  0.00000000000E+00 -0.21955341332E+03  0.21955341334E+03  0.25500000920E-02 0.  1.
    10030    2    1    2    0    0  0.00000000000E+00  0.00000000000E+00  0.15940914776E+04  0.20331983043E+04  0.12620490107E+04 0.  0.
        2    1    3    3  502    0 -0.33124246525E+03 -0.12087683989E+03  0.16401225461E+04  0.16775979099E+04  0.25500000920E-02 0. -1.
       -2    1    3    3    0  502  0.33124246525E+03  0.12087683989E+03 -0.46031068453E+02  0.35560039437E+03  0.25500000920E-02 0.  1.
</event>
<event>
 5   0  0.3259968E-03  0.1348415E+04  0.7818609E-02  0.8992029E-01
        2   -1    0    0  501    0  0.00000000000E+00  0.00000000000E+00  0.84977404791E+03  0.84977404792E+03  0.25500000920E-02 0. -1.
       -2   -1    0    0    0  501  0.00000000000E+00  0.00000000000E+00 -0.53491333950E+03  0.53491333951E+03  0.25500000920E-02 0.  1.
    10030    2    1    2    0    0  0.00000000000E+00  0.00000000000E+00  0.31486070841E+03  0.13846873874E+04  0.13484145858E+04 0.  0.
        4    1    3    3  502    0  0.56649479072E+03 -0.13170622721E+03  0.50761839863E+03  0.77197210424E+03  0.12699999809E+01 0. -1.
       -4    1    3    3    0  502 -0.56649479072E+03  0.13170622721E+03 -0.19275769022E+03  0.61271528318E+03  0.12699999809E+01 0.  1.
</event>
<event>
 5   0  0.1814770E-03  0.1297075E+04  0.7818609E-02  0.9031888E-01
        1   -1    0    0  501    0  0.00000000000E+00  0.00000000000E+00  0.44894337113E+03  0.44894337116E+03  0.50400001928E-02 0.  1.
       -1   -1    0    0    0  501  0.00000000000E+00  0.00000000000E+00 -0.93686840122E+03  0.93686840123E+03  0.50400001928E-02 0. -1.
    10030    2    1    2    0    0  0.00000000000E+00  0.00000000000E+00 -0.48792503009E+03  0.13858117724E+04  0.12970749529E+04 0.  0.
        5    1    3    3  502    0 -0.28810982101E+02  0.64033355712E+03 -0.13861877173E+03  0.65581582090E+03  0.46999998093E+01 0. -1.
       -5    1    3    3    0  502  0.28810982101E+02 -0.64033355712E+03 -0.34930625836E+03  0.72999595149E+03  0.46999998093E+01 0.  1.
</event>
<event>
 5   0  0.1254125E-03  0.1005970E+04  0.7818609E-02  0.9302021E-01
       -3   -1    0    0    0  501  0.00000000000E+00  0.00000000000E+00  0.73354394678E+03  0.73354395374E+03  0.10100000352E+00 0.  1.
        3   -1    0    0  501    0  0.00000000000E+00  0.00000000000E+00 -0.34489244957E+03  0.34489246436E+03  0.10100000352E+00 0. -1.
    10030    2    1    2    0    0  0.00000000000E+00  0.00000000000E+00  0.38865149721E+03  0.10784364181E+04  0.10059697419E+04 0.  0.
        1    1    3    3  502    0 -0.10886706232E+03 -0.19738694293E+03  0.67636107992E+03  0.71293614928E+03  0.50400001928E-02 0.  1.
       -1    1    3    3    0  502  0.10886706232E+03  0.19738694293E+03 -0.28770958271E+03  0.36550026882E+03  0.50400001928E-02 0. -1.
</event>
<event>
 5   0  0.3336609E-03  0.1095854E+04  0.7818609E-02  0.9209243E-01
        2   -1    0    0  501    0  0.00000000000E+00  0.00000000000E+00  0.63764367606E+03  0.63764367607E+03  0.25500000920E-02 0. -1.
       -2   -1    0    0    0  501  0.00000000000E+00  0.00000000000E+00 -0.47083318246E+03  0.47083318246E+03  0.25500000920E-02 0.  1.
    10030    2    1    2    0    0  0.00000000000E+00  0.00000000000E+00  0.16681049360E+03  0.11084768585E+04  0.10958536422E+04 0.  0.
        1    1    3    3  502    0 -0.31217094916E+03  0.35609602849E+03 -0.19539392221E+03  0.51228299588E+03  0.50400001928E-02 0.  1.
       -1    1    3    3    0  502  0.31217094916E+03 -0.35609602849E+03  0.36220441581E+03  0.59619386265E+03  0.50400001928E-02 0. -1.
</event>
<event>
 5   0  0.1814770E-03  0.1277896E+04  0.7818609E-02  0.9047280E-01
       -1   -1    0    0    0  501  0.00000000000E+00  0.00000000000E+00  0.11727161457E+04  0.11727161457E+04  0.50400001928E-02 0. -1.
        1   -1    0    0  501    0  0.00000000000E+00  0.00000000000E+00 -0.34812729589E+03  0.34812729593E+03  0.50400001928E-02 0.  1.
    10030    2    1    2    0    0  0.00000000000E+00  0.00000000000E+00  0.82458884980E+03  0.15208434416E+04  0.12778959280E+04 0.  0.
        5    1    3    3  502    0 -0.24913206761E+03  0.32706788674E+03  0.99434744739E+03  0.10760060993E+04  0.46999998093E+01 0. -1.
       -5    1    3    3    0  502  0.24913206761E+03 -0.32706788674E+03 -0.16975859760E+03  0.44483734230E+03  0.46999998093E+01 0.  1.
</event>
<event>
 5   0  0.1803959E-03  0.1307325E+04  0.7818609E-02  0.9023776E-01
       -1   -1    0    0    0  501  0.00000000000E+00  0.00000000000E+00  0.24175455746E+03  0.24175455751E+03  0.50400001928E-02 0.  1.
        1   -1    0    0  501    0  0.00000000000E+00  0.00000000000E+00 -0.17673902804E+04  0.17673902804E+04  0.50400001928E-02 0. -1.
    10030    2    1    2    0    0  0.00000000000E+00  0.00000000000E+00 -0.15256357229E+04  0.20091448379E+04  0.13073249866E+04 0.  0.
        4    1    3    3  502    0  0.46037894539E+02 -0.63257451584E+03 -0.51980790882E+03  0.82004382859E+03  0.12699999809E+01 0.  1.
       -4    1    3    3    0  502 -0.46037894539E+02  0.63257451584E+03 -0.10058278141E+04  0.11891010093E+04  0.12699999809E+01 0. -1.
</event>
<event>
 5   0  0.1803959E-03  0.1316959E+04  0.7818609E-02  0.9016223E-01
        1   -1    0    0  501    0  0.00000000000E+00  0.00000000000E+00  0.15099240322E+04  0.15099240322E+04  0.50400001928E-02 0.  1.
       -1   -1    0    0    0  501  0.00000000000E+00  0.00000000000E+00 -0.28716368475E+03  0.28716368480E+03  0.50400001928E-02 0. -1.
    10030    2    1    2    0    0  0.00000000000E+00  0.00000000000E+00  0.12227603475E+04  0.17970877170E+04  0.13169591472E+04 0.  0.
        4    1    3    3  502    0 -0.42652076612E+03  0.40957034706E+03  0.21606363552E+03  0.62956567618E+03  0.12699999809E+01 0. -1.
       -4    1    3    3    0  502  0.42652076612E+03 -0.40957034706E+03  0.10066967119E+04  0.11675220408E+04  0.12699999809E+01 0.  1.
</event>
<event>
 5   0  0.1857986E-03  0.1287278E+04  0.7818609E-02  0.9039715E-01
       -1   -1    0    0    0  501  0.00000000000E+00  0.00000000000E+00  0.47346025982E+03  0.47346025985E+03  0.50400001928E-02 0. -1.
        1   -1    0    0  501    0  0.00000000000E+00  0.00000000000E+00 -0.87498565318E+03  0.87498565319E+03  0.50400001928E-02 0.  1.
    10030    2    1    2    0    0  0.00000000000E+00  0.00000000000E+00 -0.40152539336E+03  0.13484459130E+04  0.12872776464E+04 0.  0.
        1    1    3    3  502    0  0.27152749091E+03 -0.55144285525E+03 -0.40076595809E+03  0.73377772800E+03  0.50400001928E-02 0.  1.
       -1    1    3    3    0  502 -0.27152749091E+03  0.55144285525E+03 -0.75943527033E+00  0.61466818504E+03  0.50400001928E-02 0. -1.
</event>
<event>
 5   0  0.1857986E-03  0.1300520E+04  0.7818609E-02  0.9029153E-01
        1   -1    0    0  501    0  0.00000000000E+00  0.00000000000E+00  0.52007346842E+03  0.52007346845E+03  0.50400001928E-02 0. -1.
       -1   -1    0    0    0  501  0.00000000000E+00  0.00000000000E+00 -0.81303470306E+03  0.81303470308E+03  0.50400001928E-02 0.  1.
    10030    2    1    2    0    0  0.00000000000E+00  0.00000000000E+00 -0.29296123464E+03  0.13331081715E+04  0.13005195546E+04 0.  0.
        1    1    3    3  502    0  0.47690014657E+03  0.12028473760E+03 -0.58250475155E+03  0.76237389351E+03  0.50400001928E-02 0.  1.
       -1    1    3    3    0  502 -0.47690014657E+03 -0.12028473760E+03  0.28954351691E+03  0.57073427802E+03  0.50400001928E-02 0. -1.
</event>
<event>
 5   0  0.1254125E-03  0.1297132E+04  0.7818609E-02  0.9031843E-01
        4   -1    0    0  501    0  0.00000000000E+00  0.00000000000E+00  0.34713829965E+03  0.34714062278E+03  0.12699999809E+01 0. -1.
       -4   -1    0    0    0  501  0.00000000000E+00  0.00000000000E+00 -0.12117233305E+04  0.12117239960E+04  0.12699999809E+01 0.  1.
    10030    2    1    2    0    0  0.00000000000E+00  0.00000000000E+00 -0.86458503084E+03  0.15588646188E+04  0.12971320766E+04 0.  0.
        5    1    3    3  502    0  0.32623493841E+03  0.24394968795E+03 -0.10387738927E+04  0.11158019428E+04  0.46999998093E+01 0.  1.
       -5    1    3    3    0  502 -0.32623493841E+03 -0.24394968795E+03  0.17418886190E+03  0.44306267603E+03  0.46999998093E+01 0. -1.
</event>
<event>
 5   0  0.1814770E-03  0.1238958E+04  0.7818609E-02  0.9079424E-01
        1   -1    0    0  501    0  0.00000000000E+00  0.00000000000E+00  0.94762408144E+03  0.94762408146E+03  0.50400001928E-02 0. -1.
       -1   -1    0    0    0  501  0.00000000000E+00  0.00000000000E+00 -0.40496474478E+03  0.40496474481E+03  0.50400001928E-02 0.  1.
    10030    2    1    2    0    0  0.00000000000E+00  0.00000000000E+00  0.54265933667E+03  0.13525888263E+04  0.12389581822E+04 0.  0.
        5    1    3    3  502    0 -0.34277866268E+03 -0.31064917314E+03 -0.17844105522E+03  0.49584616622E+03  0.46999998093E+01 0.  1.
       -5    1    3    3    0  502  0.34277866268E+03  0.31064917314E+03  0.72110039189E+03  0.85674266005E+03  0.46999998093E+01 0. -1.
</event>
<event>
 5   0  0.3262927E-03  0.1346316E+04  0.7818609E-02  0.8993622E-01
        2   -1    0    0  501    0  0.00000000000E+00  0.00000000000E+00  0.12626414627E+04  0.12626414627E+04  0.25500000920E-02 0.  1.
       -2   -1    0    0    0  501  0.00000000000E+00  0.00000000000E+00 -0.35888392045E+03  0.35888392046E+03  0.25500000920E-02 0. -1.
    10030    2    1    2    0    0  0.00000000000E+00  0.00000000000E+00  0.90375754223E+03  0.16215253831E+04  0.13463160376E+04 0.  0.
        3    1    3    3  502    0  0.23198803141E+03  0.62364051484E+03  0.57468066221E+03  0.87920635359E+03  0.10100000352E+00 0. -1.
       -3    1    3    3    0  502 -0.23198803141E+03 -0.62364051484E+03  0.32907688002E+03  0.74231902955E+03  0.10100000352E+00 0.  1.
</event>
<event>
 5   0  0.1873488E-03  0.1282286E+04  0.7818609E-02  0.9043732E-01
       -1   -1    0    0    0  501  0.00000000000E+00  0.00000000000E+00  0.43692150968E+03  0.43692150971E+03  0.50400001928E-02 0.  1.
        1   -1    0    0  501    0  0.00000000000E+00  0.00000000000E+00 -0.94081901317E+03  0.94081901319E+03  0.50400001928E-02 0. -1.
    10030    2    1    2    0    0  0.00000000000E+00  0.00000000000E+00 -0.50389750349E+03  0.13777405229E+04  0.12822855588E+04 0.  0.
        3    1    3    3  502    0 -0.53962529174E+03 -0.29583055500E+03 -0.58690005020E+02  0.61818743084E+03  0.10100000352E+00 0.  1.
       -3    1    3    3    0  502  0.53962529174E+03  0.29583055500E+03 -0.44520749847E+03  0.75955309206E+03  0.10100000352E+00 0. -1.
</event>
<event>
 5   0  0.1823154E-03  0.1310776E+04  0.7818609E-02  0.9021063E-01
        1   -1    0    0  501    0  0.00000000000E+00  0.00000000000E+00  0.48482621130E+03  0.48482621132E+03  0.50400001928E-02 0.  1.
       -1   -1    0    0    0  501  0.00000000000E+00  0.00000000000E+00 -0.88595381988E+03  0.88595381990E+03  0.50400001928E-02 0. -1.
    10030    2    1    2    0    0  0.00000000000E+00  0.00000000000E+00 -0.40112760859E+03  0.13707800312E+04  0.13107763103E+04 0.  0.
        2    1    3    3  502    0  0.35807874616E+03 -0.44422270975E+03 -0.53778347565E+03  0.78406968504E+03  0.25500000920E-02 0.  1.
       -2    1    3    3    0  502 -0.35807874616E+03  0.44422270975E+03  0.13665586706E+03  0.58671034618E+03  0.25500000920E-02 0. -1.
</event>
<event>
 5   0  0.3294720E-03  0.1299424E+04  0.7818609E-02  0.9030022E-01
       -2   -1    0    0    0  501  0.00000000000E+00  0.00000000000E+00  0.27357865783E+03  0.27357865784E+03  0.25500000920E-02 0. -1.
        2   -1    0    0  501    0  0.00000000000E+00  0.00000000000E+00 -0.15429779118E+04  0.15429779118E+04  0.25500000920E-02 0.  1.
    10030    2    1    2    0    0  0.00000000000E+00  0.00000000000E+00 -0.12693992540E+04  0.18165565696E+04  0.12994242205E+04 0.  0.
        5    1    3    3  502    0 -0.95233499411E+02  0.30420665258E+03  0.15672032060E+03  0.35523858992E+03  0.46999998093E+01 0. -1.
       -5    1    3    3    0  502  0.95233499411E+02 -0.30420665258E+03 -0.14261195746E+04  0.14613179797E+04  0.46999998093E+01 0.  1.
</event>
<event>
 5   0  0.3262927E-03  0.1321980E+04  0.7818609E-02  0.9012314E-01
        2   -1    0    0  501    0  0.00000000000E+00  0.00000000000E+00  0.15443405338E+04  0.15443405338E+04  0.25500000920E-02 0.  1.
       -2   -1    0    0    0  501  0.00000000000E+00  0.00000000000E+00 -0.28290878651E+03  0.28290878652E+03  0.25500000920E-02 0. -1.
    10030    2    1    2    0    0  0.00000000000E+00  0.00000000000E+00  0.12614317473E+04  0.18272493204E+04  0.13219795859E+04 0.  0.
        3    1    3    3  502    0 -0.60552942327E+02 -0.15916141441E+03 -0.25206807513E+03  0.30419950586E+03  0.10100000352E+00 0. -1.
       -3    1    3    3    0  502  0.60552942327E+02  0.15916141441E+03  0.15134998225E+04  0.15230498145E+04  0.10100000352E+00 0.  1.
</event>
<event>
 5   0  0.1857986E-03  0.1283349E+04  0.7818609E-02  0.9042875E-01
        1   -1    0    0  501    0  0.00000000000E+00  0.00000000000E+00  0.11060474538E+04  0.11060474538E+04  0.50400001928E-02 0.  1.
       -1   -1    0    0    0  501  0.00000000000E+00  0.00000000000E+00 -0.37226810398E+03  0.37226810402E+03  0.50400001928E-02 0. -1.
    10030    2    1    2    0    0  0.00000000000E+00  0.00000000000E+00  0.73377934979E+03  0.14783155578E+04  0.12833490384E+04 0.  0.
        1    1    3    3  502    0 -0.50611039240E+03 -0.20574753661E+03  0.75456925514E+03  0.93158710755E+03  0.50400001928E-02 0.  1.
       -1    1    3    3    0  502  0.50611039240E+03  0.20574753661E+03 -0.20789905352E+02  0.54672845025E+03  0.50400001928E-02 0. -1.
</event>
<event>
 5   0  0.3259968E-03  0.1313168E+04  0.7818609E-02  0.9019187E-01
       -2   -1    0    0    0  501  0.00000000000E+00  0.00000000000E+00  0.31986649245E+03  0.31986649246E+03  0.25500000920E-02 0. -1.
        2   -1    0    0  501    0  0.00000000000E+00  0.00000000000E+00 -0.13477580076E+04  0.13477580076E+04  0.25500000920E-02 0.  1.
    10030    2    1    2    0    0  0.00000000000E+00  0.00000000000E+00 -0.10278915151E+04  0.16676245001E+04  0.13131681181E+04 0.  0.
        4    1    3    3  502    0 -0.12971047652E+03  0.52291276274E+02  0.30073025341E+03  0.33166170040E+03  0.12699999809E+01 0. -1.
       -4    1    3    3    0  502  0.12971047652E+03 -0.52291276274E+02 -0.13286217686E+04  0.13359627997E+04  0.12699999809E+01 0.  1.
</event>
<event>
 5   0  0.3336609E-03  0.1293632E+04  0.7818609E-02  0.9034630E-01
       -2   -1    0    0    0  501  0.00000000000E+00  0.00000000000E+00  0.41784423177E+03  0.41784423178E+03  0.25500000920E-02 0.  1.
        2   -1    0    0  501    0  0.00000000000E+00  0.00000000000E+00 -0.10012602394E+04  0.10012602394E+04  0.25500000920E-02 0. -1.
    10030    2    1    2    0    0  0.00000000000E+00  0.00000000000E+00 -0.58341600761E+03  0.14191044712E+04  0.12936318109E+04 0.  0.
        1    1    3    3  502    0 -0.39353540109E+03  0.42479359927E+03 -0.60784577025E+03  0.83952140790E+03  0.50400001928E-02 0.  1.
       -1    1    3    3    0  502  0.39353540109E+03 -0.42479359927E+03  0.24429762635E+02  0.57958306326E+03  0.50400001928E-02 0. -1.
</event>
<event>
 5   0  0.3262927E-03  0.1182702E+04  0.7818609E-02  0.9128133E-01
        2   -1    0    0  501    0  0.00000000000E+00  0.00000000000E+00  0.67058858379E+03  0.67058858380E+03  0.25500000920E-02 0.  1.
       -2   -1    0    0    0  501  0.00000000000E+00  0.00000000000E+00 -0.52147638808E+03  0.52147638809E+03  0.25500000920E-02 0. -1.
    10030    2    1    2    0    0  0.00000000000E+00  0.00000000000E+00  0.14911219571E+03  0.11920649719E+04  0.11827021816E+04 0.  0.
        3    1    3    3  502    0 -0.19531174021E+03  0.30971617618E+02 -0.48716196929E+03  0.52576868629E+03  0.10100000352E+00 0. -1.
       -3    1    3    3    0  502  0.19531174021E+03 -0.30971617618E+02  0.63627416499E+03  0.66629628560E+03  0.10100000352E+00 0.  1.
</event>
<event>
 5   0  0.1814770E-03  0.1380882E+04  0.7818609E-02  0.8967775E-01
       -1   -1    0    0    0  501  0.00000000000E+00  0.00000000000E+00  0.55694822372E+03  0.55694822374E+03  0.50400001928E-02 0. -1.
        1   -1    0    0  501    0  0.00000000000E+00  0.00000000000E+00 -0.85592959454E+03  0.85592959455E+03  0.50400001928E-02 0.  1.
    10030    2    1    2    0    0  0.00000000000E+00  0.00000000000E+00 -0.29898137082E+03  0.14128778183E+04  0.13808815551E+04 0.  0.
        5    1    3    3  502    0 -0.15496698297E+02 -0.36560665574E+03  0.44954769752E+03  0.57967542360E+03  0.46999998093E+01 0. -1.
       -5    1    3    3    0  502  0.15496698297E+02  0.36560665574E+03 -0.74852906834E+03  0.83320239470E+03  0.46999998093E+01 0.  1.
</event>
<event>
 5   0  0.1823154E-03  0.1197928E+04  0.7818609E-02  0.9114672E-01
        1   -1    0    0  501    0  0.00000000000E+00  0.00000000000E+00  0.10216045448E+04  0.10216045448E+04  0.50400001928E-02 0. -1.
       -1   -1    0    0    0  501  0.00000000000E+00  0.00000000000E+00 -0.35117102084E+03  0.35117102087E+03  0.50400001928E-02 0.  1.
    10030    2    1    2    0    0  0.00000000000E+00  0.00000000000E+00  0.67043352392E+03  0.13727755656E+04  0.11979280628E+04 0.  0.
        2    1    3    3  502    0  0.26147070501E+03  0.18559990480E+03 -0.24453354440E+03  0.40325042912E+03  0.25500000920E-02 0.  1.
       -2    1    3    3    0  502 -0.26147070501E+03 -0.18559990480E+03  0.91496706832E+03  0.96952513652E+03  0.25500000920E-02 0. -1.
</event>
<event>
 5   0  0.1857986E-03  0.1237475E+04  0.7818609E-02  0.9080673E-01
       -1   -1    0    0    0  501  0.00000000000E+00  0.00000000000E+00  0.44640515501E+03  0.44640515504E+03  0.50400001928E-02 0. -1.
        1   -1    0    0  501    0  0.00000000000E+00  0.00000000000E+00 -0.85759723760E+03  0.85759723762E+03  0.50400001928E-02 0.  1.
    10030    2    1    2    0    0  0.00000000000E+00  0.00000000000E+00 -0.41119208259E+03  0.13040023927E+04  0.12374745700E+04 0.  0.
        1    1    3    3  502    0  0.28461836432E+03 -0.50121212199E+03  0.31475874665E+02  0.57724512579E+03  0.50400001928E-02 0.  1.
       -1    1    3    3    0  502 -0.28461836432E+03  0.50121212199E+03 -0.44266795725E+03  0.72675726687E+03  0.50400001928E-02 0. -1.
</event>
<event>
 5   0  0.3299104E-03  0.1366501E+04  0.7818609E-02  0.8978430E-01
       -2   -1    0    0    0  501  0.00000000000E+00  0.00000000000E+00  0.10008925761E+04  0.10008925761E+04  0.25500000920E-02 0.  1.
        2   -1    0    0  501    0  0.00000000000E+00  0.00000000000E+00 -0.46641490614E+03  0.46641490615E+03  0.25500000920E-02 0. -1.
    10030    2    1    2    0    0  0.00000000000E+00  0.00000000000E+00  0.53447767000E+03  0.14673074823E+04  0.13665009579E+04 0.  0.
        2    1    3    3  502    0  0.34849023325E+03  0.57060473703E+03  0.11616125974E+03  0.67862261005E+03  0.25500000920E-02 0.  1.
       -2    1    3    3    0  502 -0.34849023325E+03 -0.57060473703E+03  0.41831641026E+03  0.78868487224E+03  0.25500000920E-02 0. -1.
</event>
<event>
 5   0  0.3259968E-03  0.1270031E+04  0.7818609E-02  0.9053674E-01
        2   -1    0    0  501    0  0.00000000000E+00  0.00000000000E+00  0.79298942140E+03  0.79298942140E+03  0.25500000920E-02 0. -1.
       -2   -1    0    0    0  501  0.00000000000E+00  0.00000000000E+00 -0.50851236346E+03  0.50851236346E+03  0.25500000920E-02 0.  1.
    10030    2    1    2    0    0  0.00000000000E+00  0.00000000000E+00  0.28447705794E+03  0.13015017849E+04  0.12700313774E+04 0.  0.
        4    1    3    3  502    0 -0.64119443399E+02  0.51368393025E+03 -0.23465296786E+03  0.56837145552E+03  0.12699999809E+01 0.  1.
       -4    1    3    3    0  502  0.64119443399E+02 -0.51368393025E+03  0.51913002580E+03  0.73313032935E+03  0.12699999809E+01 0. -1.
</event>
<event>
 5   0  0.1823154E-03  0.1334756E+04  0.7818609E-02  0.9002449E-01
       -1   -1    0    0    0  501  0.00000000000E+00  0.00000000000E+00  0.12289749634E+04  0.12289749634E+04  0.50400001928E-02 0.  1.
        1   -1    0    0  501    0  0.00000000000E+00  0.00000000000E+00 -0.36241042603E+03  0.36241042606E+03  0.50400001928E-02 0. -1.
    10030    2    1    2    0    0  0.00000000000E+00  0.00000000000E+00  0.86656453739E+03  0.15913853895E+04  0.13347559179E+04 0.  0.
        2    1    3    3  502    0  0.19939456199E+03 -0.63595595343E+03  0.39206406260E+03  0.77324795198E+03  0.25500000920E-02 0. -1.
       -2    1    3    3    0  502 -0.19939456199E+03  0.63595595343E+03  0.47450047479E+03  0.81813743750E+03  0.25500000920E-02 0.  1.
</event>
<event>
 5   0  0.1814770E-03  0.1299607E+04  0.7818609E-02  0.9029877E-01
       -1   -1    0    0    0  501  0.00000000000E+00  0.00000000000E+00  0.39188521157E+03  0.39188521160E+03  0.50400001928E-02 0.  1.
        1   -1    0    0  501    0  0.00000000000E+00  0.00000000000E+00 -0.10774697472E+04  0.10774697472E+04  0.50400001928E-02 0. -1.
    10030    2    1    2    0    0  0.00000000000E+00  0.00000000000E+00 -0.68558453564E+03  0.14693549588E+04  0.12996068019E+04 0.  0.
        5    1    3    3  502    0  0.39911598666E+03 -0.20914066351E+03  0.18653480520E+03  0.48769940690E+03  0.46999998093E+01 0.  1.
       -5    1    3    3    0  502 -0.39911598666E+03  0.20914066351E+03 -0.87211934084E+03  0.98165555192E+03  0.46999998093E+01 0. -1.
</event>
<event>
 5   0  0.1823154E-03  0.1284935E+04  0.7818609E-02  0.9041598E-01
       -1   -1    0    0    0  501  0.00000000000E+00  0.00000000000E+00  0.53397507626E+03  0.53397507629E+03  0.50400001928E-02 0.  1.
        1   -1    0    0  501    0  0.00000000000E+00  0.00000000000E+00 -0.77300297303E+03  0.77300297305E+03  0.50400001928E-02 0. -1.
    10030    2    1    2    0    0  0.00000000000E+00  0.00000000000E+00 -0.23902789677E+03  0.13069780493E+04  0.12849347400E+04 0.  0.
        2    1    3    3  502    0 -0.13049713220E+03 -0.15576284029E+03 -0.73945544515E+03  0.76686760219E+03  0.25500000920E-02 0. -1.
       -2    1    3    3    0  502  0.13049713220E+03  0.15576284029E+03  0.50042754838E+03  0.54011044714E+03  0.25500000920E-02 0.  1.
</event>
<event>
 5   0  0.1254125E-03  0.1393706E+04  0.7818609E-02  0.8958387E-01
        3   -1    0    0  501    0  0.00000000000E+00  0.00000000000E+00  0.67845508672E+03  0.67845509424E+03  0.10100000352E+00 0.  1.
       -3   -1    0    0    0  501  0.00000000000E+00  0.00000000000E+00 -0.71574981158E+03  0.71574981870E+03  0.10100000352E+00 0. -1.
    10030    2    1    2    0    0  0.00000000000E+00  0.00000000000E+00 -0.37294724856E+02  0.13942049129E+04  0.13937060102E+04 0.  0.
        4    1    3    3  502    0  0.66210410714E+03  0.19342274892E+03  0.80424897445E+02  0.69445229175E+03  0.12699999809E+01 0. -1.
       -4    1    3    3    0  502 -0.66210410714E+03 -0.19342274892E+03 -0.11771962230E+03  0.69975262119E+03  0.12699999809E+01 0.  1.
</event>
<event>
 5   0  0.3299104E-03  0.1297294E+04  0.7818609E-02  0.9031714E-01
       -2   -1    0    0    0  501  0.00000000000E+00  0.00000000000E+00  0.17290577982E+03  0.17290577984E+03  0.25500000920E-02 0. -1.
        2   -1    0    0  501    0  0.00000000000E+00  0.00000000000E+00 -0.24333644738E+04  0.24333644738E+04  0.25500000920E-02 0.  1.
    10030    2    1    2    0    0  0.00000000000E+00  0.00000000000E+00 -0.22604586940E+04  0.26062702536E+04  0.12972937708E+04 0.  0.
        2    1    3    3  502    0  0.51362491643E+03  0.35607317119E+03 -0.14790341430E+04  0.16056589470E+04  0.25500000920E-02 0.  1.
       -2    1    3    3    0  502 -0.51362491643E+03 -0.35607317119E+03 -0.78142455101E+03  0.10006113066E+04  0.25500000920E-02 0. -1.
</event>
<event>
 5   0  0.3262927E-03  0.1270133E+04  0.7818609E-02  0.9053591E-01
        2   -1    0    0  501    0  0.00000000000E+00  0.00000000000E+00  0.14576694954E+04  0.14576694954E+04  0.25500000920E-02 0. -1.
       -2   -1    0    0    0  501  0.00000000000E+00  0.00000000000E+00 -0.27668108637E+03  0.27668108638E+03  0.25500000920E-02 0.  1.
    10030    2    1    2    0    0  0.00000000000E+00  0.00000000000E+00  0.11809884091E+04  0.17343505818E+04  0.12701331892E+04 0.  0.
        3    1    3    3  502    0  0.32574007150E+03 -0.16092256047E+03  0.13017372767E+04  0.13514890352E+04  0.10100000352E+00 0. -1.
       -3    1    3    3    0  502 -0.32574007150E+03  0.16092256047E+03 -0.12074886758E+03  0.38286154662E+03  0.10100000352E+00 0.  1.
</event>
<event>
 5   0  0.3299104E-03  0.1181091E+04  0.7818609E-02  0.9129571E-01
        2   -1    0    0  501    0  0.00000000000E+00  0.00000000000E+00  0.20072876659E+04  0.20072876659E+04  0.25500000920E-02 0. -1.
       -2   -1    0    0    0  501  0.00000000000E+00  0.00000000000E+00 -0.17373880890E+03  0.17373880892E+03  0.25500000920E-02 0.  1.
    10030    2    1    2    0    0  0.00000000000E+00  0.00000000000E+00  0.18335488570E+04  0.21810264748E+04  0.11810906286E+04 0.  0.
        2    1    3    3  502    0 -0.12866550069E+03  0.48022985343E+03  0.15052882786E+04  0.15852660107E+04  0.25500000920E-02 0. -1.
       -2    1    3    3    0  502  0.12866550069E+03 -0.48022985343E+03  0.32826057842E+03  0.59576046407E+03  0.25500000920E-02 0.  1.
</event>
<event>
 5   0  0.1873488E-03  0.1287466E+04  0.7818609E-02  0.9039564E-01
       -1   -1    0    0    0  501  0.00000000000E+00  0.00000000000E+00  0.42492408512E+03  0.42492408515E+03  0.50400001928E-02 0. -1.
        1   -1    0    0  501    0  0.00000000000E+00  0.00000000000E+00 -0.97521501808E+03  0.97521501809E+03  0.50400001928E-02 0.  1.
    10030    2    1    2    0    0  0.00000000000E+00  0.00000000000E+00 -0.55029093296E+03  0.14001391032E+04  0.12874662704E+04 0.  0.
        3    1    3    3  502    0  0.31863772408E+03 -0.37005295518E+03 -0.73128406254E+03  0.87934383444E+03  0.10100000352E+00 0.  1.
       -3    1    3    3    0  502 -0.31863772408E+03  0.37005295518E+03  0.18099312958E+03  0.52079526880E+03  0.10100000352E+00 0. -1.
</event>
<event>
 5   0  0.1814770E-03  0.1473447E+04  0.7818609E-02  0.8902305E-01
        1   -1    0    0  501    0  0.00000000000E+00  0.00000000000E+00  0.11044652514E+04  0.11044652514E+04  0.50400001928E-02 0.  1.
       -1   -1    0    0    0  501  0.00000000000E+00  0.00000000000E+00 -0.49142460204E+03  0.49142460207E+03  0.50400001928E-02 0. -1.
    10030    2    1    2    0    0  0.00000000000E+00  0.00000000000E+00  0.61304064932E+03  0.15958898534E+04  0.14734468387E+04 0.  0.
        5    1    3    3  502    0 -0.16358292998E+03 -0.28215261923E+03  0.10219975284E+04  0.10727863317E+04  0.46999998093E+01 0.  1.
       -5    1    3    3    0  502  0.16358292998E+03  0.28215261923E+03 -0.40895687905E+03  0.52310352172E+03  0.46999998093E+01 0. -1.
</event>
<event>
 5   0  0.3294720E-03  0.1106194E+04  0.7818609E-02  0.9199175E-01
        2   -1    0    0  501    0  0.00000000000E+00  0.00000000000E+00  0.30243077554E+03  0.30243077555E+03  0.25500000920E-02 0. -1.
       -2   -1    0    0    0  501  0.00000000000E+00  0.00000000000E+00 -0.10115255372E+04  0.10115255372E+04  0.25500000920E-02 0.  1.
    10030    2    1    2    0    0  0.00000000000E+00  0.00000000000E+00 -0.70909476162E+03  0.13139563127E+04  0.11061942916E+04 0.  0.
        5    1    3    3  502    0  0.46048037238E+02  0.46924379303E+03 -0.11138424751E+02  0.47165274677E+03  0.46999998093E+01 0. -1.
       -5    1    3    3    0  502 -0.46048037238E+02 -0.46924379303E+03 -0.69795633687E+03  0.84230356595E+03  0.46999998093E+01 0.  1.
</event>
<event>
 5   0  0.1814770E-03  0.1311853E+04  0.7818609E-02  0.9020218E-01
        1   -1    0    0  501    0  0.00000000000E+00  0.00000000000E+00  0.14907129272E+04  0.14907129272E+04  0.50400001928E-02 0.  1.
       -1   -1    0    0    0  501  0.00000000000E+00  0.00000000000E+00 -0.28861335804E+03  0.28861335808E+03  0.50400001928E-02 0. -1.
    10030    2    1    2    0    0  0.00000000000E+00  0.00000000000E+00  0.12020995692E+04  0.17793262853E+04  0.13118531379E+04 0.  0.
        5    1    3    3  502    0  0.87543399104E+02 -0.19632152492E+03  0.14415591169E+04  0.14575049795E+04  0.46999998093E+01 0.  1.
       -5    1    3    3    0  502 -0.87543399104E+02  0.19632152492E+03 -0.23945954770E+03  0.32182130579E+03  0.46999998093E+01 0. -1.
</event>
<event>
 5   0  0.1823154E-03  0.1222601E+04  0.7818609E-02  0.9093301E-01
       -1   -1    0    0    0  501  0.00000000000E+00  0.00000000000E+00  0.29318950252E+03  0.29318950256E+03  0.50400001928E-02 0.  1.
        1   -1    0    0  501    0  0.00000000000E+00  0.00000000000E+00 -0.12745624374E+04  0.12745624374E+04  0.50400001928E-02 0. -1.
    10030    2    1    2    0    0  0.00000000000E+00  0.00000000000E+00 -0.98137293484E+03  0.15677519399E+04  0.12226010420E+04 0.  0.
        2    1    3    3  502    0 -0.37739824882E+03 -0.39672393388E+03 -0.83920327060E+03  0.10020386456E+04  0.25500000920E-02 0. -1.
       -2    1    3    3    0  502  0.37739824882E+03  0.39672393388E+03 -0.14216966424E+03  0.56571329432E+03  0.25500000920E-02 0.  1.
</event>
<event>
 5   0  0.3294720E-03  0.1043825E+04  0.7818609E-02  0.9261742E-01
       -2   -1    0    0    0  501  0.00000000000E+00  0.00000000000E+00  0.88966484500E+03  0.88966484501E+03  0.25500000920E-02 0.  1.
        2   -1    0    0  501    0  0.00000000000E+00  0.00000000000E+00 -0.30617470341E+03  0.30617470342E+03  0.25500000920E-02 0. -1.
    10030    2    1    2    0    0  0.00000000000E+00  0.00000000000E+00  0.58349014159E+03  0.11958395484E+04  0.10438254070E+04 0.  0.
        5    1    3    3  502    0 -0.19000890107E+03  0.48251828228E+03  0.22451781287E+03  0.56511734491E+03  0.46999998093E+01 0.  1.
       -5    1    3    3    0  502  0.19000890107E+03 -0.48251828228E+03  0.35897232872E+03  0.63072220352E+03  0.46999998093E+01 0. -1.
</event>
<event>
 5   0  0.1857986E-03  0.1301508E+04  0.7818609E-02  0.9028370E-01
        1   -1    0    0  501    0  0.00000000000E+00  0.00000000000E+00  0.12723593163E+04  0.12723593163E+04  0.50400001928E-02 0.  1.
       -1   -1    0    0    0  501  0.00000000000E+00  0.00000000000E+00 -0.33283129105E+03  0.33283129109E+03  0.50400001928E-02 0. -1.
    10030    2    1    2    0    0  0.00000000000E+00  0.00000000000E+00  0.93952802522E+03  0.16051906074E+04  0.13015083464E+04 0.  0.
        1    1    3    3  502    0  0.18767759256E+03 -0.23249183669E+03 -0.24323110072E+03  0.38527483860E+03  0.50400001928E-02 0. -1.
       -1    1    3    3    0  502 -0.18767759256E+03  0.23249183669E+03  0.11827591259E+04  0.12199157688E+04  0.50400001928E-02 0.  1.
</event>
<event>
 5   0  0.3262927E-03  0.1197508E+04  0.7818609E-02  0.9115041E-01
        2   -1    0    0  501    0  0.00000000000E+00  0.00000000000E+00  0.80322744611E+03  0.80322744611E+03  0.25500000920E-02 0. -1.
       -2   -1    0    0    0  501  0.00000000000E+00  0.00000000000E+00 -0.44633229182E+03  0.44633229183E+03  0.25500000920E-02 0.  1.
    10030    2    1    2    0    0  0.00000000000E+00  0.00000000000E+00  0.35689515429E+03  0.12495597379E+04  0.11975079906E+04 0.  0.
        3    1    3    3  502    0 -0.23395371500E+03 -0.49783917846E+03 -0.68323253944E+02  0.55429799350E+03  0.10100000352E+00 0.  1.
       -3    1    3    3    0  502  0.23395371500E+03  0.49783917846E+03  0.42521840824E+03  0.69526174444E+03  0.10100000352E+00 0. -1.
</event>
<event>
 5   0  0.3336609E-03  0.1307030E+04  0.7818609E-02  0.9024009E-01
       -2   -1    0    0    0  501  0.00000000000E+00  0.00000000000E+00  0.68148521426E+03  0.68148521427E+03  0.25500000920E-02 0. -1.
        2   -1    0    0  501    0  0.00000000000E+00  0.00000000000E+00 -0.62669259267E+03  0.62669259268E+03  0.25500000920E-02 0.  1.
    10030    2    1    2    0    0  0.00000000000E+00  0.00000000000E+00  0.54792621595E+02  0.13081778069E+04  0.13070298173E+04 0.  0.
        1    1    3    3  502    0  0.28884027266E+03  0.34434993672E+03  0.50223492012E+03  0.67397737131E+03  0.50400001928E-02 0. -1.
       -1    1    3    3    0  502 -0.28884027266E+03 -0.34434993672E+03 -0.44744229852E+03  0.63420043564E+03  0.50400001928E-02 0.  1.
</event>
<event>
 5   0  0.3262927E-03  0.1277235E+04  0.7818609E-02  0.9047815E-01
        2   -1    0    0  501    0  0.00000000000E+00  0.00000000000E+00  0.17544467279E+04  0.17544467279E+04  0.25500000920E-02 0. -1.
       -2   -1    0    0    0  501  0.00000000000E+00  0.00000000000E+00 -0.23245651996E+03  0.23245651998E+03  0.25500000920E-02 0.  1.
    10030    2    1    2    0    0  0.00000000000E+00  0.00000000000E+00  0.15219902079E+04  0.19869032479E+04  0.12772354221E+04 0.  0.
        3    1    3    3  502    0  0.41104414274E+03 -0.38586685954E+03  0.12276369773E+04  0.13509045410E+04  0.10100000352E+00 0. -1.
       -3    1    3    3    0  502 -0.41104414274E+03  0.38586685954E+03  0.29435323057E+03  0.63599870685E+03  0.10100000352E+00 0.  1.
</event>
<event>
 5   0  0.1254125E-03  0.1315479E+04  0.7818609E-02  0.9017379E-01
       -4   -1    0    0    0  501  0.00000000000E+00  0.00000000000E+00  0.81205740825E+03  0.81205840134E+03  0.12699999809E+01 0.  1.
        4   -1    0    0  501    0  0.00000000000E+00  0.00000000000E+00 -0.53274542343E+03  0.53274693719E+03  0.12699999809E+01 0. -1.
    10030    2    1    2    0    0  0.00000000000E+00  0.00000000000E+00  0.27931198482E+03  0.13448053385E+04  0.13154794615E+04 0.  0.
        5    1    3    3  502    0 -0.41032149324E+03 -0.32094072627E+03  0.55014547245E+03  0.75766008767E+03  0.46999998093E+01 0.  1.
       -5    1    3    3    0  502  0.41032149324E+03  0.32094072627E+03 -0.27083348763E+03  0.58714525086E+03  0.46999998093E+01 0. -1.
</event>
<event>
 5   0  0.3259968E-03  0.1294423E+04  0.7818609E-02  0.9034000E-01
        2   -1    0    0  501    0  0.00000000000E+00  0.00000000000E+00  0.24090715876E+04  0.24090715876E+04  0.25500000920E-02 0. -1.
       -2   -1    0    0    0  501  0.00000000000E+00  0.00000000000E+00 -0.17387712702E+03  0.17387712704E+03  0.25500000920E-02 0.  1.
    10030    2    1    2    0    0  0.00000000000E+00  0.00000000000E+00  0.22351944606E+04  0.25829487147E+04  0.12944225685E+04 0.  0.
        4    1    3    3  502    0  0.47137176720E+03  0.12789286000E+03  0.19649752581E+04  0.20247659876E+04  0.12699999809E+01 0.  1.
       -4    1    3    3    0  502 -0.47137176720E+03 -0.12789286000E+03  0.27021920252E+03  0.55818272713E+03  0.12699999809E+01 0. -1.
</event>
<event>
 5   0  0.1814770E-03  0.1343310E+04  0.7818609E-02  0.8995908E-01
       -1   -1    0    0    0  501  0.00000000000E+00  0.00000000000E+00  0.60151995811E+03  0.60151995813E+03  0.50400001928E-02 0.  1.
        1   -1    0    0  501    0  0.00000000000E+00  0.00000000000E+00 -0.74996738932E+03  0.74996738933E+03  0.50400001928E-02 0. -1.
    10030    2    1    2    0    0  0.00000000000E+00  0.00000000000E+00 -0.14844743120E+03  0.13514873475E+04  0.13433098714E+04 0.  0.
        5    1    3    3  502    0  0.22934857339E+03 -0.62909102684E+03 -0.21541081462E+02  0.66995701082E+03  0.46999998093E+01 0.  1.
       -5    1    3    3    0  502 -0.22934857339E+03  0.62909102684E+03 -0.12690634974E+03  0.68153033664E+03  0.46999998093E+01 0. -1.
</event>
<event>
 5   0  0.1254125E-03  0.1254691E+04  0.7818609E-02  0.9066288E-01
       -4   -1    0    0    0  501  0.00000000000E+00  0.00000000000E+00  0.22146340854E+03  0.22146704997E+03  0.12699999809E+01 0.  1.
        4   -1    0    0  501    0  0.00000000000E+00  0.00000000000E+00 -0.17770810326E+04  0.17770814864E+04  0.12699999809E+01 0. -1.
    10030    2    1    2    0    0  0.00000000000E+00  0.00000000000E+00 -0.15556176240E+04  0.19985485364E+04  0.12546912210E+04 0.  0.
        4    1    3    3  502    0 -0.28094877835E+03 -0.27690224990E+03 -0.15548144864E+04  0.16040750518E+04  0.12699999809E+01 0. -1.
       -4    1    3    3    0  502  0.28094877835E+03  0.27690224990E+03 -0.80313768768E+00  0.39447348452E+03  0.12699999809E+01 0.  1.
</event>
<event>
 5   0  0.1254125E-03  0.1304975E+04  0.7818609E-02  0.9025630E-01
       -3   -1    0    0    0  501  0.00000000000E+00  0.00000000000E+00  0.43887582389E+03  0.43887583551E+03  0.10100000352E+00 0. -1.
        3   -1    0    0  501    0  0.00000000000E+00  0.00000000000E+00 -0.97006855528E+03  0.97006856054E+03  0.10100000352E+00 0.  1.
    10030    2    1    2    0    0  0.00000000000E+00  0.00000000000E+00 -0.53119273139E+03  0.14089443960E+04  0.13049745566E+04 0.  0.
        5    1    3    3  502    0 -0.32906315440E+03  0.55709462950E+03 -0.17474614276E+03  0.67022032960E+03  0.46999998093E+01 0.  1.
       -5    1    3    3    0  502  0.32906315440E+03 -0.55709462950E+03 -0.35644658863E+03  0.73872406645E+03  0.46999998093E+01 0. -1.
</event>
<event>
 5   0  0.1254125E-03  0.1312382E+04  0.7818609E-02  0.9019803E-01
        3   -1    0    0  501    0  0.00000000000E+00  0.00000000000E+00  0.75348630134E+03  0.75348630811E+03  0.10100000352E+00 0.  1.
       -3   -1    0    0    0  501  0.00000000000E+00  0.00000000000E+00 -0.57145931209E+03  0.57145932102E+03  0.10100000352E+00 0. -1.
    10030    2    1    2    0    0  0.00000000000E+00  0.00000000000E+00  0.18202698925E+03  0.13249456291E+04  0.13123822215E+04 0.  0.
        2    1    3    3  502    0 -0.34061583976E+02  0.19419404808E+03  0.72287654582E+03  0.74928100224E+03  0.25500000920E-02 0.  1.
       -2    1    3    3    0  502  0.34061583976E+02 -0.19419404808E+03 -0.54084955656E+03  0.57566462689E+03  0.25500000920E-02 0. -1.
</event>
<event>
 5   0  0.1823154E-03  0.1348567E+04  0.7818609E-02  0.8991914E-01
        1   -1    0    0  501    0  0.00000000000E+00  0.00000000000E+00  0.11203046731E+04  0.11203046731E+04  0.50400001928E-02 0. -1.
       -1   -1    0    0    0  501  0.00000000000E+00  0.00000000000E+00 -0.40583445193E+03  0.40583445197E+03  0.50400001928E-02 0.  1.
    10030    2    1    2    0    0  0.00000000000E+00  0.00000000000E+00  0.71447022115E+03  0.15261391251E+04  0.13485669921E+04 0.  0.
        2    1    3    3  502    0  0.33779217172E+03 -0.55804500755E+03  0.16405174074E+03  0.67262973126E+03  0.25500000920E-02 0.  1.
       -2    1    3    3    0  502 -0.33779217172E+03  0.55804500755E+03  0.55041848041E+03  0.85350939381E+03  0.25500000920E-02 0. -1.
</event>
<event>
 5   0  0.1873488E-03  0.1285783E+04  0.7818609E-02  0.9040916E-01
        1   -1    0    0  501    0  0.00000000000E+00  0.00000000000E+00  0.81429158618E+03  0.81429158620E+03  0.50400001928E-02 0. -1.
       -1   -1    0    0    0  501  0.00000000000E+00  0.00000000000E+00 -0.50756969255E+03  0.50756969258E+03  0.50400001928E-02 0.  1.
    10030    2    1    2    0    0  0.00000000000E+00  0.00000000000E+00  0.30672189363E+03  0.13218612788E+04  0.12857833878E+04 0.  0.
        3    1    3    3  502    0  0.45803634927E+03 -0.23237306504E+03 -0.24416063916E+03  0.56869057187E+03  0.10100000352E+00 0.  1.
       -3    1    3    3    0  502 -0.45803634927E+03  0.23237306504E+03  0.55088253279E+03  0.75317070691E+03  0.10100000352E+00 0. -1.
</event>
<event>
 5   0  0.1814770E-03  0.1319942E+04  0.7818609E-02  0.9013899E-01
        1   -1    0    0  501    0  0.00000000000E+00  0.00000000000E+00  0.11891614912E+04  0.11891614912E+04  0.50400001928E-02 0. -1.
       -1   -1    0    0    0  501  0.00000000000E+00  0.00000000000E+00 -0.36627647834E+03  0.36627647838E+03  0.50400001928E-02 0.  1.
    10030    2    1    2    0    0  0.00000000000E+00  0.00000000000E+00  0.82288501284E+03  0.15554379696E+04  0.13199422460E+04 0.  0.
        5    1    3    3  502    0 -0.48836411928E+03  0.25184483668E+03 -0.19306708957E+02  0.54983649730E+03  0.46999998093E+01 0.  1.
       -5    1    3    3    0  502  0.48836411928E+03 -0.25184483668E+03  0.84219172179E+03  0.10056014723E+04  0.46999998093E+01 0. -1.
</event>
<event>
 5   0  0.3294720E-03  0.1303183E+04  0.7818609E-02  0.9027045E-01
       -2   -1    0    0    0  501  0.00000000000E+00  0.00000000000E+00  0.37894993427E+03  0.37894993428E+03  0.25500000920E-02 0.  1.
        2   -1    0    0  501    0  0.00000000000E+00  0.00000000000E+00 -0.11203890407E+04  0.11203890407E+04  0.25500000920E-02 0. -1.
    10030    2    1    2    0    0  0.00000000000E+00  0.00000000000E+00 -0.74143910645E+03  0.14993389750E+04  0.13031828012E+04 0.  0.
        5    1    3    3  502    0  0.20284529604E+02  0.43375385878E+03  0.18819607273E+03  0.47327975230E+03  0.46999998093E+01 0.  1.
       -5    1    3    3    0  502 -0.20284529604E+02 -0.43375385878E+03 -0.92963517917E+03  0.10260592227E+04  0.46999998093E+01 0. -1.
</event>
<event>
 5   0  0.1857986E-03  0.1308700E+04  0.7818609E-02  0.9022695E-01
       -1   -1    0    0    0  501  0.00000000000E+00  0.00000000000E+00  0.70259516125E+03  0.70259516126E+03  0.50400001928E-02 0.  1.
        1   -1    0    0  501    0  0.00000000000E+00  0.00000000000E+00 -0.60941738547E+03  0.60941738549E+03  0.50400001928E-02 0. -1.
    10030    2    1    2    0    0  0.00000000000E+00  0.00000000000E+00  0.93177775777E+02  0.13120125468E+04  0.13086996695E+04 0.  0.
        1    1    3    3  502    0 -0.29865372553E+03 -0.22300049673E+02  0.62985402643E+03  0.69742916101E+03  0.50400001928E-02 0.  1.
       -1    1    3    3    0  502  0.29865372553E+03  0.22300049673E+02 -0.53667625066E+03  0.61458338574E+03  0.50400001928E-02 0. -1.
</event>
<event>
 5   0  0.1814770E-03  0.1320059E+04  0.7818609E-02  0.9013808E-01
        1   -1    0    0  501    0  0.00000000000E+00  0.00000000000E+00  0.82967020970E+03  0.82967020972E+03  0.50400001928E-02 0. -1.
       -1   -1    0    0    0  501  0.00000000000E+00  0.00000000000E+00 -0.52507449414E+03  0.52507449416E+03  0.50400001928E-02 0.  1.
    10030    2    1    2    0    0  0.00000000000E+00  0.00000000000E+00  0.30459571556E+03  0.13547447039E+04  0.13200585831E+04 0.  0.
        5    1    3    3  502    0 -0.36875870054E+03 -0.34544416724E+03  0.58807499040E+03  0.77535084719E+03  0.46999998093E+01 0. -1.
       -5    1    3    3    0  502  0.36875870054E+03  0.34544416724E+03 -0.28347927484E+03  0.57939385669E+03  0.46999998093E+01 0.  1.
</event>
<event>
 5   0  0.1803959E-03  0.1111609E+04  0.7818609E-02  0.9193950E-01
       -1   -1    0    0    0  501  0.00000000000E+00  0.00000000000E+00  0.37777195046E+03  0.37777195049E+03  0.50400001928E-02 0. -1.
        1   -1    0    0  501    0  0.00000000000E+00  0.00000000000E+00 -0.81773899608E+03  0.81773899609E+03  0.50400001928E-02 0.  1.
    10030    2    1    2    0    0  0.00000000000E+00  0.00000000000E+00 -0.43996704562E+03  0.11955109466E+04  0.11116093838E+04 0.  0.
        4    1    3    3  502    0  0.15928809534E+03  0.35903453198E+03  0.20293871180E+03  0.44211336343E+03  0.12699999809E+01 0. -1.
       -4    1    3    3    0  502 -0.15928809534E+03 -0.35903453198E+03 -0.64290575743E+03  0.75339758316E+03  0.12699999809E+01 0.  1.
</event>
<event>
 5   0  0.1823154E-03  0.1276455E+04  0.7818609E-02  0.9048448E-01
       -1   -1    0    0    0  501  0.00000000000E+00  0.00000000000E+00  0.58261708089E+03  0.58261708092E+03  0.50400001928E-02 0. -1.
        1   -1    0    0  501    0  0.00000000000E+00  0.00000000000E+00 -0.69914588711E+03  0.69914588713E+03  0.50400001928E-02 0.  1.
    10030    2    1    2    0    0  0.00000000000E+00  0.00000000000E+00 -0.11652880622E+03  0.12817629680E+04  0.12764549908E+04 0.  0.
        2    1    3    3  502    0 -0.59697826480E+02  0.63428955791E+03 -0.20063308032E+02  0.63740851116E+03  0.25500000920E-02 0.  1.
       -2    1    3    3    0  502  0.59697826480E+02 -0.63428955791E+03 -0.96465498189E+02  0.64435445689E+03  0.25500000920E-02 0. -1.
</event>
<event>
 5   0  0.3299104E-03  0.1289853E+04  0.7818609E-02  0.9037651E-01
       -2   -1    0    0    0  501  0.00000000000E+00  0.00000000000E+00  0.29652553007E+03  0.29652553008E+03  0.25500000920E-02 0. -1.
        2   -1    0    0  501    0  0.00000000000E+00  0.00000000000E+00 -0.14026794358E+04  0.14026794358E+04  0.25500000920E-02 0.  1.
    10030    2    1    2    0    0  0.00000000000E+00  0.00000000000E+00 -0.11061539057E+04  0.16992049659E+04  0.12898531129E+04 0.  0.
        2    1    3    3  502    0 -0.35407355750E+03  0.17539808241E+03 -0.12245416073E+04  0.12867147001E+04  0.25500000920E-02 0.  1.
       -2    1    3    3    0  502  0.35407355750E+03 -0.17539808241E+03  0.11838770162E+03  0.41249026575E+03  0.25500000920E-02 0. -1.
</event>
<event>
 5   0  0.3262927E-03  0.1290319E+04  0.7818609E-02  0.9037278E-01
       -2   -1    0    0    0  501  0.00000000000E+00  0.00000000000E+00  0.14125672518E+04  0.14125672518E+04  0.25500000920E-02 0. -1.
        2   -1    0    0  501    0  0.00000000000E+00  0.00000000000E+00 -0.29466269481E+03  0.29466269482E+03  0.25500000920E-02 0.  1.
    10030    2    1    2    0    0  0.00000000000E+00  0.00000000000E+00  0.11179045570E+04  0.17072299466E+04  0.12903191435E+04 0.  0.
        3    1    3    3  502    0  0.20489736341E+02 -0.34841788304E+03  0.12768715187E+04  0.13237128601E+04  0.10100000352E+00 0. -1.
       -3    1    3    3    0  502 -0.20489736341E+02  0.34841788304E+03 -0.15896696173E+03  0.38351708650E+03  0.10100000352E+00 0.  1.
</event>
<event>
 5   0  0.3259968E-03  0.1309840E+04  0.7818609E-02  0.9021798E-01
        2   -1    0    0  501    0  0.00000000000E+00  0.00000000000E+00  0.16509075831E+04  0.16509075831E+04  0.25500000920E-02 0. -1.
       -2   -1    0    0    0  501  0.00000000000E+00  0.00000000000E+00 -0.25980893033E+03  0.25980893034E+03  0.25500000920E-02 0.  1.
    10030    2    1    2    0    0  0.00000000000E+00  0.00000000000E+00  0.13910986528E+04  0.19107165135E+04  0.13098404991E+04 0.  0.
        4    1    3    3  502    0  0.32185221815E+03 -0.28109047028E+03 -0.28429907421E+02  0.42826460903E+03  0.12699999809E+01 0.  1.
       -4    1    3    3    0  502 -0.32185221815E+03  0.28109047028E+03  0.14195285602E+04  0.14824519044E+04  0.12699999809E+01 0. -1.
</event>
<event>
 5   0  0.1814770E-03  0.1307882E+04  0.7818609E-02  0.9023338E-01
       -1   -1    0    0    0  501  0.00000000000E+00  0.00000000000E+00  0.18824556167E+03  0.18824556174E+03  0.50400001928E-02 0.  1.
        1   -1    0    0  501    0  0.00000000000E+00  0.00000000000E+00 -0.22717075938E+04  0.22717075938E+04  0.50400001928E-02 0. -1.
    10030    2    1    2    0    0  0.00000000000E+00  0.00000000000E+00 -0.20834620321E+04  0.24599531555E+04  0.13078820620E+04 0.  0.
        5    1    3    3  502    0  0.15177864509E+03 -0.22372045729E+03  0.78181885761E+02  0.28146420265E+03  0.46999998093E+01 0.  1.
       -5    1    3    3    0  502 -0.15177864509E+03  0.22372045729E+03 -0.21616439178E+04  0.21784889529E+04  0.46999998093E+01 0. -1.
</event>
<event>
 5   0  0.3336609E-03  0.1306867E+04  0.7818609E-02  0.9024138E-01
        2   -1    0    0  501    0  0.00000000000E+00  0.00000000000E+00  0.11734197454E+04  0.11734197454E+04  0.25500000920E-02 0.  1.
       -2   -1    0    0    0  501  0.00000000000E+00  0.00000000000E+00 -0.36387243440E+03  0.36387243441E+03  0.25500000920E-02 0. -1.
    10030    2    1    2    0    0  0.00000000000E+00  0.00000000000E+00  0.80954731097E+03  0.15372921798E+04  0.13068666333E+04 0.  0.
        1    1    3    3  502    0  0.47684741099E+02 -0.64074807315E+03  0.54466748289E+03  0.84231502107E+03  0.50400001928E-02 0. -1.
       -1    1    3    3    0  502 -0.47684741099E+02  0.64074807315E+03  0.26487982808E+03  0.69497715871E+03  0.50400001928E-02 0.  1.
</event>
<event>
 5   0  0.3294720E-03  0.1322971E+04  0.7818609E-02  0.9011545E-01
        2   -1    0    0  501    0  0.00000000000E+00  0.00000000000E+00  0.11594236310E+04  0.11594236310E+04  0.25500000920E-02 0.  1.
       -2   -1    0    0    0  501  0.00000000000E+00  0.00000000000E+00 -0.37739688741E+03  0.37739688742E+03  0.25500000920E-02 0. -1.
    10030    2    1    2    0    0  0.00000000000E+00  0.00000000000E+00  0.78202674358E+03  0.15368205184E+04  0.13229707019E+04 0.  0.
        5    1    3    3  502    0  0.36808307283E+03 -0.97965452803E+02 -0.23719681486E+03  0.44873911956E+03  0.46999998093E+01 0. -1.
       -5    1    3    3    0  502 -0.36808307283E+03  0.97965452803E+02  0.10192235584E+04  0.10880813989E+04  0.46999998093E+01 0.  1.
</event>
<event>
 5   0  0.1803959E-03  0.1290674E+04  0.7818609E-02  0.9036993E-01
        1   -1    0    0  501    0  0.00000000000E+00  0.00000000000E+00  0.42135713127E+03  0.42135713130E+03  0.50400001928E-02 0.  1.
       -1   -1    0    0    0  501  0.00000000000E+00  0.00000000000E+00 -0.98837758459E+03  0.98837758461E+03  0.50400001928E-02 0. -1.
    10030    2    1    2    0    0  0.00000000000E+00  0.00000000000E+00 -0.56702045332E+03  0.14097347159E+04  0.12906741551E+04 0.  0.
        4    1    3    3  502    0 -0.15791358768E+03  0.42016966217E+03 -0.78993959826E+03  0.90856228624E+03  0.12699999809E+01 0. -1.
       -4    1    3    3    0  502  0.15791358768E+03 -0.42016966217E+03  0.22291914493E+03  0.50117242967E+03  0.12699999809E+01 0.  1.
</event>
<event>
 5   0  0.1823154E-03  0.1297640E+04  0.7818609E-02  0.9031439E-01
        1   -1    0    0  501    0  0.00000000000E+00  0.00000000000E+00  0.58409102447E+03  0.58409102449E+03  0.50400001928E-02 0. -1.
       -1   -1    0    0    0  501  0.00000000000E+00  0.00000000000E+00 -0.72072169823E+03  0.72072169824E+03  0.50400001928E-02 0.  1.
    10030    2    1    2    0    0  0.00000000000E+00  0.00000000000E+00 -0.13663067375E+03  0.13048127227E+04  0.12976395110E+04 0.  0.
        2    1    3    3  502    0  0.12179139186E+03 -0.47913220284E+03 -0.49083603255E+03  0.69664971240E+03  0.25500000920E-02 0.  1.
       -2    1    3    3    0  502 -0.12179139186E+03  0.47913220284E+03  0.35420535880E+03  0.60816301033E+03  0.25500000920E-02 0. -1.
</event>
<event>
 5   0  0.1823154E-03  0.1283758E+04  0.7818609E-02  0.9042545E-01
       -1   -1    0    0    0  501  0.00000000000E+00  0.00000000000E+00  0.53979298848E+03  0.53979298850E+03  0.50400001928E-02 0.  1.
        1   -1    0    0  501    0  0.00000000000E+00  0.00000000000E+00 -0.76327200915E+03  0.76327200916E+03  0.50400001928E-02 0. -1.
    10030    2    1    2    0    0  0.00000000000E+00  0.00000000000E+00 -0.22347902067E+03  0.13030649977E+04  0.12837583556E+04 0.  0.
        2    1    3    3  502    0  0.59513913557E+03 -0.76900753050E+02  0.11951252435E+03  0.61187217619E+03  0.25500000920E-02 0. -1.
       -2    1    3    3    0  502 -0.59513913557E+03  0.76900753050E+02 -0.34299154502E+03  0.69119282148E+03  0.25500000920E-02 0.  1.
</event>
<event>
 5   0  0.1873488E-03  0.1302819E+04  0.7818609E-02  0.9027333E-01
        1   -1    0    0  501    0  0.00000000000E+00  0.00000000000E+00  0.61520552522E+03  0.61520552524E+03  0.50400001928E-02 0.  1.
       -1   -1    0    0    0  501  0.00000000000E+00  0.00000000000E+00 -0.68974396700E+03  0.68974396702E+03  0.50400001928E-02 0. -1.
    10030    2    1    2    0    0  0.00000000000E+00  0.00000000000E+00 -0.74538441782E+02  0.13049494923E+04  0.13028189429E+04 0.  0.
        3    1    3    3  502    0 -0.33234553415E+03  0.36195044059E+03 -0.46560462678E+03  0.67694117484E+03  0.10100000352E+00 0. -1.
       -3    1    3    3    0  502  0.33234553415E+03 -0.36195044059E+03  0.39106618500E+03  0.62800831743E+03  0.10100000352E+00 0.  1.
</event>
<event>
 5   0  0.1823154E-03  0.1285632E+04  0.7818609E-02  0.9041038E-01
       -1   -1    0    0    0  501  0.00000000000E+00  0.00000000000E+00  0.37703276886E+03  0.37703276889E+03  0.50400001928E-02 0. -1.
        1   -1    0    0  501    0  0.00000000000E+00  0.00000000000E+00 -0.10959580470E+04  0.10959580470E+04  0.50400001928E-02 0.  1.
    10030    2    1    2    0    0  0.00000000000E+00  0.00000000000E+00 -0.71892527813E+03  0.14729908159E+04  0.12856315134E+04 0.  0.
        2    1    3    3  502    0 -0.38887463474E+03  0.45054843849E+03 -0.63774783402E+03  0.87231856382E+03  0.25500000920E-02 0.  1.
       -2    1    3    3    0  502  0.38887463474E+03 -0.45054843849E+03 -0.81177444109E+02  0.60067225207E+03  0.25500000920E-02 0. -1.
</event>
<event>
 5   0  0.3299104E-03  0.1308966E+04  0.7818609E-02  0.9022485E-01
        2   -1    0    0  501    0  0.00000000000E+00  0.00000000000E+00  0.16882033860E+04  0.16882033860E+04  0.25500000920E-02 0.  1.
       -2   -1    0    0    0  501  0.00000000000E+00  0.00000000000E+00 -0.25373009315E+03  0.25373009316E+03  0.25500000920E-02 0. -1.
    10030    2    1    2    0    0  0.00000000000E+00  0.00000000000E+00  0.14344732928E+04  0.19419334791E+04  0.13089660078E+04 0.  0.
        2    1    3    3  502    0  0.34239303712E+03  0.18792287379E+03  0.14963544250E+04  0.15464878155E+04  0.25500000920E-02 0.  1.
       -2    1    3    3    0  502 -0.34239303712E+03 -0.18792287379E+03 -0.61881132152E+02  0.39544566363E+03  0.25500000920E-02 0. -1.
</event>
<event>
 5   0  0.3299104E-03  0.1300405E+04  0.7818609E-02  0.9029244E-01
       -2   -1    0    0    0  501  0.00000000000E+00  0.00000000000E+00  0.36013567893E+03  0.36013567893E+03  0.25500000920E-02 0.  1.
        2   -1    0    0  501    0  0.00000000000E+00  0.00000000000E+00 -0.11739000149E+04  0.11739000149E+04  0.25500000920E-02 0. -1.
    10030    2    1    2    0    0  0.00000000000E+00  0.00000000000E+00 -0.81376433600E+03  0.15340356939E+04  0.13004049813E+04 0.  0.
        2    1    3    3  502    0 -0.12876751529E+03 -0.58100987713E+03 -0.71587591508E+03  0.93093065054E+03  0.25500000920E-02 0. -1.
       -2    1    3    3    0  502  0.12876751529E+03  0.58100987713E+03 -0.97888420914E+02  0.60310504332E+03  0.25500000920E-02 0.  1.
</event>
<event>
 5   0  0.3262927E-03  0.1284519E+04  0.7818609E-02  0.9041933E-01
       -2   -1    0    0    0  501  0.00000000000E+00  0.00000000000E+00  0.33415982830E+03  0.33415982831E+03  0.25500000920E-02 0.  1.
        2   -1    0    0  501    0  0.00000000000E+00  0.00000000000E+00 -0.12344307133E+04  0.12344307133E+04  0.25500000920E-02 0. -1.
    10030    2    1    2    0    0  0.00000000000E+00  0.00000000000E+00 -0.90027088501E+03  0.15685905416E+04  0.12845188285E+04 0.  0.
        3    1    3    3  502    0  0.41726233953E+03 -0.30131112105E+03  0.19016598928E+02  0.51503193386E+03  0.10100000352E+00 0.  1.
       -3    1    3    3    0  502 -0.41726233953E+03  0.30131112105E+03 -0.91928748394E+03  0.10535586078E+04  0.10100000352E+00 0. -1.
</event>
<event>
 5   0  0.1857986E-03  0.1308681E+04  0.7818609E-02  0.9022709E-01
       -1   -1    0    0    0  501  0.00000000000E+00  0.00000000000E+00  0.83018677660E+03  0.83018677661E+03  0.50400001928E-02 0. -1.
        1   -1    0    0  501    0  0.00000000000E+00  0.00000000000E+00 -0.51574112738E+03  0.51574112741E+03  0.50400001928E-02 0.  1.
    10030    2    1    2    0    0  0.00000000000E+00  0.00000000000E+00  0.31444564921E+03  0.13459279040E+04  0.13086809606E+04 0.  0.
        1    1    3    3  502    0  0.61508289557E+02 -0.20391111262E+03  0.79353919992E+03  0.82162489822E+03  0.50400001928E-02 0. -1.
       -1    1    3    3    0  502 -0.61508289557E+02  0.20391111262E+03 -0.47909355071E+03  0.52430300580E+03  0.50400001928E-02 0.  1.
</event>
<event>
 5   0  0.1823154E-03  0.1304526E+04  0.7818609E-02  0.9025983E-01
        1   -1    0    0  501    0  0.00000000000E+00  0.00000000000E+00  0.47165490611E+03  0.47165490614E+03  0.50400001928E-02 0. -1.
       -1   -1    0    0    0  501  0.00000000000E+00  0.00000000000E+00 -0.90203069830E+03  0.90203069832E+03  0.50400001928E-02 0.  1.
    10030    2    1    2    0    0  0.00000000000E+00  0.00000000000E+00 -0.43037579219E+03  0.13736856045E+04  0.13045262808E+04 0.  0.
        2    1    3    3  502    0 -0.80229768059E+00 -0.39734054489E+03 -0.75987968846E+03  0.85749477738E+03  0.25500000920E-02 0.  1.
       -2    1    3    3    0  502  0.80229768059E+00  0.39734054489E+03  0.32950389626E+03  0.51619082707E+03  0.25500000920E-02 0. -1.
</event>
<event>
 5   0  0.1823154E-03  0.1294214E+04  0.7818609E-02  0.9034166E-01
       -1   -1    0    0    0  501  0.00000000000E+00  0.00000000000E+00  0.48017141897E+03  0.48017141900E+03  0.50400001928E-02 0. -1.
        1   -1    0    0  501    0  0.00000000000E+00  0.00000000000E+00 -0.87207878022E+03  0.87207878023E+03  0.50400001928E-02 0.  1.
    10030    2    1    2    0    0  0.00000000000E+00  0.00000000000E+00 -0.39190736124E+03  0.13522501992E+04  0.12942137465E+04 0.  0.
        2    1    3    3  502    0 -0.58599240357E+03  0.11771811896E+01  0.90872042976E+02  0.59299764839E+03  0.25500000920E-02 0. -1.
       -2    1    3    3    0  502  0.58599240357E+03 -0.11771811896E+01 -0.48277940422E+03  0.75925255083E+03  0.25500000920E-02 0.  1.
</event>
<event>
 5   0  0.3262927E-03  0.1292031E+04  0.7818609E-02  0.9035908E-01
       -2   -1    0    0    0  501  0.00000000000E+00  0.00000000000E+00  0.28145719179E+03  0.28145719180E+03  0.25500000920E-02 0. -1.
        2   -1    0    0  501    0  0.00000000000E+00  0.00000000000E+00 -0.14827694992E+04  0.14827694992E+04  0.25500000920E-02 0.  1.
    10030    2    1    2    0    0  0.00000000000E+00  0.00000000000E+00 -0.12013123074E+04  0.17642266910E+04  0.12920311751E+04 0.  0.
        3    1    3    3  502    0 -0.52004953625E+02  0.32540625727E+03 -0.13593726391E+04  0.13987450552E+04  0.10100000352E+00 0.  1.
       -3    1    3    3    0  502  0.52004953625E+02 -0.32540625727E+03  0.15806033163E+03  0.36548163581E+03  0.10100000352E+00 0. -1.
</event>
<event>
 5   0  0.3299104E-03  0.1292167E+04  0.7818609E-02  0.9035800E-01
        2   -1    0    0  501    0  0.00000000000E+00  0.00000000000E+00  0.11108239601E+04  0.11108239601E+04  0.25500000920E-02 0. -1.
       -2   -1    0    0    0  501  0.00000000000E+00  0.00000000000E+00 -0.37577887757E+03  0.37577887758E+03  0.25500000920E-02 0.  1.
    10030    2    1    2    0    0  0.00000000000E+00  0.00000000000E+00  0.73504508251E+03  0.14866028377E+04  0.12921674519E+04 0.  0.
        2    1    3    3  502    0  0.38009102192E+03  0.34449842976E+03  0.81940460420E+03  0.96673277509E+03  0.25500000920E-02 0. -1.
       -2    1    3    3    0  502 -0.38009102192E+03 -0.34449842976E+03 -0.84359521686E+02  0.51987006257E+03  0.25500000920E-02 0.  1.
</event>
<event>
 5   0  0.3299104E-03  0.1334538E+04  0.7818609E-02  0.9002616E-01
        2   -1    0    0  501    0  0.00000000000E+00  0.00000000000E+00  0.70937836261E+03  0.70937836261E+03  0.25500000920E-02 0. -1.
       -2   -1    0    0    0  501  0.00000000000E+00  0.00000000000E+00 -0.62765951718E+03  0.62765951719E+03  0.25500000920E-02 0.  1.
    10030    2    1    2    0    0  0.00000000000E+00  0.00000000000E+00  0.81718845423E+02  0.13370378798E+04  0.13345382431E+04 0.  0.
        2    1    3    3  502    0 -0.34011397672E+03 -0.44400824601E+03 -0.32372772347E+03  0.64623562161E+03  0.25500000920E-02 0.  1.
       -2    1    3    3    0  502  0.34011397672E+03  0.44400824601E+03  0.40544656889E+03  0.69080225819E+03  0.25500000920E-02 0. -1.
</event>
<event>
 5   0  0.1803959E-03  0.1310193E+04  0.7818609E-02  0.9021521E-01
       -1   -1    0    0    0  501  0.00000000000E+00  0.00000000000E+00  0.95508974762E+03  0.95508974763E+03  0.50400001928E-02 0. -1.
        1   -1    0    0  501    0  0.00000000000E+00  0.00000000000E+00 -0.44933112519E+03  0.44933112522E+03  0.50400001928E-02 0.  1.
    10030    2    1    2    0    0  0.00000000000E+00  0.00000000000E+00  0.50575862243E+03  0.14044208728E+04  0.13101931934E+04 0.  0.
        4    1    3    3  502    0  0.13843040213E+03  0.10177991520E+03 -0.42474626325E+03  0.45818460080E+03  0.12699999809E+01 0.  1.
       -4    1    3    3    0  502 -0.13843040213E+03 -0.10177991520E+03  0.93050488567E+03  0.94623627204E+03  0.12699999809E+01 0. -1.
</event>
<event>
 5   0  0.1814770E-03  0.1256300E+04  0.7818609E-02  0.9064956E-01
        1   -1    0    0  501    0  0.00000000000E+00  0.00000000000E+00  0.32837263904E+03  0.32837263908E+03  0.50400001928E-02 0.  1.
       -1   -1    0    0    0  501  0.00000000000E+00  0.00000000000E+00 -0.12016001838E+04  0.12016001838E+04  0.50400001928E-02 0. -1.
    10030    2    1    2    0    0  0.00000000000E+00  0.00000000000E+00 -0.87322754474E+03  0.15299728229E+04  0.12563003199E+04 0.  0.
        5    1    3    3  502    0  0.25055609429E+03  0.46823164005E+03 -0.84514657196E+03  0.99815532019E+03  0.46999998093E+01 0. -1.
       -5    1    3    3    0  502 -0.25055609429E+03 -0.46823164005E+03 -0.28080972780E+02  0.53181750268E+03  0.46999998093E+01 0.  1.
</event>
<event>
 5   0  0.3336609E-03  0.1288322E+04  0.7818609E-02  0.9038877E-01
        2   -1    0    0  501    0  0.00000000000E+00  0.00000000000E+00  0.44600937186E+03  0.44600937187E+03  0.25500000920E-02 0. -1.
       -2   -1    0    0    0  501  0.00000000000E+00  0.00000000000E+00 -0.93034700059E+03  0.93034700059E+03  0.25500000920E-02 0.  1.
    10030    2    1    2    0    0  0.00000000000E+00  0.00000000000E+00 -0.48433762873E+03  0.13763563725E+04  0.12883221357E+04 0.  0.
        1    1    3    3  502    0 -0.50504955334E+03 -0.35765715589E+03 -0.51209685312E+02  0.62097997100E+03  0.50400001928E-02 0. -1.
       -1    1    3    3    0  502  0.50504955334E+03  0.35765715589E+03 -0.43312794342E+03  0.75537640146E+03  0.50400001928E-02 0.  1.
</event>
<event>
 5   0  0.3262927E-03  0.1283664E+04  0.7818609E-02  0.9042621E-01
        2   -1    0    0  501    0  0.00000000000E+00  0.00000000000E+00  0.12719554433E+04  0.12719554433E+04  0.25500000920E-02 0. -1.
       -2   -1    0    0    0  501  0.00000000000E+00  0.00000000000E+00 -0.32387022195E+03  0.32387022196E+03  0.25500000920E-02 0.  1.
    10030    2    1    2    0    0  0.00000000000E+00  0.00000000000E+00  0.94808522137E+03  0.15958256653E+04  0.12836642735E+04 0.  0.
        3    1    3    3  502    0  0.24281565780E+03  0.56325191584E+03  0.23903123310E+03  0.65829180837E+03  0.10100000352E+00 0.  1.
       -3    1    3    3    0  502 -0.24281565780E+03 -0.56325191584E+03  0.70905398827E+03  0.93753385691E+03  0.10100000352E+00 0. -1.
</event>
<event>
 5   0  0.1254125E-03  0.1308952E+04  0.7818609E-02  0.9022496E-01
       -4   -1    0    0    0  501  0.00000000000E+00  0.00000000000E+00  0.94744012274E+03  0.94744097393E+03  0.12699999809E+01 0. -1.
        4   -1    0    0  501    0  0.00000000000E+00  0.00000000000E+00 -0.45209936682E+03  0.45210115061E+03  0.12699999809E+01 0.  1.
    10030    2    1    2    0    0  0.00000000000E+00  0.00000000000E+00  0.49534075591E+03  0.13995421245E+04  0.13089521358E+04 0.  0.
        5    1    3    3  502    0 -0.53905886243E+03  0.17473185425E+03  0.59774605852E+03  0.82367355094E+03  0.46999998093E+01 0. -1.
       -5    1    3    3    0  502  0.53905886243E+03 -0.17473185425E+03 -0.10240530261E+03  0.57586857359E+03  0.46999998093E+01 0.  1.
</event>
<event>
 5   0  0.3262927E-03  0.1283804E+04  0.7818609E-02  0.9042508E-01
       -2   -1    0    0    0  501  0.00000000000E+00  0.00000000000E+00  0.35403245567E+03  0.35403245568E+03  0.25500000920E-02 0.  1.
        2   -1    0    0  501    0  0.00000000000E+00  0.00000000000E+00 -0.11638437292E+04  0.11638437292E+04  0.25500000920E-02 0. -1.
    10030    2    1    2    0    0  0.00000000000E+00  0.00000000000E+00 -0.80981127357E+03  0.15178761849E+04  0.12838044298E+04 0.  0.
        3    1    3    3  502    0  0.36735479234E+03  0.25727943930E+03  0.13805937396E+03  0.46925755644E+03  0.10100000352E+00 0.  1.
       -3    1    3    3    0  502 -0.36735479234E+03 -0.25727943930E+03 -0.94787064753E+03  0.10486186285E+04  0.10100000352E+00 0. -1.
</event>
<event>
 5   0  0.3299104E-03  0.1280642E+04  0.7818609E-02  0.9045059E-01
        2   -1    0    0  501    0  0.00000000000E+00  0.00000000000E+00  0.60085908437E+03  0.60085908438E+03  0.25500000920E-02 0.  1.
       -2   -1    0    0    0  501  0.00000000000E+00  0.00000000000E+00 -0.68237479569E+03  0.68237479569E+03  0.25500000920E-02 0. -1.
    10030    2    1    2    0    0  0.00000000000E+00  0.00000000000E+00 -0.81515711314E+02  0.12832338801E+04  0.12806421748E+04 0.  0.
        2    1    3    3  502    0  0.37655111732E+03 -0.51789922203E+03 -0.39891934472E+02  0.64156193355E+03  0.25500000920E-02 0.  1.
       -2    1    3    3    0  502 -0.37655111732E+03  0.51789922203E+03 -0.41623776842E+02  0.64167194652E+03  0.25500000920E-02 0. -1.
</event>
<event>
 5   0  0.3262927E-03  0.1321993E+04  0.7818609E-02  0.9012304E-01
       -2   -1    0    0    0  501  0.00000000000E+00  0.00000000000E+00  0.59463426288E+03  0.59463426289E+03  0.25500000920E-02 0. -1.
        2   -1    0    0  501    0  0.00000000000E+00  0.00000000000E+00 -0.73476476716E+03  0.73476476716E+03  0.25500000920E-02 0.  1.
    10030    2    1    2    0    0  0.00000000000E+00  0.00000000000E+00 -0.14013050427E+03  0.13293990301E+04  0.13219928982E+04 0.  0.
        3    1    3    3  502    0  0.41877968396E+03  0.28433338232E+03  0.35739779921E+03  0.61964110022E+03  0.10100000352E+00 0. -1.
       -3    1    3    3    0  502 -0.41877968396E+03 -0.28433338232E+03 -0.49752830348E+03  0.70975792983E+03  0.10100000352E+00 0.  1.
</event>
<event>
 5   0  0.1873488E-03  0.1292136E+04  0.7818609E-02  0.9035824E-01
       -1   -1    0    0    0  501  0.00000000000E+00  0.00000000000E+00  0.31757061747E+03  0.31757061751E+03  0.50400001928E-02 0.  1.
        1   -1    0    0  501    0  0.00000000000E+00  0.00000000000E+00 -0.13143662660E+04  0.13143662660E+04  0.50400001928E-02 0. -1.
    10030    2    1    2    0    0  0.00000000000E+00  0.00000000000E+00 -0.99679564857E+03  0.16319368836E+04  0.12921363809E+04 0.  0.
        3    1    3    3  502    0  0.75635235319E+02 -0.62059793069E+03 -0.29263889778E+03  0.69028980514E+03  0.10100000352E+00 0.  1.
       -3    1    3    3    0  502 -0.75635235319E+02  0.62059793069E+03 -0.70415675079E+03  0.94164707841E+03  0.10100000352E+00 0. -1.
</event>
<event>
 5   0  0.1814770E-03  0.1423549E+04  0.7818609E-02  0.8936947E-01
        1   -1    0    0  501    0  0.00000000000E+00  0.00000000000E+00  0.69710424344E+03  0.69710424346E+03  0.50400001928E-02 0. -1.
       -1   -1    0    0    0  501  0.00000000000E+00  0.00000000000E+00 -0.72675371904E+03  0.72675371905E+03  0.50400001928E-02 0.  1.
    10030    2    1    2    0    0  0.00000000000E+00  0.00000000000E+00 -0.29649475598E+02  0.14238579625E+04  0.14235492285E+04 0.  0.
        5    1    3    3  502    0 -0.58882824515E+03 -0.29010443543E+03  0.26041075012E+03  0.70619765966E+03  0.46999998093E+01 0. -1.
       -5    1    3    3    0  502  0.58882824515E+03  0.29010443543E+03 -0.29006022572E+03  0.71766030285E+03  0.46999998093E+01 0.  1.
</event>
<event>
 5   0  0.3336609E-03  0.1283595E+04  0.7818609E-02  0.9042676E-01
       -2   -1    0    0    0  501  0.00000000000E+00  0.00000000000E+00  0.26885996491E+03  0.26885996492E+03  0.25500000920E-02 0.  1.
        2   -1    0    0  501    0  0.00000000000E+00  0.00000000000E+00 -0.15320401314E+04  0.15320401314E+04  0.25500000920E-02 0. -1.
    10030    2    1    2    0    0  0.00000000000E+00  0.00000000000E+00 -0.12631801665E+04  0.18009000963E+04  0.12835953505E+04 0.  0.
        1    1    3    3  502    0  0.52678587421E+03  0.14499052223E+03 -0.11040088280E+04  0.12318121208E+04  0.50400001928E-02 0. -1.
       -1    1    3    3    0  502 -0.52678587421E+03 -0.14499052223E+03 -0.15917133852E+03  0.56908797548E+03  0.50400001928E-02 0.  1.
</event>
<event>
 5   0  0.1823154E-03  0.1317126E+04  0.7818609E-02  0.9016094E-01
       -1   -1    0    0    0  501  0.00000000000E+00  0.00000000000E+00  0.35953407452E+03  0.35953407456E+03  0.50400001928E-02 0.  1.
        1   -1    0    0  501    0  0.00000000000E+00  0.00000000000E+00 -0.12062972021E+04  0.12062972021E+04  0.50400001928E-02 0. -1.
    10030    2    1    2    0    0  0.00000000000E+00  0.00000000000E+00 -0.84676312757E+03  0.15658312767E+04  0.13171255797E+04 0.  0.
        2    1    3    3  502    0 -0.63286224249E+03 -0.71059563040E+02 -0.22395338215E+03  0.67506977184E+03  0.25500000920E-02 0.  1.
       -2    1    3    3    0  502  0.63286224249E+03  0.71059563040E+02 -0.62280974542E+03  0.89076150482E+03  0.25500000920E-02 0. -1.
</event>
<event>
 5   0  0.3299104E-03  0.1276926E+04  0.7818609E-02  0.9048066E-01
       -2   -1    0    0    0  501  0.00000000000E+00  0.00000000000E+00  0.23345188679E+03  0.23345188680E+03  0.25500000920E-02 0.  1.
        2   -1    0    0  501    0  0.00000000000E+00  0.00000000000E+00 -0.17461210745E+04  0.17461210746E+04  0.25500000920E-02 0. -1.
    10030    2    1    2    0    0  0.00000000000E+00  0.00000000000E+00 -0.15126691878E+04  0.19795729614E+04  0.12769264026E+04 0.  0.
        2    1    3    3  502    0 -0.44402632982E+03 -0.74799051600E+02 -0.54626529803E+02  0.45358388140E+03  0.25500000920E-02 0.  1.
       -2    1    3    3    0  502  0.44402632982E+03  0.74799051600E+02 -0.14580426580E+04  0.15259890800E+04  0.25500000920E-02 0. -1.
</event>
<event>
 5   0  0.1857986E-03  0.1299177E+04  0.7818609E-02  0.9030218E-01
        1   -1    0    0  501    0  0.00000000000E+00  0.00000000000E+00  0.19875833053E+04  0.19875833053E+04  0.50400001928E-02 0.  1.
       -1   -1    0    0    0  501  0.00000000000E+00  0.00000000000E+00 -0.21230058915E+03  0.21230058921E+03  0.50400001928E-02 0. -1.
    10030    2    1    2    0    0  0.00000000000E+00  0.00000000000E+00  0.17752827162E+04  0.21998838945E+04  0.12991768267E+04 0.  0.
        1    1    3    3  502    0 -0.36891269679E+03  0.18369897877E+03  0.17378742700E+04  0.17860707912E+04  0.50400001928E-02 0.  1.
       -1    1    3    3    0  502  0.36891269679E+03 -0.18369897877E+03  0.37408446162E+02  0.41381310337E+03  0.50400001928E-02 0. -1.
</event>
<event>
 5   0  0.3259968E-03  0.1289942E+04  0.7818609E-02  0.9037579E-01
        2   -1    0    0  501    0  0.00000000000E+00  0.00000000000E+00  0.10131197758E+04  0.10131197758E+04  0.25500000920E-02 0. -1.
       -2   -1    0    0    0  501  0.00000000000E+00  0.00000000000E+00 -0.41060087535E+03  0.41060087535E+03  0.25500000920E-02 0.  1.
    10030    2    1    2    0    0  0.00000000000E+00  0.00000000000E+00  0.60251890040E+03  0.14237206511E+04  0.12899424278E+04 0.  0.
        4    1    3    3  502    0 -0.37143948071E+03 -0.39325368079E+01  0.88320129947E+03  0.95813824731E+03  0.12699999809E+01 0. -1.
       -4    1    3    3    0  502  0.37143948071E+03  0.39325368079E+01 -0.28068239907E+03  0.46558240379E+03  0.12699999809E+01 0.  1.
</event>
<event>
 5   0  0.1803959E-03  0.1461113E+04  0.7818609E-02  0.8910732E-01
        1   -1    0    0  501    0  0.00000000000E+00  0.00000000000E+00  0.48326237399E+03  0.48326237402E+03  0.50400001928E-02 0. -1.
       -1   -1    0    0    0  501  0.00000000000E+00  0.00000000000E+00 -0.11043951596E+04  0.11043951596E+04  0.50400001928E-02 0.  1.
    10030    2    1    2    0    0  0.00000000000E+00  0.00000000000E+00 -0.62113278558E+03  0.15876575336E+04  0.14611127632E+04 0.  0.
        4    1    3    3  502    0 -0.64961870411E+03  0.58417243375E+02  0.47015277804E+02  0.65393354731E+03  0.12699999809E+01 0. -1.
       -4    1    3    3    0  502  0.64961870411E+03 -0.58417243375E+02 -0.66814806338E+03  0.93372398628E+03  0.12699999809E+01 0.  1.
</event>
<event>
 5   0  0.3294720E-03  0.1299266E+04  0.7818609E-02  0.9030148E-01
        2   -1    0    0  501    0  0.00000000000E+00  0.00000000000E+00  0.94592120681E+03  0.94592120682E+03  0.25500000920E-02 0. -1.
       -2   -1    0    0    0  501  0.00000000000E+00  0.00000000000E+00 -0.44614997231E+03  0.44614997232E+03  0.25500000920E-02 0.  1.
    10030    2    1    2    0    0  0.00000000000E+00  0.00000000000E+00  0.49977123450E+03  0.13920711791E+04  0.12992655160E+04 0.  0.
        5    1    3    3  502    0  0.78206364572E+02  0.25467435099E+03  0.88467957300E+03  0.92393468242E+03  0.46999998093E+01 0. -1.
       -5    1    3    3    0  502 -0.78206364572E+02 -0.25467435099E+03 -0.38490833850E+03  0.46813649671E+03  0.46999998093E+01 0.  1.
</event>
<event>
 5   0  0.1823154E-03  0.1285711E+04  0.7818609E-02  0.9040974E-01
       -1   -1    0    0    0  501  0.00000000000E+00  0.00000000000E+00  0.54748202537E+03  0.54748202539E+03  0.50400001928E-02 0.  1.
        1   -1    0    0  501    0  0.00000000000E+00  0.00000000000E+00 -0.75484360764E+03  0.75484360765E+03  0.50400001928E-02 0. -1.
    10030    2    1    2    0    0  0.00000000000E+00  0.00000000000E+00 -0.20736158227E+03  0.13023256330E+04  0.12857111762E+04 0.  0.
        2    1    3    3  502    0 -0.24858431393E+03  0.59116897710E+03 -0.14884834577E+03  0.65835457822E+03  0.25500000920E-02 0. -1.
       -2    1    3    3    0  502  0.24858431393E+03 -0.59116897710E+03 -0.58513236495E+02  0.64397105483E+03  0.25500000920E-02 0.  1.
</event>
<event>
 5   0  0.1873488E-03  0.1231487E+04  0.7818609E-02  0.9085734E-01
        1   -1    0    0  501    0  0.00000000000E+00  0.00000000000E+00  0.11443322126E+04  0.11443322126E+04  0.50400001928E-02 0. -1.
       -1   -1    0    0    0  501  0.00000000000E+00  0.00000000000E+00 -0.33131981984E+03  0.33131981988E+03  0.50400001928E-02 0.  1.
    10030    2    1    2    0    0  0.00000000000E+00  0.00000000000E+00  0.81301239277E+03  0.14756520325E+04  0.12314868129E+04 0.  0.
        3    1    3    3  502    0 -0.46794848717E+03  0.21318269174E+03  0.81235907061E+03  0.96143118137E+03  0.10100000352E+00 0. -1.
       -3    1    3    3    0  502  0.46794848717E+03 -0.21318269174E+03  0.65332215177E+00  0.51422085113E+03  0.10100000352E+00 0.  1.
</event>
<event>
 5   0  0.3336609E-03  0.1280230E+04  0.7818609E-02  0.9045392E-01
       -2   -1    0    0    0  501  0.00000000000E+00  0.00000000000E+00  0.18886984889E+03  0.18886984891E+03  0.25500000920E-02 0. -1.
        2   -1    0    0  501    0  0.00000000000E+00  0.00000000000E+00 -0.21694686949E+04  0.21694686949E+04  0.25500000920E-02 0.  1.
    10030    2    1    2    0    0  0.00000000000E+00  0.00000000000E+00 -0.19805988460E+04  0.23583385438E+04  0.12802300178E+04 0.  0.
        1    1    3    3  502    0  0.28777555745E+03  0.17049347917E+03  0.15074144139E+02  0.33482835566E+03  0.50400001928E-02 0. -1.
       -1    1    3    3    0  502 -0.28777555745E+03 -0.17049347917E+03 -0.19956729901E+04  0.20235101881E+04  0.50400001928E-02 0.  1.
</event>
<event>
 5   0  0.1873488E-03  0.1293733E+04  0.7818609E-02  0.9034550E-01
        1   -1    0    0  501    0  0.00000000000E+00  0.00000000000E+00  0.10980350760E+04  0.10980350760E+04  0.50400001928E-02 0. -1.
       -1   -1    0    0    0  501  0.00000000000E+00  0.00000000000E+00 -0.38107732888E+03  0.38107732891E+03  0.50400001928E-02 0.  1.
    10030    2    1    2    0    0  0.00000000000E+00  0.00000000000E+00  0.71695774715E+03  0.14791124050E+04  0.12937330077E+04 0.  0.
        3    1    3    3  502    0 -0.55260547521E+02 -0.63150151900E+03  0.50572990262E+03  0.81093195843E+03  0.10100000352E+00 0. -1.
       -3    1    3    3    0  502  0.55260547521E+02  0.63150151900E+03  0.21122784453E+03  0.66818044652E+03  0.10100000352E+00 0.  1.
</event>
<event>
 5   0  0.3336609E-03  0.1294218E+04  0.7818609E-02  0.9034163E-01
       -2   -1    0    0    0  501  0.00000000000E+00  0.00000000000E+00  0.17552794911E+03  0.17552794913E+03  0.25500000920E-02 0.  1.
        2   -1    0    0  501    0  0.00000000000E+00  0.00000000000E+00 -0.23856613669E+04  0.23856613669E+04  0.25500000920E-02 0. -1.
    10030    2    1    2    0    0  0.00000000000E+00  0.00000000000E+00 -0.22101334178E+04  0.25611893160E+04  0.12942182923E+04 0.  0.
        1    1    3    3  502    0 -0.44394540936E+03  0.44625456666E+03 -0.80809552346E+03  0.10243285800E+04  0.50400001928E-02 0.  1.
       -1    1    3    3    0  502  0.44394540936E+03 -0.44625456666E+03 -0.14020378943E+04  0.15368607360E+04  0.50400001928E-02 0. -1.
</event>
<event>
 5   0  0.1873488E-03  0.1304884E+04  0.7818609E-02  0.9025701E-01
       -1   -1    0    0    0  501  0.00000000000E+00  0.00000000000E+00  0.48831544093E+03  0.48831544095E+03  0.50400001928E-02 0. -1.
        1   -1    0    0  501    0  0.00000000000E+00  0.00000000000E+00 -0.87173321473E+03  0.87173321475E+03  0.50400001928E-02 0.  1.
    10030    2    1    2    0    0  0.00000000000E+00  0.00000000000E+00 -0.38341777380E+03  0.13600486557E+04  0.13048843461E+04 0.  0.
        3    1    3    3  502    0  0.48076648841E+03  0.20825048363E+03 -0.59695978973E+03  0.79427053393E+03  0.10100000352E+00 0.  1.
       -3    1    3    3    0  502 -0.48076648841E+03 -0.20825048363E+03  0.21354201593E+03  0.56577812177E+03  0.10100000352E+00 0. -1.
</event>
<event>
 5   0  0.1814770E-03  0.1431123E+04  0.7818609E-02  0.8931593E-01
        1   -1    0    0  501    0  0.00000000000E+00  0.00000000000E+00  0.60421692757E+03  0.60421692759E+03  0.50400001928E-02 0. -1.
       -1   -1    0    0    0  501  0.00000000000E+00  0.00000000000E+00 -0.84742481892E+03  0.84742481893E+03  0.50400001928E-02 0.  1.
    10030    2    1    2    0    0  0.00000000000E+00  0.00000000000E+00 -0.24320789135E+03  0.14516417465E+04  0.14311232238E+04 0.  0.
        5    1    3    3  502    0 -0.53716222862E+03 -0.13824687269E+03 -0.58013702125E+03  0.80264345204E+03  0.46999998093E+01 0.  1.
       -5    1    3    3    0  502  0.53716222862E+03  0.13824687269E+03  0.33692912990E+03  0.64899829448E+03  0.46999998093E+01 0. -1.
</event>
<event>
 5   0  0.3259968E-03  0.1316470E+04  0.7818609E-02  0.9016605E-01
       -2   -1    0    0    0  501  0.00000000000E+00  0.00000000000E+00  0.48240301209E+03  0.48240301209E+03  0.25500000920E-02 0. -1.
        2   -1    0    0  501    0  0.00000000000E+00  0.00000000000E+00 -0.89815659427E+03  0.89815659427E+03  0.25500000920E-02 0.  1.
    10030    2    1    2    0    0  0.00000000000E+00  0.00000000000E+00 -0.41575358218E+03  0.13805596064E+04  0.13164701993E+04 0.  0.
        4    1    3    3  502    0 -0.14113175614E+03 -0.63735453692E+03 -0.11930899596E+03  0.66360773635E+03  0.12699999809E+01 0. -1.
       -4    1    3    3    0  502  0.14113175614E+03  0.63735453692E+03 -0.29644458622E+03  0.71695187002E+03  0.12699999809E+01 0.  1.
</event>
<event>
 5   0  0.3299104E-03  0.1317979E+04  0.7818609E-02  0.9015428E-01
       -2   -1    0    0    0  501  0.00000000000E+00  0.00000000000E+00  0.68241556487E+03  0.68241556487E+03  0.25500000920E-02 0.  1.
        2   -1    0    0  501    0  0.00000000000E+00  0.00000000000E+00 -0.63636741393E+03  0.63636741394E+03  0.25500000920E-02 0. -1.
    10030    2    1    2    0    0  0.00000000000E+00  0.00000000000E+00  0.46048150938E+02  0.13187829788E+04  0.13179787984E+04 0.  0.
        2    1    3    3  502    0 -0.30322753053E+03  0.40035623417E+03  0.44993997833E+03  0.67429817856E+03  0.25500000920E-02 0.  1.
       -2    1    3    3    0  502  0.30322753053E+03 -0.40035623417E+03 -0.40389182739E+03  0.64448480025E+03  0.25500000920E-02 0. -1.
</event>
<event>
 5   0  0.1803959E-03  0.1305566E+04  0.7818609E-02  0.9025163E-01
       -1   -1    0    0    0  501  0.00000000000E+00  0.00000000000E+00  0.23902596390E+03  0.23902596395E+03  0.50400001928E-02 0. -1.
        1   -1    0    0  501    0  0.00000000000E+00  0.00000000000E+00 -0.17827581983E+04  0.17827581984E+04  0.50400001928E-02 0.  1.
    10030    2    1    2    0    0  0.00000000000E+00  0.00000000000E+00 -0.15437322344E+04  0.20217841623E+04  0.13055657729E+04 0.  0.
        4    1    3    3  502    0 -0.37749776573E+03  0.37299761723E+03 -0.18321485011E+03  0.56142771555E+03  0.12699999809E+01 0. -1.
       -4    1    3    3    0  502  0.37749776573E+03 -0.37299761723E+03 -0.13605173843E+04  0.14603564468E+04  0.12699999809E+01 0.  1.
</event>
<event>
 5   0  0.1254125E-03  0.1110459E+04  0.7818609E-02  0.9195058E-01
       -3   -1    0    0    0  501  0.00000000000E+00  0.00000000000E+00  0.12769768634E+04  0.12769768674E+04  0.10100000352E+00 0. -1.
        3   -1    0    0  501    0  0.00000000000E+00  0.00000000000E+00 -0.24141362410E+03  0.24141364523E+03  0.10100000352E+00 0.  1.
    10030    2    1    2    0    0  0.00000000000E+00  0.00000000000E+00  0.10355632393E+04  0.15183905126E+04  0.11104587008E+04 0.  0.
        3    1    3    3  502    0  0.15663040119E+01  0.42336455223E+03  0.10089638135E+04  0.10941882766E+04  0.10100000352E+00 0. -1.
       -3    1    3    3    0  502 -0.15663040119E+01 -0.42336455223E+03  0.26599425754E+02  0.42420223602E+03  0.10100000352E+00 0.  1.
</event>
<event>
 5   0  0.3294720E-03  0.1193113E+04  0.7818609E-02  0.9118906E-01
        2   -1    0    0  501    0  0.00000000000E+00  0.00000000000E+00  0.82352459390E+03  0.82352459390E+03  0.25500000920E-02 0. -1.
       -2   -1    0    0    0  501  0.00000000000E+00  0.00000000000E+00 -0.43214232003E+03  0.43214232004E+03  0.25500000920E-02 0.  1.
    10030    2    1    2    0    0  0.00000000000E+00  0.00000000000E+00  0.39138227387E+03  0.12556669139E+04  0.11931132865E+04 0.  0.
        5    1    3    3  502    0 -0.81808711795E+02  0.20141524880E+03  0.78033123477E+03  0.81006153700E+03  0.46999998093E+01 0. -1.
       -5    1    3    3    0  502  0.81808711795E+02 -0.20141524880E+03 -0.38894896090E+03  0.44560537694E+03  0.46999998093E+01 0.  1.
</event>
<event>
 5   0  0.1803959E-03  0.1370248E+04  0.7818609E-02  0.8975641E-01
       -1   -1    0    0    0  501  0.00000000000E+00  0.00000000000E+00  0.55409614275E+03  0.55409614278E+03  0.50400001928E-02 0.  1.
        1   -1    0    0  501    0  0.00000000000E+00  0.00000000000E+00 -0.84713581493E+03  0.84713581495E+03  0.50400001928E-02 0. -1.
    10030    2    1    2    0    0  0.00000000000E+00  0.00000000000E+00 -0.29303967218E+03  0.14012319577E+04  0.13702476965E+04 0.  0.
        4    1    3    3  502    0 -0.70825865626E+02 -0.29968907087E+03 -0.77237454608E+03  0.83150098904E+03  0.12699999809E+01 0. -1.
       -4    1    3    3    0  502  0.70825865626E+02  0.29968907087E+03  0.47933487390E+03  0.56973096869E+03  0.12699999809E+01 0.  1.
</event>
<event>
 5   0  0.3259968E-03  0.1347147E+04  0.7818609E-02  0.8992991E-01
       -2   -1    0    0    0  501  0.00000000000E+00  0.00000000000E+00  0.45367935487E+03  0.45367935488E+03  0.25500000920E-02 0. -1.
        2   -1    0    0  501    0  0.00000000000E+00  0.00000000000E+00 -0.10000484045E+04  0.10000484045E+04  0.25500000920E-02 0.  1.
    10030    2    1    2    0    0  0.00000000000E+00  0.00000000000E+00 -0.54636904960E+03  0.14537277593E+04  0.13471470818E+04 0.  0.
        4    1    3    3  502    0 -0.62335164308E+03  0.40732689076E+02 -0.13131166224E+01  0.62468372803E+03  0.12699999809E+01 0. -1.
       -4    1    3    3    0  502  0.62335164308E+03 -0.40732689076E+02 -0.54505593297E+03  0.82904403132E+03  0.12699999809E+01 0.  1.
</event>
<event>
 5   0  0.1823154E-03  0.1236191E+04  0.7818609E-02  0.9081755E-01
       -1   -1    0    0    0  501  0.00000000000E+00  0.00000000000E+00  0.34102736903E+03  0.34102736907E+03  0.50400001928E-02 0. -1.
        1   -1    0    0  501    0  0.00000000000E+00  0.00000000000E+00 -0.11202685703E+04  0.11202685703E+04  0.50400001928E-02 0.  1.
    10030    2    1    2    0    0  0.00000000000E+00  0.00000000000E+00 -0.77924120122E+03  0.14612959393E+04  0.12361913172E+04 0.  0.
        2    1    3    3  502    0 -0.32628879291E+02  0.60972363336E+03 -0.27614751605E+03  0.67013804807E+03  0.25500000920E-02 0.  1.
       -2    1    3    3    0  502  0.32628879291E+02 -0.60972363336E+03 -0.50309368516E+03  0.79115789126E+03  0.25500000920E-02 0. -1.
</event>
<event>
 5   0  0.1823154E-03  0.1296441E+04  0.7818609E-02  0.9032392E-01
       -1   -1    0    0    0  501  0.00000000000E+00  0.00000000000E+00  0.87219245505E+03  0.87219245507E+03  0.50400001928E-02 0.  1.
        1   -1    0    0  501    0  0.00000000000E+00  0.00000000000E+00 -0.48176294277E+03  0.48176294280E+03  0.50400001928E-02 0. -1.
    10030    2    1    2    0    0  0.00000000000E+00  0.00000000000E+00  0.39042951228E+03  0.13539553979E+04  0.12964412888E+04 0.  0.
        2    1    3    3  502    0 -0.25416676062E+03 -0.26564187064E+03  0.75277520496E+03  0.83775703808E+03  0.25500000920E-02 0.  1.
       -2    1    3    3    0  502  0.25416676062E+03  0.26564187064E+03 -0.36234569268E+03  0.51619835979E+03  0.25500000920E-02 0. -1.
</event>
<event>
 5   0  0.3299104E-03  0.1128963E+04  0.7818609E-02  0.9177413E-01
       -2   -1    0    0    0  501  0.00000000000E+00  0.00000000000E+00  0.23205607787E+03  0.23205607788E+03  0.25500000920E-02 0.  1.
        2   -1    0    0  501    0  0.00000000000E+00  0.00000000000E+00 -0.13731141884E+04  0.13731141884E+04  0.25500000920E-02 0. -1.
    10030    2    1    2    0    0  0.00000000000E+00  0.00000000000E+00 -0.11410581105E+04  0.16051702663E+04  0.11289632289E+04 0.  0.
        2    1    3    3  502    0 -0.12481552221E+03  0.54879079554E+03 -0.63232856235E+03  0.84651619159E+03  0.25500000920E-02 0.  1.
       -2    1    3    3    0  502  0.12481552221E+03 -0.54879079554E+03 -0.50872954819E+03  0.75865407471E+03  0.25500000920E-02 0. -1.
</event>
<event>
 5   0  0.1814770E-03  0.1203926E+04  0.7818609E-02  0.9109427E-01
       -1   -1    0    0    0  501  0.00000000000E+00  0.00000000000E+00  0.25063642409E+03  0.25063642414E+03  0.50400001928E-02 0.  1.
        1   -1    0    0  501    0  0.00000000000E+00  0.00000000000E+00 -0.14457569265E+04  0.14457569266E+04  0.50400001928E-02 0. -1.
    10030    2    1    2    0    0  0.00000000000E+00  0.00000000000E+00 -0.11951205025E+04  0.16963933507E+04  0.12039258220E+04 0.  0.
        5    1    3    3  502    0  0.94800845263E+02 -0.20045554366E+03  0.19096438299E+03  0.29267577764E+03  0.46999998093E+01 0.  1.
       -5    1    3    3    0  502 -0.94800845263E+02  0.20045554366E+03 -0.13860848854E+04  0.14037175731E+04  0.46999998093E+01 0. -1.
</event>
<event>
 5   0  0.1803959E-03  0.1301310E+04  0.7818609E-02  0.9028527E-01
        1   -1    0    0  501    0  0.00000000000E+00  0.00000000000E+00  0.44262642356E+03  0.44262642358E+03  0.50400001928E-02 0.  1.
       -1   -1    0    0    0  501  0.00000000000E+00  0.00000000000E+00 -0.95645404565E+03  0.95645404566E+03  0.50400001928E-02 0. -1.
    10030    2    1    2    0    0  0.00000000000E+00  0.00000000000E+00 -0.51382762210E+03  0.13990804692E+04  0.13013098533E+04 0.  0.
        4    1    3    3  502    0  0.33500008971E+03  0.89521663067E+02  0.33500596185E+03  0.48215121658E+03  0.12699999809E+01 0.  1.
       -4    1    3    3    0  502 -0.33500008971E+03 -0.89521663067E+02 -0.84883358395E+03  0.91692925267E+03  0.12699999809E+01 0. -1.
</event>
<event>
 5   0  0.1814770E-03  0.1281161E+04  0.7818609E-02  0.9044639E-01
        1   -1    0    0  501    0  0.00000000000E+00  0.00000000000E+00  0.24574200999E+03  0.24574201004E+03  0.50400001928E-02 0. -1.
       -1   -1    0    0    0  501  0.00000000000E+00  0.00000000000E+00 -0.16698149410E+04  0.16698149410E+04  0.50400001928E-02 0.  1.
    10030    2    1    2    0    0  0.00000000000E+00  0.00000000000E+00 -0.14240729310E+04  0.19155569510E+04  0.12811614730E+04 0.  0.
        5    1    3    3  502    0  0.17127547735E+03 -0.19473447106E+03  0.16371176753E+03  0.30672534324E+03  0.46999998093E+01 0. -1.
       -5    1    3    3    0  502 -0.17127547735E+03  0.19473447106E+03 -0.15877846985E+04  0.16088316078E+04  0.46999998093E+01 0.  1.
</event>
<event>
 5   0  0.3299104E-03  0.1314584E+04  0.7818609E-02  0.9018079E-01
        2   -1    0    0  501    0  0.00000000000E+00  0.00000000000E+00  0.11582928860E+04  0.11582928860E+04  0.25500000920E-02 0. -1.
       -2   -1    0    0    0  501  0.00000000000E+00  0.00000000000E+00 -0.37299092646E+03  0.37299092647E+03  0.25500000920E-02 0.  1.
    10030    2    1    2    0    0  0.00000000000E+00  0.00000000000E+00  0.78530195953E+03  0.15312838125E+04  0.13145839443E+04 0.  0.
        2    1    3    3  502    0 -0.18819748359E+03 -0.57856097041E+03  0.10288439575E+03  0.61703831989E+03  0.25500000920E-02 0. -1.
       -2    1    3    3    0  502  0.18819748359E+03  0.57856097041E+03  0.68241756378E+03  0.91424549257E+03  0.25500000920E-02 0.  1.
</event>
<event>
 5   0  0.3299104E-03  0.1301682E+04  0.7818609E-02  0.9028232E-01
        2   -1    0    0  501    0  0.00000000000E+00  0.00000000000E+00  0.94869241328E+03  0.94869241328E+03  0.25500000920E-02 0.  1.
       -2   -1    0    0    0  501  0.00000000000E+00  0.00000000000E+00 -0.44650297854E+03  0.44650297855E+03  0.25500000920E-02 0. -1.
    10030    2    1    2    0    0  0.00000000000E+00  0.00000000000E+00  0.50218943473E+03  0.13951953918E+04  0.13016819708E+04 0.  0.
        2    1    3    3  502    0 -0.16070788652E+03  0.33876315653E+03  0.82129619572E+03  0.90283716257E+03  0.25500000920E-02 0.  1.
       -2    1    3    3    0  502  0.16070788652E+03 -0.33876315653E+03 -0.31910676098E+03  0.49235822926E+03  0.25500000920E-02 0. -1.
</event>
<event>
 5   0  0.1857986E-03  0.1276910E+04  0.7818609E-02  0.9048078E-01
       -1   -1    0    0    0  501  0.00000000000E+00  0.00000000000E+00  0.30833194611E+03  0.30833194616E+03  0.50400001928E-02 0. -1.
        1   -1    0    0  501    0  0.00000000000E+00  0.00000000000E+00 -0.13220332216E+04  0.13220332216E+04  0.50400001928E-02 0.  1.
    10030    2    1    2    0    0  0.00000000000E+00  0.00000000000E+00 -0.10137012755E+04  0.16303651678E+04  0.12769104528E+04 0.  0.
        1    1    3    3  502    0 -0.22238469348E+03 -0.91710298111E+02 -0.12619587045E+04  0.12846810898E+04  0.50400001928E-02 0.  1.
       -1    1    3    3    0  502  0.22238469348E+03  0.91710298111E+02  0.24825742900E+03  0.34568407796E+03  0.50400001928E-02 0. -1.
</event>
<event>
 5   0  0.3262927E-03  0.1080377E+04  0.7818609E-02  0.9224532E-01
        2   -1    0    0  501    0  0.00000000000E+00  0.00000000000E+00  0.14546892210E+04  0.14546892210E+04  0.25500000920E-02 0.  1.
       -2   -1    0    0    0  501  0.00000000000E+00  0.00000000000E+00 -0.20059517718E+03  0.20059517720E+03  0.25500000920E-02 0. -1.
    10030    2    1    2    0    0  0.00000000000E+00  0.00000000000E+00  0.12540940438E+04  0.16552843982E+04  0.10803770491E+04 0.  0.
        3    1    3    3  502    0 -0.93198673252E+02  0.44673411511E+03  0.10699012581E+04  0.11631621016E+04  0.10100000352E+00 0.  1.
       -3    1    3    3    0  502  0.93198673252E+02 -0.44673411511E+03  0.18419278571E+03  0.49212229660E+03  0.10100000352E+00 0. -1.
</event>
<event>
 5   0  0.3262927E-03  0.1279416E+04  0.7818609E-02  0.9046049E-01
        2   -1    0    0  501    0  0.00000000000E+00  0.00000000000E+00  0.14642909813E+04  0.14642909813E+04  0.25500000920E-02 0.  1.
       -2   -1    0    0    0  501  0.00000000000E+00  0.00000000000E+00 -0.27947072499E+03  0.27947072500E+03  0.25500000920E-02 0. -1.
    10030    2    1    2    0    0  0.00000000000E+00  0.00000000000E+00  0.11848202564E+04  0.17437617064E+04  0.12794162140E+04 0.  0.
        3    1    3    3  502    0 -0.10811022572E+03  0.22792942581E+03 -0.20881371334E+03  0.32747949728E+03  0.10100000352E+00 0. -1.
       -3    1    3    3    0  502  0.10811022572E+03 -0.22792942581E+03  0.13936339697E+04  0.14162822091E+04  0.10100000352E+00 0.  1.
</event>
<event>
 5   0  0.3259968E-03  0.1323870E+04  0.7818609E-02  0.9010848E-01
       -2   -1    0    0    0  501  0.00000000000E+00  0.00000000000E+00  0.20999650138E+03  0.20999650140E+03  0.25500000920E-02 0. -1.
        2   -1    0    0  501    0  0.00000000000E+00  0.00000000000E+00 -0.20865003195E+04  0.20865003195E+04  0.25500000920E-02 0.  1.
    10030    2    1    2    0    0  0.00000000000E+00  0.00000000000E+00 -0.18765038181E+04  0.22964968209E+04  0.13238697326E+04 0.  0.
        4    1    3    3  502    0  0.21364632341E+03  0.16167385371E+03 -0.19882350037E+04  0.20062061782E+04  0.12699999809E+01 0.  1.
       -4    1    3    3    0  502 -0.21364632341E+03 -0.16167385371E+03  0.11173118564E+03  0.29029064268E+03  0.12699999809E+01 0. -1.
</event>
<event>
 5   0  0.1803959E-03  0.1271070E+04  0.7818609E-02  0.9052827E-01
        1   -1    0    0  501    0  0.00000000000E+00  0.00000000000E+00  0.61298678903E+03  0.61298678905E+03  0.50400001928E-02 0.  1.
       -1   -1    0    0    0  501  0.00000000000E+00  0.00000000000E+00 -0.65891248843E+03  0.65891248845E+03  0.50400001928E-02 0. -1.
    10030    2    1    2    0    0  0.00000000000E+00  0.00000000000E+00 -0.45925699408E+02  0.12718992775E+04  0.12710698652E+04 0.  0.
        4    1    3    3  502    0  0.24382508585E+03  0.58633449921E+03 -0.48752136911E+02  0.63688083753E+03  0.12699999809E+01 0. -1.
       -4    1    3    3    0  502 -0.24382508585E+03 -0.58633449921E+03  0.28264375034E+01  0.63501843997E+03  0.12699999809E+01 0.  1.
</event>
<event>
 5   0  0.1803959E-03  0.1313026E+04  0.7818609E-02  0.9019298E-01
       -1   -1    0    0    0  501  0.00000000000E+00  0.00000000000E+00  0.23634589801E+03  0.23634589806E+03  0.50400001928E-02 0.  1.
        1   -1    0    0  501    0  0.00000000000E+00  0.00000000000E+00 -0.18236388851E+04  0.18236388851E+04  0.50400001928E-02 0. -1.
    10030    2    1    2    0    0  0.00000000000E+00  0.00000000000E+00 -0.15872929871E+04  0.20599847831E+04  0.13130263821E+04 0.  0.
        4    1    3    3  502    0  0.97535751889E+02 -0.49984017611E+03 -0.14363924786E+03  0.52913823427E+03  0.12699999809E+01 0.  1.
       -4    1    3    3    0  502 -0.97535751889E+02  0.49984017611E+03 -0.14436537392E+04  0.15308465489E+04  0.12699999809E+01 0. -1.
</event>
<event>
 5   0  0.3294720E-03  0.1415930E+04  0.7818609E-02  0.8942368E-01
        2   -1    0    0  501    0  0.00000000000E+00  0.00000000000E+00  0.11343218737E+04  0.11343218737E+04  0.25500000920E-02 0.  1.
       -2   -1    0    0    0  501  0.00000000000E+00  0.00000000000E+00 -0.44186244724E+03  0.44186244725E+03  0.25500000920E-02 0. -1.
    10030    2    1    2    0    0  0.00000000000E+00  0.00000000000E+00  0.69245942645E+03  0.15761843209E+04  0.14159297145E+04 0.  0.
        5    1    3    3  502    0  0.49277331434E+03 -0.25027453211E+03  0.83871492426E+03  0.10044539287E+04  0.46999998093E+01 0.  1.
       -5    1    3    3    0  502 -0.49277331434E+03  0.25027453211E+03 -0.14625549780E+03  0.57173039222E+03  0.46999998093E+01 0. -1.
</event>
<event>
 5   0  0.1803959E-03  0.1384679E+04  0.7818609E-02  0.8964984E-01
       -1   -1    0    0    0  501  0.00000000000E+00  0.00000000000E+00  0.32355650902E+03  0.32355650906E+03  0.50400001928E-02 0. -1.
        1   -1    0    0  501    0  0.00000000000E+00  0.00000000000E+00 -0.14814539731E+04  0.14814539731E+04  0.50400001928E-02 0.  1.
    10030    2    1    2    0    0  0.00000000000E+00  0.00000000000E+00 -0.11578974640E+04  0.18050104821E+04  0.13846791337E+04 0.  0.
        4    1    3    3  502    0  0.13970176115E+03  0.44574324201E+03  0.87179749210E+02  0.47519000562E+03  0.12699999809E+01 0. -1.
       -4    1    3    3    0  502 -0.13970176115E+03 -0.44574324201E+03 -0.12450772132E+04  0.13298204765E+04  0.12699999809E+01 0.  1.
</event>
<event>
 5   0  0.3262927E-03  0.1302089E+04  0.7818609E-02  0.9027910E-01
       -2   -1    0    0    0  501  0.00000000000E+00  0.00000000000E+00  0.43001464135E+03  0.43001464136E+03  0.25500000920E-02 0. -1.
        2   -1    0    0  501    0  0.00000000000E+00  0.00000000000E+00 -0.98568506553E+03  0.98568506554E+03  0.25500000920E-02 0.  1.
    10030    2    1    2    0    0  0.00000000000E+00  0.00000000000E+00 -0.55567042418E+03  0.14156997069E+04  0.13020891059E+04 0.  0.
        3    1    3    3  502    0 -0.12290120424E+03  0.61271481357E+03 -0.47634398090E+03  0.78576570752E+03  0.10100000352E+00 0.  1.
       -3    1    3    3    0  502  0.12290120424E+03 -0.61271481357E+03 -0.79326443279E+02  0.62993399938E+03  0.10100000352E+00 0. -1.
</event>
<event>
 5   0  0.3262927E-03  0.1271356E+04  0.7818609E-02  0.9052594E-01
       -2   -1    0    0    0  501  0.00000000000E+00  0.00000000000E+00  0.60567859300E+03  0.60567859300E+03  0.25500000920E-02 0. -1.
        2   -1    0    0  501    0  0.00000000000E+00  0.00000000000E+00 -0.66716320655E+03  0.66716320655E+03  0.25500000920E-02 0.  1.
    10030    2    1    2    0    0  0.00000000000E+00  0.00000000000E+00 -0.61484613550E+02  0.12728417996E+04  0.12713559254E+04 0.  0.
        3    1    3    3  502    0  0.29758543574E+03 -0.42242384064E+03  0.33994367027E+03  0.61851491644E+03  0.10100000352E+00 0. -1.
       -3    1    3    3    0  502 -0.29758543574E+03  0.42242384064E+03 -0.40142828383E+03  0.65432688311E+03  0.10100000352E+00 0.  1.
</event>
<event>
 5   0  0.1803959E-03  0.1298941E+04  0.7818609E-02  0.9030405E-01
       -1   -1    0    0    0  501  0.00000000000E+00  0.00000000000E+00  0.37581531060E+03  0.37581531064E+03  0.50400001928E-02 0. -1.
        1   -1    0    0  501    0  0.00000000000E+00  0.00000000000E+00 -0.11223915405E+04  0.11223915405E+04  0.50400001928E-02 0.  1.
    10030    2    1    2    0    0  0.00000000000E+00  0.00000000000E+00 -0.74657622986E+03  0.14982068511E+04  0.12989409924E+04 0.  0.
        4    1    3    3  502    0  0.38150750821E+03  0.48838905906E+03 -0.59735333373E+03  0.86075807870E+03  0.12699999809E+01 0.  1.
       -4    1    3    3    0  502 -0.38150750821E+03 -0.48838905906E+03 -0.14922289613E+03  0.63744877242E+03  0.12699999809E+01 0. -1.
</event>
<event>
 5   0  0.1873488E-03  0.1653097E+04  0.7818609E-02  0.8788576E-01
        1   -1    0    0  501    0  0.00000000000E+00  0.00000000000E+00  0.12914889791E+04  0.12914889791E+04  0.50400001928E-02 0. -1.
       -1   -1    0    0    0  501  0.00000000000E+00  0.00000000000E+00 -0.52898827027E+03  0.52898827029E+03  0.50400001928E-02 0.  1.
    10030    2    1    2    0    0  0.00000000000E+00  0.00000000000E+00  0.76250070883E+03  0.18204772494E+04  0.16530971189E+04 0.  0.
        3    1    3    3  502    0 -0.81887178590E+03 -0.38929172347E+02  0.26514246850E+03  0.86160723129E+03  0.10100000352E+00 0.  1.
       -3    1    3    3    0  502  0.81887178590E+03  0.38929172347E+02  0.49735824034E+03  0.95887001812E+03  0.10100000352E+00 0. -1.
</event>
<event>
 5   0  0.1803959E-03  0.1100723E+04  0.7818609E-02  0.9204487E-01
        1   -1    0    0  501    0  0.00000000000E+00  0.00000000000E+00  0.11105940526E+04  0.11105940526E+04  0.50400001928E-02 0. -1.
       -1   -1    0    0    0  501  0.00000000000E+00  0.00000000000E+00 -0.27273499942E+03  0.27273499947E+03  0.50400001928E-02 0.  1.
    10030    2    1    2    0    0  0.00000000000E+00  0.00000000000E+00  0.83785905313E+03  0.13833290520E+04  0.11007231592E+04 0.  0.
        4    1    3    3  502    0  0.14127524842E+03 -0.46455796550E+03  0.93329411853E+02  0.49445403339E+03  0.12699999809E+01 0.  1.
       -4    1    3    3    0  502 -0.14127524842E+03  0.46455796550E+03  0.74452964128E+03  0.88887501864E+03  0.12699999809E+01 0. -1.
</event>
<event>
 5   0  0.3294720E-03  0.1003437E+04  0.7818609E-02  0.9304783E-01
       -2   -1    0    0    0  501  0.00000000000E+00  0.00000000000E+00  0.49344889722E+03  0.49344889722E+03  0.25500000920E-02 0. -1.
        2   -1    0    0  501    0  0.00000000000E+00  0.00000000000E+00 -0.51012698102E+03  0.51012698102E+03  0.25500000920E-02 0.  1.
    10030    2    1    2    0    0  0.00000000000E+00  0.00000000000E+00 -0.16678083799E+02  0.10035758782E+04  0.10034372850E+04 0.  0.
        5    1    3    3  502    0 -0.11748927319E+03 -0.48647177495E+03  0.26893498735E+02  0.50120242160E+03  0.46999998093E+01 0.  1.
       -5    1    3    3    0  502  0.11748927319E+03  0.48647177495E+03 -0.43571582535E+02  0.50237345665E+03  0.46999998093E+01 0. -1.
</event>
<event>
 5   0  0.1803959E-03  0.1284533E+04  0.7818609E-02  0.9041921E-01
       -1   -1    0    0    0  501  0.00000000000E+00  0.00000000000E+00  0.43994781966E+03  0.43994781969E+03  0.50400001928E-02 0. -1.
        1   -1    0    0  501    0  0.00000000000E+00  0.00000000000E+00 -0.93762580296E+03  0.93762580297E+03  0.50400001928E-02 0.  1.
    10030    2    1    2    0    0  0.00000000000E+00  0.00000000000E+00 -0.49767798330E+03  0.13775736227E+04  0.12845332657E+04 0.  0.
        4    1    3    3  502    0  0.24324993927E+03  0.43414136907E+02 -0.88461029922E+03  0.91847281648E+03  0.12699999809E+01 0.  1.
       -4    1    3    3    0  502 -0.24324993927E+03 -0.43414136907E+02  0.38693231592E+03  0.45910080618E+03  0.12699999809E+01 0. -1.
</event>
<event>
 5   0  0.1254125E-03  0.1317433E+04  0.7818609E-02  0.9015853E-01
        3   -1    0    0  501    0  0.00000000000E+00  0.00000000000E+00  0.37019995001E+03  0.37019996379E+03  0.10100000352E+00 0.  1.
       -3   -1    0    0    0  501  0.00000000000E+00  0.00000000000E+00 -0.11720902085E+04  0.11720902128E+04  0.10100000352E+00 0. -1.
    10030    2    1    2    0    0  0.00000000000E+00  0.00000000000E+00 -0.80189025848E+03  0.15422901766E+04  0.13174334907E+04 0.  0.
        1    1    3    3  502    0 -0.16663374327E+03  0.16909927636E+03  0.31837555495E+03  0.39714526772E+03  0.50400001928E-02 0.  1.
       -1    1    3    3    0  502  0.16663374327E+03 -0.16909927636E+03 -0.11202658134E+04  0.11451449089E+04  0.50400001928E-02 0. -1.
</event>
<event>
 5   0  0.1823154E-03  0.1282201E+04  0.7818609E-02  0.9043800E-01
       -1   -1    0    0    0  501  0.00000000000E+00  0.00000000000E+00  0.68007482083E+03  0.68007482084E+03  0.50400001928E-02 0.  1.
        1   -1    0    0  501    0  0.00000000000E+00  0.00000000000E+00 -0.60435966197E+03  0.60435966199E+03  0.50400001928E-02 0. -1.
    10030    2    1    2    0    0  0.00000000000E+00  0.00000000000E+00  0.75715158855E+02  0.12844344828E+04  0.12822009029E+04 0.  0.
        2    1    3    3  502    0  0.25629716576E+03 -0.51233594469E+03  0.32616691447E+03  0.65921257080E+03  0.25500000920E-02 0.  1.
       -2    1    3    3    0  502 -0.25629716576E+03  0.51233594469E+03 -0.25045175561E+03  0.62522191204E+03  0.25500000920E-02 0. -1.
</event>
<event>
 5   0  0.1814770E-03  0.1248510E+04  0.7818609E-02  0.9071424E-01
       -1   -1    0    0    0  501  0.00000000000E+00  0.00000000000E+00  0.71252612987E+03  0.71252612989E+03  0.50400001928E-02 0.  1.
        1   -1    0    0  501    0  0.00000000000E+00  0.00000000000E+00 -0.54691936250E+03  0.54691936252E+03  0.50400001928E-02 0. -1.
    10030    2    1    2    0    0  0.00000000000E+00  0.00000000000E+00  0.16560676737E+03  0.12594454924E+04  0.12485100508E+04 0.  0.
        5    1    3    3  502    0 -0.55954090167E+03 -0.27442305464E+03  0.11886863645E+03  0.63446503157E+03  0.46999998093E+01 0.  1.
       -5    1    3    3    0  502  0.55954090167E+03  0.27442305464E+03  0.46738130919E+02  0.62498046084E+03  0.46999998093E+01 0. -1.
</event>
<event>
 5   0  0.3299104E-03  0.1275796E+04  0.7818609E-02  0.9048983E-01
       -2   -1    0    0    0  501  0.00000000000E+00  0.00000000000E+00  0.56355468449E+03  0.56355468450E+03  0.25500000920E-02 0. -1.
        2   -1    0    0  501    0  0.00000000000E+00  0.00000000000E+00 -0.72204806937E+03  0.72204806937E+03  0.25500000920E-02 0.  1.
    10030    2    1    2    0    0  0.00000000000E+00  0.00000000000E+00 -0.15849338487E+03  0.12856027539E+04  0.12757955509E+04 0.  0.
        2    1    3    3  502    0 -0.53216500348E+03 -0.34476301861E+03 -0.90517395184E+01  0.63414750959E+03  0.25500000920E-02 0. -1.
       -2    1    3    3    0  502  0.53216500348E+03  0.34476301861E+03 -0.14944164536E+03  0.65145524428E+03  0.25500000920E-02 0.  1.
</event>
<event>
 5   0  0.3259968E-03  0.1349338E+04  0.7818609E-02  0.8991330E-01
       -2   -1    0    0    0  501  0.00000000000E+00  0.00000000000E+00  0.46938616131E+03  0.46938616131E+03  0.25500000920E-02 0.  1.
        2   -1    0    0  501    0  0.00000000000E+00  0.00000000000E+00 -0.96973054628E+03  0.96973054628E+03  0.25500000920E-02 0. -1.
    10030    2    1    2    0    0  0.00000000000E+00  0.00000000000E+00 -0.50034438497E+03  0.14391167076E+04  0.13493377615E+04 0.  0.
        4    1    3    3  502    0 -0.12071834202E+03  0.61579355637E+03  0.14108914348E+02  0.62767451480E+03  0.12699999809E+01 0. -1.
       -4    1    3    3    0  502  0.12071834202E+03 -0.61579355637E+03 -0.51445329932E+03  0.81144219280E+03  0.12699999809E+01 0.  1.
</event>
<event>
 5   0  0.3262927E-03  0.1283878E+04  0.7818609E-02  0.9042448E-01
        2   -1    0    0  501    0  0.00000000000E+00  0.00000000000E+00  0.11428636874E+04  0.11428636874E+04  0.25500000920E-02 0. -1.
       -2   -1    0    0    0  501  0.00000000000E+00  0.00000000000E+00 -0.36057315861E+03  0.36057315862E+03  0.25500000920E-02 0.  1.
    10030    2    1    2    0    0  0.00000000000E+00  0.00000000000E+00  0.78229052880E+03  0.15034368460E+04  0.12838784516E+04 0.  0.
        3    1    3    3  502    0  0.26938265763E+02  0.43141731268E+03  0.94690035911E+03  0.10408971458E+04  0.10100000352E+00 0. -1.
       -3    1    3    3    0  502 -0.26938265763E+02 -0.43141731268E+03 -0.16460983031E+03  0.46253970022E+03  0.10100000352E+00 0.  1.
</event>
<event>
 5   0  0.1803959E-03  0.1311539E+04  0.7818609E-02  0.9020464E-01
        1   -1    0    0  501    0  0.00000000000E+00  0.00000000000E+00  0.36562805990E+03  0.36562805994E+03  0.50400001928E-02 0. -1.
       -1   -1    0    0    0  501  0.00000000000E+00  0.00000000000E+00 -0.11761512173E+04  0.11761512173E+04  0.50400001928E-02 0.  1.
    10030    2    1    2    0    0  0.00000000000E+00  0.00000000000E+00 -0.81052315743E+03  0.15417792773E+04  0.13115393822E+04 0.  0.
        4    1    3    3  502    0 -0.15927983803E+03 -0.43800727354E+02 -0.11512897859E+04  0.11630814050E+04  0.12699999809E+01 0.  1.
       -4    1    3    3    0  502  0.15927983803E+03  0.43800727354E+02  0.34076662848E+03  0.37869787232E+03  0.12699999809E+01 0. -1.
</event>
<event>
 5   0  0.1873488E-03  0.1295431E+04  0.7818609E-02  0.9033196E-01
       -1   -1    0    0    0  501  0.00000000000E+00  0.00000000000E+00  0.48850529800E+03  0.48850529802E+03  0.50400001928E-02 0. -1.
        1   -1    0    0  501    0  0.00000000000E+00  0.00000000000E+00 -0.85881484494E+03  0.85881484496E+03  0.50400001928E-02 0.  1.
    10030    2    1    2    0    0  0.00000000000E+00  0.00000000000E+00 -0.37030954694E+03  0.13473201430E+04  0.12954313595E+04 0.  0.
        3    1    3    3  502    0 -0.59608523183E+03 -0.24785216351E+03 -0.13024524556E+03  0.65856824457E+03  0.10100000352E+00 0. -1.
       -3    1    3    3    0  502  0.59608523183E+03  0.24785216351E+03 -0.24006430139E+03  0.68875189841E+03  0.10100000352E+00 0.  1.
</event>
<event>
 5   0  0.1814770E-03  0.9819115E+03  0.7818609E-02  0.9328609E-01
        1   -1    0    0  501    0  0.00000000000E+00  0.00000000000E+00  0.33089445634E+03  0.33089445638E+03  0.50400001928E-02 0.  1.
       -1   -1    0    0    0  501  0.00000000000E+00  0.00000000000E+00 -0.72844243418E+03  0.72844243420E+03  0.50400001928E-02 0. -1.
    10030    2    1    2    0    0  0.00000000000E+00  0.00000000000E+00 -0.39754797784E+03  0.10593368906E+04  0.98191153016E+03 0.  0.
        5    1    3    3  502    0  0.26287186211E+02  0.24958877795E+03  0.25643225393E+03  0.35883863378E+03  0.46999998093E+01 0.  1.
       -5    1    3    3    0  502 -0.26287186211E+02 -0.24958877795E+03 -0.65398023177E+03  0.70049825680E+03  0.46999998093E+01 0. -1.
</event>
<event>
 5   0  0.1814770E-03  0.1303363E+04  0.7818609E-02  0.9026903E-01
       -1   -1    0    0    0  501  0.00000000000E+00  0.00000000000E+00  0.10122578664E+04  0.10122578664E+04  0.50400001928E-02 0.  1.
        1   -1    0    0  501    0  0.00000000000E+00  0.00000000000E+00 -0.41954591060E+03  0.41954591063E+03  0.50400001928E-02 0. -1.
    10030    2    1    2    0    0  0.00000000000E+00  0.00000000000E+00  0.59271195583E+03  0.14318037771E+04  0.13033628019E+04 0.  0.
        5    1    3    3  502    0  0.90749387221E+01  0.20952616107E+03  0.97415340907E+03  0.99648407969E+03  0.46999998093E+01 0.  1.
       -5    1    3    3    0  502 -0.90749387221E+01 -0.20952616107E+03 -0.38144145324E+03  0.43531969739E+03  0.46999998093E+01 0. -1.
</event>
<event>
 5   0  0.3299104E-03  0.1287760E+04  0.7818609E-02  0.9039328E-01
       -2   -1    0    0    0  501  0.00000000000E+00  0.00000000000E+00  0.27981151043E+03  0.27981151045E+03  0.25500000920E-02 0.  1.
        2   -1    0    0  501    0  0.00000000000E+00  0.00000000000E+00 -0.14816462163E+04  0.14816462163E+04  0.25500000920E-02 0. -1.
    10030    2    1    2    0    0  0.00000000000E+00  0.00000000000E+00 -0.12018347058E+04  0.17614577267E+04  0.12877603282E+04 0.  0.
        2    1    3    3  502    0  0.21948529327E+03 -0.53944716672E+02  0.22376765609E+03  0.31804998088E+03  0.25500000920E-02 0.  1.
       -2    1    3    3    0  502 -0.21948529327E+03  0.53944716672E+02 -0.14256023619E+04  0.14434077458E+04  0.25500000920E-02 0. -1.
</event>
<event>
 5   0  0.3299104E-03  0.9191283E+03  0.7818609E-02  0.9401981E-01
       -2   -1    0    0    0  501  0.00000000000E+00  0.00000000000E+00  0.99022467608E+02  0.99022467641E+02  0.25500000920E-02 0. -1.
        2   -1    0    0  501    0  0.00000000000E+00  0.00000000000E+00 -0.21328411494E+04  0.21328411494E+04  0.25500000920E-02 0.  1.
    10030    2    1    2    0    0  0.00000000000E+00  0.00000000000E+00 -0.20338186818E+04  0.22318636170E+04  0.91912826889E+03 0.  0.
        2    1    3    3  502    0  0.39239759877E+02  0.40343943760E+03 -0.49106199693E+03  0.63674565048E+03  0.25500000920E-02 0. -1.
       -2    1    3    3    0  502 -0.39239759877E+02 -0.40343943760E+03 -0.15427566849E+04  0.15951179666E+04  0.25500000920E-02 0.  1.
</event>
<event>
 5   0  0.1873488E-03  0.9952763E+03  0.7818609E-02  0.9313741E-01
       -1   -1    0    0    0  501  0.00000000000E+00  0.00000000000E+00  0.23507710900E+03  0.23507710906E+03  0.50400001928E-02 0. -1.
        1   -1    0    0  501    0  0.00000000000E+00  0.00000000000E+00 -0.10534575205E+04  0.10534575205E+04  0.50400001928E-02 0.  1.
    10030    2    1    2    0    0  0.00000000000E+00  0.00000000000E+00 -0.81838041151E+03  0.12885346296E+04  0.99527634036E+03 0.  0.
        3    1    3    3  502    0 -0.72805490116E+02 -0.12922305215E+03  0.20579517542E+03  0.25367479383E+03  0.10100000352E+00 0. -1.
       -3    1    3    3    0  502  0.72805490116E+02  0.12922305215E+03 -0.10241755869E+04  0.10348598358E+04  0.10100000352E+00 0.  1.
</event>
<event>
 5   0  0.1857986E-03  0.1279358E+04  0.7818609E-02  0.9046096E-01
        1   -1    0    0  501    0  0.00000000000E+00  0.00000000000E+00  0.13281176655E+04  0.13281176655E+04  0.50400001928E-02 0. -1.
       -1   -1    0    0    0  501  0.00000000000E+00  0.00000000000E+00 -0.30809725758E+03  0.30809725762E+03  0.50400001928E-02 0.  1.
    10030    2    1    2    0    0  0.00000000000E+00  0.00000000000E+00  0.10200204079E+04  0.16362149231E+04  0.12793582931E+04 0.  0.
        1    1    3    3  502    0  0.55292402952E+03 -0.95127148044E+02  0.11703129456E+03  0.57312344277E+03  0.50400001928E-02 0. -1.
       -1    1    3    3    0  502 -0.55292402952E+03  0.95127148044E+02  0.90298911334E+03  0.10630914803E+04  0.50400001928E-02 0.  1.
</event>
<event>
 5   0  0.3336609E-03  0.1325188E+04  0.7818609E-02  0.9009826E-01
       -2   -1    0    0    0  501  0.00000000000E+00  0.00000000000E+00  0.59484652081E+03  0.59484652082E+03  0.25500000920E-02 0. -1.
        2   -1    0    0  501    0  0.00000000000E+00  0.00000000000E+00 -0.73805757704E+03  0.73805757704E+03  0.25500000920E-02 0.  1.
    10030    2    1    2    0    0  0.00000000000E+00  0.00000000000E+00 -0.14321105623E+03  0.13329040979E+04  0.13251882611E+04 0.  0.
        1    1    3    3  502    0  0.44183629511E+03 -0.38322015858E+03  0.24158177307E+03  0.63280230303E+03  0.50400001928E-02 0. -1.
       -1    1    3    3    0  502 -0.44183629511E+03  0.38322015858E+03 -0.38479282930E+03  0.70010179483E+03  0.50400001928E-02 0.  1.
</event>
<event>
 5   0  0.3294720E-03  0.1359969E+04  0.7818609E-02  0.8983315E-01
        2   -1    0    0  501    0  0.00000000000E+00  0.00000000000E+00  0.99517054732E+03  0.99517054733E+03  0.25500000920E-02 0.  1.
       -2   -1    0    0    0  501  0.00000000000E+00  0.00000000000E+00 -0.46462310926E+03  0.46462310927E+03  0.25500000920E-02 0. -1.
    10030    2    1    2    0    0  0.00000000000E+00  0.00000000000E+00  0.53054743806E+03  0.14597936566E+04  0.13599694614E+04 0.  0.
        5    1    3    3  502    0 -0.14666833216E+03 -0.48034331658E+03 -0.22675643059E+03  0.55107338010E+03  0.46999998093E+01 0. -1.
       -5    1    3    3    0  502  0.14666833216E+03  0.48034331658E+03  0.75730386865E+03  0.90872027650E+03  0.46999998093E+01 0.  1.
</event>
<event>
 5   0  0.1823154E-03  0.1307260E+04  0.7818609E-02  0.9023827E-01
        1   -1    0    0  501    0  0.00000000000E+00  0.00000000000E+00  0.12701795098E+04  0.12701795098E+04  0.50400001928E-02 0. -1.
       -1   -1    0    0    0  501  0.00000000000E+00  0.00000000000E+00 -0.33635594765E+03  0.33635594769E+03  0.50400001928E-02 0.  1.
    10030    2    1    2    0    0  0.00000000000E+00  0.00000000000E+00  0.93382356211E+03  0.16065354574E+04  0.13072603914E+04 0.  0.
        2    1    3    3  502    0 -0.76919353089E+02  0.60809377000E+03  0.74590343018E+03  0.96543593633E+03  0.25500000920E-02 0. -1.
       -2    1    3    3    0  502  0.76919353089E+02 -0.60809377000E+03  0.18792013192E+03  0.64109952112E+03  0.25500000920E-02 0.  1.
</event>
<event>
 5   0  0.1823154E-03  0.1302324E+04  0.7818609E-02  0.9027724E-01
        1   -1    0    0  501    0  0.00000000000E+00  0.00000000000E+00  0.11367783285E+04  0.11367783285E+04  0.50400001928E-02 0. -1.
       -1   -1    0    0    0  501  0.00000000000E+00  0.00000000000E+00 -0.37299432738E+03  0.37299432741E+03  0.50400001928E-02 0.  1.
    10030    2    1    2    0    0  0.00000000000E+00  0.00000000000E+00  0.76378400107E+03  0.15097726559E+04  0.13023238737E+04 0.  0.
        2    1    3    3  502    0  0.20363694754E+03  0.61759797106E+03  0.34315349375E+03  0.73528877357E+03  0.25500000920E-02 0. -1.
       -2    1    3    3    0  502 -0.20363694754E+03 -0.61759797106E+03  0.42063050733E+03  0.77448388231E+03  0.25500000920E-02 0.  1.
</event>
<event>
 5   0  0.1873488E-03  0.1312915E+04  0.7818609E-02  0.9019386E-01
        1   -1    0    0  501    0  0.00000000000E+00  0.00000000000E+00  0.15298202624E+04  0.15298202624E+04  0.50400001928E-02 0.  1.
       -1   -1    0    0    0  501  0.00000000000E+00  0.00000000000E+00 -0.28169079366E+03  0.28169079371E+03  0.50400001928E-02 0. -1.
    10030    2    1    2    0    0  0.00000000000E+00  0.00000000000E+00  0.12481294687E+04  0.18115110561E+04  0.13129147481E+04 0.  0.
        3    1    3    3  502    0 -0.32745828746E+03 -0.56491147741E+03  0.71746527003E+03  0.97010841210E+03  0.10100000352E+00 0.  1.
       -3    1    3    3    0  502  0.32745828746E+03  0.56491147741E+03  0.53066419868E+03  0.84140264398E+03  0.10100000352E+00 0. -1.
</event>
<event>
 5   0  0.3262927E-03  0.1294572E+04  0.7818609E-02  0.9033880E-01
       -2   -1    0    0    0  501  0.00000000000E+00  0.00000000000E+00  0.89225725168E+03  0.89225725168E+03  0.25500000920E-02 0.  1.
        2   -1    0    0  501    0  0.00000000000E+00  0.00000000000E+00 -0.46957236499E+03  0.46957236500E+03  0.25500000920E-02 0. -1.
    10030    2    1    2    0    0  0.00000000000E+00  0.00000000000E+00  0.42268488669E+03  0.13618296167E+04  0.12945722813E+04 0.  0.
        3    1    3    3  502    0 -0.45240094862E+03  0.12268936878E+03 -0.25823429565E+03  0.53516750759E+03  0.10100000352E+00 0. -1.
       -3    1    3    3    0  502  0.45240094862E+03 -0.12268936878E+03  0.68091918234E+03  0.82666210909E+03  0.10100000352E+00 0.  1.
</event>
<event>
 5   0  0.1814770E-03  0.1348496E+04  0.7818609E-02  0.8991968E-01
        1   -1    0    0  501    0  0.00000000000E+00  0.00000000000E+00  0.11969824782E+04  0.11969824782E+04  0.50400001928E-02 0.  1.
       -1   -1    0    0    0  501  0.00000000000E+00  0.00000000000E+00 -0.37979689192E+03  0.37979689195E+03  0.50400001928E-02 0. -1.
    10030    2    1    2    0    0  0.00000000000E+00  0.00000000000E+00  0.81718558623E+03  0.15767793701E+04  0.13484957915E+04 0.  0.
        5    1    3    3  502    0 -0.16527288997E+03  0.44027352939E+03  0.97353203083E+03  0.10811764953E+04  0.46999998093E+01 0.  1.
       -5    1    3    3    0  502  0.16527288997E+03 -0.44027352939E+03 -0.15634644460E+03  0.49560287487E+03  0.46999998093E+01 0. -1.
</event>
<event>
 5   0  0.1823154E-03  0.1264052E+04  0.7818609E-02  0.9058569E-01
        1   -1    0    0  501    0  0.00000000000E+00  0.00000000000E+00  0.81472049699E+03  0.81472049701E+03  0.50400001928E-02 0.  1.
       -1   -1    0    0    0  501  0.00000000000E+00  0.00000000000E+00 -0.49029899322E+03  0.49029899325E+03  0.50400001928E-02 0. -1.
    10030    2    1    2    0    0  0.00000000000E+00  0.00000000000E+00  0.32442150377E+03  0.13050194903E+04  0.12640516437E+04 0.  0.
        2    1    3    3  502    0 -0.19114012100E+03 -0.19681993023E+02 -0.45941211002E+03  0.49797732232E+03  0.25500000920E-02 0. -1.
       -2    1    3    3    0  502  0.19114012100E+03  0.19681993023E+02  0.78383361379E+03  0.80704216793E+03  0.25500000920E-02 0.  1.
</event>
<event>
 5   0  0.3262927E-03  0.1271941E+04  0.7818609E-02  0.9052117E-01
        2   -1    0    0  501    0  0.00000000000E+00  0.00000000000E+00  0.61353359608E+03  0.61353359609E+03  0.25500000920E-02 0.  1.
       -2   -1    0    0    0  501  0.00000000000E+00  0.00000000000E+00 -0.65922786821E+03  0.65922786822E+03  0.25500000920E-02 0. -1.
    10030    2    1    2    0    0  0.00000000000E+00  0.00000000000E+00 -0.45694272131E+02  0.12727614643E+04  0.12719409493E+04 0.  0.
        3    1    3    3  502    0  0.31788730324E+02 -0.45305003988E+03  0.42262941758E+03  0.62038737641E+03  0.10100000352E+00 0.  1.
       -3    1    3    3    0  502 -0.31788730324E+02  0.45305003988E+03 -0.46832368971E+03  0.65237408789E+03  0.10100000352E+00 0. -1.
</event>
<event>
 5   0  0.3294720E-03  0.1289450E+04  0.7818609E-02  0.9037974E-01
       -2   -1    0    0    0  501  0.00000000000E+00  0.00000000000E+00  0.50195953230E+03  0.50195953230E+03  0.25500000920E-02 0. -1.
        2   -1    0    0  501    0  0.00000000000E+00  0.00000000000E+00 -0.82809480598E+03  0.82809480598E+03  0.25500000920E-02 0.  1.
    10030    2    1    2    0    0  0.00000000000E+00  0.00000000000E+00 -0.32613527368E+03  0.13300543383E+04  0.12894496214E+04 0.  0.
        5    1    3    3  502    0  0.73192838302E+02 -0.54863604234E+03 -0.50406719268E+03  0.74864178568E+03  0.46999998093E+01 0.  1.
       -5    1    3    3    0  502 -0.73192838302E+02  0.54863604234E+03  0.17793191900E+03  0.58141255261E+03  0.46999998093E+01 0. -1.
</event>
<event>
 5   0  0.3294720E-03  0.1316197E+04  0.7818609E-02  0.9016819E-01
        2   -1    0    0  501    0  0.00000000000E+00  0.00000000000E+00  0.98435142733E+03  0.98435142734E+03  0.25500000920E-02 0. -1.
       -2   -1    0    0    0  501  0.00000000000E+00  0.00000000000E+00 -0.43997853870E+03  0.43997853870E+03  0.25500000920E-02 0.  1.
    10030    2    1    2    0    0  0.00000000000E+00  0.00000000000E+00  0.54437288864E+03  0.14243299660E+04  0.13161967977E+04 0.  0.
        5    1    3    3  502    0  0.44938713870E+03 -0.45042758800E+03  0.45403241120E+03  0.78166574242E+03  0.46999998093E+01 0.  1.
       -5    1    3    3    0  502 -0.44938713870E+03  0.45042758800E+03  0.90340477440E+02  0.64266422362E+03  0.46999998093E+01 0. -1.
</event>
<event>
 5   0  0.3294720E-03  0.1291825E+04  0.7818609E-02  0.9036073E-01
        2   -1    0    0  501    0  0.00000000000E+00  0.00000000000E+00  0.55809862143E+03  0.55809862143E+03  0.25500000920E-02 0. -1.
       -2   -1    0    0    0  501  0.00000000000E+00  0.00000000000E+00 -0.74754365840E+03  0.74754365841E+03  0.25500000920E-02 0.  1.
    10030    2    1    2    0    0  0.00000000000E+00  0.00000000000E+00 -0.18944503698E+03  0.13056422798E+04  0.12918251975E+04 0.  0.
        5    1    3    3  502    0 -0.34797507623E+03 -0.22434713002E+03  0.40632445665E+03  0.58012062754E+03  0.46999998093E+01 0. -1.
       -5    1    3    3    0  502  0.34797507623E+03  0.22434713002E+03 -0.59576949363E+03  0.72552165230E+03  0.46999998093E+01 0.  1.
</event>
<event>
 5   0  0.3299104E-03  0.1323322E+04  0.7818609E-02  0.9011273E-01
       -2   -1    0    0    0  501  0.00000000000E+00  0.00000000000E+00  0.18520588139E+03  0.18520588141E+03  0.25500000920E-02 0.  1.
        2   -1    0    0  501    0  0.00000000000E+00  0.00000000000E+00 -0.23638286255E+04  0.23638286255E+04  0.25500000920E-02 0. -1.
    10030    2    1    2    0    0  0.00000000000E+00  0.00000000000E+00 -0.21786227441E+04  0.25490345069E+04  0.13233215241E+04 0.  0.
        2    1    3    3  502    0  0.36247479534E+03 -0.45535445826E+03 -0.48305268499E+03  0.75635676529E+03  0.25500000920E-02 0.  1.
       -2    1    3    3    0  502 -0.36247479534E+03  0.45535445826E+03 -0.16955700591E+04  0.17926777416E+04  0.25500000920E-02 0. -1.
</event>
<event>
 5   0  0.3259968E-03  0.1261305E+04  0.7818609E-02  0.9060826E-01
        2   -1    0    0  501    0  0.00000000000E+00  0.00000000000E+00  0.15429319314E+04  0.15429319314E+04  0.25500000920E-02 0.  1.
       -2   -1    0    0    0  501  0.00000000000E+00  0.00000000000E+00 -0.25777060682E+03  0.25777060684E+03  0.25500000920E-02 0. -1.
    10030    2    1    2    0    0  0.00000000000E+00  0.00000000000E+00  0.12851613246E+04  0.18007025383E+04  0.12613048803E+04 0.  0.
        4    1    3    3  502    0 -0.92696110192E+02  0.17662530017E+03  0.14967068863E+04  0.15099411187E+04  0.12699999809E+01 0.  1.
       -4    1    3    3    0  502  0.92696110192E+02 -0.17662530017E+03 -0.21154556173E+03  0.29076141954E+03  0.12699999809E+01 0. -1.
</event>
<event>
 5   0  0.3262927E-03  0.1218430E+04  0.7818609E-02  0.9096876E-01
        2   -1    0    0  501    0  0.00000000000E+00  0.00000000000E+00  0.10859036207E+04  0.10859036207E+04  0.25500000920E-02 0. -1.
       -2   -1    0    0    0  501  0.00000000000E+00  0.00000000000E+00 -0.34178249355E+03  0.34178249356E+03  0.25500000920E-02 0.  1.
    10030    2    1    2    0    0  0.00000000000E+00  0.00000000000E+00  0.74412112718E+03  0.14276861143E+04  0.12184298868E+04 0.  0.
        3    1    3    3  502    0  0.86420111052E+02  0.55097369953E+03  0.65932247202E+03  0.86356620214E+03  0.10100000352E+00 0. -1.
       -3    1    3    3    0  502 -0.86420111052E+02 -0.55097369953E+03  0.84798655159E+02  0.56411991215E+03  0.10100000352E+00 0.  1.
</event>
<event>
 5   0  0.3294720E-03  0.1295078E+04  0.7818609E-02  0.9033478E-01
       -2   -1    0    0    0  501  0.00000000000E+00  0.00000000000E+00  0.51280225675E+03  0.51280225676E+03  0.25500000920E-02 0. -1.
        2   -1    0    0  501    0  0.00000000000E+00  0.00000000000E+00 -0.81767677209E+03  0.81767677210E+03  0.25500000920E-02 0.  1.
    10030    2    1    2    0    0  0.00000000000E+00  0.00000000000E+00 -0.30487451534E+03  0.13304790289E+04  0.12950775946E+04 0.  0.
        5    1    3    3  502    0  0.49929718838E+03 -0.37453164557E+03  0.24648568047E+02  0.62466093024E+03  0.46999998093E+01 0. -1.
       -5    1    3    3    0  502 -0.49929718838E+03  0.37453164557E+03 -0.32952308338E+03  0.70581809862E+03  0.46999998093E+01 0.  1.
</event>
<event>
 5   0  0.3336609E-03  0.1268336E+04  0.7818609E-02  0.9055059E-01
        2   -1    0    0  501    0  0.00000000000E+00  0.00000000000E+00  0.89579080933E+03  0.89579080934E+03  0.25500000920E-02 0. -1.
       -2   -1    0    0    0  501  0.00000000000E+00  0.00000000000E+00 -0.44895437140E+03  0.44895437141E+03  0.25500000920E-02 0.  1.
    10030    2    1    2    0    0  0.00000000000E+00  0.00000000000E+00  0.44683643793E+03  0.13447451808E+04  0.12683362326E+04 0.  0.
        1    1    3    3  502    0  0.57364710627E+03 -0.22665851604E+03  0.37968858762E+03  0.72429863249E+03  0.50400001928E-02 0. -1.
       -1    1    3    3    0  502 -0.57364710627E+03  0.22665851604E+03  0.67147850305E+02  0.62044654826E+03  0.50400001928E-02 0.  1.
</event>
<event>
 5   0  0.1254125E-03  0.1326237E+04  0.7818609E-02  0.9009014E-01
       -3   -1    0    0    0  501  0.00000000000E+00  0.00000000000E+00  0.13897973428E+04  0.13897973464E+04  0.10100000352E+00 0. -1.
        3   -1    0    0  501    0  0.00000000000E+00  0.00000000000E+00 -0.31639581250E+03  0.31639582862E+03  0.10100000352E+00 0.  1.
    10030    2    1    2    0    0  0.00000000000E+00  0.00000000000E+00  0.10734015303E+04  0.17061931750E+04  0.13262368964E+04 0.  0.
        2    1    3    3  502    0  0.93444464816E+01  0.13114078643E+03 -0.29946050790E+03  0.32705018016E+03  0.25500000920E-02 0.  1.
       -2    1    3    3    0  502 -0.93444464816E+01 -0.13114078643E+03  0.13728620382E+04  0.13791429949E+04  0.25500000920E-02 0. -1.
</event>
<event>
 5   0  0.3336609E-03  0.1302808E+04  0.7818609E-02  0.9027342E-01
        2   -1    0    0  501    0  0.00000000000E+00  0.00000000000E+00  0.10940397363E+04  0.10940397363E+04  0.25500000920E-02 0.  1.
       -2   -1    0    0    0  501  0.00000000000E+00  0.00000000000E+00 -0.38785336246E+03  0.38785336247E+03  0.25500000920E-02 0. -1.
    10030    2    1    2    0    0  0.00000000000E+00  0.00000000000E+00  0.70618637386E+03  0.14818930988E+04  0.13028077224E+04 0.  0.
        1    1    3    3  502    0 -0.44462476672E+03  0.25097091709E+03  0.81323719167E+03  0.96022513733E+03  0.50400001928E-02 0.  1.
       -1    1    3    3    0  502  0.44462476672E+03 -0.25097091709E+03 -0.10705081781E+03  0.52166796147E+03  0.50400001928E-02 0. -1.
</event>
<event>
 5   0  0.1823154E-03  0.1297312E+04  0.7818609E-02  0.9031700E-01
       -1   -1    0    0    0  501  0.00000000000E+00  0.00000000000E+00  0.22703230299E+03  0.22703230305E+03  0.50400001928E-02 0.  1.
        1   -1    0    0  501    0  0.00000000000E+00  0.00000000000E+00 -0.18532796454E+04  0.18532796454E+04  0.50400001928E-02 0. -1.
    10030    2    1    2    0    0  0.00000000000E+00  0.00000000000E+00 -0.16262473424E+04  0.20803119484E+04  0.12973115987E+04 0.  0.
        2    1    3    3  502    0 -0.57324827210E+02  0.45516710604E+03 -0.15484745660E+04  0.16150036259E+04  0.25500000920E-02 0. -1.
       -2    1    3    3    0  502  0.57324827210E+02 -0.45516710604E+03 -0.77772776393E+02  0.46530832250E+03  0.25500000920E-02 0.  1.
</event>
<event>
 5   0  0.3262927E-03  0.1296872E+04  0.7818609E-02  0.9032049E-01
       -2   -1    0    0    0  501  0.00000000000E+00  0.00000000000E+00  0.35536667252E+03  0.35536667253E+03  0.25500000920E-02 0. -1.
        2   -1    0    0  501    0  0.00000000000E+00  0.00000000000E+00 -0.11831987798E+04  0.11831987798E+04  0.25500000920E-02 0.  1.
    10030    2    1    2    0    0  0.00000000000E+00  0.00000000000E+00 -0.82783210724E+03  0.15385654523E+04  0.12968722579E+04 0.  0.
        3    1    3    3  502    0 -0.57579309060E+03  0.29820774656E+03 -0.41158527180E+03  0.76802863844E+03  0.10100000352E+00 0. -1.
       -3    1    3    3    0  502  0.57579309060E+03 -0.29820774656E+03 -0.41624683545E+03  0.77053681386E+03  0.10100000352E+00 0.  1.
</event>
<event>
 5   0  0.1803959E-03  0.1281098E+04  0.7818609E-02  0.9044690E-01
       -1   -1    0    0    0  501  0.00000000000E+00  0.00000000000E+00  0.21943107829E+03  0.21943107835E+03  0.50400001928E-02 0.  1.
        1   -1    0    0  501    0  0.00000000000E+00  0.00000000000E+00 -0.18698502448E+04  0.18698502448E+04  0.50400001928E-02 0. -1.
    10030    2    1    2    0    0  0.00000000000E+00  0.00000000000E+00 -0.16504191665E+04  0.20892813232E+04  0.12810983655E+04 0.  0.
        4    1    3    3  502    0  0.57900739985E+03 -0.20131698429E+03 -0.52218899333E+03  0.80527079600E+03  0.12699999809E+01 0.  1.
       -4    1    3    3    0  502 -0.57900739985E+03  0.20131698429E+03 -0.11282301732E+04  0.12840105272E+04  0.12699999809E+01 0. -1.
</event>
<event>
 5   0  0.1857986E-03  0.1275688E+04  0.7818609E-02  0.9049070E-01
       -1   -1    0    0    0  501  0.00000000000E+00  0.00000000000E+00  0.81468457285E+03  0.81468457287E+03  0.50400001928E-02 0.  1.
        1   -1    0    0  501    0  0.00000000000E+00  0.00000000000E+00 -0.49938927523E+03  0.49938927525E+03  0.50400001928E-02 0. -1.
    10030    2    1    2    0    0  0.00000000000E+00  0.00000000000E+00  0.31529529763E+03  0.13140738481E+04  0.12756876395E+04 0.  0.
        1    1    3    3  502    0 -0.43942325863E+03  0.32691556408E+03  0.49440717746E+03  0.73783808753E+03  0.50400001928E-02 0.  1.
       -1    1    3    3    0  502  0.43942325863E+03 -0.32691556408E+03 -0.17911187983E+03  0.57623576059E+03  0.50400001928E-02 0. -1.
</event>
<event>
 5   0  0.1814770E-03  0.1198751E+04  0.7818609E-02  0.9113951E-01
        1   -1    0    0  501    0  0.00000000000E+00  0.00000000000E+00  0.17317959411E+04  0.17317959411E+04  0.50400001928E-02 0. -1.
       -1   -1    0    0    0  501  0.00000000000E+00  0.00000000000E+00 -0.20744411886E+03  0.20744411892E+03  0.50400001928E-02 0.  1.
    10030    2    1    2    0    0  0.00000000000E+00  0.00000000000E+00  0.15243518222E+04  0.19392400600E+04  0.11987508216E+04 0.  0.
        5    1    3    3  502    0 -0.20265666026E+03 -0.74733452887E+02 -0.14226264717E+03  0.25868042389E+03  0.46999998093E+01 0.  1.
       -5    1    3    3    0  502  0.20265666026E+03  0.74733452887E+02  0.16666144694E+04  0.16805596361E+04  0.46999998093E+01 0. -1.
</event>
<event>
 5   0  0.3259968E-03  0.1304627E+04  0.7818609E-02  0.9025904E-01
        2   -1    0    0  501    0  0.00000000000E+00  0.00000000000E+00  0.22643207848E+04  0.22643207848E+04  0.25500000920E-02 0.  1.
       -2   -1    0    0    0  501  0.00000000000E+00  0.00000000000E+00 -0.18792087445E+03  0.18792087446E+03  0.25500000920E-02 0. -1.
    10030    2    1    2    0    0  0.00000000000E+00  0.00000000000E+00  0.20763999104E+04  0.24522416593E+04  0.13046273674E+04 0.  0.
        4    1    3    3  502    0  0.19388382025E+03  0.56587895336E+03  0.54912405971E+03  0.81200293809E+03  0.12699999809E+01 0. -1.
       -4    1    3    3    0  502 -0.19388382025E+03 -0.56587895336E+03  0.15272758507E+04  0.16402387212E+04  0.12699999809E+01 0.  1.
</event>
<event>
 5   0  0.1823154E-03  0.1295870E+04  0.7818609E-02  0.9032847E-01
       -1   -1    0    0    0  501  0.00000000000E+00  0.00000000000E+00  0.47242272547E+03  0.47242272549E+03  0.50400001928E-02 0. -1.
        1   -1    0    0  501    0  0.00000000000E+00  0.00000000000E+00 -0.88865267098E+03  0.88865267099E+03  0.50400001928E-02 0.  1.
    10030    2    1    2    0    0  0.00000000000E+00  0.00000000000E+00 -0.41622994551E+03  0.13610753965E+04  0.12958699269E+04 0.  0.
        2    1    3    3  502    0  0.43153043145E+03 -0.40174803915E+03  0.74105502355E+02  0.59423196288E+03  0.25500000920E-02 0. -1.
       -2    1    3    3    0  502 -0.43153043145E+03  0.40174803915E+03 -0.49033544787E+03  0.76684343360E+03  0.25500000920E-02 0.  1.
</event>
<event>
 5   0  0.3299104E-03  0.1303600E+04  0.7818609E-02  0.9026715E-01
       -2   -1    0    0    0  501  0.00000000000E+00  0.00000000000E+00  0.20634108473E+04  0.20634108473E+04  0.25500000920E-02 0.  1.
        2   -1    0    0  501    0  0.00000000000E+00  0.00000000000E+00 -0.20589361337E+03  0.20589361339E+03  0.25500000920E-02 0. -1.
    10030    2    1    2    0    0  0.00000000000E+00  0.00000000000E+00  0.18575172339E+04  0.22693044607E+04  0.13035998086E+04 0.  0.
        2    1    3    3  502    0  0.28268490492E+03  0.20875192035E+03  0.18843839989E+04  0.19168701508E+04  0.25500000920E-02 0.  1.
       -2    1    3    3    0  502 -0.28268490492E+03 -0.20875192035E+03 -0.26866764974E+02  0.35243430989E+03  0.25500000920E-02 0. -1.
</event>
<event>
 5   0  0.3336609E-03  0.1360087E+04  0.7818609E-02  0.8983227E-01
        2   -1    0    0  501    0  0.00000000000E+00  0.00000000000E+00  0.12835627749E+04  0.12835627749E+04  0.25500000920E-02 0.  1.
       -2   -1    0    0    0  501  0.00000000000E+00  0.00000000000E+00 -0.36029355602E+03  0.36029355603E+03  0.25500000920E-02 0. -1.
    10030    2    1    2    0    0  0.00000000000E+00  0.00000000000E+00  0.92326921892E+03  0.16438563310E+04  0.13600873451E+04 0.  0.
        1    1    3    3  502    0  0.15067103036E+03 -0.66034856414E+03  0.38814161845E+03  0.78065094732E+03  0.50400001928E-02 0. -1.
       -1    1    3    3    0  502 -0.15067103036E+03  0.66034856414E+03  0.53512760046E+03  0.86320538365E+03  0.50400001928E-02 0.  1.
</event>
<event>
 5   0  0.3294720E-03  0.1295709E+04  0.7818609E-02  0.9032975E-01
       -2   -1    0    0    0  501  0.00000000000E+00  0.00000000000E+00  0.36666649672E+03  0.36666649673E+03  0.25500000920E-02 0. -1.
        2   -1    0    0  501    0  0.00000000000E+00  0.00000000000E+00 -0.11446784827E+04  0.11446784827E+04  0.25500000920E-02 0.  1.
    10030    2    1    2    0    0  0.00000000000E+00  0.00000000000E+00 -0.77801198600E+03  0.15113449794E+04  0.12957086851E+04 0.  0.
        5    1    3    3  502    0  0.25531201370E+03  0.48017830488E+03 -0.79964292560E+03  0.96706066370E+03  0.46999998093E+01 0.  1.
       -5    1    3    3    0  502 -0.25531201370E+03 -0.48017830488E+03  0.21630939599E+02  0.54428431574E+03  0.46999998093E+01 0. -1.
</event>
<event>
 5   0  0.1823154E-03  0.1285160E+04  0.7818609E-02  0.9041416E-01
        1   -1    0    0  501    0  0.00000000000E+00  0.00000000000E+00  0.49410232755E+03  0.49410232758E+03  0.50400001928E-02 0. -1.
       -1   -1    0    0    0  501  0.00000000000E+00  0.00000000000E+00 -0.83567583217E+03  0.83567583218E+03  0.50400001928E-02 0.  1.
    10030    2    1    2    0    0  0.00000000000E+00  0.00000000000E+00 -0.34157350462E+03  0.13297781598E+04  0.12851604939E+04 0.  0.
        2    1    3    3  502    0 -0.56102466540E+02  0.28215539546E+03 -0.76532202339E+03  0.81760439910E+03  0.25500000920E-02 0.  1.
       -2    1    3    3    0  502  0.56102466540E+02 -0.28215539546E+03  0.42374851877E+03  0.51217376066E+03  0.25500000920E-02 0. -1.
</event>
<event>
 5   0  0.1803959E-03  0.1318779E+04  0.7818609E-02  0.9014805E-01
        1   -1    0    0  501    0  0.00000000000E+00  0.00000000000E+00  0.97749874168E+03  0.97749874170E+03  0.50400001928E-02 0. -1.
       -1   -1    0    0    0  501  0.00000000000E+00  0.00000000000E+00 -0.44480289447E+03  0.44480289450E+03  0.50400001928E-02 0.  1.
    10030    2    1    2    0    0  0.00000000000E+00  0.00000000000E+00  0.53269584722E+03  0.14223016362E+04  0.13187786314E+04 0.  0.
        4    1    3    3  502    0 -0.63130529744E+03 -0.18999945486E+03  0.25329472626E+03  0.70626199294E+03  0.12699999809E+01 0.  1.
       -4    1    3    3    0  502  0.63130529744E+03  0.18999945486E+03  0.27940112096E+03  0.71603964325E+03  0.12699999809E+01 0. -1.
</event>
<event>
 5   0  0.3259968E-03  0.9092581E+03  0.7818609E-02  0.9414082E-01
        2   -1    0    0  501    0  0.00000000000E+00  0.00000000000E+00  0.32595019638E+03  0.32595019639E+03  0.25500000920E-02 0. -1.
       -2   -1    0    0    0  501  0.00000000000E+00  0.00000000000E+00 -0.63410785823E+03  0.63410785824E+03  0.25500000920E-02 0.  1.
    10030    2    1    2    0    0  0.00000000000E+00  0.00000000000E+00 -0.30815766185E+03  0.96005805463E+03  0.90925811721E+03 0.  0.
        4    1    3    3  502    0  0.37316074742E+03 -0.21522217426E+03 -0.30751249750E+03  0.52927788233E+03  0.12699999809E+01 0.  1.
       -4    1    3    3    0  502 -0.37316074742E+03  0.21522217426E+03 -0.64516435239E+00  0.43078017230E+03  0.12699999809E+01 0. -1.
</event>
<event>
 5   0  0.3262927E-03  0.1278363E+04  0.7818609E-02  0.9046902E-01
       -2   -1    0    0    0  501  0.00000000000E+00  0.00000000000E+00  0.36095104742E+03  0.36095104743E+03  0.25500000920E-02 0. -1.
        2   -1    0    0  501    0  0.00000000000E+00  0.00000000000E+00 -0.11318788826E+04  0.11318788826E+04  0.25500000920E-02 0.  1.
    10030    2    1    2    0    0  0.00000000000E+00  0.00000000000E+00 -0.77092783518E+03  0.14928299300E+04  0.12783628096E+04 0.  0.
        3    1    3    3  502    0  0.45323500055E+03  0.19287318013E+03 -0.86114923570E+03  0.99206856905E+03  0.10100000352E+00 0.  1.
       -3    1    3    3    0  502 -0.45323500055E+03 -0.19287318013E+03  0.90221400527E+02  0.50076136098E+03  0.10100000352E+00 0. -1.
</event>
<event>
 5   0  0.1857986E-03  0.1174218E+04  0.7818609E-02  0.9135727E-01
        1   -1    0    0  501    0  0.00000000000E+00  0.00000000000E+00  0.70070773137E+03  0.70070773138E+03  0.50400001928E-02 0.  1.
       -1   -1    0    0    0  501  0.00000000000E+00  0.00000000000E+00 -0.49192730433E+03  0.49192730435E+03  0.50400001928E-02 0. -1.
    10030    2    1    2    0    0  0.00000000000E+00  0.00000000000E+00  0.20878042704E+03  0.11926350357E+04  0.11742184898E+04 0.  0.
        1    1    3    3  502    0  0.40312138293E+03 -0.18790928593E+03  0.49365107897E+03  0.66446078658E+03  0.50400001928E-02 0.  1.
       -1    1    3    3    0  502 -0.40312138293E+03  0.18790928593E+03 -0.28487065193E+03  0.52817424915E+03  0.50400001928E-02 0. -1.
</event>
<event>
 5   0  0.1857986E-03  0.1307554E+04  0.7818609E-02  0.9023596E-01
        1   -1    0    0  501    0  0.00000000000E+00  0.00000000000E+00  0.11208584065E+04  0.11208584065E+04  0.50400001928E-02 0.  1.
       -1   -1    0    0    0  501  0.00000000000E+00  0.00000000000E+00 -0.38133675576E+03  0.38133675579E+03  0.50400001928E-02 0. -1.
    10030    2    1    2    0    0  0.00000000000E+00  0.00000000000E+00  0.73952165072E+03  0.15021951623E+04  0.13075542183E+04 0.  0.
        1    1    3    3  502    0 -0.58465616031E+03  0.23207876094E+03  0.57444197795E+03  0.85186088250E+03  0.50400001928E-02 0.  1.
       -1    1    3    3    0  502  0.58465616031E+03 -0.23207876094E+03  0.16507967277E+03  0.65033427978E+03  0.50400001928E-02 0. -1.
</event>
<event>
 5   0  0.1823154E-03  0.1309387E+04  0.7818609E-02  0.9022154E-01
        1   -1    0    0  501    0  0.00000000000E+00  0.00000000000E+00  0.10581010008E+04  0.10581010008E+04  0.50400001928E-02 0.  1.
       -1   -1    0    0    0  501  0.00000000000E+00  0.00000000000E+00 -0.40508740901E+03  0.40508740904E+03  0.50400001928E-02 0. -1.
    10030    2    1    2    0    0  0.00000000000E+00  0.00000000000E+00  0.65301359182E+03  0.14631884099E+04  0.13093867159E+04 0.  0.
        2    1    3    3  502    0  0.41441673406E+03  0.24305132688E+03 -0.17049102531E+03  0.50978658935E+03  0.25500000920E-02 0. -1.
       -2    1    3    3    0  502 -0.41441673406E+03 -0.24305132688E+03  0.82350461713E+03  0.95340182054E+03  0.25500000920E-02 0.  1.
</event>
<event>
 5   0  0.1823154E-03  0.1326574E+04  0.7818609E-02  0.9008753E-01
       -1   -1    0    0    0  501  0.00000000000E+00  0.00000000000E+00  0.65081220020E+03  0.65081220022E+03  0.50400001928E-02 0. -1.
        1   -1    0    0  501    0  0.00000000000E+00  0.00000000000E+00 -0.67600124785E+03  0.67600124787E+03  0.50400001928E-02 0.  1.
    10030    2    1    2    0    0  0.00000000000E+00  0.00000000000E+00 -0.25189047656E+02  0.13268134481E+04  0.13265743243E+04 0.  0.
        2    1    3    3  502    0 -0.28563171769E+03 -0.21651209784E+03  0.54561618735E+03  0.65280930643E+03  0.25500000920E-02 0. -1.
       -2    1    3    3    0  502  0.28563171769E+03  0.21651209784E+03 -0.57080523500E+03  0.67400414166E+03  0.25500000920E-02 0.  1.
</event>
<event>
 5   0  0.3294720E-03  0.1249449E+04  0.7818609E-02  0.9070642E-01
       -2   -1    0    0    0  501  0.00000000000E+00  0.00000000000E+00  0.34641683094E+03  0.34641683095E+03  0.25500000920E-02 0.  1.
        2   -1    0    0  501    0  0.00000000000E+00  0.00000000000E+00 -0.11266221945E+04  0.11266221945E+04  0.25500000920E-02 0. -1.
    10030    2    1    2    0    0  0.00000000000E+00  0.00000000000E+00 -0.78020536356E+03  0.14730390255E+04  0.12494493032E+04 0.  0.
        5    1    3    3  502    0 -0.17913413341E+03 -0.33759549299E+03  0.19249344744E+03  0.42794342143E+03  0.46999998093E+01 0.  1.
       -5    1    3    3    0  502  0.17913413341E+03  0.33759549299E+03 -0.97269881100E+03  0.10450956040E+04  0.46999998093E+01 0. -1.
</event>
<event>
 5   0  0.1814770E-03  0.1281264E+04  0.7818609E-02  0.9044556E-01
        1   -1    0    0  501    0  0.00000000000E+00  0.00000000000E+00  0.51783601544E+03  0.51783601546E+03  0.50400001928E-02 0.  1.
       -1   -1    0    0    0  501  0.00000000000E+00  0.00000000000E+00 -0.79254697171E+03  0.79254697173E+03  0.50400001928E-02 0. -1.
    10030    2    1    2    0    0  0.00000000000E+00  0.00000000000E+00 -0.27471095628E+03  0.13103829872E+04  0.12812640101E+04 0.  0.
        5    1    3    3  502    0  0.38630255961E+03 -0.13052631384E+03  0.36795899217E+03  0.54925649389E+03  0.46999998093E+01 0.  1.
       -5    1    3    3    0  502 -0.38630255961E+03  0.13052631384E+03 -0.64266994844E+03  0.76112649330E+03  0.46999998093E+01 0. -1.
</event>
<event>
 5   0  0.1873488E-03  0.1268586E+04  0.7818609E-02  0.9054855E-01
        1   -1    0    0  501    0  0.00000000000E+00  0.00000000000E+00  0.66932220517E+03  0.66932220519E+03  0.50400001928E-02 0. -1.
       -1   -1    0    0    0  501  0.00000000000E+00  0.00000000000E+00 -0.60109685828E+03  0.60109685830E+03  0.50400001928E-02 0.  1.
    10030    2    1    2    0    0  0.00000000000E+00  0.00000000000E+00  0.68225346891E+02  0.12704190635E+04  0.12685857870E+04 0.  0.
        3    1    3    3  502    0  0.31858704258E+03  0.51035849492E+03 -0.16708552356E+03  0.62440457991E+03  0.10100000352E+00 0.  1.
       -3    1    3    3    0  502 -0.31858704258E+03 -0.51035849492E+03  0.23531087045E+03  0.64601448357E+03  0.10100000352E+00 0. -1.
</event>
<event>
 5   0  0.1814770E-03  0.1271788E+04  0.7818609E-02  0.9052242E-01
       -1   -1    0    0    0  501  0.00000000000E+00  0.00000000000E+00  0.45465117480E+03  0.45465117482E+03  0.50400001928E-02 0. -1.
        1   -1    0    0  501    0  0.00000000000E+00  0.00000000000E+00 -0.88938729829E+03  0.88938729831E+03  0.50400001928E-02 0.  1.
    10030    2    1    2    0    0  0.00000000000E+00  0.00000000000E+00 -0.43473612350E+03  0.13440384731E+04  0.12717876868E+04 0.  0.
        5    1    3    3  502    0 -0.58935783014E+02  0.53329719080E+03  0.14328089104E+03  0.55536548683E+03  0.46999998093E+01 0. -1.
       -5    1    3    3    0  502  0.58935783014E+02 -0.53329719080E+03 -0.57801701453E+03  0.78867298630E+03  0.46999998093E+01 0.  1.
</event>
<event>
 5   0  0.1803959E-03  0.1301758E+04  0.7818609E-02  0.9028172E-01
        1   -1    0    0  501    0  0.00000000000E+00  0.00000000000E+00  0.81031468798E+03  0.81031468799E+03  0.50400001928E-02 0. -1.
       -1   -1    0    0    0  501  0.00000000000E+00  0.00000000000E+00 -0.52281346220E+03  0.52281346223E+03  0.50400001928E-02 0.  1.
    10030    2    1    2    0    0  0.00000000000E+00  0.00000000000E+00  0.28750122577E+03  0.13331281502E+04  0.13017579307E+04 0.  0.
        4    1    3    3  502    0 -0.51722379937E+03  0.18699429304E+03  0.50021112309E+03  0.74343803025E+03  0.12699999809E+01 0. -1.
       -4    1    3    3    0  502  0.51722379937E+03 -0.18699429304E+03 -0.21270989732E+03  0.58969011996E+03  0.12699999809E+01 0.  1.
</event>
<event>
 5   0  0.3299104E-03  0.1291433E+04  0.7818609E-02  0.9036386E-01
        2   -1    0    0  501    0  0.00000000000E+00  0.00000000000E+00  0.13230483762E+04  0.13230483762E+04  0.25500000920E-02 0.  1.
       -2   -1    0    0    0  501  0.00000000000E+00  0.00000000000E+00 -0.31514333230E+03  0.31514333231E+03  0.25500000920E-02 0. -1.
    10030    2    1    2    0    0  0.00000000000E+00  0.00000000000E+00  0.10079050439E+04  0.16381917085E+04  0.12914331172E+04 0.  0.
        2    1    3    3  502    0 -0.53779911210E+03 -0.27590329136E+03  0.79210010030E+03  0.99637998779E+03  0.25500000920E-02 0.  1.
       -2    1    3    3    0  502  0.53779911210E+03  0.27590329136E+03  0.21580494359E+03  0.64181172072E+03  0.25500000920E-02 0. -1.
</event>
<event>
 5   0  0.3336609E-03  0.8697762E+03  0.7818609E-02  0.9464172E-01
        2   -1    0    0  501    0  0.00000000000E+00  0.00000000000E+00  0.49144218236E+03  0.49144218237E+03  0.25500000920E-02 0.  1.
       -2   -1    0    0    0  501  0.00000000000E+00  0.00000000000E+00 -0.38484214921E+03  0.38484214922E+03  0.25500000920E-02 0. -1.
    10030    2    1    2    0    0  0.00000000000E+00  0.00000000000E+00  0.10660003315E+03  0.87628433158E+03  0.86977621416E+03 0.  0.
        1    1    3    3  502    0  0.27023523101E+03 -0.27534846760E+03  0.25551008337E+03  0.46274103062E+03  0.50400001928E-02 0.  1.
       -1    1    3    3    0  502 -0.27023523101E+03  0.27534846760E+03 -0.14891005022E+03  0.41354330096E+03  0.50400001928E-02 0. -1.
</event>
<event>
 5   0  0.1814770E-03  0.1291413E+04  0.7818609E-02  0.9036403E-01
       -1   -1    0    0    0  501  0.00000000000E+00  0.00000000000E+00  0.50111567762E+03  0.50111567764E+03  0.50400001928E-02 0. -1.
        1   -1    0    0  501    0  0.00000000000E+00  0.00000000000E+00 -0.83201729250E+03  0.83201729252E+03  0.50400001928E-02 0.  1.
    10030    2    1    2    0    0  0.00000000000E+00  0.00000000000E+00 -0.33090161489E+03  0.13331329702E+04  0.12914130390E+04 0.  0.
        5    1    3    3  502    0  0.43630497667E+03  0.27905208446E+03 -0.56350165425E+03  0.76536808325E+03  0.46999998093E+01 0.  1.
       -5    1    3    3    0  502 -0.43630497667E+03 -0.27905208446E+03  0.23260003937E+03  0.56776488692E+03  0.46999998093E+01 0. -1.
</event>
<event>
 5   0  0.1823154E-03  0.1288769E+04  0.7818609E-02  0.9038519E-01
        1   -1    0    0  501    0  0.00000000000E+00  0.00000000000E+00  0.17698367647E+04  0.17698367647E+04  0.50400001928E-02 0. -1.
       -1   -1    0    0    0  501  0.00000000000E+00  0.00000000000E+00 -0.23461551243E+03  0.23461551249E+03  0.50400001928E-02 0.  1.
    10030    2    1    2    0    0  0.00000000000E+00  0.00000000000E+00  0.15352212523E+04  0.20044522772E+04  0.12887686519E+04 0.  0.
        2    1    3    3  502    0 -0.39883703824E+03 -0.69361372492E+02  0.15473680000E+04  0.15994466889E+04  0.25500000920E-02 0. -1.
       -2    1    3    3    0  502  0.39883703824E+03  0.69361372492E+02 -0.12146747767E+02  0.40500558830E+03  0.25500000920E-02 0.  1.
</event>
<event>
 5   0  0.1873488E-03  0.1405062E+04  0.7818609E-02  0.8950163E-01
        1   -1    0    0  501    0  0.00000000000E+00  0.00000000000E+00  0.92993443779E+03  0.92993443781E+03  0.50400001928E-02 0. -1.
       -1   -1    0    0    0  501  0.00000000000E+00  0.00000000000E+00 -0.53073591481E+03  0.53073591483E+03  0.50400001928E-02 0.  1.
    10030    2    1    2    0    0  0.00000000000E+00  0.00000000000E+00  0.39919852298E+03  0.14606703526E+04  0.14050617134E+04 0.  0.
        3    1    3    3  502    0  0.52423304710E+03  0.27794762390E+03  0.59061639126E+03  0.83719943928E+03  0.10100000352E+00 0. -1.
       -3    1    3    3    0  502 -0.52423304710E+03 -0.27794762390E+03 -0.19141786828E+03  0.62347091336E+03  0.10100000352E+00 0.  1.
</event>
<event>
 5   0  0.3299104E-03  0.1300418E+04  0.7818609E-02  0.9029234E-01
        2   -1    0    0  501    0  0.00000000000E+00  0.00000000000E+00  0.94813381002E+03  0.94813381002E+03  0.25500000920E-02 0.  1.
       -2   -1    0    0    0  501  0.00000000000E+00  0.00000000000E+00 -0.44589893687E+03  0.44589893688E+03  0.25500000920E-02 0. -1.
    10030    2    1    2    0    0  0.00000000000E+00  0.00000000000E+00  0.50223487315E+03  0.13940327469E+04  0.13004181757E+04 0.  0.
        2    1    3    3  502    0  0.28512116609E+03 -0.46623588146E+03  0.62875842669E+03  0.83307090674E+03  0.25500000920E-02 0.  1.
       -2    1    3    3    0  502 -0.28512116609E+03  0.46623588146E+03 -0.12652355354E+03  0.56096184016E+03  0.25500000920E-02 0. -1.
</event>
<event>
 5   0  0.3336609E-03  0.1278448E+04  0.7818609E-02  0.9046833E-01
       -2   -1    0    0    0  501  0.00000000000E+00  0.00000000000E+00  0.48878725240E+03  0.48878725240E+03  0.25500000920E-02 0. -1.
        2   -1    0    0  501    0  0.00000000000E+00  0.00000000000E+00 -0.83596136407E+03  0.83596136408E+03  0.25500000920E-02 0.  1.
    10030    2    1    2    0    0  0.00000000000E+00  0.00000000000E+00 -0.34717411168E+03  0.13247486165E+04  0.12784479000E+04 0.  0.
        1    1    3    3  502    0  0.39663299544E+03  0.48345116611E+03 -0.31091795900E+03  0.69836433209E+03  0.50400001928E-02 0.  1.
       -1    1    3    3    0  502 -0.39663299544E+03 -0.48345116611E+03 -0.36256152681E+02  0.62638428438E+03  0.50400001928E-02 0. -1.
</event>
<event>
 5   0  0.1857986E-03  0.1304119E+04  0.7818609E-02  0.9026305E-01
        1   -1    0    0  501    0  0.00000000000E+00  0.00000000000E+00  0.16486193335E+04  0.16486193335E+04  0.50400001928E-02 0.  1.
       -1   -1    0    0    0  501  0.00000000000E+00  0.00000000000E+00 -0.25790151733E+03  0.25790151738E+03  0.50400001928E-02 0. -1.
    10030    2    1    2    0    0  0.00000000000E+00  0.00000000000E+00  0.13907178161E+04  0.19065208508E+04  0.13041187487E+04 0.  0.
        1    1    3    3  502    0 -0.12179121499E+03  0.54544101591E+03  0.11864483842E+04  0.13114872361E+04  0.50400001928E-02 0.  1.
       -1    1    3    3    0  502  0.12179121499E+03 -0.54544101591E+03  0.20426943190E+03  0.59503361479E+03  0.50400001928E-02 0. -1.
</event>
<event>
 5   0  0.3299104E-03  0.1318020E+04  0.7818609E-02  0.9015396E-01
        2   -1    0    0  501    0  0.00000000000E+00  0.00000000000E+00  0.11601337642E+04  0.11601337642E+04  0.25500000920E-02 0.  1.
       -2   -1    0    0    0  501  0.00000000000E+00  0.00000000000E+00 -0.37434857217E+03  0.37434857218E+03  0.25500000920E-02 0. -1.
    10030    2    1    2    0    0  0.00000000000E+00  0.00000000000E+00  0.78578519205E+03  0.15344823364E+04  0.13180203613E+04 0.  0.
        2    1    3    3  502    0  0.41957838053E+03 -0.15207481452E+03 -0.17163618211E+03  0.47815452066E+03  0.25500000920E-02 0. -1.
       -2    1    3    3    0  502 -0.41957838053E+03  0.15207481452E+03  0.95742137416E+03  0.10563278157E+04  0.25500000920E-02 0.  1.
</event>
<event>
 5   0  0.1803959E-03  0.8470555E+03  0.7818609E-02  0.9494298E-01
       -1   -1    0    0    0  501  0.00000000000E+00  0.00000000000E+00  0.45578288919E+03  0.45578288922E+03  0.50400001928E-02 0. -1.
        1   -1    0    0  501    0  0.00000000000E+00  0.00000000000E+00 -0.39355522627E+03  0.39355522631E+03  0.50400001928E-02 0.  1.
    10030    2    1    2    0    0  0.00000000000E+00  0.00000000000E+00  0.62227662916E+02  0.84933811553E+03  0.84705546008E+03 0.  0.
        4    1    3    3  502    0 -0.22692341392E+03 -0.80236078637E+02  0.38053831563E+03  0.45027001528E+03  0.12699999809E+01 0. -1.
       -4    1    3    3    0  502  0.22692341392E+03  0.80236078637E+02 -0.31831065271E+03  0.39906810024E+03  0.12699999809E+01 0.  1.
</event>
<event>
 5   0  0.1254125E-03  0.1313068E+04  0.7818609E-02  0.9019266E-01
        3   -1    0    0  501    0  0.00000000000E+00  0.00000000000E+00  0.17007116960E+04  0.17007116990E+04  0.10100000352E+00 0. -1.
       -3   -1    0    0    0  501  0.00000000000E+00  0.00000000000E+00 -0.25344507077E+03  0.25344509089E+03  0.10100000352E+00 0.  1.
    10030    2    1    2    0    0  0.00000000000E+00  0.00000000000E+00  0.14472666252E+04  0.19541567899E+04  0.13130681913E+04 0.  0.
        1    1    3    3  502    0 -0.31653187794E+03 -0.12106241685E+03  0.15604785459E+04  0.15968537287E+04  0.50400001928E-02 0. -1.
       -1    1    3    3    0  502  0.31653187794E+03  0.12106241685E+03 -0.11321192070E+03  0.35730306119E+03  0.50400001928E-02 0.  1.
</event>
<event>
 5   0  0.1873488E-03  0.1253334E+04  0.7818609E-02  0.9067413E-01
       -1   -1    0    0    0  501  0.00000000000E+00  0.00000000000E+00  0.52873375756E+03  0.52873375759E+03  0.50400001928E-02 0.  1.
        1   -1    0    0  501    0  0.00000000000E+00  0.00000000000E+00 -0.74273928023E+03  0.74273928025E+03  0.50400001928E-02 0. -1.
    10030    2    1    2    0    0  0.00000000000E+00  0.00000000000E+00 -0.21400552267E+03  0.12714730378E+04  0.12533336835E+04 0.  0.
        3    1    3    3  502    0 -0.47313561068E+03 -0.22161519588E+03  0.24404109342E+03  0.57665125216E+03  0.10100000352E+00 0.  1.
       -3    1    3    3    0  502  0.47313561068E+03  0.22161519588E+03 -0.45804661609E+03  0.69482178568E+03  0.10100000352E+00 0. -1.
</event>
<event>
 5   0  0.3294720E-03  0.1266938E+04  0.7818609E-02  0.9056202E-01
        2   -1    0    0  501    0  0.00000000000E+00  0.00000000000E+00  0.62541900486E+03  0.62541900486E+03  0.25500000920E-02 0. -1.
       -2   -1    0    0    0  501  0.00000000000E+00  0.00000000000E+00 -0.64162292541E+03  0.64162292541E+03  0.25500000920E-02 0.  1.
    10030    2    1    2    0    0  0.00000000000E+00  0.00000000000E+00 -0.16203920554E+02  0.12670419303E+04  0.12669383118E+04 0.  0.
        5    1    3    3  502    0  0.54869124524E+03  0.12786134881E+03 -0.29769510699E+03  0.63722450819E+03  0.46999998093E+01 0.  1.
       -5    1    3    3    0  502 -0.54869124524E+03 -0.12786134881E+03  0.28149118643E+03  0.62981742208E+03  0.46999998093E+01 0. -1.
</event>
<event>
 5   0  0.3299104E-03  0.1185170E+04  0.7818609E-02  0.9125937E-01
       -2   -1    0    0    0  501  0.00000000000E+00  0.00000000000E+00  0.72507385093E+03  0.72507385093E+03  0.25500000920E-02 0. -1.
        2   -1    0    0  501    0  0.00000000000E+00  0.00000000000E+00 -0.48430538168E+03  0.48430538169E+03  0.25500000920E-02 0.  1.
    10030    2    1    2    0    0  0.00000000000E+00  0.00000000000E+00  0.24076846924E+03  0.12093792326E+04  0.11851703137E+04 0.  0.
        2    1    3    3  502    0  0.17223580999E+03  0.41601718664E+03 -0.27274055868E+03  0.52642462535E+03  0.25500000920E-02 0. -1.
       -2    1    3    3    0  502 -0.17223580999E+03 -0.41601718664E+03  0.51350902792E+03  0.68295460727E+03  0.25500000920E-02 0.  1.
</event>
<event>
 5   0  0.1814770E-03  0.1327398E+04  0.7818609E-02  0.9008116E-01
        1   -1    0    0  501    0  0.00000000000E+00  0.00000000000E+00  0.27008618262E+03  0.27008618266E+03  0.50400001928E-02 0.  1.
       -1   -1    0    0    0  501  0.00000000000E+00  0.00000000000E+00 -0.16309470805E+04  0.16309470805E+04  0.50400001928E-02 0. -1.
    10030    2    1    2    0    0  0.00000000000E+00  0.00000000000E+00 -0.13608608979E+04  0.19010332631E+04  0.13273978621E+04 0.  0.
        5    1    3    3  502    0  0.31021417743E+03  0.40066687885E+03 -0.12942658400E+04  0.13899327100E+04  0.46999998093E+01 0. -1.
       -5    1    3    3    0  502 -0.31021417743E+03 -0.40066687885E+03 -0.66595057820E+02  0.51110055313E+03  0.46999998093E+01 0.  1.
</event>
<event>
 5   0  0.1814770E-03  0.1306094E+04  0.7818609E-02  0.9024747E-01
       -1   -1    0    0    0  501  0.00000000000E+00  0.00000000000E+00  0.61413737083E+03  0.61413737085E+03  0.50400001928E-02 0. -1.
        1   -1    0    0  501    0  0.00000000000E+00  0.00000000000E+00 -0.69442165673E+03  0.69442165675E+03  0.50400001928E-02 0.  1.
    10030    2    1    2    0    0  0.00000000000E+00  0.00000000000E+00 -0.80284285900E+02  0.13085590276E+04  0.13060938566E+04 0.  0.
        5    1    3    3  502    0  0.37161925202E+03 -0.52938993482E+03 -0.13027654403E+03  0.65980954788E+03  0.46999998093E+01 0.  1.
       -5    1    3    3    0  502 -0.37161925202E+03  0.52938993482E+03  0.49992258126E+02  0.64874947971E+03  0.46999998093E+01 0. -1.
</event>
<event>
 5   0  0.1823154E-03  0.1305529E+04  0.7818609E-02  0.9025192E-01
       -1   -1    0    0    0  501  0.00000000000E+00  0.00000000000E+00  0.35051091667E+03  0.35051091671E+03  0.50400001928E-02 0.  1.
        1   -1    0    0  501    0  0.00000000000E+00  0.00000000000E+00 -0.12156574567E+04  0.12156574568E+04  0.50400001928E-02 0. -1.
    10030    2    1    2    0    0  0.00000000000E+00  0.00000000000E+00 -0.86514654008E+03  0.15661683735E+04  0.13055285666E+04 0.  0.
        2    1    3    3  502    0 -0.42727341075E+03  0.14588537363E+03 -0.99813356858E+03  0.10954979372E+04  0.25500000920E-02 0. -1.
       -2    1    3    3    0  502  0.42727341075E+03 -0.14588537363E+03  0.13298702850E+03  0.47067043622E+03  0.25500000920E-02 0.  1.
</event>
<event>
 5   0  0.1857986E-03  0.1325498E+04  0.7818609E-02  0.9009586E-01
       -1   -1    0    0    0  501  0.00000000000E+00  0.00000000000E+00  0.25507056848E+03  0.25507056853E+03  0.50400001928E-02 0. -1.
        1   -1    0    0  501    0  0.00000000000E+00  0.00000000000E+00 -0.17220182725E+04  0.17220182725E+04  0.50400001928E-02 0.  1.
    10030    2    1    2    0    0  0.00000000000E+00  0.00000000000E+00 -0.14669477040E+04  0.19770888410E+04  0.13254979136E+04 0.  0.
        1    1    3    3  502    0 -0.56470584089E+03  0.21306599284E+03 -0.11418143501E+04  0.12915222856E+04  0.50400001928E-02 0.  1.
       -1    1    3    3    0  502  0.56470584089E+03 -0.21306599284E+03 -0.32513335383E+03  0.68556655537E+03  0.50400001928E-02 0. -1.
</event>
<event>
 5   0  0.3299104E-03  0.1301364E+04  0.7818609E-02  0.9028484E-01
        2   -1    0    0  501    0  0.00000000000E+00  0.00000000000E+00  0.95328842288E+03  0.95328842288E+03  0.25500000920E-02 0. -1.
       -2   -1    0    0    0  501  0.00000000000E+00  0.00000000000E+00 -0.44413353173E+03  0.44413353174E+03  0.25500000920E-02 0.  1.
    10030    2    1    2    0    0  0.00000000000E+00  0.00000000000E+00  0.50915489115E+03  0.13974219546E+04  0.13013644440E+04 0.  0.
        2    1    3    3  502    0 -0.29100021391E+03 -0.49010919410E+03  0.59158915701E+03  0.82150220775E+03  0.25500000920E-02 0. -1.
       -2    1    3    3    0  502  0.29100021391E+03  0.49010919410E+03 -0.82434265860E+02  0.57591974687E+03  0.25500000920E-02 0.  1.
</event>
<event>
 5   0  0.1857986E-03  0.1288008E+04  0.7818609E-02  0.9039129E-01
        1   -1    0    0  501    0  0.00000000000E+00  0.00000000000E+00  0.10311336226E+04  0.10311336226E+04  0.50400001928E-02 0. -1.
       -1   -1    0    0    0  501  0.00000000000E+00  0.00000000000E+00 -0.40221858026E+03  0.40221858029E+03  0.50400001928E-02 0.  1.
    10030    2    1    2    0    0  0.00000000000E+00  0.00000000000E+00  0.62891504230E+03  0.14333522029E+04  0.12880079220E+04 0.  0.
        1    1    3    3  502    0 -0.38822113773E+03  0.51085049835E+03  0.25292600616E+03  0.68967778568E+03  0.50400001928E-02 0. -1.
       -1    1    3    3    0  502  0.38822113773E+03 -0.51085049835E+03  0.37598903614E+03  0.74367441718E+03  0.50400001928E-02 0.  1.
</event>
<event>
 5   0  0.3294720E-03  0.1283672E+04  0.7818609E-02  0.9042614E-01
        2   -1    0    0  501    0  0.00000000000E+00  0.00000000000E+00  0.64692869352E+03  0.64692869353E+03  0.25500000920E-02 0. -1.
       -2   -1    0    0    0  501  0.00000000000E+00  0.00000000000E+00 -0.63678373263E+03  0.63678373263E+03  0.25500000920E-02 0.  1.
    10030    2    1    2    0    0  0.00000000000E+00  0.00000000000E+00  0.10144960897E+02  0.12837124262E+04  0.12836723386E+04 0.  0.
        5    1    3    3  502    0  0.64180571629E+03  0.24972880137E+01  0.83534827238E+01  0.64188214228E+03  0.46999998093E+01 0.  1.
       -5    1    3    3    0  502 -0.64180571629E+03 -0.24972880137E+01  0.17914781735E+01  0.64183028388E+03  0.46999998093E+01 0. -1.
</event>
<event>
 5   0  0.1873488E-03  0.1280157E+04  0.7818609E-02  0.9045451E-01
       -1   -1    0    0    0  501  0.00000000000E+00  0.00000000000E+00  0.49138125321E+03  0.49138125324E+03  0.50400001928E-02 0. -1.
        1   -1    0    0  501    0  0.00000000000E+00  0.00000000000E+00 -0.83377282189E+03  0.83377282190E+03  0.50400001928E-02 0.  1.
    10030    2    1    2    0    0  0.00000000000E+00  0.00000000000E+00 -0.34239156867E+03  0.13251540751E+04  0.12801567625E+04 0.  0.
        3    1    3    3  502    0 -0.20887693970E+03 -0.60464049358E+03 -0.14850210917E+03  0.65671347560E+03  0.10100000352E+00 0.  1.
       -3    1    3    3    0  502  0.20887693970E+03  0.60464049358E+03 -0.19388945951E+03  0.66844059954E+03  0.10100000352E+00 0. -1.
</event>
<event>
 5   0  0.1814770E-03  0.9945285E+03  0.7818609E-02  0.9314566E-01
       -1   -1    0    0    0  501  0.00000000000E+00  0.00000000000E+00  0.25187002384E+03  0.25187002389E+03  0.50400001928E-02 0.  1.
        1   -1    0    0  501    0  0.00000000000E+00  0.00000000000E+00 -0.98174338133E+03  0.98174338135E+03  0.50400001928E-02 0. -1.
    10030    2    1    2    0    0  0.00000000000E+00  0.00000000000E+00 -0.72987335749E+03  0.12336134052E+04  0.99452848909E+03 0.  0.
        5    1    3    3  502    0  0.27329574445E+03  0.29529893815E+03 -0.72733233227E+03  0.83121984960E+03  0.46999998093E+01 0. -1.
       -5    1    3    3    0  502 -0.27329574445E+03 -0.29529893815E+03 -0.25410252180E+01  0.40239355564E+03  0.46999998093E+01 0.  1.
</event>
<event>
 5   0  0.1814770E-03  0.1310675E+04  0.7818609E-02  0.9021142E-01
       -1   -1    0    0    0  501  0.00000000000E+00  0.00000000000E+00  0.24441493591E+03  0.24441493596E+03  0.50400001928E-02 0. -1.
        1   -1    0    0  501    0  0.00000000000E+00  0.00000000000E+00 -0.17571247701E+04  0.17571247701E+04  0.50400001928E-02 0.  1.
    10030    2    1    2    0    0  0.00000000000E+00  0.00000000000E+00 -0.15127098342E+04  0.20015397060E+04  0.13106754566E+04 0.  0.
        5    1    3    3  502    0  0.28995787185E+03 -0.57222782135E+03 -0.55189835129E+03  0.84624708397E+03  0.46999998093E+01 0.  1.
       -5    1    3    3    0  502 -0.28995787185E+03  0.57222782135E+03 -0.96081148289E+03  0.11552926221E+04  0.46999998093E+01 0. -1.
</event>
<event>
 5   0  0.3299104E-03  0.1310248E+04  0.7818609E-02  0.9021477E-01
        2   -1    0    0  501    0  0.00000000000E+00  0.00000000000E+00  0.10026159167E+04  0.10026159167E+04  0.25500000920E-02 0.  1.
       -2   -1    0    0    0  501  0.00000000000E+00  0.00000000000E+00 -0.42806785745E+03  0.42806785746E+03  0.25500000920E-02 0. -1.
    10030    2    1    2    0    0  0.00000000000E+00  0.00000000000E+00  0.57454805926E+03  0.14306837742E+04  0.13102482930E+04 0.  0.
        2    1    3    3  502    0 -0.23430427403E+03 -0.46206920519E+03  0.72510621886E+03  0.89117084325E+03  0.25500000920E-02 0.  1.
       -2    1    3    3    0  502  0.23430427403E+03  0.46206920519E+03 -0.15055815960E+03  0.53951293093E+03  0.25500000920E-02 0. -1.
</event>
<event>
 5   0  0.1814770E-03  0.9938121E+03  0.7818609E-02  0.9315358E-01
        1   -1    0    0  501    0  0.00000000000E+00  0.00000000000E+00  0.58367265255E+03  0.58367265257E+03  0.50400001928E-02 0.  1.
       -1   -1    0    0    0  501  0.00000000000E+00  0.00000000000E+00 -0.42303783808E+03  0.42303783811E+03  0.50400001928E-02 0. -1.
    10030    2    1    2    0    0  0.00000000000E+00  0.00000000000E+00  0.16063481447E+03  0.10067104907E+04  0.99381208910E+03 0.  0.
        5    1    3    3  502    0 -0.16351911288E+03  0.32929413177E+02  0.55444196179E+03  0.57900848484E+03  0.46999998093E+01 0.  1.
       -5    1    3    3    0  502  0.16351911288E+03 -0.32929413177E+02 -0.39380714731E+03  0.42770200584E+03  0.46999998093E+01 0. -1.
</event>
<event>
 5   0  0.1857986E-03  0.1316217E+04  0.7818609E-02  0.9016803E-01
        1   -1    0    0  501    0  0.00000000000E+00  0.00000000000E+00  0.13342574386E+04  0.13342574386E+04  0.50400001928E-02 0. -1.
       -1   -1    0    0    0  501  0.00000000000E+00  0.00000000000E+00 -0.32460505994E+03  0.32460505998E+03  0.50400001928E-02 0.  1.
    10030    2    1    2    0    0  0.00000000000E+00  0.00000000000E+00  0.10096523787E+04  0.16588624986E+04  0.13162168756E+04 0.  0.
        1    1    3    3  502    0  0.64708126833E+03  0.11934535240E+03  0.48942982726E+03  0.82006038608E+03  0.50400001928E-02 0.  1.
       -1    1    3    3    0  502 -0.64708126833E+03 -0.11934535240E+03  0.52022255141E+03  0.83880211253E+03  0.50400001928E-02 0. -1.
</event>
<event>
 5   0  0.3299104E-03  0.1200595E+04  0.7818609E-02  0.9112336E-01
       -2   -1    0    0    0  501  0.00000000000E+00  0.00000000000E+00  0.55166156257E+03  0.55166156257E+03  0.25500000920E-02 0. -1.
        2   -1    0    0  501    0  0.00000000000E+00  0.00000000000E+00 -0.65322095571E+03  0.65322095572E+03  0.25500000920E-02 0.  1.
    10030    2    1    2    0    0  0.00000000000E+00  0.00000000000E+00 -0.10155939315E+03  0.12048825183E+04  0.12005946745E+04 0.  0.
        2    1    3    3  502    0 -0.32145639980E+03  0.34926727534E+03  0.31800385273E+03  0.57135654101E+03  0.25500000920E-02 0. -1.
       -2    1    3    3    0  502  0.32145639980E+03 -0.34926727534E+03 -0.41956324588E+03  0.63352597728E+03  0.25500000920E-02 0.  1.
</event>
<event>
 5   0  0.1823154E-03  0.1319629E+04  0.7818609E-02  0.9014142E-01
        1   -1    0    0  501    0  0.00000000000E+00  0.00000000000E+00  0.17046292223E+04  0.17046292223E+04  0.50400001928E-02 0. -1.
       -1   -1    0    0    0  501  0.00000000000E+00  0.00000000000E+00 -0.25539578764E+03  0.25539578769E+03  0.50400001928E-02 0.  1.
    10030    2    1    2    0    0  0.00000000000E+00  0.00000000000E+00  0.14492334346E+04  0.19600250100E+04  0.13196289220E+04 0.  0.
        2    1    3    3  502    0  0.49055593497E+03  0.43111486312E+03  0.58488958524E+03  0.87669890925E+03  0.25500000920E-02 0.  1.
       -2    1    3    3    0  502 -0.49055593497E+03 -0.43111486312E+03  0.86434384939E+03  0.10833261007E+04  0.25500000920E-02 0. -1.
</event>
<event>
 5   0  0.1823154E-03  0.1294238E+04  0.7818609E-02  0.9034147E-01
       -1   -1    0    0    0  501  0.00000000000E+00  0.00000000000E+00  0.41745610515E+03  0.41745610519E+03  0.50400001928E-02 0. -1.
        1   -1    0    0  501    0  0.00000000000E+00  0.00000000000E+00 -0.10031311958E+04  0.10031311958E+04  0.50400001928E-02 0.  1.
    10030    2    1    2    0    0  0.00000000000E+00  0.00000000000E+00 -0.58567509060E+03  0.14205873010E+04  0.12942383737E+04 0.  0.
        2    1    3    3  502    0  0.45130084610E+02  0.63897770487E+03 -0.19203518201E+03  0.66873518152E+03  0.25500000920E-02 0. -1.
       -2    1    3    3    0  502 -0.45130084610E+02 -0.63897770487E+03 -0.39363990859E+03  0.75185211944E+03  0.25500000920E-02 0.  1.
</event>
<event>
 5   0  0.1803959E-03  0.1308479E+04  0.7818609E-02  0.9022868E-01
       -1   -1    0    0    0  501  0.00000000000E+00  0.00000000000E+00  0.35981529659E+03  0.35981529662E+03  0.50400001928E-02 0. -1.
        1   -1    0    0  501    0  0.00000000000E+00  0.00000000000E+00 -0.11895815060E+04  0.11895815060E+04  0.50400001928E-02 0.  1.
    10030    2    1    2    0    0  0.00000000000E+00  0.00000000000E+00 -0.82976620938E+03  0.15493968026E+04  0.13084794571E+04 0.  0.
        4    1    3    3  502    0  0.21759282304E+03 -0.59453845963E+03 -0.21957365878E+03  0.67010209755E+03  0.12699999809E+01 0.  1.
       -4    1    3    3    0  502 -0.21759282304E+03  0.59453845963E+03 -0.61019255059E+03  0.87929470504E+03  0.12699999809E+01 0. -1.
</event>
<event>
 5   0  0.1803959E-03  0.1213663E+04  0.7818609E-02  0.9100981E-01
       -1   -1    0    0    0  501  0.00000000000E+00  0.00000000000E+00  0.28365795627E+03  0.28365795632E+03  0.50400001928E-02 0. -1.
        1   -1    0    0  501    0  0.00000000000E+00  0.00000000000E+00 -0.12981994113E+04  0.12981994113E+04  0.50400001928E-02 0.  1.
    10030    2    1    2    0    0  0.00000000000E+00  0.00000000000E+00 -0.10145414550E+04  0.15818573676E+04  0.12136632018E+04 0.  0.
        4    1    3    3  502    0  0.15002450211E+02  0.16691541415E+03 -0.12674375997E+04  0.12784699883E+04  0.12699999809E+01 0.  1.
       -4    1    3    3    0  502 -0.15002450211E+02 -0.16691541415E+03  0.25289614471E+03  0.30338737927E+03  0.12699999809E+01 0. -1.
</event>
<event>
 5   0  0.1814770E-03  0.1335670E+04  0.7818609E-02  0.9001747E-01
        1   -1    0    0  501    0  0.00000000000E+00  0.00000000000E+00  0.76238220206E+03  0.76238220208E+03  0.50400001928E-02 0.  1.
       -1   -1    0    0    0  501  0.00000000000E+00  0.00000000000E+00 -0.58501283645E+03  0.58501283647E+03  0.50400001928E-02 0. -1.
    10030    2    1    2    0    0  0.00000000000E+00  0.00000000000E+00  0.17736936561E+03  0.13473950385E+04  0.13356696815E+04 0.  0.
        5    1    3    3  502    0 -0.55492571354E+03  0.96004451537E+02  0.45075314386E+03  0.72135975003E+03  0.46999998093E+01 0.  1.
       -5    1    3    3    0  502  0.55492571354E+03 -0.96004451537E+02 -0.27338377825E+03  0.62603528852E+03  0.46999998093E+01 0. -1.
</event>
<event>
 5   0  0.1873488E-03  0.1321407E+04  0.7818609E-02  0.9012759E-01
       -1   -1    0    0    0  501  0.00000000000E+00  0.00000000000E+00  0.40145470287E+03  0.40145470290E+03  0.50400001928E-02 0.  1.
        1   -1    0    0  501    0  0.00000000000E+00  0.00000000000E+00 -0.10873689575E+04  0.10873689576E+04  0.50400001928E-02 0. -1.
    10030    2    1    2    0    0  0.00000000000E+00  0.00000000000E+00 -0.68591425468E+03  0.14888236605E+04  0.13214074039E+04 0.  0.
        3    1    3    3  502    0  0.45729404543E+02  0.54978351270E+03 -0.75257914494E+03  0.93312832391E+03  0.10100000352E+00 0. -1.
       -3    1    3    3    0  502 -0.45729404543E+02 -0.54978351270E+03  0.66664890266E+02  0.55569533655E+03  0.10100000352E+00 0.  1.
</event>
<event>
 5   0  0.3294720E-03  0.1294994E+04  0.7818609E-02  0.9033544E-01
        2   -1    0    0  501    0  0.00000000000E+00  0.00000000000E+00  0.67493355462E+03  0.67493355463E+03  0.25500000920E-02 0.  1.
       -2   -1    0    0    0  501  0.00000000000E+00  0.00000000000E+00 -0.62117608638E+03  0.62117608638E+03  0.25500000920E-02 0. -1.
    10030    2    1    2    0    0  0.00000000000E+00  0.00000000000E+00  0.53757468249E+02  0.12961096410E+04  0.12949943383E+04 0.  0.
        5    1    3    3  502    0 -0.21993506176E+03  0.52154957164E+03 -0.28778845400E+03  0.63500367820E+03  0.46999998093E+01 0. -1.
       -5    1    3    3    0  502  0.21993506176E+03 -0.52154957164E+03  0.34154592224E+03  0.66110596282E+03  0.46999998093E+01 0.  1.
</event>
<event>
 5   0  0.1814770E-03  0.1234671E+04  0.7818609E-02  0.9083039E-01
        1   -1    0    0  501    0  0.00000000000E+00  0.00000000000E+00  0.78833616736E+03  0.78833616738E+03  0.50400001928E-02 0. -1.
       -1   -1    0    0    0  501  0.00000000000E+00  0.00000000000E+00 -0.48342714592E+03  0.48342714594E+03  0.50400001928E-02 0.  1.
    10030    2    1    2    0    0  0.00000000000E+00  0.00000000000E+00  0.30490902144E+03  0.12717633133E+04  0.12346709739E+04 0.  0.
        5    1    3    3  502    0 -0.10913517610E+03  0.15361043637E+03 -0.45306175084E+03  0.49070733936E+03  0.46999998093E+01 0.  1.
       -5    1    3    3    0  502  0.10913517610E+03 -0.15361043637E+03  0.75797077229E+03  0.78105597396E+03  0.46999998093E+01 0. -1.
</event>
<event>
 5   0  0.3336609E-03  0.1316083E+04  0.7818609E-02  0.9016907E-01
       -2   -1    0    0    0  501  0.00000000000E+00  0.00000000000E+00  0.42470423646E+03  0.42470423646E+03  0.25500000920E-02 0.  1.
        2   -1    0    0  501    0  0.00000000000E+00  0.00000000000E+00 -0.10195771859E+04  0.10195771859E+04  0.25500000920E-02 0. -1.
    10030    2    1    2    0    0  0.00000000000E+00  0.00000000000E+00 -0.59487294947E+03  0.14442814224E+04  0.13160832045E+04 0.  0.
        1    1    3    3  502    0  0.24457112535E+03 -0.58285663981E+03 -0.96632078596E+02  0.63943307434E+03  0.50400001928E-02 0.  1.
       -1    1    3    3    0  502 -0.24457112535E+03  0.58285663981E+03 -0.49824087087E+03  0.80484834805E+03  0.50400001928E-02 0. -1.
</event>
<event>
 5   0  0.1873488E-03  0.1397254E+04  0.7818609E-02  0.8955809E-01
       -1   -1    0    0    0  501  0.00000000000E+00  0.00000000000E+00  0.30137420845E+03  0.30137420849E+03  0.50400001928E-02 0. -1.
        1   -1    0    0  501    0  0.00000000000E+00  0.00000000000E+00 -0.16195130306E+04  0.16195130306E+04  0.50400001928E-02 0.  1.
    10030    2    1    2    0    0  0.00000000000E+00  0.00000000000E+00 -0.13181388222E+04  0.19208872391E+04  0.13972536745E+04 0.  0.
        3    1    3    3  502    0  0.40415065354E+03 -0.48068142255E+03 -0.23827842119E+03  0.67169114699E+03  0.10100000352E+00 0. -1.
       -3    1    3    3    0  502 -0.40415065354E+03  0.48068142255E+03 -0.10798604010E+04  0.12491960921E+04  0.10100000352E+00 0.  1.
</event>
<event>
 5   0  0.1823154E-03  0.1340140E+04  0.7818609E-02  0.8998325E-01
       -1   -1    0    0    0  501  0.00000000000E+00  0.00000000000E+00  0.36474601271E+03  0.36474601275E+03  0.50400001928E-02 0.  1.
        1   -1    0    0  501    0  0.00000000000E+00  0.00000000000E+00 -0.12309772596E+04  0.12309772596E+04  0.50400001928E-02 0. -1.
    10030    2    1    2    0    0  0.00000000000E+00  0.00000000000E+00 -0.86623124692E+03  0.15957232724E+04  0.13401403616E+04 0.  0.
        2    1    3    3  502    0  0.43158133530E+03  0.26229430955E+03 -0.95748036042E+03  0.10825106902E+04  0.25500000920E-02 0. -1.
       -2    1    3    3    0  502 -0.43158133530E+03 -0.26229430955E+03  0.91249113495E+02  0.51321258220E+03  0.25500000920E-02 0.  1.
</event>
<event>
 5   0  0.1254125E-03  0.1413785E+04  0.7818609E-02  0.8943900E-01
        3   -1    0    0  501    0  0.00000000000E+00  0.00000000000E+00  0.45538160207E+03  0.45538161327E+03  0.10100000352E+00 0.  1.
       -3   -1    0    0    0  501  0.00000000000E+00  0.00000000000E+00 -0.10973146203E+04  0.10973146250E+04  0.10100000352E+00 0. -1.
    10030    2    1    2    0    0  0.00000000000E+00  0.00000000000E+00 -0.64193301826E+03  0.15526962383E+04  0.14137848522E+04 0.  0.
        3    1    3    3  502    0 -0.35073301893E+03  0.52641729360E+03 -0.66751437650E+03  0.91962180847E+03  0.10100000352E+00 0.  1.
       -3    1    3    3    0  502  0.35073301893E+03 -0.52641729360E+03  0.25581358241E+02  0.63307442979E+03  0.10100000352E+00 0. -1.
</event>
<event>
 5   0  0.3336609E-03  0.1239685E+04  0.7818609E-02  0.9078812E-01
       -2   -1    0    0    0  501  0.00000000000E+00  0.00000000000E+00  0.20263212527E+03  0.20263212529E+03  0.25500000920E-02 0.  1.
        2   -1    0    0  501    0  0.00000000000E+00  0.00000000000E+00 -0.18960702650E+04  0.18960702650E+04  0.25500000920E-02 0. -1.
    10030    2    1    2    0    0  0.00000000000E+00  0.00000000000E+00 -0.16934381397E+04  0.20987023902E+04  0.12396850366E+04 0.  0.
        1    1    3    3  502    0  0.28125629338E+02 -0.60598384870E+03 -0.10621759810E+04  0.12232028820E+04  0.50400001928E-02 0. -1.
       -1    1    3    3    0  502 -0.28125629338E+02  0.60598384870E+03 -0.63126215870E+03  0.87549950825E+03  0.50400001928E-02 0.  1.
</event>
<event>
 5   0  0.3262927E-03  0.1310970E+04  0.7818609E-02  0.9020911E-01
       -2   -1    0    0    0  501  0.00000000000E+00  0.00000000000E+00  0.30662906335E+03  0.30662906336E+03  0.25500000920E-02 0. -1.
        2   -1    0    0  501    0  0.00000000000E+00  0.00000000000E+00 -0.14012386329E+04  0.14012386329E+04  0.25500000920E-02 0.  1.
    10030    2    1    2    0    0  0.00000000000E+00  0.00000000000E+00 -0.10946095696E+04  0.17078676963E+04  0.13109698540E+04 0.  0.
        3    1    3    3  502    0  0.62794578860E+03  0.89569203753E+02 -0.76264103974E+03  0.99194753963E+03  0.10100000352E+00 0.  1.
       -3    1    3    3    0  502 -0.62794578860E+03 -0.89569203753E+02 -0.33196852982E+03  0.71592015663E+03  0.10100000352E+00 0. -1.
</event>
<event>
 5   0  0.3336609E-03  0.1300281E+04  0.7818609E-02  0.9029343E-01
        2   -1    0    0  501    0  0.00000000000E+00  0.00000000000E+00  0.93935342696E+03  0.93935342696E+03  0.25500000920E-02 0. -1.
       -2   -1    0    0    0  501  0.00000000000E+00  0.00000000000E+00 -0.44997169833E+03  0.44997169834E+03  0.25500000920E-02 0.  1.
    10030    2    1    2    0    0  0.00000000000E+00  0.00000000000E+00  0.48938172863E+03  0.13893251253E+04  0.13002806726E+04 0.  0.
        1    1    3    3  502    0 -0.52457387279E+03  0.31620546442E+03  0.47760699933E+03  0.77670592219E+03  0.50400001928E-02 0. -1.
       -1    1    3    3    0  502  0.52457387279E+03 -0.31620546442E+03  0.11774729301E+02  0.61261920310E+03  0.50400001928E-02 0.  1.
</event>
<event>
 5   0  0.3262927E-03  0.1219696E+04  0.7818609E-02  0.9095789E-01
       -2   -1    0    0    0  501  0.00000000000E+00  0.00000000000E+00  0.28966075691E+03  0.28966075692E+03  0.25500000920E-02 0.  1.
        2   -1    0    0  501    0  0.00000000000E+00  0.00000000000E+00 -0.12839670953E+04  0.12839670953E+04  0.25500000920E-02 0. -1.
    10030    2    1    2    0    0  0.00000000000E+00  0.00000000000E+00 -0.99430633841E+03  0.15736278522E+04  0.12196964880E+04 0.  0.
        3    1    3    3  502    0 -0.44991287550E+03  0.10577339109E+03 -0.10104846981E+04  0.11111655777E+04  0.10100000352E+00 0. -1.
       -3    1    3    3    0  502  0.44991287550E+03 -0.10577339109E+03  0.16178359727E+02  0.46246227449E+03  0.10100000352E+00 0.  1.
</event>
<event>
 5   0  0.3299104E-03  0.1312476E+04  0.7818609E-02  0.9019730E-01
        2   -1    0    0  501    0  0.00000000000E+00  0.00000000000E+00  0.11959561171E+04  0.11959561171E+04  0.25500000920E-02 0. -1.
       -2   -1    0    0    0  501  0.00000000000E+00  0.00000000000E+00 -0.36008714068E+03  0.36008714069E+03  0.25500000920E-02 0.  1.
    10030    2    1    2    0    0  0.00000000000E+00  0.00000000000E+00  0.83586897640E+03  0.15560432578E+04  0.13124761614E+04 0.  0.
        2    1    3    3  502    0  0.21194355324E+03 -0.16752875597E+03 -0.29109928880E+03  0.39714575383E+03  0.25500000920E-02 0.  1.
       -2    1    3    3    0  502 -0.21194355324E+03  0.16752875597E+03  0.11269682652E+04  0.11588975039E+04  0.25500000920E-02 0. -1.
</event>
<event>
 5   0  0.3336609E-03  0.1307067E+04  0.7818609E-02  0.9023979E-01
       -2   -1    0    0    0  501  0.00000000000E+00  0.00000000000E+00  0.18841035852E+03  0.18841035854E+03  0.25500000920E-02 0. -1.
        2   -1    0    0  501    0  0.00000000000E+00  0.00000000000E+00 -0.22668934458E+04  0.22668934458E+04  0.25500000920E-02 0.  1.
    10030    2    1    2    0    0  0.00000000000E+00  0.00000000000E+00 -0.20784830873E+04  0.24553038043E+04  0.13070672621E+04 0.  0.
        1    1    3    3  502    0  0.22771420777E+03 -0.60095314896E+03 -0.81612266494E+03  0.10387755542E+04  0.50400001928E-02 0.  1.
       -1    1    3    3    0  502 -0.22771420777E+03  0.60095314896E+03 -0.12623604223E+04  0.14165282502E+04  0.50400001928E-02 0. -1.
</event>
<event>
 5   0  0.1814770E-03  0.1307559E+04  0.7818609E-02  0.9023592E-01
        1   -1    0    0  501    0  0.00000000000E+00  0.00000000000E+00  0.79109787009E+03  0.79109787011E+03  0.50400001928E-02 0. -1.
       -1   -1    0    0    0  501  0.00000000000E+00  0.00000000000E+00 -0.54029682648E+03  0.54029682650E+03  0.50400001928E-02 0.  1.
    10030    2    1    2    0    0  0.00000000000E+00  0.00000000000E+00  0.25080104361E+03  0.13313946966E+04  0.13075590521E+04 0.  0.
        5    1    3    3  502    0  0.50909003917E+03  0.24880100787E+03 -0.20662800405E+03  0.60315158257E+03  0.46999998093E+01 0.  1.
       -5    1    3    3    0  502 -0.50909003917E+03 -0.24880100787E+03  0.45742904766E+03  0.72824311404E+03  0.46999998093E+01 0. -1.
</event>
<event>
 5   0  0.1814770E-03  0.1419767E+04  0.7818609E-02  0.8939633E-01
        1   -1    0    0  501    0  0.00000000000E+00  0.00000000000E+00  0.13945691210E+04  0.13945691211E+04  0.50400001928E-02 0.  1.
       -1   -1    0    0    0  501  0.00000000000E+00  0.00000000000E+00 -0.36135520130E+03  0.36135520134E+03  0.50400001928E-02 0. -1.
    10030    2    1    2    0    0  0.00000000000E+00  0.00000000000E+00  0.10332139197E+04  0.17559243224E+04  0.14197673126E+04 0.  0.
        5    1    3    3  502    0 -0.17453151263E+03 -0.44127729956E+03 -0.13633896491E+03  0.49375834915E+03  0.46999998093E+01 0. -1.
       -5    1    3    3    0  502  0.17453151263E+03  0.44127729956E+03  0.11695528847E+04  0.12621659732E+04  0.46999998093E+01 0.  1.
</event>
<event>
 5   0  0.3299104E-03  0.1275349E+04  0.7818609E-02  0.9049346E-01
        2   -1    0    0  501    0  0.00000000000E+00  0.00000000000E+00  0.10245269651E+04  0.10245269651E+04  0.25500000920E-02 0.  1.
       -2   -1    0    0    0  501  0.00000000000E+00  0.00000000000E+00 -0.39689395277E+03  0.39689395277E+03  0.25500000920E-02 0. -1.
    10030    2    1    2    0    0  0.00000000000E+00  0.00000000000E+00  0.62763301237E+03  0.14214209179E+04  0.12753486691E+04 0.  0.
        2    1    3    3  502    0 -0.36786990629E+03 -0.42905829135E+03 -0.15319275325E+02  0.56537948808E+03  0.25500000920E-02 0. -1.
       -2    1    3    3    0  502  0.36786990629E+03  0.42905829135E+03  0.64295228769E+03  0.85604142983E+03  0.25500000920E-02 0.  1.
</event>
<event>
 5   0  0.1873488E-03  0.1338327E+04  0.7818609E-02  0.8999712E-01
        1   -1    0    0  501    0  0.00000000000E+00  0.00000000000E+00  0.10365138136E+04  0.10365138136E+04  0.50400001928E-02 0. -1.
       -1   -1    0    0    0  501  0.00000000000E+00  0.00000000000E+00 -0.43200581377E+03  0.43200581380E+03  0.50400001928E-02 0.  1.
    10030    2    1    2    0    0  0.00000000000E+00  0.00000000000E+00  0.60450799981E+03  0.14685196274E+04  0.13383273046E+04 0.  0.
        3    1    3    3  502    0 -0.32495155968E+03 -0.57616597643E+03  0.19132972305E+03  0.68859844732E+03  0.10100000352E+00 0.  1.
       -3    1    3    3    0  502  0.32495155968E+03  0.57616597643E+03  0.41317827676E+03  0.77992118007E+03  0.10100000352E+00 0. -1.
</event>
<event>
 5   0  0.1814770E-03  0.1301012E+04  0.7818609E-02  0.9028763E-01
       -1   -1    0    0    0  501  0.00000000000E+00  0.00000000000E+00  0.36038089900E+03  0.36038089903E+03  0.50400001928E-02 0.  1.
        1   -1    0    0  501    0  0.00000000000E+00  0.00000000000E+00 -0.11741968485E+04  0.11741968485E+04  0.50400001928E-02 0. -1.
    10030    2    1    2    0    0  0.00000000000E+00  0.00000000000E+00 -0.81381594951E+03  0.15345777476E+04  0.13010120920E+04 0.  0.
        5    1    3    3  502    0  0.27957160865E+03  0.37449297140E+03 -0.94061031635E+03  0.10503214399E+04  0.46999998093E+01 0. -1.
       -5    1    3    3    0  502 -0.27957160865E+03 -0.37449297140E+03  0.12679436684E+03  0.48425630760E+03  0.46999998093E+01 0.  1.
</event>
<event>
 5   0  0.3294720E-03  0.1238032E+04  0.7818609E-02  0.9080203E-01
       -2   -1    0    0    0  501  0.00000000000E+00  0.00000000000E+00  0.27057405536E+03  0.27057405537E+03  0.25500000920E-02 0. -1.
        2   -1    0    0  501    0  0.00000000000E+00  0.00000000000E+00 -0.14161776555E+04  0.14161776555E+04  0.25500000920E-02 0.  1.
    10030    2    1    2    0    0  0.00000000000E+00  0.00000000000E+00 -0.11456036002E+04  0.16867517109E+04  0.12380321989E+04 0.  0.
        5    1    3    3  502    0 -0.21668679712E+03 -0.24403632509E+03  0.14381351191E+03  0.35666694859E+03  0.46999998093E+01 0. -1.
       -5    1    3    3    0  502  0.21668679712E+03  0.24403632509E+03 -0.12894171121E+04  0.13300847623E+04  0.46999998093E+01 0.  1.
</event>
<event>
 5   0  0.3262927E-03  0.1238039E+04  0.7818609E-02  0.9080198E-01
       -2   -1    0    0    0  501  0.00000000000E+00  0.00000000000E+00  0.70975375057E+03  0.70975375058E+03  0.25500000920E-02 0. -1.
        2   -1    0    0  501    0  0.00000000000E+00  0.00000000000E+00 -0.53988440928E+03  0.53988440929E+03  0.25500000920E-02 0.  1.
    10030    2    1    2    0    0  0.00000000000E+00  0.00000000000E+00  0.16986934129E+03  0.12496381599E+04  0.12380387464E+04 0.  0.
        3    1    3    3  502    0 -0.19300617430E+03  0.28454832666E+03 -0.43463642892E+03  0.55419127480E+03  0.10100000352E+00 0.  1.
       -3    1    3    3    0  502  0.19300617430E+03 -0.28454832666E+03  0.60450577021E+03  0.69544688506E+03  0.10100000352E+00 0. -1.
</event>
<event>
 5   0  0.1814770E-03  0.1322722E+04  0.7818609E-02  0.9011738E-01
       -1   -1    0    0    0  501  0.00000000000E+00  0.00000000000E+00  0.51978814502E+03  0.51978814504E+03  0.50400001928E-02 0.  1.
        1   -1    0    0  501    0  0.00000000000E+00  0.00000000000E+00 -0.84149403231E+03  0.84149403232E+03  0.50400001928E-02 0. -1.
    10030    2    1    2    0    0  0.00000000000E+00  0.00000000000E+00 -0.32170588729E+03  0.13612821774E+04  0.13227223777E+04 0.  0.
        5    1    3    3  502    0  0.60894374235E+03  0.25792303100E+03 -0.15436350208E+03  0.67910746723E+03  0.46999998093E+01 0. -1.
       -5    1    3    3    0  502 -0.60894374235E+03 -0.25792303100E+03 -0.16734238521E+03  0.68217471014E+03  0.46999998093E+01 0.  1.
</event>
<event>
 5   0  0.3299104E-03  0.1266644E+04  0.7818609E-02  0.9056444E-01
       -2   -1    0    0    0  501  0.00000000000E+00  0.00000000000E+00  0.23651423905E+03  0.23651423906E+03  0.25500000920E-02 0. -1.
        2   -1    0    0  501    0  0.00000000000E+00  0.00000000000E+00 -0.16958660289E+04  0.16958660289E+04  0.25500000920E-02 0.  1.
    10030    2    1    2    0    0  0.00000000000E+00  0.00000000000E+00 -0.14593517898E+04  0.19323802680E+04  0.12666435384E+04 0.  0.
        2    1    3    3  502    0 -0.42959427702E+03 -0.38001301170E+03 -0.11394195130E+04  0.12756323759E+04  0.25500000920E-02 0.  1.
       -2    1    3    3    0  502  0.42959427702E+03  0.38001301170E+03 -0.31993227684E+03  0.65674789203E+03  0.25500000920E-02 0. -1.
</event>
<event>
 5   0  0.1857986E-03  0.1314391E+04  0.7818609E-02  0.9018230E-01
       -1   -1    0    0    0  501  0.00000000000E+00  0.00000000000E+00  0.53464343521E+03  0.53464343524E+03  0.50400001928E-02 0. -1.
        1   -1    0    0  501    0  0.00000000000E+00  0.00000000000E+00 -0.80783926173E+03  0.80783926175E+03  0.50400001928E-02 0.  1.
    10030    2    1    2    0    0  0.00000000000E+00  0.00000000000E+00 -0.27319582652E+03  0.13424826970E+04  0.13143910499E+04 0.  0.
        1    1    3    3  502    0 -0.19856012244E+03 -0.34514833703E+03  0.39740742428E+03  0.56257102456E+03  0.50400001928E-02 0. -1.
       -1    1    3    3    0  502  0.19856012244E+03  0.34514833703E+03 -0.67060325080E+03  0.77991167242E+03  0.50400001928E-02 0.  1.
</event>
<event>
 5   0  0.1254125E-03  0.1283252E+04  0.7818609E-02  0.9042953E-01
       -3   -1    0    0    0  501  0.00000000000E+00  0.00000000000E+00  0.78299843739E+03  0.78299844390E+03  0.10100000352E+00 0. -1.
        3   -1    0    0  501    0  0.00000000000E+00  0.00000000000E+00 -0.52577891472E+03  0.52577892443E+03  0.10100000352E+00 0.  1.
    10030    2    1    2    0    0  0.00000000000E+00  0.00000000000E+00  0.25721952267E+03  0.13087773683E+04  0.12832522422E+04 0.  0.
        4    1    3    3  502    0  0.48369547319E+03  0.20387400170E+03  0.50494337368E+03  0.72835111236E+03  0.12699999809E+01 0. -1.
       -4    1    3    3    0  502 -0.48369547319E+03 -0.20387400170E+03 -0.24772385102E+03  0.58042625597E+03  0.12699999809E+01 0.  1.
</event>
<event>
 5   0  0.3262927E-03  0.1265524E+04  0.7818609E-02  0.9057361E-01
        2   -1    0    0  501    0  0.00000000000E+00  0.00000000000E+00  0.98476163543E+03  0.98476163543E+03  0.25500000920E-02 0.  1.
       -2   -1    0    0    0  501  0.00000000000E+00  0.00000000000E+00 -0.40658310742E+03  0.40658310743E+03  0.25500000920E-02 0. -1.
    10030    2    1    2    0    0  0.00000000000E+00  0.00000000000E+00  0.57817852801E+03  0.13913447429E+04  0.12655235214E+04 0.  0.
        3    1    3    3  502    0  0.26260620519E+03  0.43568075525E+03 -0.12463211009E+03  0.52374890221E+03  0.10100000352E+00 0. -1.
       -3    1    3    3    0  502 -0.26260620519E+03 -0.43568075525E+03  0.70281063810E+03  0.86759584065E+03  0.10100000352E+00 0.  1.
</event>
<event>
 5   0  0.1823154E-03  0.1301927E+04  0.7818609E-02  0.9028039E-01
       -1   -1    0    0    0  501  0.00000000000E+00  0.00000000000E+00  0.33371666523E+03  0.33371666527E+03  0.50400001928E-02 0.  1.
        1   -1    0    0  501    0  0.00000000000E+00  0.00000000000E+00 -0.12697992175E+04  0.12697992175E+04  0.50400001928E-02 0. -1.
    10030    2    1    2    0    0  0.00000000000E+00  0.00000000000E+00 -0.93608255224E+03  0.16035158827E+04  0.13019265116E+04 0.  0.
        2    1    3    3  502    0 -0.38761220561E+03 -0.12728116301E+03 -0.10928033507E+04  0.11664745517E+04  0.25500000920E-02 0. -1.
       -2    1    3    3    0  502  0.38761220561E+03  0.12728116301E+03  0.15672079845E+03  0.43704133108E+03  0.25500000920E-02 0.  1.
</event>
<event>
 5   0  0.1873488E-03  0.1331981E+04  0.7818609E-02  0.9004581E-01
        1   -1    0    0  501    0  0.00000000000E+00  0.00000000000E+00  0.68587694177E+03  0.68587694179E+03  0.50400001928E-02 0. -1.
       -1   -1    0    0    0  501  0.00000000000E+00  0.00000000000E+00 -0.64668082203E+03  0.64668082205E+03  0.50400001928E-02 0.  1.
    10030    2    1    2    0    0  0.00000000000E+00  0.00000000000E+00  0.39196119737E+02  0.13325577638E+04  0.13319811779E+04 0.  0.
        3    1    3    3  502    0 -0.53912133828E+03  0.14276804023E+03 -0.34457726740E+03  0.65556695624E+03  0.10100000352E+00 0.  1.
       -3    1    3    3    0  502  0.53912133828E+03 -0.14276804023E+03  0.38377338713E+03  0.67699080760E+03  0.10100000352E+00 0. -1.
</event>
<event>
 5   0  0.1814770E-03  0.1295145E+04  0.7818609E-02  0.9033424E-01
        1   -1    0    0  501    0  0.00000000000E+00  0.00000000000E+00  0.25813316071E+03  0.25813316076E+03  0.50400001928E-02 0.  1.
       -1   -1    0    0    0  501  0.00000000000E+00  0.00000000000E+00 -0.16245495953E+04  0.16245495953E+04  0.50400001928E-02 0. -1.
    10030    2    1    2    0    0  0.00000000000E+00  0.00000000000E+00 -0.13664164346E+04  0.18826827561E+04  0.12951449677E+04 0.  0.
        5    1    3    3  502    0 -0.84090438625E+02  0.63732008339E+03 -0.56986162842E+03  0.85907651353E+03  0.46999998093E+01 0.  1.
       -5    1    3    3    0  502  0.84090438625E+02 -0.63732008339E+03 -0.79655480621E+03  0.10236062426E+04  0.46999998093E+01 0. -1.
</event>
<event>
 5   0  0.1823154E-03  0.1326331E+04  0.7818609E-02  0.9008941E-01
       -1   -1    0    0    0  501  0.00000000000E+00  0.00000000000E+00  0.37133580332E+03  0.37133580335E+03  0.50400001928E-02 0. -1.
        1   -1    0    0  501    0  0.00000000000E+00  0.00000000000E+00 -0.11843416538E+04  0.11843416538E+04  0.50400001928E-02 0.  1.
    10030    2    1    2    0    0  0.00000000000E+00  0.00000000000E+00 -0.81300585049E+03  0.15556774572E+04  0.13263309684E+04 0.  0.
        2    1    3    3  502    0  0.51023883689E+03  0.33132753390E+03 -0.71608852271E+03  0.93962991532E+03  0.25500000920E-02 0.  1.
       -2    1    3    3    0  502 -0.51023883689E+03 -0.33132753390E+03 -0.96917327789E+02  0.61604754186E+03  0.25500000920E-02 0. -1.
</event>
<event>
 5   0  0.3259968E-03  0.1295299E+04  0.7818609E-02  0.9033301E-01
        2   -1    0    0  501    0  0.00000000000E+00  0.00000000000E+00  0.68653151184E+03  0.68653151185E+03  0.25500000920E-02 0.  1.
       -2   -1    0    0    0  501  0.00000000000E+00  0.00000000000E+00 -0.61096985279E+03  0.61096985279E+03  0.25500000920E-02 0. -1.
    10030    2    1    2    0    0  0.00000000000E+00  0.00000000000E+00  0.75561659054E+02  0.12975013646E+04  0.12952992808E+04 0.  0.
        4    1    3    3  502    0  0.58986357591E+03  0.26461608173E+03 -0.85591082754E+00  0.64650062210E+03  0.12699999809E+01 0. -1.
       -4    1    3    3    0  502 -0.58986357591E+03 -0.26461608173E+03  0.76417569881E+02  0.65100074254E+03  0.12699999809E+01 0.  1.
</event>
<event>
 5   0  0.1803959E-03  0.1292022E+04  0.7818609E-02  0.9035915E-01
       -1   -1    0    0    0  501  0.00000000000E+00  0.00000000000E+00  0.34814329358E+03  0.34814329362E+03  0.50400001928E-02 0. -1.
        1   -1    0    0  501    0  0.00000000000E+00  0.00000000000E+00 -0.11987320234E+04  0.11987320234E+04  0.50400001928E-02 0.  1.
    10030    2    1    2    0    0  0.00000000000E+00  0.00000000000E+00 -0.85058872981E+03  0.15468753170E+04  0.12920224685E+04 0.  0.
        4    1    3    3  502    0 -0.16283734298E+03  0.32286867779E+03  0.21561945197E+03  0.42101489799E+03  0.12699999809E+01 0. -1.
       -4    1    3    3    0  502  0.16283734298E+03 -0.32286867779E+03 -0.10662081818E+04  0.11258604190E+04  0.12699999809E+01 0.  1.
</event>
<event>
 5   0  0.1873488E-03  0.1295582E+04  0.7818609E-02  0.9033076E-01
       -1   -1    0    0    0  501  0.00000000000E+00  0.00000000000E+00  0.77749707018E+03  0.77749707019E+03  0.50400001928E-02 0. -1.
        1   -1    0    0  501    0  0.00000000000E+00  0.00000000000E+00 -0.53972321451E+03  0.53972321453E+03  0.50400001928E-02 0.  1.
    10030    2    1    2    0    0  0.00000000000E+00  0.00000000000E+00  0.23777385567E+03  0.13172202847E+04  0.12955820592E+04 0.  0.
        3    1    3    3  502    0 -0.63639026116E+03  0.12009303023E+03  0.10386492920E+03  0.65589849376E+03  0.10100000352E+00 0. -1.
       -3    1    3    3    0  502  0.63639026116E+03 -0.12009303023E+03  0.13390892647E+03  0.66132179096E+03  0.10100000352E+00 0.  1.
</event>
<event>
 5   0  0.1254125E-03  0.1310768E+04  0.7818609E-02  0.9021069E-01
       -4   -1    0    0    0  501  0.00000000000E+00  0.00000000000E+00  0.12317749372E+04  0.12317755919E+04  0.12699999809E+01 0. -1.
        4   -1    0    0  501    0  0.00000000000E+00  0.00000000000E+00 -0.34870507291E+03  0.34870738561E+03  0.12699999809E+01 0.  1.
    10030    2    1    2    0    0  0.00000000000E+00  0.00000000000E+00  0.88306986432E+03  0.15804829775E+04  0.13107684986E+04 0.  0.
        1    1    3    3  502    0  0.63842673085E+03  0.11719808785E+03  0.33231847586E+03  0.72921852136E+03  0.50400001928E-02 0.  1.
       -1    1    3    3    0  502 -0.63842673085E+03 -0.11719808785E+03  0.55075138845E+03  0.85126445619E+03  0.50400001928E-02 0. -1.
</event>
<event>
 5   0  0.3336609E-03  0.1280533E+04  0.7818609E-02  0.9045146E-01
       -2   -1    0    0    0  501  0.00000000000E+00  0.00000000000E+00  0.18732643337E+04  0.18732643337E+04  0.25500000920E-02 0. -1.
        2   -1    0    0  501    0  0.00000000000E+00  0.00000000000E+00 -0.21883802693E+03  0.21883802694E+03  0.25500000920E-02 0.  1.
    10030    2    1    2    0    0  0.00000000000E+00  0.00000000000E+00  0.16544263068E+04  0.20921023607E+04  0.12805334368E+04 0.  0.
        1    1    3    3  502    0  0.31703386368E+03 -0.12801677726E+02 -0.81357864559E+02  0.32755679786E+03  0.50400001928E-02 0.  1.
       -1    1    3    3    0  502 -0.31703386368E+03  0.12801677726E+02  0.17357841713E+04  0.17645455628E+04  0.50400001928E-02 0. -1.
</event>
<event>
 5   0  0.3262927E-03  0.1259310E+04  0.7818609E-02  0.9062470E-01
        2   -1    0    0  501    0  0.00000000000E+00  0.00000000000E+00  0.83287979148E+03  0.83287979149E+03  0.25500000920E-02 0.  1.
       -2   -1    0    0    0  501  0.00000000000E+00  0.00000000000E+00 -0.47601760299E+03  0.47601760300E+03  0.25500000920E-02 0. -1.
    10030    2    1    2    0    0  0.00000000000E+00  0.00000000000E+00  0.35686218850E+03  0.13088973945E+04  0.12593100364E+04 0.  0.
        3    1    3    3  502    0 -0.91861446880E+02  0.16589877554E+03 -0.44563169127E+03  0.48430212018E+03  0.10100000352E+00 0. -1.
       -3    1    3    3    0  502  0.91861446880E+02 -0.16589877554E+03  0.80249387976E+03  0.82459527430E+03  0.10100000352E+00 0.  1.
</event>
<event>
 5   0  0.3262927E-03  0.1314339E+04  0.7818609E-02  0.9018271E-01
        2   -1    0    0  501    0  0.00000000000E+00  0.00000000000E+00  0.18433433481E+04  0.18433433481E+04  0.25500000920E-02 0. -1.
       -2   -1    0    0    0  501  0.00000000000E+00  0.00000000000E+00 -0.23428732497E+03  0.23428732499E+03  0.25500000920E-02 0.  1.
    10030    2    1    2    0    0  0.00000000000E+00  0.00000000000E+00  0.16090560231E+04  0.20776306731E+04  0.13143393505E+04 0.  0.
        3    1    3    3  502    0 -0.64156040302E+03  0.16544018414E+02  0.58098570438E+03  0.86568923648E+03  0.10100000352E+00 0.  1.
       -3    1    3    3    0  502  0.64156040302E+03 -0.16544018414E+02  0.10280703187E+04  0.12119414366E+04  0.10100000352E+00 0. -1.
</event>
<event>
 5   0  0.1803959E-03  0.1275970E+04  0.7818609E-02  0.9048841E-01
       -1   -1    0    0    0  501  0.00000000000E+00  0.00000000000E+00  0.43039148053E+03  0.43039148056E+03  0.50400001928E-02 0. -1.
        1   -1    0    0  501    0  0.00000000000E+00  0.00000000000E+00 -0.94570863340E+03  0.94570863342E+03  0.50400001928E-02 0.  1.
    10030    2    1    2    0    0  0.00000000000E+00  0.00000000000E+00 -0.51531715287E+03  0.13761001140E+04  0.12759701233E+04 0.  0.
        4    1    3    3  502    0  0.40077471387E+03 -0.39143652236E+03  0.71550514181E+02  0.56476898932E+03  0.12699999809E+01 0. -1.
       -4    1    3    3    0  502 -0.40077471387E+03  0.39143652236E+03 -0.58686766705E+03  0.81133112466E+03  0.12699999809E+01 0.  1.
</event>
<event>
 5   0  0.3336609E-03  0.1300875E+04  0.7818609E-02  0.9028871E-01
       -2   -1    0    0    0  501  0.00000000000E+00  0.00000000000E+00  0.60137543694E+03  0.60137543695E+03  0.25500000920E-02 0. -1.
        2   -1    0    0  501    0  0.00000000000E+00  0.00000000000E+00 -0.70350231516E+03  0.70350231516E+03  0.25500000920E-02 0.  1.
    10030    2    1    2    0    0  0.00000000000E+00  0.00000000000E+00 -0.10212687821E+03  0.13048777521E+04  0.13008751088E+04 0.  0.
        1    1    3    3  502    0  0.48501166299E+03 -0.14746368380E+03  0.35772843397E+03  0.62044458558E+03  0.50400001928E-02 0. -1.
       -1    1    3    3    0  502 -0.48501166299E+03  0.14746368380E+03 -0.45985531218E+03  0.68443316653E+03  0.50400001928E-02 0.  1.
</event>
<event>
 5   0  0.1823154E-03  0.1296387E+04  0.7818609E-02  0.9032435E-01
       -1   -1    0    0    0  501  0.00000000000E+00  0.00000000000E+00  0.37940509776E+03  0.37940509779E+03  0.50400001928E-02 0. -1.
        1   -1    0    0  501    0  0.00000000000E+00  0.00000000000E+00 -0.11074048889E+04  0.11074048889E+04  0.50400001928E-02 0.  1.
    10030    2    1    2    0    0  0.00000000000E+00  0.00000000000E+00 -0.72799979111E+03  0.14868099867E+04  0.12963873806E+04 0.  0.
        2    1    3    3  502    0 -0.25861519793E+03  0.17929050527E+02 -0.10453626161E+04  0.10770265877E+04  0.25500000920E-02 0.  1.
       -2    1    3    3    0  502  0.25861519793E+03 -0.17929050527E+02  0.31736282494E+03  0.40978339902E+03  0.25500000920E-02 0. -1.
</event>
<event>
 5   0  0.1857986E-03  0.1309401E+04  0.7818609E-02  0.9022144E-01
       -1   -1    0    0    0  501  0.00000000000E+00  0.00000000000E+00  0.41965014499E+03  0.41965014502E+03  0.50400001928E-02 0. -1.
        1   -1    0    0  501    0  0.00000000000E+00  0.00000000000E+00 -0.10214041983E+04  0.10214041983E+04  0.50400001928E-02 0.  1.
    10030    2    1    2    0    0  0.00000000000E+00  0.00000000000E+00 -0.60175405329E+03  0.14410543433E+04  0.13094005040E+04 0.  0.
        1    1    3    3  502    0  0.33242707681E+03 -0.56399757237E+03 -0.29471035118E+03  0.71795209739E+03  0.50400001928E-02 0. -1.
       -1    1    3    3    0  502 -0.33242707681E+03  0.56399757237E+03 -0.30704370211E+03  0.72310224592E+03  0.50400001928E-02 0.  1.
</event>
<event>
 5   0  0.1814770E-03  0.1302837E+04  0.7818609E-02  0.9027319E-01
       -1   -1    0    0    0  501  0.00000000000E+00  0.00000000000E+00  0.75555409409E+03  0.75555409410E+03  0.50400001928E-02 0.  1.
        1   -1    0    0  501    0  0.00000000000E+00  0.00000000000E+00 -0.56163532471E+03  0.56163532473E+03  0.50400001928E-02 0. -1.
    10030    2    1    2    0    0  0.00000000000E+00  0.00000000000E+00  0.19391876938E+03  0.13171894188E+04  0.13028367035E+04 0.  0.
        5    1    3    3  502    0  0.56548431599E+03 -0.21847292637E+02  0.42311833051E+03  0.70661236010E+03  0.46999998093E+01 0.  1.
       -5    1    3    3    0  502 -0.56548431599E+03  0.21847292637E+02 -0.22919956113E+03  0.61057705873E+03  0.46999998093E+01 0. -1.
</event>
<event>
 5   0  0.3299104E-03  0.1351737E+04  0.7818609E-02  0.8989514E-01
       -2   -1    0    0    0  501  0.00000000000E+00  0.00000000000E+00  0.51854495649E+03  0.51854495650E+03  0.25500000920E-02 0.  1.
        2   -1    0    0  501    0  0.00000000000E+00  0.00000000000E+00 -0.88092318227E+03  0.88092318228E+03  0.25500000920E-02 0. -1.
    10030    2    1    2    0    0  0.00000000000E+00  0.00000000000E+00 -0.36237822578E+03  0.13994681388E+04  0.13517370650E+04 0.  0.
        2    1    3    3  502    0 -0.63717440492E+03 -0.10184382626E+03 -0.38937385869E+03  0.75364141942E+03  0.25500000920E-02 0. -1.
       -2    1    3    3    0  502  0.63717440492E+03  0.10184382626E+03  0.26995632909E+02  0.64582671935E+03  0.25500000920E-02 0.  1.
</event>
<event>
 5   0  0.3336609E-03  0.1393132E+04  0.7818609E-02  0.8958805E-01
       -2   -1    0    0    0  501  0.00000000000E+00  0.00000000000E+00  0.11477920868E+04  0.11477920868E+04  0.25500000920E-02 0.  1.
        2   -1    0    0  501    0  0.00000000000E+00  0.00000000000E+00 -0.42272841352E+03  0.42272841353E+03  0.25500000920E-02 0. -1.
    10030    2    1    2    0    0  0.00000000000E+00  0.00000000000E+00  0.72506367328E+03  0.15705205003E+04  0.13931321946E+04 0.  0.
        1    1    3    3  502    0  0.12175822290E+03  0.68200189060E+03  0.28082809806E+03  0.74754000850E+03  0.50400001928E-02 0. -1.
       -1    1    3    3    0  502 -0.12175822290E+03 -0.68200189060E+03  0.44423557522E+03  0.82298049183E+03  0.50400001928E-02 0.  1.
</event>
<event>
 5   0  0.3294720E-03  0.1295782E+04  0.7818609E-02  0.9032917E-01
        2   -1    0    0  501    0  0.00000000000E+00  0.00000000000E+00  0.44672835688E+03  0.44672835689E+03  0.25500000920E-02 0. -1.
       -2   -1    0    0    0  501  0.00000000000E+00  0.00000000000E+00 -0.93963779977E+03  0.93963779978E+03  0.25500000920E-02 0.  1.
    10030    2    1    2    0    0  0.00000000000E+00  0.00000000000E+00 -0.49290944289E+03  0.13863661567E+04  0.12957821582E+04 0.  0.
        5    1    3    3  502    0  0.18223979906E+03  0.60882349008E+03 -0.11170007991E+03  0.64527233342E+03  0.46999998093E+01 0.  1.
       -5    1    3    3    0  502 -0.18223979906E+03 -0.60882349008E+03 -0.38120936298E+03  0.74109382325E+03  0.46999998093E+01 0. -1.
</event>
<event>
 5   0  0.1254125E-03  0.1286817E+04  0.7818609E-02  0.9040085E-01
        3   -1    0    0  501    0  0.00000000000E+00  0.00000000000E+00  0.49445815919E+03  0.49445816950E+03  0.10100000352E+00 0.  1.
       -3   -1    0    0    0  501  0.00000000000E+00  0.00000000000E+00 -0.83722911421E+03  0.83722912030E+03  0.10100000352E+00 0. -1.
    10030    2    1    2    0    0  0.00000000000E+00  0.00000000000E+00 -0.34277095502E+03  0.13316872898E+04  0.12868174347E+04 0.  0.
        2    1    3    3  502    0  0.54379321374E+03  0.15533538918E+03  0.14612644677E+03  0.58411735199E+03  0.25500000920E-02 0.  1.
       -2    1    3    3    0  502 -0.54379321374E+03 -0.15533538918E+03 -0.48889740179E+03  0.74756993782E+03  0.25500000920E-02 0. -1.
</event>
<event>
 5   0  0.1254125E-03  0.1148352E+04  0.7818609E-02  0.9159305E-01
       -4   -1    0    0    0  501  0.00000000000E+00  0.00000000000E+00  0.27316435590E+03  0.27316730814E+03  0.12699999809E+01 0. -1.
        4   -1    0    0  501    0  0.00000000000E+00  0.00000000000E+00 -0.12068757867E+04  0.12068764549E+04  0.12699999809E+01 0.  1.
    10030    2    1    2    0    0  0.00000000000E+00  0.00000000000E+00 -0.93371143076E+03  0.14800437630E+04  0.11483520821E+04 0.  0.
        4    1    3    3  502    0  0.39559155363E+03  0.31065327308E+03 -0.10996441724E+03  0.51487077926E+03  0.12699999809E+01 0. -1.
       -4    1    3    3    0  502 -0.39559155363E+03 -0.31065327308E+03 -0.82374701352E+03  0.96517298375E+03  0.12699999809E+01 0.  1.
</event>
<event>
 5   0  0.3259968E-03  0.1310704E+04  0.7818609E-02  0.9021120E-01
       -2   -1    0    0    0  501  0.00000000000E+00  0.00000000000E+00  0.10281059149E+04  0.10281059149E+04  0.25500000920E-02 0.  1.
        2   -1    0    0  501    0  0.00000000000E+00  0.00000000000E+00 -0.41774499764E+03  0.41774499764E+03  0.25500000920E-02 0. -1.
    10030    2    1    2    0    0  0.00000000000E+00  0.00000000000E+00  0.61036091730E+03  0.14458509126E+04  0.13107037850E+04 0.  0.
        4    1    3    3  502    0  0.45090703793E+03 -0.46843969478E+03  0.21467440124E+03  0.68471863999E+03  0.12699999809E+01 0. -1.
       -4    1    3    3    0  502 -0.45090703793E+03  0.46843969478E+03  0.39568651606E+03  0.76113227260E+03  0.12699999809E+01 0.  1.
</event>
<event>
 5   0  0.3336609E-03  0.1293087E+04  0.7818609E-02  0.9035066E-01
       -2   -1    0    0    0  501  0.00000000000E+00  0.00000000000E+00  0.56078665315E+03  0.56078665316E+03  0.25500000920E-02 0. -1.
        2   -1    0    0  501    0  0.00000000000E+00  0.00000000000E+00 -0.74541410936E+03  0.74541410936E+03  0.25500000920E-02 0.  1.
    10030    2    1    2    0    0  0.00000000000E+00  0.00000000000E+00 -0.18462745621E+03  0.13062007625E+04  0.12930866693E+04 0.  0.
        1    1    3    3  502    0  0.37617049859E+03 -0.96250022790E+02 -0.61451885725E+03  0.72691246848E+03  0.50400001928E-02 0.  1.
       -1    1    3    3    0  502 -0.37617049859E+03  0.96250022790E+02  0.42989140104E+03  0.57928829404E+03  0.50400001928E-02 0. -1.
</event>
<event>
 5   0  0.1803959E-03  0.1308490E+04  0.7818609E-02  0.9022860E-01
       -1   -1    0    0    0  501  0.00000000000E+00  0.00000000000E+00  0.71400026267E+03  0.71400026269E+03  0.50400001928E-02 0.  1.
        1   -1    0    0  501    0  0.00000000000E+00  0.00000000000E+00 -0.59949042958E+03  0.59949042960E+03  0.50400001928E-02 0. -1.
    10030    2    1    2    0    0  0.00000000000E+00  0.00000000000E+00  0.11450983309E+03  0.13134906923E+04  0.13084897007E+04 0.  0.
        4    1    3    3  502    0 -0.35846361961E+03 -0.24158732443E+03 -0.43571683371E+03  0.61376817609E+03  0.12699999809E+01 0. -1.
       -4    1    3    3    0  502  0.35846361961E+03  0.24158732443E+03  0.55022666680E+03  0.69972251619E+03  0.12699999809E+01 0.  1.
</event>
<event>
 5   0  0.1814770E-03  0.1303987E+04  0.7818609E-02  0.9026410E-01
       -1   -1    0    0    0  501  0.00000000000E+00  0.00000000000E+00  0.30958783132E+03  0.30958783136E+03  0.50400001928E-02 0. -1.
        1   -1    0    0  501    0  0.00000000000E+00  0.00000000000E+00 -0.13731005727E+04  0.13731005727E+04  0.50400001928E-02 0.  1.
    10030    2    1    2    0    0  0.00000000000E+00  0.00000000000E+00 -0.10635127414E+04  0.16826884040E+04  0.13039865467E+04 0.  0.
        5    1    3    3  502    0  0.11052278235E+03 -0.48747355684E+03  0.84150220148E+01  0.49993865286E+03  0.46999998093E+01 0. -1.
       -5    1    3    3    0  502 -0.11052278235E+03  0.48747355684E+03 -0.10719277634E+04  0.11827497512E+04  0.46999998093E+01 0.  1.
</event>
<event>
 5   0  0.3294720E-03  0.1305365E+04  0.7818609E-02  0.9025321E-01
        2   -1    0    0  501    0  0.00000000000E+00  0.00000000000E+00  0.53303904538E+03  0.53303904538E+03  0.25500000920E-02 0. -1.
       -2   -1    0    0    0  501  0.00000000000E+00  0.00000000000E+00 -0.79918084635E+03  0.79918084635E+03  0.25500000920E-02 0.  1.
    10030    2    1    2    0    0  0.00000000000E+00  0.00000000000E+00 -0.26614180097E+03  0.13322198917E+04  0.13053652292E+04 0.  0.
        5    1    3    3  502    0  0.28148629006E+03  0.58041579601E+03 -0.23438799170E+03  0.68635038312E+03  0.46999998093E+01 0.  1.
       -5    1    3    3    0  502 -0.28148629006E+03 -0.58041579601E+03 -0.31753809269E+02  0.64586950861E+03  0.46999998093E+01 0. -1.
</event>
<event>
 5   0  0.3294720E-03  0.1008898E+04  0.7818609E-02  0.9298839E-01
        2   -1    0    0  501    0  0.00000000000E+00  0.00000000000E+00  0.26718538465E+04  0.26718538465E+04  0.25500000920E-02 0.  1.
       -2   -1    0    0    0  501  0.00000000000E+00  0.00000000000E+00 -0.95240482670E+02  0.95240482704E+02  0.25500000920E-02 0. -1.
    10030    2    1    2    0    0  0.00000000000E+00  0.00000000000E+00  0.25766133638E+04  0.27670943292E+04  0.10088977154E+04 0.  0.
        5    1    3    3  502    0 -0.24154875339E+03  0.12516930198E+03  0.12328153702E+03  0.29871990524E+03  0.46999998093E+01 0. -1.
       -5    1    3    3    0  502  0.24154875339E+03 -0.12516930198E+03  0.24533318268E+04  0.24683744239E+04  0.46999998093E+01 0.  1.
</event>
<event>
 5   0  0.3294720E-03  0.1342976E+04  0.7818609E-02  0.8996162E-01
        2   -1    0    0  501    0  0.00000000000E+00  0.00000000000E+00  0.93345087254E+03  0.93345087254E+03  0.25500000920E-02 0.  1.
       -2   -1    0    0    0  501  0.00000000000E+00  0.00000000000E+00 -0.48304197463E+03  0.48304197464E+03  0.25500000920E-02 0. -1.
    10030    2    1    2    0    0  0.00000000000E+00  0.00000000000E+00  0.45040889791E+03  0.14164928472E+04  0.13429757298E+04 0.  0.
        5    1    3    3  502    0  0.46153037957E+03  0.49380949442E+02  0.73697182502E+03  0.87097550500E+03  0.46999998093E+01 0.  1.
       -5    1    3    3    0  502 -0.46153037957E+03 -0.49380949442E+02 -0.28656292712E+03  0.54551734219E+03  0.46999998093E+01 0. -1.
</event>
<event>
 5   0  0.3259968E-03  0.1258683E+04  0.7818609E-02  0.9062988E-01
        2   -1    0    0  501    0  0.00000000000E+00  0.00000000000E+00  0.96172867228E+03  0.96172867229E+03  0.25500000920E-02 0.  1.
       -2   -1    0    0    0  501  0.00000000000E+00  0.00000000000E+00 -0.41183180622E+03  0.41183180623E+03  0.25500000920E-02 0. -1.
    10030    2    1    2    0    0  0.00000000000E+00  0.00000000000E+00  0.54989686606E+03  0.13735604785E+04  0.12586825751E+04 0.  0.
        4    1    3    3  502    0  0.22062274116E+01  0.62902520473E+03  0.29653425335E+03  0.69542199558E+03  0.12699999809E+01 0.  1.
       -4    1    3    3    0  502 -0.22062274116E+01 -0.62902520473E+03  0.25336261271E+03  0.67813848294E+03  0.12699999809E+01 0. -1.
</event>
<event>
 5   0  0.3259968E-03  0.1284303E+04  0.7818609E-02  0.9042106E-01
       -2   -1    0    0    0  501  0.00000000000E+00  0.00000000000E+00  0.71847879397E+03  0.71847879398E+03  0.25500000920E-02 0.  1.
        2   -1    0    0  501    0  0.00000000000E+00  0.00000000000E+00 -0.57393285320E+03  0.57393285320E+03  0.25500000920E-02 0. -1.
    10030    2    1    2    0    0  0.00000000000E+00  0.00000000000E+00  0.14454594078E+03  0.12924116472E+04  0.12843030549E+04 0.  0.
        4    1    3    3  502    0  0.21543593475E+02  0.54069658179E+02 -0.57127171884E+03  0.57423047987E+03  0.12699999809E+01 0. -1.
       -4    1    3    3    0  502 -0.21543593475E+02 -0.54069658179E+02  0.71581765962E+03  0.71818116731E+03  0.12699999809E+01 0.  1.
</event>
<event>
 5   0  0.1814770E-03  0.1301624E+04  0.7818609E-02  0.9028279E-01
       -1   -1    0    0    0  501  0.00000000000E+00  0.00000000000E+00  0.92731449788E+03  0.92731449789E+03  0.50400001928E-02 0. -1.
        1   -1    0    0  501    0  0.00000000000E+00  0.00000000000E+00 -0.45675548573E+03  0.45675548576E+03  0.50400001928E-02 0.  1.
    10030    2    1    2    0    0  0.00000000000E+00  0.00000000000E+00  0.47055901215E+03  0.13840699836E+04  0.13016235768E+04 0.  0.
        5    1    3    3  502    0 -0.39577972967E+01  0.22228979447E+02 -0.45632083676E+03  0.45690325862E+03  0.46999998093E+01 0.  1.
       -5    1    3    3    0  502  0.39577972967E+01 -0.22228979447E+02  0.92687984890E+03  0.92716672502E+03  0.46999998093E+01 0. -1.
</event>
<event>
 5   0  0.3262927E-03  0.1181133E+04  0.7818609E-02  0.9129533E-01
       -2   -1    0    0    0  501  0.00000000000E+00  0.00000000000E+00  0.19613892105E+03  0.19613892106E+03  0.25500000920E-02 0.  1.
        2   -1    0    0  501    0  0.00000000000E+00  0.00000000000E+00 -0.17781727686E+04  0.17781727686E+04  0.25500000920E-02 0. -1.
    10030    2    1    2    0    0  0.00000000000E+00  0.00000000000E+00 -0.15820338475E+04  0.19743116897E+04  0.11811331649E+04 0.  0.
        3    1    3    3  502    0  0.55146026516E+03 -0.15365823961E+03 -0.10335320159E+04  0.11814853857E+04  0.10100000352E+00 0. -1.
       -3    1    3    3    0  502 -0.55146026516E+03  0.15365823961E+03 -0.54850183167E+03  0.79282630393E+03  0.10100000352E+00 0.  1.
</event>
<event>
 5   0  0.3299104E-03  0.1296070E+04  0.7818609E-02  0.9032688E-01
       -2   -1    0    0    0  501  0.00000000000E+00  0.00000000000E+00  0.36194338263E+03  0.36194338264E+03  0.25500000920E-02 0. -1.
        2   -1    0    0  501    0  0.00000000000E+00  0.00000000000E+00 -0.11602618390E+04  0.11602618390E+04  0.25500000920E-02 0.  1.
    10030    2    1    2    0    0  0.00000000000E+00  0.00000000000E+00 -0.79831845633E+03  0.15222052216E+04  0.12960695888E+04 0.  0.
        2    1    3    3  502    0 -0.59426790519E+03  0.25390457076E+03 -0.34250091272E+03  0.73138823439E+03  0.25500000920E-02 0. -1.
       -2    1    3    3    0  502  0.59426790519E+03 -0.25390457076E+03 -0.45581754360E+03  0.79081698721E+03  0.25500000920E-02 0.  1.
</event>
<event>
 5   0  0.1857986E-03  0.1304034E+04  0.7818609E-02  0.9026372E-01
       -1   -1    0    0    0  501  0.00000000000E+00  0.00000000000E+00  0.11468829395E+04  0.11468829395E+04  0.50400001928E-02 0. -1.
        1   -1    0    0  501    0  0.00000000000E+00  0.00000000000E+00 -0.37067964146E+03  0.37067964150E+03  0.50400001928E-02 0.  1.
    10030    2    1    2    0    0  0.00000000000E+00  0.00000000000E+00  0.77620329803E+03  0.15175625810E+04  0.13040339825E+04 0.  0.
        1    1    3    3  502    0 -0.43135016363E+03 -0.47151972782E+03  0.53863614524E+03  0.83577671323E+03  0.50400001928E-02 0. -1.
       -1    1    3    3    0  502  0.43135016363E+03  0.47151972782E+03  0.23756715279E+03  0.68178586778E+03  0.50400001928E-02 0.  1.
</event>
<event>
 5   0  0.3294720E-03  0.1263360E+04  0.7818609E-02  0.9059136E-01
       -2   -1    0    0    0  501  0.00000000000E+00  0.00000000000E+00  0.39397303647E+03  0.39397303648E+03  0.25500000920E-02 0. -1.
        2   -1    0    0  501    0  0.00000000000E+00  0.00000000000E+00 -0.10128101599E+04  0.10128101599E+04  0.25500000920E-02 0.  1.
    10030    2    1    2    0    0  0.00000000000E+00  0.00000000000E+00 -0.61883712341E+03  0.14067831964E+04  0.12633604301E+04 0.  0.
        5    1    3    3  502    0  0.28044676624E+03 -0.53252285814E+03 -0.52293334105E+03  0.79731571683E+03  0.46999998093E+01 0.  1.
       -5    1    3    3    0  502 -0.28044676624E+03  0.53252285814E+03 -0.95903782359E+02  0.60946747953E+03  0.46999998093E+01 0. -1.
</event>
<event>
 5   0  0.3299104E-03  0.1299780E+04  0.7818609E-02  0.9029740E-01
        2   -1    0    0  501    0  0.00000000000E+00  0.00000000000E+00  0.46635433406E+03  0.46635433406E+03  0.25500000920E-02 0.  1.
       -2   -1    0    0    0  501  0.00000000000E+00  0.00000000000E+00 -0.90565680624E+03  0.90565680624E+03  0.25500000920E-02 0. -1.
    10030    2    1    2    0    0  0.00000000000E+00  0.00000000000E+00 -0.43930247218E+03  0.13720111403E+04  0.12997799456E+04 0.  0.
        2    1    3    3  502    0 -0.66284774950E+02  0.14667952211E+02  0.46260117137E+03  0.46755605437E+03  0.25500000920E-02 0.  1.
       -2    1    3    3    0  502  0.66284774950E+02 -0.14667952211E+02 -0.90190364356E+03  0.90445508594E+03  0.25500000920E-02 0. -1.
</event>
<event>
 5   0  0.1857986E-03  0.1080312E+04  0.7818609E-02  0.9224596E-01
       -1   -1    0    0    0  501  0.00000000000E+00  0.00000000000E+00  0.12304721034E+04  0.12304721034E+04  0.50400001928E-02 0. -1.
        1   -1    0    0  501    0  0.00000000000E+00  0.00000000000E+00 -0.23711915995E+03  0.23711916000E+03  0.50400001928E-02 0.  1.
    10030    2    1    2    0    0  0.00000000000E+00  0.00000000000E+00  0.99335294347E+03  0.14675912634E+04  0.10803120133E+04 0.  0.
        1    1    3    3  502    0  0.42519718262E+03 -0.31172609977E+03  0.65627836290E+03  0.84182367217E+03  0.50400001928E-02 0. -1.
       -1    1    3    3    0  502 -0.42519718262E+03  0.31172609977E+03  0.33707458056E+03  0.62576759126E+03  0.50400001928E-02 0.  1.
</event>
<event>
 5   0  0.3294720E-03  0.8835525E+03  0.7818609E-02  0.9446378E-01
        2   -1    0    0  501    0  0.00000000000E+00  0.00000000000E+00  0.11733956289E+04  0.11733956289E+04  0.25500000920E-02 0. -1.
       -2   -1    0    0    0  501  0.00000000000E+00  0.00000000000E+00 -0.16632605268E+03  0.16632605270E+03  0.25500000920E-02 0.  1.
    10030    2    1    2    0    0  0.00000000000E+00  0.00000000000E+00  0.10070695762E+04  0.13397216816E+04  0.88355251841E+03 0.  0.
        5    1    3    3  502    0  0.21134843095E+03  0.14679656383E+03  0.10479795070E+04  0.10791202563E+04  0.46999998093E+01 0. -1.
       -5    1    3    3    0  502 -0.21134843095E+03 -0.14679656383E+03 -0.40909930831E+02  0.26060142528E+03  0.46999998093E+01 0.  1.
</event>
<event>
 5   0  0.3294720E-03  0.1271235E+04  0.7818609E-02  0.9052692E-01
       -2   -1    0    0    0  501  0.00000000000E+00  0.00000000000E+00  0.72896758918E+03  0.72896758919E+03  0.25500000920E-02 0.  1.
        2   -1    0    0  501    0  0.00000000000E+00  0.00000000000E+00 -0.55422159736E+03  0.55422159737E+03  0.25500000920E-02 0. -1.
    10030    2    1    2    0    0  0.00000000000E+00  0.00000000000E+00  0.17474599182E+03  0.12831891866E+04  0.12712349613E+04 0.  0.
        5    1    3    3  502    0  0.23549397366E+03  0.49063686297E+03 -0.24405212258E+03  0.59646078787E+03  0.46999998093E+01 0. -1.
       -5    1    3    3    0  502 -0.23549397366E+03 -0.49063686297E+03  0.41879811440E+03  0.68672839868E+03  0.46999998093E+01 0.  1.
</event>
<event>
 5   0  0.3262927E-03  0.1349311E+04  0.7818609E-02  0.8991350E-01
        2   -1    0    0  501    0  0.00000000000E+00  0.00000000000E+00  0.79378166274E+03  0.79378166275E+03  0.25500000920E-02 0. -1.
       -2   -1    0    0    0  501  0.00000000000E+00  0.00000000000E+00 -0.57340737908E+03  0.57340737909E+03  0.25500000920E-02 0.  1.
    10030    2    1    2    0    0  0.00000000000E+00  0.00000000000E+00  0.22037428366E+03  0.13671890418E+04  0.13493113248E+04 0.  0.
        3    1    3    3  502    0  0.57121651904E+03 -0.30123118519E+03  0.30804785365E+03  0.71548726676E+03  0.10100000352E+00 0. -1.
       -3    1    3    3    0  502 -0.57121651904E+03  0.30123118519E+03 -0.87673569988E+02  0.65170177507E+03  0.10100000352E+00 0.  1.
</event>
<event>
 5   0  0.1823154E-03  0.1311609E+04  0.7818609E-02  0.9020410E-01
        1   -1    0    0  501    0  0.00000000000E+00  0.00000000000E+00  0.88880765296E+03  0.88880765297E+03  0.50400001928E-02 0. -1.
       -1   -1    0    0    0  501  0.00000000000E+00  0.00000000000E+00 -0.48388333998E+03  0.48388334000E+03  0.50400001928E-02 0.  1.
    10030    2    1    2    0    0  0.00000000000E+00  0.00000000000E+00  0.40492431298E+03  0.13726909930E+04  0.13116085022E+04 0.  0.
        2    1    3    3  502    0 -0.21840166187E+03  0.34085891443E+02 -0.44372051387E+03  0.49573080229E+03  0.25500000920E-02 0.  1.
       -2    1    3    3    0  502  0.21840166187E+03 -0.34085891443E+02  0.84864482685E+03  0.87696019069E+03  0.25500000920E-02 0. -1.
</event>
<event>
 5   0  0.1814770E-03  0.1282561E+04  0.7818609E-02  0.9043510E-01
       -1   -1    0    0    0  501  0.00000000000E+00  0.00000000000E+00  0.40616541286E+03  0.40616541289E+03  0.50400001928E-02 0.  1.
        1   -1    0    0  501    0  0.00000000000E+00  0.00000000000E+00 -0.10124954597E+04  0.10124954597E+04  0.50400001928E-02 0. -1.
    10030    2    1    2    0    0  0.00000000000E+00  0.00000000000E+00 -0.60633004687E+03  0.14186608726E+04  0.12825609326E+04 0.  0.
        5    1    3    3  502    0 -0.14060615579E+03 -0.44172468480E+03  0.18694257726E+03  0.49986038591E+03  0.46999998093E+01 0.  1.
       -5    1    3    3    0  502  0.14060615579E+03  0.44172468480E+03 -0.79327262414E+03  0.91880048673E+03  0.46999998093E+01 0. -1.
</event>
<event>
 5   0  0.3299104E-03  0.1302585E+04  0.7818609E-02  0.9027518E-01
       -2   -1    0    0    0  501  0.00000000000E+00  0.00000000000E+00  0.28618999726E+03  0.28618999727E+03  0.25500000920E-02 0.  1.
        2   -1    0    0  501    0  0.00000000000E+00  0.00000000000E+00 -0.14821678282E+04  0.14821678282E+04  0.25500000920E-02 0. -1.
    10030    2    1    2    0    0  0.00000000000E+00  0.00000000000E+00 -0.11959778310E+04  0.17683578255E+04  0.13025845181E+04 0.  0.
        2    1    3    3  502    0  0.29952689971E+03  0.24128216738E+03  0.11554386949E+03  0.40160158581E+03  0.25500000920E-02 0.  1.
       -2    1    3    3    0  502 -0.29952689971E+03 -0.24128216738E+03 -0.13115217005E+04  0.13667562397E+04  0.25500000920E-02 0. -1.
</event>
<event>
 5   0  0.3336609E-03  0.1292591E+04  0.7818609E-02  0.9035461E-01
       -2   -1    0    0    0  501  0.00000000000E+00  0.00000000000E+00  0.97796015075E+03  0.97796015076E+03  0.25500000920E-02 0.  1.
        2   -1    0    0  501    0  0.00000000000E+00  0.00000000000E+00 -0.42711138490E+03  0.42711138491E+03  0.25500000920E-02 0. -1.
    10030    2    1    2    0    0  0.00000000000E+00  0.00000000000E+00  0.55084876585E+03  0.14050715357E+04  0.12925910635E+04 0.  0.
        1    1    3    3  502    0  0.23236918473E+03  0.31939260651E+03 -0.28064828191E+03  0.48453125108E+03  0.50400001928E-02 0. -1.
       -1    1    3    3    0  502 -0.23236918473E+03 -0.31939260651E+03  0.83149704776E+03  0.92054028459E+03  0.50400001928E-02 0.  1.
</event>
<event>
 5   0  0.1823154E-03  0.1295831E+04  0.7818609E-02  0.9032878E-01
        1   -1    0    0  501    0  0.00000000000E+00  0.00000000000E+00  0.11486417522E+04  0.11486417522E+04  0.50400001928E-02 0.  1.
       -1   -1    0    0    0  501  0.00000000000E+00  0.00000000000E+00 -0.36547045920E+03  0.36547045923E+03  0.50400001928E-02 0. -1.
    10030    2    1    2    0    0  0.00000000000E+00  0.00000000000E+00  0.78317129300E+03  0.15141122114E+04  0.12958312061E+04 0.  0.
        2    1    3    3  502    0  0.19572535468E+03  0.30000975956E+02 -0.32924977713E+03  0.38420552933E+03  0.25500000920E-02 0. -1.
       -2    1    3    3    0  502 -0.19572535468E+03 -0.30000975956E+02  0.11124210701E+04  0.11299066821E+04  0.25500000920E-02 0.  1.
</event>
<event>
 5   0  0.1873488E-03  0.1206135E+04  0.7818609E-02  0.9107503E-01
        1   -1    0    0  501    0  0.00000000000E+00  0.00000000000E+00  0.44424114178E+03  0.44424114181E+03  0.50400001928E-02 0. -1.
       -1   -1    0    0    0  501  0.00000000000E+00  0.00000000000E+00 -0.81867830807E+03  0.81867830809E+03  0.50400001928E-02 0.  1.
    10030    2    1    2    0    0  0.00000000000E+00  0.00000000000E+00 -0.37443716629E+03  0.12629194499E+04  0.12061352932E+04 0.  0.
        3    1    3    3  502    0  0.13198715385E+03 -0.50772202354E+02 -0.80107165435E+03  0.81345819248E+03  0.10100000352E+00 0.  1.
       -3    1    3    3    0  502 -0.13198715385E+03  0.50772202354E+02  0.42663448806E+03  0.44946125742E+03  0.10100000352E+00 0. -1.
</event>
<event>
 5   0  0.3299104E-03  0.1333392E+04  0.7818609E-02  0.9003496E-01
       -2   -1    0    0    0  501  0.00000000000E+00  0.00000000000E+00  0.10141681043E+04  0.10141681043E+04  0.25500000920E-02 0. -1.
        2   -1    0    0  501    0  0.00000000000E+00  0.00000000000E+00 -0.43827413299E+03  0.43827413299E+03  0.25500000920E-02 0.  1.
    10030    2    1    2    0    0  0.00000000000E+00  0.00000000000E+00  0.57589397136E+03  0.14524422373E+04  0.13333921353E+04 0.  0.
        2    1    3    3  502    0 -0.30410727077E+03 -0.28412659388E+03  0.85528967231E+03  0.95117273776E+03  0.25500000920E-02 0. -1.
       -2    1    3    3    0  502  0.30410727077E+03  0.28412659388E+03 -0.27939570096E+03  0.50126949958E+03  0.25500000920E-02 0.  1.
</event>
<event>
 5   0  0.1857986E-03  0.1268893E+04  0.7818609E-02  0.9054603E-01
       -1   -1    0    0    0  501  0.00000000000E+00  0.00000000000E+00  0.59112936526E+03  0.59112936528E+03  0.50400001928E-02 0. -1.
        1   -1    0    0  501    0  0.00000000000E+00  0.00000000000E+00 -0.68093834744E+03  0.68093834745E+03  0.50400001928E-02 0.  1.
    10030    2    1    2    0    0  0.00000000000E+00  0.00000000000E+00 -0.89808982175E+02  0.12720677127E+04  0.12688934599E+04 0.  0.
        1    1    3    3  502    0 -0.17063321484E+03 -0.23876407528E+03  0.51899590421E+03  0.59622204443E+03  0.50400001928E-02 0. -1.
       -1    1    3    3    0  502  0.17063321484E+03  0.23876407528E+03 -0.60880488639E+03  0.67584566831E+03  0.50400001928E-02 0.  1.
</event>
<event>
 5   0  0.1857986E-03  0.1338585E+04  0.7818609E-02  0.8999515E-01
       -1   -1    0    0    0  501  0.00000000000E+00  0.00000000000E+00  0.61375675687E+03  0.61375675689E+03  0.50400001928E-02 0. -1.
        1   -1    0    0  501    0  0.00000000000E+00  0.00000000000E+00 -0.72985290076E+03  0.72985290078E+03  0.50400001928E-02 0.  1.
    10030    2    1    2    0    0  0.00000000000E+00  0.00000000000E+00 -0.11609614389E+03  0.13436096577E+04  0.13385845500E+04 0.  0.
        1    1    3    3  502    0  0.40416229713E+03  0.19463650241E+03 -0.55662354706E+03  0.71488481845E+03  0.50400001928E-02 0.  1.
       -1    1    3    3    0  502 -0.40416229713E+03 -0.19463650241E+03  0.44052740317E+03  0.62872483922E+03  0.50400001928E-02 0. -1.
</event>
<event>
 5   0  0.1823154E-03  0.1276071E+04  0.7818609E-02  0.9048759E-01
       -1   -1    0    0    0  501  0.00000000000E+00  0.00000000000E+00  0.52756989939E+03  0.52756989942E+03  0.50400001928E-02 0. -1.
        1   -1    0    0  501    0  0.00000000000E+00  0.00000000000E+00 -0.77163094023E+03  0.77163094025E+03  0.50400001928E-02 0.  1.
    10030    2    1    2    0    0  0.00000000000E+00  0.00000000000E+00 -0.24406104084E+03  0.12992008397E+04  0.12760709346E+04 0.  0.
        2    1    3    3  502    0 -0.26766049604E+01  0.34104268412E+03 -0.67103735803E+03  0.75273395864E+03  0.25500000920E-02 0.  1.
       -2    1    3    3    0  502  0.26766049604E+01 -0.34104268412E+03  0.42697631719E+03  0.54646688102E+03  0.25500000920E-02 0. -1.
</event>
<event>
 5   0  0.3259968E-03  0.1256913E+04  0.7818609E-02  0.9064450E-01
       -2   -1    0    0    0  501  0.00000000000E+00  0.00000000000E+00  0.11075320992E+04  0.11075320992E+04  0.25500000920E-02 0.  1.
        2   -1    0    0  501    0  0.00000000000E+00  0.00000000000E+00 -0.35661023955E+03  0.35661023956E+03  0.25500000920E-02 0. -1.
    10030    2    1    2    0    0  0.00000000000E+00  0.00000000000E+00  0.75092185961E+03  0.14641423387E+04  0.12569125462E+04 0.  0.
        4    1    3    3  502    0  0.20816580312E+03 -0.65273908537E+02  0.10620065246E+04  0.10841831745E+04  0.12699999809E+01 0.  1.
       -4    1    3    3    0  502 -0.20816580312E+03  0.65273908537E+02 -0.31108466502E+03  0.37995916417E+03  0.12699999809E+01 0. -1.
</event>
<event>
 5   0  0.1254125E-03  0.1271322E+04  0.7818609E-02  0.9052621E-01
        4   -1    0    0  501    0  0.00000000000E+00  0.00000000000E+00  0.12641512972E+04  0.12641519351E+04  0.12699999809E+01 0.  1.
       -4   -1    0    0    0  501  0.00000000000E+00  0.00000000000E+00 -0.31963148489E+03  0.31963400795E+03  0.12699999809E+01 0. -1.
    10030    2    1    2    0    0  0.00000000000E+00  0.00000000000E+00  0.94451981230E+03  0.15837859431E+04  0.12713222399E+04 0.  0.
        2    1    3    3  502    0  0.37195527356E+02 -0.21921400511E+03  0.12141278390E+04  0.12343195278E+04  0.25500000920E-02 0.  1.
       -2    1    3    3    0  502 -0.37195527356E+02  0.21921400511E+03 -0.26960802673E+03  0.34946641524E+03  0.25500000920E-02 0. -1.
</event>
<event>
 5   0  0.3259968E-03  0.1289335E+04  0.7818609E-02  0.9038065E-01
       -2   -1    0    0    0  501  0.00000000000E+00  0.00000000000E+00  0.38788973323E+03  0.38788973324E+03  0.25500000920E-02 0.  1.
        2   -1    0    0  501    0  0.00000000000E+00  0.00000000000E+00 -0.10714293692E+04  0.10714293692E+04  0.25500000920E-02 0. -1.
    10030    2    1    2    0    0  0.00000000000E+00  0.00000000000E+00 -0.68353963596E+03  0.14593191024E+04  0.12893354136E+04 0.  0.
        4    1    3    3  502    0 -0.33794980699E+03  0.11493059167E+03 -0.94936322717E+03  0.10142540426E+04  0.12699999809E+01 0. -1.
       -4    1    3    3    0  502  0.33794980699E+03 -0.11493059167E+03  0.26582359121E+03  0.44506505984E+03  0.12699999809E+01 0.  1.
</event>
<event>
 5   0  0.3336609E-03  0.1334151E+04  0.7818609E-02  0.9002913E-01
       -2   -1    0    0    0  501  0.00000000000E+00  0.00000000000E+00  0.74074819270E+03  0.74074819270E+03  0.25500000920E-02 0. -1.
        2   -1    0    0  501    0  0.00000000000E+00  0.00000000000E+00 -0.60073003944E+03  0.60073003944E+03  0.25500000920E-02 0.  1.
    10030    2    1    2    0    0  0.00000000000E+00  0.00000000000E+00  0.14001815326E+03  0.13414782321E+04  0.13341509525E+04 0.  0.
        1    1    3    3  502    0  0.55668998587E+03  0.11376956510E+03 -0.28139917007E+03  0.63406052333E+03  0.50400001928E-02 0. -1.
       -1    1    3    3    0  502 -0.55668998587E+03 -0.11376956510E+03  0.42141732333E+03  0.70741770881E+03  0.50400001928E-02 0.  1.
</event>
<event>
 5   0  0.3294720E-03  0.1313287E+04  0.7818609E-02  0.9019094E-01
        2   -1    0    0  501    0  0.00000000000E+00  0.00000000000E+00  0.12440572557E+04  0.12440572557E+04  0.25500000920E-02 0. -1.
       -2   -1    0    0    0  501  0.00000000000E+00  0.00000000000E+00 -0.34659254345E+03  0.34659254346E+03  0.25500000920E-02 0.  1.
    10030    2    1    2    0    0  0.00000000000E+00  0.00000000000E+00  0.89746471229E+03  0.15906497992E+04  0.13132874300E+04 0.  0.
        5    1    3    3  502    0 -0.48775595101E+02 -0.25671830658E+02 -0.34376521512E+03  0.34818775782E+03  0.46999998093E+01 0.  1.
       -5    1    3    3    0  502  0.48775595101E+02  0.25671830658E+02  0.12412299274E+04  0.12424620414E+04  0.46999998093E+01 0. -1.
</event>
<event>
 5   0  0.3262927E-03  0.1293784E+04  0.7818609E-02  0.9034509E-01
        2   -1    0    0  501    0  0.00000000000E+00  0.00000000000E+00  0.13960247055E+04  0.13960247055E+04  0.25500000920E-02 0.  1.
       -2   -1    0    0    0  501  0.00000000000E+00  0.00000000000E+00 -0.29975778983E+03  0.29975778984E+03  0.25500000920E-02 0. -1.
    10030    2    1    2    0    0  0.00000000000E+00  0.00000000000E+00  0.10962669156E+04  0.16957824953E+04  0.12937840319E+04 0.  0.
        3    1    3    3  502    0  0.85804634510E+02  0.50161616343E+03  0.10715801360E+04  0.11862820949E+04  0.10100000352E+00 0.  1.
       -3    1    3    3    0  502 -0.85804634510E+02 -0.50161616343E+03  0.24686779668E+02  0.50950040040E+03  0.10100000352E+00 0. -1.
</event>
<event>
 5   0  0.3259968E-03  0.1297809E+04  0.7818609E-02  0.9031305E-01
        2   -1    0    0  501    0  0.00000000000E+00  0.00000000000E+00  0.10200411117E+04  0.10200411117E+04  0.25500000920E-02 0. -1.
       -2   -1    0    0    0  501  0.00000000000E+00  0.00000000000E+00 -0.41280380949E+03  0.41280380950E+03  0.25500000920E-02 0.  1.
    10030    2    1    2    0    0  0.00000000000E+00  0.00000000000E+00  0.60723730219E+03  0.14328449212E+04  0.12978087020E+04 0.  0.
        4    1    3    3  502    0  0.62358728072E+03 -0.10117361809E+03  0.46729391414E+03  0.78578776573E+03  0.12699999809E+01 0.  1.
       -4    1    3    3    0  502 -0.62358728072E+03  0.10117361809E+03  0.13994338805E+03  0.64705715546E+03  0.12699999809E+01 0. -1.
</event>
<event>
 5   0  0.1873488E-03  0.1301747E+04  0.7818609E-02  0.9028181E-01
        1   -1    0    0  501    0  0.00000000000E+00  0.00000000000E+00  0.80444052482E+03  0.80444052483E+03  0.50400001928E-02 0.  1.
       -1   -1    0    0    0  501  0.00000000000E+00  0.00000000000E+00 -0.52662241475E+03  0.52662241478E+03  0.50400001928E-02 0. -1.
    10030    2    1    2    0    0  0.00000000000E+00  0.00000000000E+00  0.27781811006E+03  0.13310629396E+04  0.13017471517E+04 0.  0.
        3    1    3    3  502    0 -0.34686398418E+03  0.61805091962E+02 -0.42068327434E+03  0.54873392498E+03  0.10100000352E+00 0. -1.
       -3    1    3    3    0  502  0.34686398418E+03 -0.61805091962E+02  0.69850138440E+03  0.78232901463E+03  0.10100000352E+00 0.  1.
</event>
<event>
 5   0  0.1823154E-03  0.1316307E+04  0.7818609E-02  0.9016732E-01
        1   -1    0    0  501    0  0.00000000000E+00  0.00000000000E+00  0.58741109038E+03  0.58741109040E+03  0.50400001928E-02 0.  1.
       -1   -1    0    0    0  501  0.00000000000E+00  0.00000000000E+00 -0.73741568033E+03  0.73741568035E+03  0.50400001928E-02 0. -1.
    10030    2    1    2    0    0  0.00000000000E+00  0.00000000000E+00 -0.15000458996E+03  0.13248267707E+04  0.13163071813E+04 0.  0.
        2    1    3    3  502    0  0.53394350654E+03 -0.23730989159E+03 -0.37987287834E+03  0.69693260544E+03  0.25500000920E-02 0. -1.
       -2    1    3    3    0  502 -0.53394350654E+03  0.23730989159E+03  0.22986828839E+03  0.62789416531E+03  0.25500000920E-02 0.  1.
</event>
<event>
 5   0  0.1873488E-03  0.1283705E+04  0.7818609E-02  0.9042588E-01
       -1   -1    0    0    0  501  0.00000000000E+00  0.00000000000E+00  0.67013368498E+03  0.67013368500E+03  0.50400001928E-02 0.  1.
        1   -1    0    0  501    0  0.00000000000E+00  0.00000000000E+00 -0.61476508688E+03  0.61476508690E+03  0.50400001928E-02 0. -1.
    10030    2    1    2    0    0  0.00000000000E+00  0.00000000000E+00  0.55368598098E+02  0.12848987719E+04  0.12837052514E+04 0.  0.
        3    1    3    3  502    0 -0.49711896779E+03 -0.35081797484E+03 -0.17689326168E+03  0.63363377107E+03  0.10100000352E+00 0.  1.
       -3    1    3    3    0  502  0.49711896779E+03  0.35081797484E+03  0.23226185978E+03  0.65126500084E+03  0.10100000352E+00 0. -1.
</event>
<event>
 5   0  0.3259968E-03  0.1299399E+04  0.7818609E-02  0.9030042E-01
        2   -1    0    0  501    0  0.00000000000E+00  0.00000000000E+00  0.90777722952E+03  0.90777722952E+03  0.25500000920E-02 0.  1.
       -2   -1    0    0    0  501  0.00000000000E+00  0.00000000000E+00 -0.46499197805E+03  0.46499197806E+03  0.25500000920E-02 0. -1.
    10030    2    1    2    0    0  0.00000000000E+00  0.00000000000E+00  0.44278525147E+03  0.13727692076E+04  0.12993985218E+04 0.  0.
        4    1    3    3  502    0 -0.74035932727E+02 -0.92952377459E+02  0.89619689113E+03  0.90404200366E+03  0.12699999809E+01 0.  1.
       -4    1    3    3    0  502  0.74035932727E+02  0.92952377459E+02 -0.45341163966E+03  0.46872720392E+03  0.12699999809E+01 0. -1.
</event>
<event>
 5   0  0.1857986E-03  0.1425610E+04  0.7818609E-02  0.8935487E-01
       -1   -1    0    0    0  501  0.00000000000E+00  0.00000000000E+00  0.61318205124E+03  0.61318205126E+03  0.50400001928E-02 0. -1.
        1   -1    0    0  501    0  0.00000000000E+00  0.00000000000E+00 -0.82861361496E+03  0.82861361498E+03  0.50400001928E-02 0.  1.
    10030    2    1    2    0    0  0.00000000000E+00  0.00000000000E+00 -0.21543156372E+03  0.14417956662E+04  0.14256100394E+04 0.  0.
        1    1    3    3  502    0  0.43219816038E+03 -0.13412752822E+03 -0.66470033504E+03  0.80412186831E+03  0.50400001928E-02 0.  1.
       -1    1    3    3    0  502 -0.43219816038E+03  0.13412752822E+03  0.44926877132E+03  0.63767379793E+03  0.50400001928E-02 0. -1.
</event>
<event>
 5   0  0.1814770E-03  0.1296609E+04  0.7818609E-02  0.9032259E-01
       -1   -1    0    0    0  501  0.00000000000E+00  0.00000000000E+00  0.72290716063E+03  0.72290716065E+03  0.50400001928E-02 0. -1.
        1   -1    0    0  501    0  0.00000000000E+00  0.00000000000E+00 -0.58140028429E+03  0.58140028431E+03  0.50400001928E-02 0.  1.
    10030    2    1    2    0    0  0.00000000000E+00  0.00000000000E+00  0.14150687634E+03  0.13043074450E+04  0.12966085434E+04 0.  0.
        5    1    3    3  502    0  0.10853222446E+01 -0.21673344041E+03  0.68536556183E+03  0.71883419886E+03  0.46999998093E+01 0. -1.
       -5    1    3    3    0  502 -0.10853222446E+01  0.21673344041E+03 -0.54385868548E+03  0.58547324609E+03  0.46999998093E+01 0.  1.
</event>
<event>
 5   0  0.1857986E-03  0.1295749E+04  0.7818609E-02  0.9032943E-01
       -1   -1    0    0    0  501  0.00000000000E+00  0.00000000000E+00  0.70300122118E+03  0.70300122120E+03  0.50400001928E-02 0. -1.
        1   -1    0    0  501    0  0.00000000000E+00  0.00000000000E+00 -0.59707033681E+03  0.59707033683E+03  0.50400001928E-02 0.  1.
    10030    2    1    2    0    0  0.00000000000E+00  0.00000000000E+00  0.10593088437E+03  0.13000715580E+04  0.12957487039E+04 0.  0.
        1    1    3    3  502    0  0.23875977164E+03  0.18777940891E+03 -0.52119700063E+03  0.60325255777E+03  0.50400001928E-02 0.  1.
       -1    1    3    3    0  502 -0.23875977164E+03 -0.18777940891E+03  0.62712788500E+03  0.69681900027E+03  0.50400001928E-02 0. -1.
</event>
<event>
 5   0  0.1823154E-03  0.1318917E+04  0.7818609E-02  0.9014697E-01
        1   -1    0    0  501    0  0.00000000000E+00  0.00000000000E+00  0.75881930571E+03  0.75881930572E+03  0.50400001928E-02 0. -1.
       -1   -1    0    0    0  501  0.00000000000E+00  0.00000000000E+00 -0.57310823493E+03  0.57310823495E+03  0.50400001928E-02 0.  1.
    10030    2    1    2    0    0  0.00000000000E+00  0.00000000000E+00  0.18571107077E+03  0.13319275407E+04  0.13189171209E+04 0.  0.
        2    1    3    3  502    0  0.62364386498E+03  0.14713409784E+03 -0.64584505234E+02  0.64401185656E+03  0.25500000920E-02 0.  1.
       -2    1    3    3    0  502 -0.62364386498E+03 -0.14713409784E+03  0.25029557601E+03  0.68791568411E+03  0.25500000920E-02 0. -1.
</event>
<event>
 5   0  0.3294720E-03  0.1321918E+04  0.7818609E-02  0.9012363E-01
        2   -1    0    0  501    0  0.00000000000E+00  0.00000000000E+00  0.15642894343E+04  0.15642894343E+04  0.25500000920E-02 0.  1.
       -2   -1    0    0    0  501  0.00000000000E+00  0.00000000000E+00 -0.27927471077E+03  0.27927471078E+03  0.25500000920E-02 0. -1.
    10030    2    1    2    0    0  0.00000000000E+00  0.00000000000E+00  0.12850147235E+04  0.18435641450E+04  0.13219175153E+04 0.  0.
        5    1    3    3  502    0  0.60597119140E+02  0.46962682674E+03 -0.56380758507E+00  0.47354384709E+03  0.46999998093E+01 0. -1.
       -5    1    3    3    0  502 -0.60597119140E+02 -0.46962682674E+03  0.12855785311E+04  0.13700202979E+04  0.46999998093E+01 0.  1.
</event>
<event>
 5   0  0.3259968E-03  0.1387157E+04  0.7818609E-02  0.8963168E-01
        2   -1    0    0  501    0  0.00000000000E+00  0.00000000000E+00  0.15221698444E+03  0.15221698447E+03  0.25500000920E-02 0.  1.
       -2   -1    0    0    0  501  0.00000000000E+00  0.00000000000E+00 -0.31602969132E+04  0.31602969132E+04  0.25500000920E-02 0. -1.
    10030    2    1    2    0    0  0.00000000000E+00  0.00000000000E+00 -0.30080799288E+04  0.33125138977E+04  0.13871566114E+04 0.  0.
        4    1    3    3  502    0 -0.43351110283E+03 -0.40073006459E+03 -0.23733884199E+04  0.24457086224E+04  0.12699999809E+01 0. -1.
       -4    1    3    3    0  502  0.43351110283E+03  0.40073006459E+03 -0.63469150881E+03  0.86680527525E+03  0.12699999809E+01 0.  1.
</event>
<event>
 5   0  0.1873488E-03  0.1310408E+04  0.7818609E-02  0.9021352E-01
        1   -1    0    0  501    0  0.00000000000E+00  0.00000000000E+00  0.19754207992E+04  0.19754207992E+04  0.50400001928E-02 0. -1.
       -1   -1    0    0    0  501  0.00000000000E+00  0.00000000000E+00 -0.21731675843E+03  0.21731675849E+03  0.50400001928E-02 0.  1.
    10030    2    1    2    0    0  0.00000000000E+00  0.00000000000E+00  0.17581040408E+04  0.21927375577E+04  0.13104076384E+04 0.  0.
        3    1    3    3  502    0  0.65284839551E+03 -0.15246454484E+02  0.96836043100E+03  0.11679749211E+04  0.10100000352E+00 0. -1.
       -3    1    3    3    0  502 -0.65284839551E+03  0.15246454484E+02  0.78974360977E+03  0.10247626365E+04  0.10100000352E+00 0.  1.
</event>
<event>
 5   0  0.1823154E-03  0.1283817E+04  0.7818609E-02  0.9042498E-01
       -1   -1    0    0    0  501  0.00000000000E+00  0.00000000000E+00  0.41976982548E+03  0.41976982551E+03  0.50400001928E-02 0.  1.
        1   -1    0    0  501    0  0.00000000000E+00  0.00000000000E+00 -0.98160132815E+03  0.98160132817E+03  0.50400001928E-02 0. -1.
    10030    2    1    2    0    0  0.00000000000E+00  0.00000000000E+00 -0.56183150267E+03  0.14013711537E+04  0.12838171494E+04 0.  0.
        2    1    3    3  502    0  0.15972698639E+03 -0.57835966502E+03 -0.52991247460E+03  0.80051223791E+03  0.25500000920E-02 0.  1.
       -2    1    3    3    0  502 -0.15972698639E+03  0.57835966502E+03 -0.31919028072E+02  0.60085891577E+03  0.25500000920E-02 0. -1.
</event>
<event>
 5   0  0.3259968E-03  0.1134981E+04  0.7818609E-02  0.9171752E-01
       -2   -1    0    0    0  501  0.00000000000E+00  0.00000000000E+00  0.55306592973E+03  0.55306592974E+03  0.25500000920E-02 0.  1.
        2   -1    0    0  501    0  0.00000000000E+00  0.00000000000E+00 -0.58229106120E+03  0.58229106120E+03  0.25500000920E-02 0. -1.
    10030    2    1    2    0    0  0.00000000000E+00  0.00000000000E+00 -0.29225131467E+02  0.11353569909E+04  0.11349807878E+04 0.  0.
        4    1    3    3  502    0  0.41363416134E+03 -0.89669236983E+02 -0.39277218406E+03  0.57741267128E+03  0.12699999809E+01 0. -1.
       -4    1    3    3    0  502 -0.41363416134E+03  0.89669236983E+02  0.36354705259E+03  0.55794431966E+03  0.12699999809E+01 0.  1.
</event>
<event>
 5   0  0.1857986E-03  0.1298300E+04  0.7818609E-02  0.9030914E-01
       -1   -1    0    0    0  501  0.00000000000E+00  0.00000000000E+00  0.28216621053E+03  0.28216621057E+03  0.50400001928E-02 0. -1.
        1   -1    0    0  501    0  0.00000000000E+00  0.00000000000E+00 -0.14934319132E+04  0.14934319132E+04  0.50400001928E-02 0.  1.
    10030    2    1    2    0    0  0.00000000000E+00  0.00000000000E+00 -0.12112657027E+04  0.17755981238E+04  0.12983004640E+04 0.  0.
        1    1    3    3  502    0  0.88491811513E+02 -0.63620701828E+03 -0.73397082470E+03  0.97534780584E+03  0.50400001928E-02 0.  1.
       -1    1    3    3    0  502 -0.88491811513E+02  0.63620701828E+03 -0.47729487800E+03  0.80025031796E+03  0.50400001928E-02 0. -1.
</event>
<event>
 5   0  0.3336609E-03  0.8133417E+03  0.7818609E-02  0.9540904E-01
       -2   -1    0    0    0  501  0.00000000000E+00  0.00000000000E+00  0.12072344592E+03  0.12072344594E+03  0.25500000920E-02 0. -1.
        2   -1    0    0  501    0  0.00000000000E+00  0.00000000000E+00 -0.13699174947E+04  0.13699174947E+04  0.25500000920E-02 0.  1.
    10030    2    1    2    0    0  0.00000000000E+00  0.00000000000E+00 -0.12491940488E+04  0.14906409406E+04  0.81334165171E+03 0.  0.
        1    1    3    3  502    0  0.10968312360E+03  0.16322908256E+03 -0.12769766718E+04  0.12920307819E+04  0.50400001928E-02 0.  1.
       -1    1    3    3    0  502 -0.10968312360E+03 -0.16322908256E+03  0.27782623019E+02  0.19861015876E+03  0.50400001928E-02 0. -1.
</event>
<event>
 5   0  0.1803959E-03  0.1305053E+04  0.7818609E-02  0.9025568E-01
       -1   -1    0    0    0  501  0.00000000000E+00  0.00000000000E+00  0.58443223062E+03  0.58443223064E+03  0.50400001928E-02 0. -1.
        1   -1    0    0  501    0  0.00000000000E+00  0.00000000000E+00 -0.72855433414E+03  0.72855433416E+03  0.50400001928E-02 0.  1.
    10030    2    1    2    0    0  0.00000000000E+00  0.00000000000E+00 -0.14412210352E+03  0.13129865648E+04  0.13050526957E+04 0.  0.
        4    1    3    3  502    0  0.35216464524E+03  0.52559699059E+03  0.88650127110E+02  0.63885255874E+03  0.12699999809E+01 0.  1.
       -4    1    3    3    0  502 -0.35216464524E+03 -0.52559699059E+03 -0.23277223063E+03  0.67413400606E+03  0.12699999809E+01 0. -1.
</event>
<event>
 5   0  0.1857986E-03  0.1194831E+04  0.7818609E-02  0.9117393E-01
        1   -1    0    0  501    0  0.00000000000E+00  0.00000000000E+00  0.57029501526E+03  0.57029501528E+03  0.50400001928E-02 0. -1.
       -1   -1    0    0    0  501  0.00000000000E+00  0.00000000000E+00 -0.62582520698E+03  0.62582520700E+03  0.50400001928E-02 0.  1.
    10030    2    1    2    0    0  0.00000000000E+00  0.00000000000E+00 -0.55530191721E+02  0.11961202223E+04  0.11948305252E+04 0.  0.
        1    1    3    3  502    0  0.39763010401E+03 -0.17493329051E+03 -0.43832195157E+03  0.61712031971E+03  0.50400001928E-02 0.  1.
       -1    1    3    3    0  502 -0.39763010401E+03  0.17493329051E+03  0.38279175985E+03  0.57899990257E+03  0.50400001928E-02 0. -1.
</event>
<event>
 5   0  0.3262927E-03  0.1301484E+04  0.7818609E-02  0.9028389E-01
        2   -1    0    0  501    0  0.00000000000E+00  0.00000000000E+00  0.10414561729E+04  0.10414561729E+04  0.25500000920E-02 0. -1.
       -2   -1    0    0    0  501  0.00000000000E+00  0.00000000000E+00 -0.40660854504E+03  0.40660854504E+03  0.25500000920E-02 0.  1.
    10030    2    1    2    0    0  0.00000000000E+00  0.00000000000E+00  0.63484762784E+03  0.14480647179E+04  0.13014837366E+04 0.  0.
        3    1    3    3  502    0 -0.54543753451E+03  0.10278936522E+03 -0.60537093928E+02  0.55833010630E+03  0.10100000352E+00 0.  1.
       -3    1    3    3    0  502  0.54543753451E+03 -0.10278936522E+03  0.69538472176E+03  0.88973461162E+03  0.10100000352E+00 0. -1.
</event>
<event>
 5   0  0.1814770E-03  0.1155358E+04  0.7818609E-02  0.9152855E-01
       -1   -1    0    0    0  501  0.00000000000E+00  0.00000000000E+00  0.11196433891E+04  0.11196433891E+04  0.50400001928E-02 0. -1.
        1   -1    0    0  501    0  0.00000000000E+00  0.00000000000E+00 -0.29805302388E+03  0.29805302393E+03  0.50400001928E-02 0.  1.
    10030    2    1    2    0    0  0.00000000000E+00  0.00000000000E+00  0.82159036524E+03  0.14176964131E+04  0.11553581226E+04 0.  0.
        5    1    3    3  502    0  0.51698291690E+03 -0.34252745883E+02  0.97362005288E+02  0.52720587728E+03  0.46999998093E+01 0.  1.
       -5    1    3    3    0  502 -0.51698291690E+03  0.34252745883E+02  0.72422835995E+03  0.89049053578E+03  0.46999998093E+01 0. -1.
</event>
<event>
 5   0  0.3262927E-03  0.1317052E+04  0.7818609E-02  0.9016151E-01
        2   -1    0    0  501    0  0.00000000000E+00  0.00000000000E+00  0.80120813804E+03  0.80120813804E+03  0.25500000920E-02 0. -1.
       -2   -1    0    0    0  501  0.00000000000E+00  0.00000000000E+00 -0.54125294629E+03  0.54125294630E+03  0.25500000920E-02 0.  1.
    10030    2    1    2    0    0  0.00000000000E+00  0.00000000000E+00  0.25995519174E+03  0.13424610843E+04  0.13170516547E+04 0.  0.
        3    1    3    3  502    0 -0.58956700698E+01 -0.65406457066E+03  0.20774524123E+03  0.68628952853E+03  0.10100000352E+00 0.  1.
       -3    1    3    3    0  502  0.58956700698E+01  0.65406457066E+03  0.52209950515E+02  0.65617155581E+03  0.10100000352E+00 0. -1.
</event>
<event>
 5   0  0.3259968E-03  0.1284668E+04  0.7818609E-02  0.9041813E-01
       -2   -1    0    0    0  501  0.00000000000E+00  0.00000000000E+00  0.25860920431E+03  0.25860920433E+03  0.25500000920E-02 0. -1.
        2   -1    0    0  501    0  0.00000000000E+00  0.00000000000E+00 -0.15954301567E+04  0.15954301567E+04  0.25500000920E-02 0.  1.
    10030    2    1    2    0    0  0.00000000000E+00  0.00000000000E+00 -0.13368209524E+04  0.18540393610E+04  0.12846679312E+04 0.  0.
        4    1    3    3  502    0  0.23001053958E+03 -0.59956176353E+03 -0.68943148464E+03  0.94217649170E+03  0.12699999809E+01 0. -1.
       -4    1    3    3    0  502 -0.23001053958E+03  0.59956176353E+03 -0.64738946772E+03  0.91186286930E+03  0.12699999809E+01 0.  1.
</event>
<event>
 5   0  0.3262927E-03  0.1289405E+04  0.7818609E-02  0.9038010E-01
        2   -1    0    0  501    0  0.00000000000E+00  0.00000000000E+00  0.17433450705E+04  0.17433450705E+04  0.25500000920E-02 0.  1.
       -2   -1    0    0    0  501  0.00000000000E+00  0.00000000000E+00 -0.23841582872E+03  0.23841582873E+03  0.25500000920E-02 0. -1.
    10030    2    1    2    0    0  0.00000000000E+00  0.00000000000E+00  0.15049292417E+04  0.19817608992E+04  0.12894046064E+04 0.  0.
        3    1    3    3  502    0  0.20323671815E+03 -0.34577016543E+03 -0.23324614020E+02  0.40175392808E+03  0.10100000352E+00 0. -1.
       -3    1    3    3    0  502 -0.20323671815E+03  0.34577016543E+03  0.15282538558E+04  0.15800069711E+04  0.10100000352E+00 0.  1.
</event>
<event>
 5   0  0.3336609E-03  0.1238125E+04  0.7818609E-02  0.9080125E-01
       -2   -1    0    0    0  501  0.00000000000E+00  0.00000000000E+00  0.41872103546E+03  0.41872103547E+03  0.25500000920E-02 0.  1.
        2   -1    0    0  501    0  0.00000000000E+00  0.00000000000E+00 -0.91525891446E+03  0.91525891447E+03  0.25500000920E-02 0. -1.
    10030    2    1    2    0    0  0.00000000000E+00  0.00000000000E+00 -0.49653787901E+03  0.13339799499E+04  0.12381246470E+04 0.  0.
        1    1    3    3  502    0 -0.39674694325E+03 -0.45037966391E+03 -0.84912129594E+02  0.60618483024E+03  0.50400001928E-02 0.  1.
       -1    1    3    3    0  502  0.39674694325E+03  0.45037966391E+03 -0.41162574941E+03  0.72779511969E+03  0.50400001928E-02 0. -1.
</event>
<event>
 5   0  0.1823154E-03  0.1312846E+04  0.7818609E-02  0.9019440E-01
        1   -1    0    0  501    0  0.00000000000E+00  0.00000000000E+00  0.98942525343E+03  0.98942525344E+03  0.50400001928E-02 0. -1.
       -1   -1    0    0    0  501  0.00000000000E+00  0.00000000000E+00 -0.43549610169E+03  0.43549610172E+03  0.50400001928E-02 0.  1.
    10030    2    1    2    0    0  0.00000000000E+00  0.00000000000E+00  0.55392915173E+03  0.14249213552E+04  0.13128455215E+04 0.  0.
        2    1    3    3  502    0 -0.33666010891E+03  0.54728547568E+01 -0.33462968188E+03  0.47470728356E+03  0.25500000920E-02 0.  1.
       -2    1    3    3    0  502  0.33666010891E+03 -0.54728547568E+01  0.88855883361E+03  0.95021407160E+03  0.25500000920E-02 0. -1.
</event>
<event>
 5   0  0.1803959E-03  0.1340740E+04  0.7818609E-02  0.8997867E-01
       -1   -1    0    0    0  501  0.00000000000E+00  0.00000000000E+00  0.30743853006E+03  0.30743853010E+03  0.50400001928E-02 0. -1.
        1   -1    0    0  501    0  0.00000000000E+00  0.00000000000E+00 -0.14617432774E+04  0.14617432774E+04  0.50400001928E-02 0.  1.
    10030    2    1    2    0    0  0.00000000000E+00  0.00000000000E+00 -0.11543047473E+04  0.17691818075E+04  0.13407403993E+04 0.  0.
        4    1    3    3  502    0 -0.18741106688E+03  0.20782002019E+03 -0.13809801688E+04  0.14090492924E+04  0.12699999809E+01 0.  1.
       -4    1    3    3    0  502  0.18741106688E+03 -0.20782002019E+03  0.22667542154E+03  0.36013251507E+03  0.12699999809E+01 0. -1.
</event>
<event>
 5   0  0.3294720E-03  0.1309754E+04  0.7818609E-02  0.9021865E-01
        2   -1    0    0  501    0  0.00000000000E+00  0.00000000000E+00  0.71767223034E+03  0.71767223034E+03  0.25500000920E-02 0. -1.
       -2   -1    0    0    0  501  0.00000000000E+00  0.00000000000E+00 -0.59757665779E+03  0.59757665780E+03  0.25500000920E-02 0.  1.
    10030    2    1    2    0    0  0.00000000000E+00  0.00000000000E+00  0.12009557254E+03  0.13152488881E+04  0.13097544393E+04 0.  0.
        5    1    3    3  502    0  0.29354695474E+03  0.33937517143E+02  0.64689691124E+03  0.71120972538E+03  0.46999998093E+01 0. -1.
       -5    1    3    3    0  502 -0.29354695474E+03 -0.33937517143E+02 -0.52680133869E+03  0.60403916276E+03  0.46999998093E+01 0.  1.
</event>
<event>
 5   0  0.1857986E-03  0.1072456E+04  0.7818609E-02  0.9232462E-01
        1   -1    0    0  501    0  0.00000000000E+00  0.00000000000E+00  0.69898610189E+03  0.69898610191E+03  0.50400001928E-02 0. -1.
       -1   -1    0    0    0  501  0.00000000000E+00  0.00000000000E+00 -0.41136773545E+03  0.41136773548E+03  0.50400001928E-02 0.  1.
    10030    2    1    2    0    0  0.00000000000E+00  0.00000000000E+00  0.28761836644E+03  0.11103538374E+04  0.10724557424E+04 0.  0.
        1    1    3    3  502    0  0.16169547746E+03 -0.14238737578E+03  0.65220187705E+03  0.68686744039E+03  0.50400001928E-02 0. -1.
       -1    1    3    3    0  502 -0.16169547746E+03  0.14238737578E+03 -0.36458351061E+03  0.42348639700E+03  0.50400001928E-02 0.  1.
</event>
<event>
 5   0  0.1803959E-03  0.1272355E+04  0.7818609E-02  0.9051779E-01
        1   -1    0    0  501    0  0.00000000000E+00  0.00000000000E+00  0.78434482770E+03  0.78434482772E+03  0.50400001928E-02 0.  1.
       -1   -1    0    0    0  501  0.00000000000E+00  0.00000000000E+00 -0.51600023035E+03  0.51600023037E+03  0.50400001928E-02 0. -1.
    10030    2    1    2    0    0  0.00000000000E+00  0.00000000000E+00  0.26834459736E+03  0.13003450581E+04  0.12723554720E+04 0.  0.
        4    1    3    3  502    0  0.14408168385E+03 -0.47900920154E+03  0.53589841384E+03  0.73307439571E+03  0.12699999809E+01 0.  1.
       -4    1    3    3    0  502 -0.14408168385E+03  0.47900920154E+03 -0.26755381649E+03  0.56727066238E+03  0.12699999809E+01 0. -1.
</event>
<event>
 5   0  0.1814770E-03  0.1319745E+04  0.7818609E-02  0.9014052E-01
        1   -1    0    0  501    0  0.00000000000E+00  0.00000000000E+00  0.93187285079E+03  0.93187285081E+03  0.50400001928E-02 0.  1.
       -1   -1    0    0    0  501  0.00000000000E+00  0.00000000000E+00 -0.46726505562E+03  0.46726505565E+03  0.50400001928E-02 0. -1.
    10030    2    1    2    0    0  0.00000000000E+00  0.00000000000E+00  0.46460779517E+03  0.13991379065E+04  0.13197448534E+04 0.  0.
        5    1    3    3  502    0  0.42792639717E+03  0.37503356833E+03  0.58652730130E+03  0.81719492408E+03  0.46999998093E+01 0.  1.
       -5    1    3    3    0  502 -0.42792639717E+03 -0.37503356833E+03 -0.12191950613E+03  0.58194298238E+03  0.46999998093E+01 0. -1.
</event>
<event>
 5   0  0.3259968E-03  0.1297820E+04  0.7818609E-02  0.9031295E-01
       -2   -1    0    0    0  501  0.00000000000E+00  0.00000000000E+00  0.27335921002E+03  0.27335921003E+03  0.25500000920E-02 0.  1.
        2   -1    0    0  501    0  0.00000000000E+00  0.00000000000E+00 -0.15404071161E+04  0.15404071161E+04  0.25500000920E-02 0. -1.
    10030    2    1    2    0    0  0.00000000000E+00  0.00000000000E+00 -0.12670479061E+04  0.18137663262E+04  0.12978204381E+04 0.  0.
        4    1    3    3  502    0  0.39055437576E+03 -0.47072530752E+03 -0.33064649962E+03  0.69530119817E+03  0.12699999809E+01 0. -1.
       -4    1    3    3    0  502 -0.39055437576E+03  0.47072530752E+03 -0.93640140650E+03  0.11184651280E+04  0.12699999809E+01 0.  1.
</event>
<event>
 5   0  0.1857986E-03  0.1186748E+04  0.7818609E-02  0.9124536E-01
        1   -1    0    0  501    0  0.00000000000E+00  0.00000000000E+00  0.54367582274E+03  0.54367582277E+03  0.50400001928E-02 0.  1.
       -1   -1    0    0    0  501  0.00000000000E+00  0.00000000000E+00 -0.64761507648E+03  0.64761507649E+03  0.50400001928E-02 0. -1.
    10030    2    1    2    0    0  0.00000000000E+00  0.00000000000E+00 -0.10393925373E+03  0.11912908993E+04  0.11867479253E+04 0.  0.
        1    1    3    3  502    0 -0.58295075274E+03  0.10790787446E+03 -0.27035660042E+02  0.59346997939E+03  0.50400001928E-02 0.  1.
       -1    1    3    3    0  502  0.58295075274E+03 -0.10790787446E+03 -0.76903593690E+02  0.59782091988E+03  0.50400001928E-02 0. -1.
</event>
<event>
 5   0  0.3299104E-03  0.1316898E+04  0.7818609E-02  0.9016271E-01
       -2   -1    0    0    0  501  0.00000000000E+00  0.00000000000E+00  0.33201843607E+03  0.33201843608E+03  0.25500000920E-02 0.  1.
        2   -1    0    0  501    0  0.00000000000E+00  0.00000000000E+00 -0.13058162692E+04  0.13058162692E+04  0.25500000920E-02 0. -1.
    10030    2    1    2    0    0  0.00000000000E+00  0.00000000000E+00 -0.97379783317E+03  0.16378347053E+04  0.13168979847E+04 0.  0.
        2    1    3    3  502    0  0.55330669751E+01  0.13183733360E+03 -0.12892037907E+04  0.12959390847E+04  0.25500000920E-02 0. -1.
       -2    1    3    3    0  502 -0.55330669751E+01 -0.13183733360E+03  0.31540595751E+03  0.34189562062E+03  0.25500000920E-02 0.  1.
</event>
<event>
 5   0  0.3294720E-03  0.1393273E+04  0.7818609E-02  0.8958702E-01
       -2   -1    0    0    0  501  0.00000000000E+00  0.00000000000E+00  0.22050879437E+03  0.22050879439E+03  0.25500000920E-02 0. -1.
        2   -1    0    0  501    0  0.00000000000E+00  0.00000000000E+00 -0.22008299121E+04  0.22008299121E+04  0.25500000920E-02 0.  1.
    10030    2    1    2    0    0  0.00000000000E+00  0.00000000000E+00 -0.19803211177E+04  0.24213387065E+04  0.13932729102E+04 0.  0.
        5    1    3    3  502    0  0.20672784439E+03  0.66030913252E+03 -0.11306571172E+04  0.13255761611E+04  0.46999998093E+01 0. -1.
       -5    1    3    3    0  502 -0.20672784439E+03 -0.66030913252E+03 -0.84966400049E+03  0.10957625454E+04  0.46999998093E+01 0.  1.
</event>
<event>
 5   0  0.1873488E-03  0.1265275E+04  0.7818609E-02  0.9057565E-01
        1   -1    0    0  501    0  0.00000000000E+00  0.00000000000E+00  0.54321000842E+03  0.54321000845E+03  0.50400001928E-02 0. -1.
       -1   -1    0    0    0  501  0.00000000000E+00  0.00000000000E+00 -0.73678763899E+03  0.73678763901E+03  0.50400001928E-02 0.  1.
    10030    2    1    2    0    0  0.00000000000E+00  0.00000000000E+00 -0.19357763057E+03  0.12799976475E+04  0.12652753370E+04 0.  0.
        3    1    3    3  502    0 -0.34477703535E+03  0.35554348093E+03 -0.49500340727E+03  0.70022193221E+03  0.10100000352E+00 0.  1.
       -3    1    3    3    0  502  0.34477703535E+03 -0.35554348093E+03  0.30142577670E+03  0.57977571525E+03  0.10100000352E+00 0. -1.
</event>
<event>
 5   0  0.1254125E-03  0.1306404E+04  0.7818609E-02  0.9024502E-01
       -3   -1    0    0    0  501  0.00000000000E+00  0.00000000000E+00  0.29339104876E+03  0.29339106615E+03  0.10100000352E+00 0. -1.
        3   -1    0    0  501    0  0.00000000000E+00  0.00000000000E+00 -0.14542813017E+04  0.14542813052E+04  0.10100000352E+00 0.  1.
    10030    2    1    2    0    0  0.00000000000E+00  0.00000000000E+00 -0.11608902529E+04  0.17476723713E+04  0.13064044313E+04 0.  0.
        3    1    3    3  502    0  0.53422065011E+03 -0.29763740477E+03 -0.88753144844E+03  0.10778180783E+04  0.10100000352E+00 0.  1.
       -3    1    3    3    0  502 -0.53422065011E+03  0.29763740477E+03 -0.27335880448E+03  0.66985429304E+03  0.10100000352E+00 0. -1.
</event>
<event>
 5   0  0.1814770E-03  0.1287146E+04  0.7818609E-02  0.9039821E-01
        1   -1    0    0  501    0  0.00000000000E+00  0.00000000000E+00  0.74389543434E+03  0.74389543435E+03  0.50400001928E-02 0.  1.
       -1   -1    0    0    0  501  0.00000000000E+00  0.00000000000E+00 -0.55677974025E+03  0.55677974027E+03  0.50400001928E-02 0. -1.
    10030    2    1    2    0    0  0.00000000000E+00  0.00000000000E+00  0.18711569409E+03  0.13006751746E+04  0.12871455345E+04 0.  0.
        5    1    3    3  502    0  0.33564816081E+03  0.49041007846E+03 -0.15602430904E+03  0.61443259022E+03  0.46999998093E+01 0. -1.
       -5    1    3    3    0  502 -0.33564816081E+03 -0.49041007846E+03  0.34314000313E+03  0.68624258441E+03  0.46999998093E+01 0.  1.
</event>
<event>
 5   0  0.3299104E-03  0.1323939E+04  0.7818609E-02  0.9010794E-01
        2   -1    0    0  501    0  0.00000000000E+00  0.00000000000E+00  0.17406770608E+04  0.17406770608E+04  0.25500000920E-02 0.  1.
       -2   -1    0    0    0  501  0.00000000000E+00  0.00000000000E+00 -0.25174302223E+03  0.25174302224E+03  0.25500000920E-02 0. -1.
    10030    2    1    2    0    0  0.00000000000E+00  0.00000000000E+00  0.14889340385E+04  0.19924200830E+04  0.13239385243E+04 0.  0.
        2    1    3    3  502    0 -0.48203821082E+03  0.40206831290E+03  0.10607991750E+04  0.12326048250E+04  0.25500000920E-02 0.  1.
       -2    1    3    3    0  502  0.48203821082E+03 -0.40206831290E+03  0.42813486358E+03  0.75981525804E+03  0.25500000920E-02 0. -1.
</event>
<event>
 5   0  0.1803959E-03  0.1288520E+04  0.7818609E-02  0.9038718E-01
        1   -1    0    0  501    0  0.00000000000E+00  0.00000000000E+00  0.86107521772E+03  0.86107521773E+03  0.50400001928E-02 0.  1.
       -1   -1    0    0    0  501  0.00000000000E+00  0.00000000000E+00 -0.48203825747E+03  0.48203825750E+03  0.50400001928E-02 0. -1.
    10030    2    1    2    0    0  0.00000000000E+00  0.00000000000E+00  0.37903696024E+03  0.13431134752E+04  0.12885203879E+04 0.  0.
        4    1    3    3  502    0 -0.18332256782E+03  0.60157421640E+03  0.33534167904E+03  0.71270916671E+03  0.12699999809E+01 0. -1.
       -4    1    3    3    0  502  0.18332256782E+03 -0.60157421640E+03  0.43695281207E+02  0.63040430852E+03  0.12699999809E+01 0.  1.
</event>
<event>
 5   0  0.3262927E-03  0.1309644E+04  0.7818609E-02  0.9021952E-01
       -2   -1    0    0    0  501  0.00000000000E+00  0.00000000000E+00  0.68741898392E+03  0.68741898393E+03  0.25500000920E-02 0.  1.
        2   -1    0    0  501    0  0.00000000000E+00  0.00000000000E+00 -0.62377036093E+03  0.62377036093E+03  0.25500000920E-02 0. -1.
    10030    2    1    2    0    0  0.00000000000E+00  0.00000000000E+00  0.63648622995E+02  0.13111893449E+04  0.13096435969E+04 0.  0.
        3    1    3    3  502    0  0.54280204642E+03 -0.18796180277E+03 -0.28291574584E+03  0.64031635177E+03  0.10100000352E+00 0. -1.
       -3    1    3    3    0  502 -0.54280204642E+03  0.18796180277E+03  0.34656436884E+03  0.67087299308E+03  0.10100000352E+00 0.  1.
</event>
<event>
 5   0  0.3294720E-03  0.1291329E+04  0.7818609E-02  0.9036469E-01
       -2   -1    0    0    0  501  0.00000000000E+00  0.00000000000E+00  0.48000030178E+03  0.48000030179E+03  0.25500000920E-02 0.  1.
        2   -1    0    0  501    0  0.00000000000E+00  0.00000000000E+00 -0.86850539593E+03  0.86850539593E+03  0.25500000920E-02 0. -1.
    10030    2    1    2    0    0  0.00000000000E+00  0.00000000000E+00 -0.38850509415E+03  0.13485056977E+04  0.12913293184E+04 0.  0.
        5    1    3    3  502    0 -0.42570055003E+02  0.59533685168E+03  0.62865761287E+02  0.60017694932E+03  0.46999998093E+01 0.  1.
       -5    1    3    3    0  502  0.42570055003E+02 -0.59533685168E+03 -0.45137085543E+03  0.74832874840E+03  0.46999998093E+01 0. -1.
</event>
<event>
 5   0  0.3336609E-03  0.1338022E+04  0.7818609E-02  0.8999945E-01
       -2   -1    0    0    0  501  0.00000000000E+00  0.00000000000E+00  0.29036421767E+03  0.29036421768E+03  0.25500000920E-02 0.  1.
        2   -1    0    0  501    0  0.00000000000E+00  0.00000000000E+00 -0.15414291360E+04  0.15414291360E+04  0.25500000920E-02 0. -1.
    10030    2    1    2    0    0  0.00000000000E+00  0.00000000000E+00 -0.12510649184E+04  0.18317933537E+04  0.13380222198E+04 0.  0.
        1    1    3    3  502    0 -0.12858142897E+03 -0.16034195823E+03 -0.14971364471E+04  0.15111784371E+04  0.50400001928E-02 0. -1.
       -1    1    3    3    0  502  0.12858142897E+03  0.16034195823E+03  0.24607152878E+03  0.32061491660E+03  0.50400001928E-02 0.  1.
</event>
<event>
 5   0  0.1803959E-03  0.1282520E+04  0.7818609E-02  0.9043543E-01
        1   -1    0    0  501    0  0.00000000000E+00  0.00000000000E+00  0.96692236411E+03  0.96692236412E+03  0.50400001928E-02 0.  1.
       -1   -1    0    0    0  501  0.00000000000E+00  0.00000000000E+00 -0.42528170998E+03  0.42528171001E+03  0.50400001928E-02 0. -1.
    10030    2    1    2    0    0  0.00000000000E+00  0.00000000000E+00  0.54164065413E+03  0.13922040741E+04  0.12825200138E+04 0.  0.
        4    1    3    3  502    0 -0.22058464339E+03  0.18146728913E+03 -0.35241017907E+03  0.45363257063E+03  0.12699999809E+01 0. -1.
       -4    1    3    3    0  502  0.22058464339E+03 -0.18146728913E+03  0.89405083320E+03  0.93857150349E+03  0.12699999809E+01 0.  1.
</event>
<event>
 5   0  0.3336609E-03  0.1305527E+04  0.7818609E-02  0.9025193E-01
        2   -1    0    0  501    0  0.00000000000E+00  0.00000000000E+00  0.78342222456E+03  0.78342222457E+03  0.25500000920E-02 0. -1.
       -2   -1    0    0    0  501  0.00000000000E+00  0.00000000000E+00 -0.54389626803E+03  0.54389626804E+03  0.25500000920E-02 0.  1.
    10030    2    1    2    0    0  0.00000000000E+00  0.00000000000E+00  0.23952595653E+03  0.13273184926E+04  0.13055273635E+04 0.  0.
        1    1    3    3  502    0  0.55198063591E+03 -0.29243064385E+03 -0.72878239667E+02  0.62889549348E+03  0.50400001928E-02 0.  1.
       -1    1    3    3    0  502 -0.55198063591E+03  0.29243064385E+03  0.31240419620E+03  0.69842299912E+03  0.50400001928E-02 0. -1.
</event>
<event>
 5   0  0.1803959E-03  0.1261674E+04  0.7818609E-02  0.9060523E-01
        1   -1    0    0  501    0  0.00000000000E+00  0.00000000000E+00  0.14539753254E+04  0.14539753254E+04  0.50400001928E-02 0.  1.
       -1   -1    0    0    0  501  0.00000000000E+00  0.00000000000E+00 -0.27370146483E+03  0.27370146488E+03  0.50400001928E-02 0. -1.
    10030    2    1    2    0    0  0.00000000000E+00  0.00000000000E+00  0.11802738606E+04  0.17276767903E+04  0.12616737715E+04 0.  0.
        4    1    3    3  502    0  0.16187202443E+03  0.31326335556E+03  0.13064238610E+04  0.13531745637E+04  0.12699999809E+01 0.  1.
       -4    1    3    3    0  502 -0.16187202443E+03 -0.31326335556E+03 -0.12615000044E+03  0.37450222662E+03  0.12699999809E+01 0. -1.
</event>
<event>
 5   0  0.3259968E-03  0.1247206E+04  0.7818609E-02  0.9072512E-01
       -2   -1    0    0    0  501  0.00000000000E+00  0.00000000000E+00  0.32721754738E+03  0.32721754739E+03  0.25500000920E-02 0. -1.
        2   -1    0    0  501    0  0.00000000000E+00  0.00000000000E+00 -0.11884476042E+04  0.11884476042E+04  0.25500000920E-02 0.  1.
    10030    2    1    2    0    0  0.00000000000E+00  0.00000000000E+00 -0.86123005683E+03  0.15156651516E+04  0.12472063346E+04 0.  0.
        4    1    3    3  502    0 -0.16612714072E+03 -0.49501938159E+03 -0.84493601660E+03  0.99325772088E+03  0.12699999809E+01 0.  1.
       -4    1    3    3    0  502  0.16612714072E+03  0.49501938159E+03 -0.16294040231E+02  0.52240743073E+03  0.12699999809E+01 0. -1.
</event>
<event>
 5   0  0.1857986E-03  0.1286787E+04  0.7818609E-02  0.9040109E-01
       -1   -1    0    0    0  501  0.00000000000E+00  0.00000000000E+00  0.22163326140E+03  0.22163326146E+03  0.50400001928E-02 0. -1.
        1   -1    0    0  501    0  0.00000000000E+00  0.00000000000E+00 -0.18677495950E+04  0.18677495950E+04  0.50400001928E-02 0.  1.
    10030    2    1    2    0    0  0.00000000000E+00  0.00000000000E+00 -0.16461163336E+04  0.20893828565E+04  0.12867873706E+04 0.  0.
        1    1    3    3  502    0 -0.24775438749E+03  0.46674012205E+03 -0.22706905573E+03  0.57514253376E+03  0.50400001928E-02 0. -1.
       -1    1    3    3    0  502  0.24775438749E+03 -0.46674012205E+03 -0.14190472779E+04  0.15142403227E+04  0.50400001928E-02 0.  1.
</event>
<event>
 5   0  0.3294720E-03  0.1274126E+04  0.7818609E-02  0.9050339E-01
        2   -1    0    0  501    0  0.00000000000E+00  0.00000000000E+00  0.10553499516E+04  0.10553499516E+04  0.25500000920E-02 0. -1.
       -2   -1    0    0    0  501  0.00000000000E+00  0.00000000000E+00 -0.38456356488E+03  0.38456356489E+03  0.25500000920E-02 0.  1.
    10030    2    1    2    0    0  0.00000000000E+00  0.00000000000E+00  0.67078638668E+03  0.14399135164E+04  0.12741258016E+04 0.  0.
        5    1    3    3  502    0 -0.32959350574E+03 -0.16352328428E+03  0.92311506249E+03  0.99374808283E+03  0.46999998093E+01 0. -1.
       -5    1    3    3    0  502  0.32959350574E+03  0.16352328428E+03 -0.25232867581E+03  0.44616543362E+03  0.46999998093E+01 0.  1.
</event>
<event>
 5   0  0.3294720E-03  0.1302588E+04  0.7818609E-02  0.9027515E-01
       -2   -1    0    0    0  501  0.00000000000E+00  0.00000000000E+00  0.15814130258E+03  0.15814130260E+03  0.25500000920E-02 0.  1.
        2   -1    0    0  501    0  0.00000000000E+00  0.00000000000E+00 -0.26823108914E+04  0.26823108914E+04  0.25500000920E-02 0. -1.
    10030    2    1    2    0    0  0.00000000000E+00  0.00000000000E+00 -0.25241695888E+04  0.28404521940E+04  0.13025884052E+04 0.  0.
        5    1    3    3  502    0  0.49187192180E+03  0.31415548477E+03 -0.63184976723E+03  0.86016735256E+03  0.46999998093E+01 0.  1.
       -5    1    3    3    0  502 -0.49187192180E+03 -0.31415548477E+03 -0.18923198216E+04  0.19802848414E+04  0.46999998093E+01 0. -1.
</event>
<event>
 5   0  0.3299104E-03  0.1323040E+04  0.7818609E-02  0.9011491E-01
        2   -1    0    0  501    0  0.00000000000E+00  0.00000000000E+00  0.90648202388E+03  0.90648202388E+03  0.25500000920E-02 0.  1.
       -2   -1    0    0    0  501  0.00000000000E+00  0.00000000000E+00 -0.48275527305E+03  0.48275527306E+03  0.25500000920E-02 0. -1.
    10030    2    1    2    0    0  0.00000000000E+00  0.00000000000E+00  0.42372675082E+03  0.13892372969E+04  0.13230404030E+04 0.  0.
        2    1    3    3  502    0  0.53794310574E+03  0.32758600941E+03  0.42425489214E+03  0.75939949439E+03  0.25500000920E-02 0.  1.
       -2    1    3    3    0  502 -0.53794310574E+03 -0.32758600941E+03 -0.52814132083E+00  0.62983780254E+03  0.25500000920E-02 0. -1.
</event>
<event>
 5   0  0.3299104E-03  0.1289929E+04  0.7818609E-02  0.9037590E-01
        2   -1    0    0  501    0  0.00000000000E+00  0.00000000000E+00  0.62861958376E+03  0.62861958377E+03  0.25500000920E-02 0.  1.
       -2   -1    0    0    0  501  0.00000000000E+00  0.00000000000E+00 -0.66173423942E+03  0.66173423942E+03  0.25500000920E-02 0. -1.
    10030    2    1    2    0    0  0.00000000000E+00  0.00000000000E+00 -0.33114655655E+02  0.12903538232E+04  0.12899288386E+04 0.  0.
        2    1    3    3  502    0 -0.41731246244E+03  0.41501901434E+03  0.24732615018E+03  0.63840480743E+03  0.25500000920E-02 0.  1.
       -2    1    3    3    0  502  0.41731246244E+03 -0.41501901434E+03 -0.28044080583E+03  0.65194901577E+03  0.25500000920E-02 0. -1.
</event>
<event>
 5   0  0.3336609E-03  0.1301994E+04  0.7818609E-02  0.9027985E-01
       -2   -1    0    0    0  501  0.00000000000E+00  0.00000000000E+00  0.14456094833E+04  0.14456094833E+04  0.25500000920E-02 0.  1.
        2   -1    0    0  501    0  0.00000000000E+00  0.00000000000E+00 -0.29316166687E+03  0.29316166688E+03  0.25500000920E-02 0. -1.
    10030    2    1    2    0    0  0.00000000000E+00  0.00000000000E+00  0.11524478165E+04  0.17387711502E+04  0.13019942946E+04 0.  0.
        1    1    3    3  502    0 -0.12914412092E+03 -0.82122302324E+01  0.14282602118E+04  0.14341104830E+04  0.50400001928E-02 0.  1.
       -1    1    3    3    0  502  0.12914412092E+03  0.82122302324E+01 -0.27581239537E+03  0.30466066723E+03  0.50400001928E-02 0. -1.
</event>
<event>
 5   0  0.1873488E-03  0.1261541E+04  0.7818609E-02  0.9060632E-01
       -1   -1    0    0    0  501  0.00000000000E+00  0.00000000000E+00  0.24681216619E+03  0.24681216624E+03  0.50400001928E-02 0. -1.
        1   -1    0    0  501    0  0.00000000000E+00  0.00000000000E+00 -0.16120414794E+04  0.16120414794E+04  0.50400001928E-02 0.  1.
    10030    2    1    2    0    0  0.00000000000E+00  0.00000000000E+00 -0.13652293132E+04  0.18588536457E+04  0.12615410411E+04 0.  0.
        3    1    3    3  502    0  0.48825522210E+00 -0.45623943195E+03 -0.13244101869E+04  0.14007915659E+04  0.10100000352E+00 0.  1.
       -3    1    3    3    0  502 -0.48825522210E+00  0.45623943195E+03 -0.40819126326E+02  0.45806207978E+03  0.10100000352E+00 0. -1.
</event>
<event>
 5   0  0.1873488E-03  0.1288808E+04  0.7818609E-02  0.9038488E-01
        1   -1    0    0  501    0  0.00000000000E+00  0.00000000000E+00  0.97654414889E+03  0.97654414890E+03  0.50400001928E-02 0. -1.
       -1   -1    0    0    0  501  0.00000000000E+00  0.00000000000E+00 -0.42523056977E+03  0.42523056980E+03  0.50400001928E-02 0.  1.
    10030    2    1    2    0    0  0.00000000000E+00  0.00000000000E+00  0.55131357912E+03  0.14017747187E+04  0.12888078598E+04 0.  0.
        3    1    3    3  502    0 -0.44621212612E+03  0.12750970744E+03 -0.21062523754E+03  0.50963417063E+03  0.10100000352E+00 0.  1.
       -3    1    3    3    0  502  0.44621212612E+03 -0.12750970744E+03  0.76193881666E+03  0.89214054807E+03  0.10100000352E+00 0. -1.
</event>
<event>
 5   0  0.1254125E-03  0.1318499E+04  0.7818609E-02  0.9015023E-01
       -3   -1    0    0    0  501  0.00000000000E+00  0.00000000000E+00  0.40808982171E+03  0.40808983421E+03  0.10100000352E+00 0.  1.
        3   -1    0    0  501    0  0.00000000000E+00  0.00000000000E+00 -0.10649859974E+04  0.10649860022E+04  0.10100000352E+00 0. -1.
    10030    2    1    2    0    0  0.00000000000E+00  0.00000000000E+00 -0.65689617572E+03  0.14730758364E+04  0.13184990839E+04 0.  0.
        4    1    3    3  502    0 -0.81312052690E+02  0.10480414964E+03 -0.10499208816E+04  0.10582679387E+04  0.12699999809E+01 0. -1.
       -4    1    3    3    0  502  0.81312052690E+02 -0.10480414964E+03  0.39302470584E+03  0.41480789770E+03  0.12699999809E+01 0.  1.
</event>
<event>
 5   0  0.3262927E-03  0.1318582E+04  0.7818609E-02  0.9014958E-01
        2   -1    0    0  501    0  0.00000000000E+00  0.00000000000E+00  0.15258062086E+04  0.15258062086E+04  0.25500000920E-02 0. -1.
       -2   -1    0    0    0  501  0.00000000000E+00  0.00000000000E+00 -0.28487534780E+03  0.28487534781E+03  0.25500000920E-02 0.  1.
    10030    2    1    2    0    0  0.00000000000E+00  0.00000000000E+00  0.12409308608E+04  0.18106815564E+04  0.13185819267E+04 0.  0.
        3    1    3    3  502    0  0.46493686022E+03  0.44770375418E+03  0.80500494220E+03  0.10318129204E+04  0.10100000352E+00 0. -1.
       -3    1    3    3    0  502 -0.46493686022E+03 -0.44770375418E+03  0.43592591860E+03  0.77886863604E+03  0.10100000352E+00 0.  1.
</event>
<event>
 5   0  0.1857986E-03  0.1362632E+04  0.7818609E-02  0.8981321E-01
       -1   -1    0    0    0  501  0.00000000000E+00  0.00000000000E+00  0.11090943409E+04  0.11090943409E+04  0.50400001928E-02 0.  1.
        1   -1    0    0  501    0  0.00000000000E+00  0.00000000000E+00 -0.41853187556E+03  0.41853187560E+03  0.50400001928E-02 0. -1.
    10030    2    1    2    0    0  0.00000000000E+00  0.00000000000E+00  0.69056246536E+03  0.15276262165E+04  0.13626317694E+04 0.  0.
        1    1    3    3  502    0  0.58356836517E+03  0.32809706395E+03  0.48705136629E+03  0.82790020753E+03  0.50400001928E-02 0.  1.
       -1    1    3    3    0  502 -0.58356836517E+03 -0.32809706395E+03  0.20351109906E+03  0.69972600900E+03  0.50400001928E-02 0. -1.
</event>
<event>
 5   0  0.3299104E-03  0.1346983E+04  0.7818609E-02  0.8993115E-01
       -2   -1    0    0    0  501  0.00000000000E+00  0.00000000000E+00  0.25999219821E+03  0.25999219822E+03  0.25500000920E-02 0.  1.
        2   -1    0    0  501    0  0.00000000000E+00  0.00000000000E+00 -0.17446335479E+04  0.17446335479E+04  0.25500000920E-02 0. -1.
    10030    2    1    2    0    0  0.00000000000E+00  0.00000000000E+00 -0.14846413497E+04  0.20046257461E+04  0.13469834612E+04 0.  0.
        2    1    3    3  502    0 -0.40776079780E+03  0.45341715923E+03 -0.31684434931E+03  0.68720181184E+03  0.25500000920E-02 0.  1.
       -2    1    3    3    0  502  0.40776079780E+03 -0.45341715923E+03 -0.11677970004E+04  0.13174239343E+04  0.25500000920E-02 0. -1.
</event>
<event>
 5   0  0.1803959E-03  0.1287561E+04  0.7818609E-02  0.9039488E-01
        1   -1    0    0  501    0  0.00000000000E+00  0.00000000000E+00  0.12822188395E+04  0.12822188395E+04  0.50400001928E-02 0. -1.
       -1   -1    0    0    0  501  0.00000000000E+00  0.00000000000E+00 -0.32323156669E+03  0.32323156673E+03  0.50400001928E-02 0.  1.
    10030    2    1    2    0    0  0.00000000000E+00  0.00000000000E+00  0.95898727285E+03  0.16054504063E+04  0.12875614228E+04 0.  0.
        4    1    3    3  502    0  0.21275944893E+03  0.27067361196E+03  0.11577860833E+04  0.12078911437E+04  0.12699999809E+01 0. -1.
       -4    1    3    3    0  502 -0.21275944893E+03 -0.27067361196E+03 -0.19879881050E+03  0.39755926259E+03  0.12699999809E+01 0.  1.
</event>
<event>
 5   0  0.1857986E-03  0.1302595E+04  0.7818609E-02  0.9027510E-01
        1   -1    0    0  501    0  0.00000000000E+00  0.00000000000E+00  0.96024797500E+03  0.96024797501E+03  0.50400001928E-02 0.  1.
       -1   -1    0    0    0  501  0.00000000000E+00  0.00000000000E+00 -0.44174908257E+03  0.44174908260E+03  0.50400001928E-02 0. -1.
    10030    2    1    2    0    0  0.00000000000E+00  0.00000000000E+00  0.51849889243E+03  0.14019970576E+04  0.13025953509E+04 0.  0.
        1    1    3    3  502    0 -0.19990837768E+03  0.15344995873E+03 -0.38714505493E+03  0.46194322474E+03  0.50400001928E-02 0. -1.
       -1    1    3    3    0  502  0.19990837768E+03 -0.15344995873E+03  0.90564394735E+03  0.94005383287E+03  0.50400001928E-02 0.  1.
</event>
<event>
 5   0  0.1823154E-03  0.1305902E+04  0.7818609E-02  0.9024898E-01
        1   -1    0    0  501    0  0.00000000000E+00  0.00000000000E+00  0.40066446871E+03  0.40066446874E+03  0.50400001928E-02 0.  1.
       -1   -1    0    0    0  501  0.00000000000E+00  0.00000000000E+00 -0.10640955643E+04  0.10640955643E+04  0.50400001928E-02 0. -1.
    10030    2    1    2    0    0  0.00000000000E+00  0.00000000000E+00 -0.66343109563E+03  0.14647600331E+04  0.13059024220E+04 0.  0.
        2    1    3    3  502    0  0.16971273605E+03  0.55096474373E+03  0.12139293565E+02  0.57663846912E+03  0.25500000920E-02 0.  1.
       -2    1    3    3    0  502 -0.16971273605E+03 -0.55096474373E+03 -0.67557038919E+03  0.88812156396E+03  0.25500000920E-02 0. -1.
</event>
<event>
 5   0  0.1873488E-03  0.1313652E+04  0.7818609E-02  0.9018809E-01
        1   -1    0    0  501    0  0.00000000000E+00  0.00000000000E+00  0.11887519770E+04  0.11887519770E+04  0.50400001928E-02 0.  1.
       -1   -1    0    0    0  501  0.00000000000E+00  0.00000000000E+00 -0.36291866722E+03  0.36291866726E+03  0.50400001928E-02 0. -1.
    10030    2    1    2    0    0  0.00000000000E+00  0.00000000000E+00  0.82583330980E+03  0.15516706443E+04  0.13136518309E+04 0.  0.
        3    1    3    3  502    0 -0.11752416075E+03  0.20608228372E+03  0.11363775323E+04  0.11608771434E+04  0.10100000352E+00 0.  1.
       -3    1    3    3    0  502  0.11752416075E+03 -0.20608228372E+03 -0.31054422247E+03  0.39079350089E+03  0.10100000352E+00 0. -1.
</event>
<event>
 5   0  0.3259968E-03  0.1298475E+04  0.7818609E-02  0.9030776E-01
        2   -1    0    0  501    0  0.00000000000E+00  0.00000000000E+00  0.15271874398E+04  0.15271874398E+04  0.25500000920E-02 0. -1.
       -2   -1    0    0    0  501  0.00000000000E+00  0.00000000000E+00 -0.27600349652E+03  0.27600349653E+03  0.25500000920E-02 0.  1.
    10030    2    1    2    0    0  0.00000000000E+00  0.00000000000E+00  0.12511839433E+04  0.18031909363E+04  0.12984746023E+04 0.  0.
        4    1    3    3  502    0  0.16614748146E+03 -0.60989932272E+03  0.83121934983E+03  0.10442745759E+04  0.12699999809E+01 0.  1.
       -4    1    3    3    0  502 -0.16614748146E+03  0.60989932272E+03  0.41996459343E+03  0.75891636041E+03  0.12699999809E+01 0. -1.
</event>
<event>
 5   0  0.3259968E-03  0.1046620E+04  0.7818609E-02  0.9258840E-01
        2   -1    0    0  501    0  0.00000000000E+00  0.00000000000E+00  0.28509752898E+04  0.28509752898E+04  0.25500000920E-02 0.  1.
       -2   -1    0    0    0  501  0.00000000000E+00  0.00000000000E+00 -0.96056068302E+02  0.96056068336E+02  0.25500000920E-02 0. -1.
    10030    2    1    2    0    0  0.00000000000E+00  0.00000000000E+00  0.27549192215E+04  0.29470313581E+04  0.10466202314E+04 0.  0.
        4    1    3    3  502    0  0.48862695988E+03 -0.17909638034E+03  0.15321995189E+04  0.16181683466E+04  0.12699999809E+01 0. -1.
       -4    1    3    3    0  502 -0.48862695988E+03  0.17909638034E+03  0.12227197026E+04  0.13288630116E+04  0.12699999809E+01 0.  1.
</event>
<event>
 5   0  0.1823154E-03  0.1319194E+04  0.7818609E-02  0.9014481E-01
        1   -1    0    0  501    0  0.00000000000E+00  0.00000000000E+00  0.68916122650E+03  0.68916122651E+03  0.50400001928E-02 0. -1.
       -1   -1    0    0    0  501  0.00000000000E+00  0.00000000000E+00 -0.63130123393E+03  0.63130123395E+03  0.50400001928E-02 0.  1.
    10030    2    1    2    0    0  0.00000000000E+00  0.00000000000E+00  0.57859992569E+02  0.13204624605E+04  0.13191941975E+04 0.  0.
        2    1    3    3  502    0 -0.18196124469E+03 -0.56381744003E+03  0.31915414312E+03  0.67294826497E+03  0.25500000920E-02 0. -1.
       -2    1    3    3    0  502  0.18196124469E+03  0.56381744003E+03 -0.26129415055E+03  0.64751419549E+03  0.25500000920E-02 0.  1.
</event>
<event>
 5   0  0.3259968E-03  0.1286874E+04  0.7818609E-02  0.9040040E-01
        2   -1    0    0  501    0  0.00000000000E+00  0.00000000000E+00  0.51398205083E+03  0.51398205084E+03  0.25500000920E-02 0. -1.
       -2   -1    0    0    0  501  0.00000000000E+00  0.00000000000E+00 -0.80549682540E+03  0.80549682541E+03  0.25500000920E-02 0.  1.
    10030    2    1    2    0    0  0.00000000000E+00  0.00000000000E+00 -0.29151477457E+03  0.13194788762E+04  0.12868735917E+04 0.  0.
        4    1    3    3  502    0  0.20508036580E+03  0.49099358738E+03  0.22517744602E+03  0.57778815701E+03  0.12699999809E+01 0. -1.
       -4    1    3    3    0  502 -0.20508036580E+03 -0.49099358738E+03 -0.51669222060E+03  0.74169071924E+03  0.12699999809E+01 0.  1.
</event>
<event>
 5   0  0.3336609E-03  0.1310679E+04  0.7818609E-02  0.9021139E-01
       -2   -1    0    0    0  501  0.00000000000E+00  0.00000000000E+00  0.44112557782E+03  0.44112557782E+03  0.25500000920E-02 0.  1.
        2   -1    0    0  501    0  0.00000000000E+00  0.00000000000E+00 -0.97357737550E+03  0.97357737550E+03  0.25500000920E-02 0. -1.
    10030    2    1    2    0    0  0.00000000000E+00  0.00000000000E+00 -0.53245179768E+03  0.14147029533E+04  0.13106790337E+04 0.  0.
        1    1    3    3  502    0  0.27515558049E+03  0.10408595307E+03  0.36584928093E+03  0.46945732019E+03  0.50400001928E-02 0.  1.
       -1    1    3    3    0  502 -0.27515558049E+03 -0.10408595307E+03 -0.89830107861E+03  0.94524563313E+03  0.50400001928E-02 0. -1.
</event>
<event>
 5   0  0.3259968E-03  0.1303934E+04  0.7818609E-02  0.9026452E-01
       -2   -1    0    0    0  501  0.00000000000E+00  0.00000000000E+00  0.79995488133E+03  0.79995488134E+03  0.25500000920E-02 0. -1.
        2   -1    0    0  501    0  0.00000000000E+00  0.00000000000E+00 -0.53135581307E+03  0.53135581307E+03  0.25500000920E-02 0.  1.
    10030    2    1    2    0    0  0.00000000000E+00  0.00000000000E+00  0.26859906827E+03  0.13313106944E+04  0.13039335511E+04 0.  0.
        4    1    3    3  502    0 -0.25105659569E+03  0.31974511413E+03 -0.38610065020E+03  0.56066182073E+03  0.12699999809E+01 0.  1.
       -4    1    3    3    0  502  0.25105659569E+03 -0.31974511413E+03  0.65469971846E+03  0.77064887368E+03  0.12699999809E+01 0. -1.
</event>
<event>
 5   0  0.1873488E-03  0.1331910E+04  0.7818609E-02  0.9004636E-01
        1   -1    0    0  501    0  0.00000000000E+00  0.00000000000E+00  0.58801756966E+03  0.58801756968E+03  0.50400001928E-02 0.  1.
       -1   -1    0    0    0  501  0.00000000000E+00  0.00000000000E+00 -0.75422235826E+03  0.75422235828E+03  0.50400001928E-02 0. -1.
    10030    2    1    2    0    0  0.00000000000E+00  0.00000000000E+00 -0.16620478860E+03  0.13422399280E+04  0.13319099040E+04 0.  0.
        3    1    3    3  502    0 -0.37485527604E+02  0.54896330582E+03 -0.46115202840E+03  0.71793250338E+03  0.10100000352E+00 0. -1.
       -3    1    3    3    0  502  0.37485527604E+02 -0.54896330582E+03  0.29494723979E+03  0.62430742457E+03  0.10100000352E+00 0.  1.
</event>
<event>
 5   0  0.3294720E-03  0.1301343E+04  0.7818609E-02  0.9028501E-01
       -2   -1    0    0    0  501  0.00000000000E+00  0.00000000000E+00  0.12241035071E+04  0.12241035071E+04  0.25500000920E-02 0.  1.
        2   -1    0    0  501    0  0.00000000000E+00  0.00000000000E+00 -0.34586386624E+03  0.34586386625E+03  0.25500000920E-02 0. -1.
    10030    2    1    2    0    0  0.00000000000E+00  0.00000000000E+00  0.87823964083E+03  0.15699673733E+04  0.13013426476E+04 0.  0.
        5    1    3    3  502    0  0.54287914542E+03 -0.31497356926E+03  0.64606577805E+03  0.90074924115E+03  0.46999998093E+01 0.  1.
       -5    1    3    3    0  502 -0.54287914542E+03  0.31497356926E+03  0.23217386278E+03  0.66921813217E+03  0.46999998093E+01 0. -1.
</event>
<event>
 5   0  0.1873488E-03  0.1257298E+04  0.7818609E-02  0.9064131E-01
       -1   -1    0    0    0  501  0.00000000000E+00  0.00000000000E+00  0.74372328273E+03  0.74372328275E+03  0.50400001928E-02 0.  1.
        1   -1    0    0  501    0  0.00000000000E+00  0.00000000000E+00 -0.53138016513E+03  0.53138016515E+03  0.50400001928E-02 0. -1.
    10030    2    1    2    0    0  0.00000000000E+00  0.00000000000E+00  0.21234311761E+03  0.12751034479E+04  0.12572983748E+04 0.  0.
        3    1    3    3  502    0 -0.13567372245E+03  0.15920450263E+03  0.70739594753E+03  0.73767368762E+03  0.10100000352E+00 0.  1.
       -3    1    3    3    0  502  0.13567372245E+03 -0.15920450263E+03 -0.49505282992E+03  0.53742976028E+03  0.10100000352E+00 0. -1.
</event>
<event>
 5   0  0.1873488E-03  0.1281647E+04  0.7818609E-02  0.9044247E-01
        1   -1    0    0  501    0  0.00000000000E+00  0.00000000000E+00  0.58723604298E+03  0.58723604300E+03  0.50400001928E-02 0. -1.
       -1   -1    0    0    0  501  0.00000000000E+00  0.00000000000E+00 -0.69930060090E+03  0.69930060092E+03  0.50400001928E-02 0.  1.
    10030    2    1    2    0    0  0.00000000000E+00  0.00000000000E+00 -0.11206455792E+03  0.12865366439E+04  0.12816466249E+04 0.  0.
        3    1    3    3  502    0 -0.26156260254E+03  0.13921763990E+03  0.51434157924E+03  0.59358555966E+03  0.10100000352E+00 0. -1.
       -3    1    3    3    0  502  0.26156260254E+03 -0.13921763990E+03 -0.62640613716E+03  0.69295108426E+03  0.10100000352E+00 0.  1.
</event>
<event>
 5   0  0.3262927E-03  0.1115270E+04  0.7818609E-02  0.9190435E-01
       -2   -1    0    0    0  501  0.00000000000E+00  0.00000000000E+00  0.50618239404E+03  0.50618239404E+03  0.25500000920E-02 0. -1.
        2   -1    0    0  501    0  0.00000000000E+00  0.00000000000E+00 -0.61431800016E+03  0.61431800017E+03  0.25500000920E-02 0.  1.
    10030    2    1    2    0    0  0.00000000000E+00  0.00000000000E+00 -0.10813560612E+03  0.11205003942E+04  0.11152702920E+04 0.  0.
        3    1    3    3  502    0  0.80030823585E+02 -0.50053945540E+03  0.17942746382E+03  0.53771637887E+03  0.10100000352E+00 0. -1.
       -3    1    3    3    0  502 -0.80030823585E+02  0.50053945540E+03 -0.28756306994E+03  0.58278401534E+03  0.10100000352E+00 0.  1.
</event>
<event>
 5   0  0.1857986E-03  0.1326077E+04  0.7818609E-02  0.9009138E-01
        1   -1    0    0  501    0  0.00000000000E+00  0.00000000000E+00  0.11382832524E+04  0.11382832524E+04  0.50400001928E-02 0.  1.
       -1   -1    0    0    0  501  0.00000000000E+00  0.00000000000E+00 -0.38621317383E+03  0.38621317387E+03  0.50400001928E-02 0. -1.
    10030    2    1    2    0    0  0.00000000000E+00  0.00000000000E+00  0.75207007859E+03  0.15244964263E+04  0.13260769023E+04 0.  0.
        1    1    3    3  502    0  0.15951785977E+02 -0.57938677748E+03  0.58679163950E+01  0.57963603223E+03  0.50400001928E-02 0. -1.
       -1    1    3    3    0  502 -0.15951785977E+02  0.57938677748E+03  0.74620216219E+03  0.94486039407E+03  0.50400001928E-02 0.  1.
</event>
<event>
 5   0  0.1803959E-03  0.1224985E+04  0.7818609E-02  0.9091264E-01
        1   -1    0    0  501    0  0.00000000000E+00  0.00000000000E+00  0.12250399979E+04  0.12250399979E+04  0.50400001928E-02 0.  1.
       -1   -1    0    0    0  501  0.00000000000E+00  0.00000000000E+00 -0.30623229463E+03  0.30623229467E+03  0.50400001928E-02 0. -1.
    10030    2    1    2    0    0  0.00000000000E+00  0.00000000000E+00  0.91880770327E+03  0.15312722926E+04  0.12249845870E+04 0.  0.
        4    1    3    3  502    0 -0.35719777471E+03  0.39439670725E+03  0.80237047014E+02  0.53812508728E+03  0.12699999809E+01 0. -1.
       -4    1    3    3    0  502  0.35719777471E+03 -0.39439670725E+03  0.83857065626E+03  0.99314720530E+03  0.12699999809E+01 0.  1.
</event>
<event>
 5   0  0.1814770E-03  0.1305548E+04  0.7818609E-02  0.9025177E-01
       -1   -1    0    0    0  501  0.00000000000E+00  0.00000000000E+00  0.14358167621E+04  0.14358167621E+04  0.50400001928E-02 0.  1.
        1   -1    0    0  501    0  0.00000000000E+00  0.00000000000E+00 -0.29677443314E+03  0.29677443319E+03  0.50400001928E-02 0. -1.
    10030    2    1    2    0    0  0.00000000000E+00  0.00000000000E+00  0.11390423290E+04  0.17325911953E+04  0.13055477099E+04 0.  0.
        5    1    3    3  502    0  0.64355693514E+03  0.14158298633E+02  0.42581630971E+03  0.77182096746E+03  0.46999998093E+01 0.  1.
       -5    1    3    3    0  502 -0.64355693514E+03 -0.14158298633E+02  0.71322601926E+03  0.96077022786E+03  0.46999998093E+01 0. -1.
</event>
<event>
 5   0  0.1803959E-03  0.1283893E+04  0.7818609E-02  0.9042437E-01
       -1   -1    0    0    0  501  0.00000000000E+00  0.00000000000E+00  0.19047455874E+03  0.19047455881E+03  0.50400001928E-02 0.  1.
        1   -1    0    0  501    0  0.00000000000E+00  0.00000000000E+00 -0.21635175236E+04  0.21635175237E+04  0.50400001928E-02 0. -1.
    10030    2    1    2    0    0  0.00000000000E+00  0.00000000000E+00 -0.19730429649E+04  0.23539920825E+04  0.12838925901E+04 0.  0.
        4    1    3    3  502    0  0.55942793265E+03  0.86204785154E+02 -0.15417439423E+04  0.16423662421E+04  0.12699999809E+01 0.  1.
       -4    1    3    3    0  502 -0.55942793265E+03 -0.86204785154E+02 -0.43129902263E+03  0.71162584034E+03  0.12699999809E+01 0. -1.
</event>
<event>
 5   0  0.1857986E-03  0.1288582E+04  0.7818609E-02  0.9038669E-01
       -1   -1    0    0    0  501  0.00000000000E+00  0.00000000000E+00  0.18539657649E+04  0.18539657650E+04  0.50400001928E-02 0. -1.
        1   -1    0    0  501    0  0.00000000000E+00  0.00000000000E+00 -0.22390420268E+03  0.22390420274E+03  0.50400001928E-02 0.  1.
    10030    2    1    2    0    0  0.00000000000E+00  0.00000000000E+00  0.16300615623E+04  0.20778699677E+04  0.12885817420E+04 0.  0.
        1    1    3    3  502    0 -0.17296092297E+03 -0.88846329728E+02 -0.17546060217E+03  0.26190756789E+03  0.50400001928E-02 0.  1.
       -1    1    3    3    0  502  0.17296092297E+03  0.88846329728E+02  0.18055221644E+04  0.18159623998E+04  0.50400001928E-02 0. -1.
</event>
<event>
 5   0  0.3259968E-03  0.1360301E+04  0.7818609E-02  0.8983067E-01
        2   -1    0    0  501    0  0.00000000000E+00  0.00000000000E+00  0.66059513351E+03  0.66059513352E+03  0.25500000920E-02 0.  1.
       -2   -1    0    0    0  501  0.00000000000E+00  0.00000000000E+00 -0.70028494920E+03  0.70028494920E+03  0.25500000920E-02 0. -1.
    10030    2    1    2    0    0  0.00000000000E+00  0.00000000000E+00 -0.39689815682E+02  0.13608800827E+04  0.13603011865E+04 0.  0.
        4    1    3    3  502    0  0.41038860352E+03 -0.50259904137E+03  0.18415021624E+03  0.67449056133E+03  0.12699999809E+01 0.  1.
       -4    1    3    3    0  502 -0.41038860352E+03  0.50259904137E+03 -0.22384003192E+03  0.68638952139E+03  0.12699999809E+01 0. -1.
</event>
<event>
 5   0  0.1803959E-03  0.1072787E+04  0.7818609E-02  0.9232129E-01
        1   -1    0    0  501    0  0.00000000000E+00  0.00000000000E+00  0.17407953294E+04  0.17407953294E+04  0.50400001928E-02 0.  1.
       -1   -1    0    0    0  501  0.00000000000E+00  0.00000000000E+00 -0.16527957602E+03  0.16527957610E+03  0.50400001928E-02 0. -1.
    10030    2    1    2    0    0  0.00000000000E+00  0.00000000000E+00  0.15755157533E+04  0.19060749055E+04  0.10727868643E+04 0.  0.
        4    1    3    3  502    0  0.14209187342E+03  0.30870334676E+03  0.15251168265E+04  0.15625206572E+04  0.12699999809E+01 0.  1.
       -4    1    3    3    0  502 -0.14209187342E+03 -0.30870334676E+03  0.50398926864E+02  0.34355424830E+03  0.12699999809E+01 0. -1.
</event>
<event>
 5   0  0.1803959E-03  0.1236354E+04  0.7818609E-02  0.9081618E-01
       -1   -1    0    0    0  501  0.00000000000E+00  0.00000000000E+00  0.12659042540E+04  0.12659042540E+04  0.50400001928E-02 0. -1.
        1   -1    0    0  501    0  0.00000000000E+00  0.00000000000E+00 -0.30187352922E+03  0.30187352927E+03  0.50400001928E-02 0.  1.
    10030    2    1    2    0    0  0.00000000000E+00  0.00000000000E+00  0.96403072478E+03  0.15677777833E+04  0.12363542936E+04 0.  0.
        4    1    3    3  502    0  0.25180168465E+03  0.52875676079E+03  0.73293072716E+03  0.93817741616E+03  0.12699999809E+01 0.  1.
       -4    1    3    3    0  502 -0.25180168465E+03 -0.52875676079E+03  0.23109999761E+03  0.62960036712E+03  0.12699999809E+01 0. -1.
</event>
<event>
 5   0  0.1873488E-03  0.1350749E+04  0.7818609E-02  0.8990261E-01
        1   -1    0    0  501    0  0.00000000000E+00  0.00000000000E+00  0.93587461132E+03  0.93587461133E+03  0.50400001928E-02 0.  1.
       -1   -1    0    0    0  501  0.00000000000E+00  0.00000000000E+00 -0.48738442134E+03  0.48738442137E+03  0.50400001928E-02 0. -1.
    10030    2    1    2    0    0  0.00000000000E+00  0.00000000000E+00  0.44849018998E+03  0.14232590327E+04  0.13507489862E+04 0.  0.
        3    1    3    3  502    0  0.21015314008E+03 -0.13457723203E+03  0.88551332456E+03  0.92000501729E+03  0.10100000352E+00 0.  1.
       -3    1    3    3    0  502 -0.21015314008E+03  0.13457723203E+03 -0.43702313458E+03  0.50325401541E+03  0.10100000352E+00 0. -1.
</event>
<event>
 5   0  0.1873488E-03  0.1285792E+04  0.7818609E-02  0.9040909E-01
       -1   -1    0    0    0  501  0.00000000000E+00  0.00000000000E+00  0.30018248420E+03  0.30018248424E+03  0.50400001928E-02 0.  1.
        1   -1    0    0  501    0  0.00000000000E+00  0.00000000000E+00 -0.13768793711E+04  0.13768793712E+04  0.50400001928E-02 0. -1.
    10030    2    1    2    0    0  0.00000000000E+00  0.00000000000E+00 -0.10766968869E+04  0.16770618554E+04  0.12857916940E+04 0.  0.
        3    1    3    3  502    0 -0.24961917711E+03  0.78757343712E+02  0.22753685935E+03  0.34682197931E+03  0.10100000352E+00 0.  1.
       -3    1    3    3    0  502  0.24961917711E+03 -0.78757343712E+02 -0.13042337463E+04  0.13302398761E+04  0.10100000352E+00 0. -1.
</event>
<event>
 5   0  0.3259968E-03  0.1295289E+04  0.7818609E-02  0.9033309E-01
       -2   -1    0    0    0  501  0.00000000000E+00  0.00000000000E+00  0.24892309891E+03  0.24892309893E+03  0.25500000920E-02 0.  1.
        2   -1    0    0  501    0  0.00000000000E+00  0.00000000000E+00 -0.16850333201E+04  0.16850333201E+04  0.25500000920E-02 0. -1.
    10030    2    1    2    0    0  0.00000000000E+00  0.00000000000E+00 -0.14361102212E+04  0.19339564190E+04  0.12952894902E+04 0.  0.
        4    1    3    3  502    0 -0.25413467675E+03  0.26542353528E+03  0.78197295707E+02  0.37570003588E+03  0.12699999809E+01 0.  1.
       -4    1    3    3    0  502  0.25413467675E+03 -0.26542353528E+03 -0.15143075169E+04  0.15582563832E+04  0.12699999809E+01 0. -1.
</event>
<event>
 5   0  0.1823154E-03  0.1306724E+04  0.7818609E-02  0.9024250E-01
        1   -1    0    0  501    0  0.00000000000E+00  0.00000000000E+00  0.80904393358E+03  0.80904393360E+03  0.50400001928E-02 0. -1.
       -1   -1    0    0    0  501  0.00000000000E+00  0.00000000000E+00 -0.52763775164E+03  0.52763775167E+03  0.50400001928E-02 0.  1.
    10030    2    1    2    0    0  0.00000000000E+00  0.00000000000E+00  0.28140618194E+03  0.13366816853E+04  0.13067243353E+04 0.  0.
        2    1    3    3  502    0 -0.32372224843E+03 -0.19847441252E+03  0.68458205849E+03  0.78284147908E+03  0.25500000920E-02 0. -1.
       -2    1    3    3    0  502  0.32372224843E+03  0.19847441252E+03 -0.40317587655E+03  0.55384020619E+03  0.25500000920E-02 0.  1.
</event>
<event>
 5   0  0.1803959E-03  0.1280223E+04  0.7818609E-02  0.9045397E-01
       -1   -1    0    0    0  501  0.00000000000E+00  0.00000000000E+00  0.23204957990E+03  0.23204957995E+03  0.50400001928E-02 0.  1.
        1   -1    0    0  501    0  0.00000000000E+00  0.00000000000E+00 -0.17657552060E+04  0.17657552060E+04  0.50400001928E-02 0. -1.
    10030    2    1    2    0    0  0.00000000000E+00  0.00000000000E+00 -0.15337056261E+04  0.19978047860E+04  0.12802230334E+04 0.  0.
        4    1    3    3  502    0 -0.26090323912E+03  0.42489848362E+03 -0.13932621215E+04  0.14797939632E+04  0.12699999809E+01 0. -1.
       -4    1    3    3    0  502  0.26090323912E+03 -0.42489848362E+03 -0.14044350461E+03  0.51801082272E+03  0.12699999809E+01 0.  1.
</event>
<event>
 5   0  0.3259968E-03  0.1263867E+04  0.7818609E-02  0.9058720E-01
       -2   -1    0    0    0  501  0.00000000000E+00  0.00000000000E+00  0.69308046246E+03  0.69308046247E+03  0.25500000920E-02 0. -1.
        2   -1    0    0  501    0  0.00000000000E+00  0.00000000000E+00 -0.57618081578E+03  0.57618081578E+03  0.25500000920E-02 0.  1.
    10030    2    1    2    0    0  0.00000000000E+00  0.00000000000E+00  0.11689964669E+03  0.12692612782E+04  0.12638665535E+04 0.  0.
        4    1    3    3  502    0  0.27686309825E+03  0.31408126514E+03  0.53379653699E+03  0.67841032722E+03  0.12699999809E+01 0. -1.
       -4    1    3    3    0  502 -0.27686309825E+03 -0.31408126514E+03 -0.41689689030E+03  0.59085095102E+03  0.12699999809E+01 0.  1.
</event>
<event>
 5   0  0.3294720E-03  0.1324151E+04  0.7818609E-02  0.9010629E-01
       -2   -1    0    0    0  501  0.00000000000E+00  0.00000000000E+00  0.16661059478E+04  0.16661059478E+04  0.25500000920E-02 0.  1.
        2   -1    0    0  501    0  0.00000000000E+00  0.00000000000E+00 -0.26309506521E+03  0.26309506522E+03  0.25500000920E-02 0. -1.
    10030    2    1    2    0    0  0.00000000000E+00  0.00000000000E+00  0.14030108826E+04  0.19292010130E+04  0.13241514309E+04 0.  0.
        5    1    3    3  502    0 -0.51314114896E+03 -0.41038363894E+03  0.58320104064E+03  0.87856366512E+03  0.46999998093E+01 0.  1.
       -5    1    3    3    0  502  0.51314114896E+03  0.41038363894E+03  0.81980984195E+03  0.10506373479E+04  0.46999998093E+01 0. -1.
</event>
<event>
 5   0  0.1803959E-03  0.1313836E+04  0.7818609E-02  0.9018665E-01
        1   -1    0    0  501    0  0.00000000000E+00  0.00000000000E+00  0.79582227185E+03  0.79582227187E+03  0.50400001928E-02 0.  1.
       -1   -1    0    0    0  501  0.00000000000E+00  0.00000000000E+00 -0.54225802261E+03  0.54225802263E+03  0.50400001928E-02 0. -1.
    10030    2    1    2    0    0  0.00000000000E+00  0.00000000000E+00  0.25356424925E+03  0.13380802945E+04  0.13138356237E+04 0.  0.
        4    1    3    3  502    0  0.44001670432E+03  0.42653040809E+03  0.36778466474E+03  0.71470977440E+03  0.12699999809E+01 0.  1.
       -4    1    3    3    0  502 -0.44001670432E+03 -0.42653040809E+03 -0.11422041550E+03  0.62337052010E+03  0.12699999809E+01 0. -1.
</event>
<event>
 5   0  0.3259968E-03  0.1243745E+04  0.7818609E-02  0.9075405E-01
        2   -1    0    0  501    0  0.00000000000E+00  0.00000000000E+00  0.17721132920E+04  0.17721132920E+04  0.25500000920E-02 0. -1.
       -2   -1    0    0    0  501  0.00000000000E+00  0.00000000000E+00 -0.21822842647E+03  0.21822842648E+03  0.25500000920E-02 0.  1.
    10030    2    1    2    0    0  0.00000000000E+00  0.00000000000E+00  0.15538848655E+04  0.19903417185E+04  0.12437451431E+04 0.  0.
        4    1    3    3  502    0  0.14459337371E+03 -0.52734145645E+03  0.12509272594E+04  0.13652167874E+04  0.12699999809E+01 0. -1.
       -4    1    3    3    0  502 -0.14459337371E+03  0.52734145645E+03  0.30295760608E+03  0.62512493103E+03  0.12699999809E+01 0.  1.
</event>
<event>
 5   0  0.3262927E-03  0.1287094E+04  0.7818609E-02  0.9039863E-01
        2   -1    0    0  501    0  0.00000000000E+00  0.00000000000E+00  0.34995407257E+03  0.34995407258E+03  0.25500000920E-02 0.  1.
       -2   -1    0    0    0  501  0.00000000000E+00  0.00000000000E+00 -0.11834479214E+04  0.11834479214E+04  0.25500000920E-02 0. -1.
    10030    2    1    2    0    0  0.00000000000E+00  0.00000000000E+00 -0.83349384878E+03  0.15334019939E+04  0.12870935005E+04 0.  0.
        3    1    3    3  502    0  0.33921275449E+03 -0.39634240619E+03  0.32194638244E+02  0.52267494744E+03  0.10100000352E+00 0. -1.
       -3    1    3    3    0  502 -0.33921275449E+03  0.39634240619E+03 -0.86568848702E+03  0.10107270465E+04  0.10100000352E+00 0.  1.
</event>
<event>
 5   0  0.1814770E-03  0.1274006E+04  0.7818609E-02  0.9050436E-01
        1   -1    0    0  501    0  0.00000000000E+00  0.00000000000E+00  0.13580963379E+04  0.13580963379E+04  0.50400001928E-02 0.  1.
       -1   -1    0    0    0  501  0.00000000000E+00  0.00000000000E+00 -0.29878060246E+03  0.29878060250E+03  0.50400001928E-02 0. -1.
    10030    2    1    2    0    0  0.00000000000E+00  0.00000000000E+00  0.10593157355E+04  0.16568769404E+04  0.12740060315E+04 0.  0.
        5    1    3    3  502    0  0.27602242436E+03  0.29224356044E+03  0.11722753507E+04  0.12392926471E+04  0.46999998093E+01 0.  1.
       -5    1    3    3    0  502 -0.27602242436E+03 -0.29224356044E+03 -0.11295961522E+03  0.41758429333E+03  0.46999998093E+01 0. -1.
</event>
<event>
 5   0  0.3299104E-03  0.1300617E+04  0.7818609E-02  0.9029076E-01
       -2   -1    0    0    0  501  0.00000000000E+00  0.00000000000E+00  0.59675648512E+03  0.59675648512E+03  0.25500000920E-02 0. -1.
        2   -1    0    0  501    0  0.00000000000E+00  0.00000000000E+00 -0.70866618976E+03  0.70866618976E+03  0.25500000920E-02 0.  1.
    10030    2    1    2    0    0  0.00000000000E+00  0.00000000000E+00 -0.11190970464E+03  0.13054226749E+04  0.13006169990E+04 0.  0.
        2    1    3    3  502    0  0.33827784287E+03 -0.37291983786E+03 -0.46905797748E+03  0.68812534519E+03  0.25500000920E-02 0.  1.
       -2    1    3    3    0  502 -0.33827784287E+03  0.37291983786E+03  0.35714827284E+03  0.61729732969E+03  0.25500000920E-02 0. -1.
</event>
<event>
 5   0  0.1814770E-03  0.1352236E+04  0.7818609E-02  0.8989137E-01
       -1   -1    0    0    0  501  0.00000000000E+00  0.00000000000E+00  0.71371789173E+03  0.71371789175E+03  0.50400001928E-02 0.  1.
        1   -1    0    0  501    0  0.00000000000E+00  0.00000000000E+00 -0.64049860385E+03  0.64049860387E+03  0.50400001928E-02 0. -1.
    10030    2    1    2    0    0  0.00000000000E+00  0.00000000000E+00  0.73219287879E+02  0.13542164956E+04  0.13522356499E+04 0.  0.
        5    1    3    3  502    0 -0.14464015456E+03 -0.43301766363E+03  0.53602657978E+03  0.70411054214E+03  0.46999998093E+01 0.  1.
       -5    1    3    3    0  502  0.14464015456E+03  0.43301766363E+03 -0.46280729190E+03  0.65010595349E+03  0.46999998093E+01 0. -1.
</event>
<event>
 5   0  0.3299104E-03  0.1285667E+04  0.7818609E-02  0.9041009E-01
       -2   -1    0    0    0  501  0.00000000000E+00  0.00000000000E+00  0.43197359273E+03  0.43197359274E+03  0.25500000920E-02 0.  1.
        2   -1    0    0  501    0  0.00000000000E+00  0.00000000000E+00 -0.95662057492E+03  0.95662057492E+03  0.25500000920E-02 0. -1.
    10030    2    1    2    0    0  0.00000000000E+00  0.00000000000E+00 -0.52464698218E+03  0.13885941677E+04  0.12856668723E+04 0.  0.
        2    1    3    3  502    0  0.43000537333E+03 -0.18570455504E+03 -0.73784820320E+03  0.87396268446E+03  0.25500000920E-02 0. -1.
       -2    1    3    3    0  502 -0.43000537333E+03  0.18570455504E+03  0.21320122102E+03  0.51463148320E+03  0.25500000920E-02 0.  1.
</event>
<event>
 5   0  0.1873488E-03  0.1321918E+04  0.7818609E-02  0.9012362E-01
       -1   -1    0    0    0  501  0.00000000000E+00  0.00000000000E+00  0.36603566998E+03  0.36603567001E+03  0.50400001928E-02 0. -1.
        1   -1    0    0  501    0  0.00000000000E+00  0.00000000000E+00 -0.11935089790E+04  0.11935089790E+04  0.50400001928E-02 0.  1.
    10030    2    1    2    0    0  0.00000000000E+00  0.00000000000E+00 -0.82747330899E+03  0.15595446490E+04  0.13219180894E+04 0.  0.
        3    1    3    3  502    0 -0.48112672111E+03  0.37833209561E+02  0.11905555238E+03  0.49707998176E+03  0.10100000352E+00 0. -1.
       -3    1    3    3    0  502  0.48112672111E+03 -0.37833209561E+02 -0.94652886136E+03  0.10624646672E+04  0.10100000352E+00 0.  1.
</event>
<event>
 5   0  0.3262927E-03  0.1285537E+04  0.7818609E-02  0.9041114E-01
       -2   -1    0    0    0  501  0.00000000000E+00  0.00000000000E+00  0.50366135218E+03  0.50366135219E+03  0.25500000920E-02 0.  1.
        2   -1    0    0  501    0  0.00000000000E+00  0.00000000000E+00 -0.82029560174E+03  0.82029560175E+03  0.25500000920E-02 0. -1.
    10030    2    1    2    0    0  0.00000000000E+00  0.00000000000E+00 -0.31663424956E+03  0.13239569539E+04  0.12855367626E+04 0.  0.
        3    1    3    3  502    0 -0.33019172823E+03 -0.86625161074E+02  0.40258887010E+03  0.52783359542E+03  0.10100000352E+00 0.  1.
       -3    1    3    3    0  502  0.33019172823E+03  0.86625161074E+02 -0.71922311966E+03  0.79612335852E+03  0.10100000352E+00 0. -1.
</event>
<event>
 5   0  0.1823154E-03  0.1289382E+04  0.7818609E-02  0.9038028E-01
       -1   -1    0    0    0  501  0.00000000000E+00  0.00000000000E+00  0.38269506479E+03  0.38269506483E+03  0.50400001928E-02 0.  1.
        1   -1    0    0  501    0  0.00000000000E+00  0.00000000000E+00 -0.10860507742E+04  0.10860507743E+04  0.50400001928E-02 0. -1.
    10030    2    1    2    0    0  0.00000000000E+00  0.00000000000E+00 -0.70335570945E+03  0.14687458391E+04  0.12893816680E+04 0.  0.
        2    1    3    3  502    0 -0.62165928652E+03  0.69091169797E+02 -0.52958465222E+03  0.81956925402E+03  0.25500000920E-02 0. -1.
       -2    1    3    3    0  502  0.62165928652E+03 -0.69091169797E+02 -0.17377105723E+03  0.64917658507E+03  0.25500000920E-02 0.  1.
</event>
<event>
 5   0  0.1857986E-03  0.1310164E+04  0.7818609E-02  0.9021543E-01
        1   -1    0    0  501    0  0.00000000000E+00  0.00000000000E+00  0.70101007905E+03  0.70101007907E+03  0.50400001928E-02 0. -1.
       -1   -1    0    0    0  501  0.00000000000E+00  0.00000000000E+00 -0.61216334468E+03  0.61216334470E+03  0.50400001928E-02 0.  1.
    10030    2    1    2    0    0  0.00000000000E+00  0.00000000000E+00  0.88846734370E+02  0.13131734238E+04  0.13101643785E+04 0.  0.
        1    1    3    3  502    0  0.37099413497E+02 -0.58062933514E+03  0.34615609831E+03  0.67700135578E+03  0.50400001928E-02 0. -1.
       -1    1    3    3    0  502 -0.37099413497E+02  0.58062933514E+03 -0.25730936394E+03  0.63617206800E+03  0.50400001928E-02 0.  1.
</event>
<event>
 5   0  0.3299104E-03  0.1311121E+04  0.7818609E-02  0.9020792E-01
        2   -1    0    0  501    0  0.00000000000E+00  0.00000000000E+00  0.57375042539E+03  0.57375042540E+03  0.25500000920E-02 0. -1.
       -2   -1    0    0    0  501  0.00000000000E+00  0.00000000000E+00 -0.74903580834E+03  0.74903580834E+03  0.25500000920E-02 0.  1.
    10030    2    1    2    0    0  0.00000000000E+00  0.00000000000E+00 -0.17528538295E+03  0.13227862337E+04  0.13111210679E+04 0.  0.
        2    1    3    3  502    0 -0.37747646681E+03  0.19988979769E+03  0.41408985587E+03  0.59490740704E+03  0.25500000920E-02 0. -1.
       -2    1    3    3    0  502  0.37747646681E+03 -0.19988979769E+03 -0.58937523881E+03  0.72787882669E+03  0.25500000920E-02 0.  1.
</event>
<event>
 5   0  0.1873488E-03  0.1273732E+04  0.7818609E-02  0.9050659E-01
       -1   -1    0    0    0  501  0.00000000000E+00  0.00000000000E+00  0.29069000121E+03  0.29069000125E+03  0.50400001928E-02 0.  1.
        1   -1    0    0  501    0  0.00000000000E+00  0.00000000000E+00 -0.13952949877E+04  0.13952949877E+04  0.50400001928E-02 0. -1.
    10030    2    1    2    0    0  0.00000000000E+00  0.00000000000E+00 -0.11046049865E+04  0.16859849890E+04  0.12737319996E+04 0.  0.
        3    1    3    3  502    0  0.52813936117E+03 -0.80720059529E+01 -0.10232753088E+04  0.11515592516E+04  0.10100000352E+00 0. -1.
       -3    1    3    3    0  502 -0.52813936117E+03  0.80720059529E+01 -0.81329677679E+02  0.53442573737E+03  0.10100000352E+00 0.  1.
</event>
<event>
 5   0  0.3259968E-03  0.1293693E+04  0.7818609E-02  0.9034581E-01
       -2   -1    0    0    0  501  0.00000000000E+00  0.00000000000E+00  0.46356728144E+03  0.46356728145E+03  0.25500000920E-02 0.  1.
        2   -1    0    0  501    0  0.00000000000E+00  0.00000000000E+00 -0.90258874971E+03  0.90258874971E+03  0.25500000920E-02 0. -1.
    10030    2    1    2    0    0  0.00000000000E+00  0.00000000000E+00 -0.43902146827E+03  0.13661560312E+04  0.12936933376E+04 0.  0.
        4    1    3    3  502    0  0.28545032070E+03 -0.54679017685E+03 -0.42522348718E+03  0.74918489709E+03  0.12699999809E+01 0. -1.
       -4    1    3    3    0  502 -0.28545032070E+03  0.54679017685E+03 -0.13797981092E+02  0.61697113406E+03  0.12699999809E+01 0.  1.
</event>
<event>
 5   0  0.3262927E-03  0.1294064E+04  0.7818609E-02  0.9034286E-01
        2   -1    0    0  501    0  0.00000000000E+00  0.00000000000E+00  0.61118465471E+03  0.61118465471E+03  0.25500000920E-02 0. -1.
       -2   -1    0    0    0  501  0.00000000000E+00  0.00000000000E+00 -0.68498155598E+03  0.68498155598E+03  0.25500000920E-02 0.  1.
    10030    2    1    2    0    0  0.00000000000E+00  0.00000000000E+00 -0.73796901270E+02  0.12961662107E+04  0.12940637013E+04 0.  0.
        3    1    3    3  502    0  0.53105853605E+03  0.31293188625E+03  0.16014603722E+03  0.63686442637E+03  0.10100000352E+00 0. -1.
       -3    1    3    3    0  502 -0.53105853605E+03 -0.31293188625E+03 -0.23394293849E+03  0.65930178432E+03  0.10100000352E+00 0.  1.
</event>
<event>
 5   0  0.3294720E-03  0.1301415E+04  0.7818609E-02  0.9028444E-01
        2   -1    0    0  501    0  0.00000000000E+00  0.00000000000E+00  0.34050738862E+03  0.34050738863E+03  0.25500000920E-02 0.  1.
       -2   -1    0    0    0  501  0.00000000000E+00  0.00000000000E+00 -0.12434980685E+04  0.12434980685E+04  0.25500000920E-02 0. -1.
    10030    2    1    2    0    0  0.00000000000E+00  0.00000000000E+00 -0.90299067991E+03  0.15840054572E+04  0.13014150454E+04 0.  0.
        5    1    3    3  502    0  0.27874435615E+03  0.10505504576E+02  0.26402348139E+03  0.38410840975E+03  0.46999998093E+01 0.  1.
       -5    1    3    3    0  502 -0.27874435615E+03 -0.10505504576E+02 -0.11670141613E+04  0.11998970474E+04  0.46999998093E+01 0. -1.
</event>
<event>
 5   0  0.1803959E-03  0.1325176E+04  0.7818609E-02  0.9009835E-01
        1   -1    0    0  501    0  0.00000000000E+00  0.00000000000E+00  0.35634276104E+03  0.35634276107E+03  0.50400001928E-02 0. -1.
       -1   -1    0    0    0  501  0.00000000000E+00  0.00000000000E+00 -0.12320238822E+04  0.12320238822E+04  0.50400001928E-02 0.  1.
    10030    2    1    2    0    0  0.00000000000E+00  0.00000000000E+00 -0.87568112115E+03  0.15883666433E+04  0.13251759006E+04 0.  0.
        4    1    3    3  502    0  0.37741230662E+03  0.50950048974E+03 -0.66836747088E+03  0.92127492491E+03  0.12699999809E+01 0.  1.
       -4    1    3    3    0  502 -0.37741230662E+03 -0.50950048974E+03 -0.20731365027E+03  0.66709171837E+03  0.12699999809E+01 0. -1.
</event>
<event>
 5   0  0.1873488E-03  0.1281329E+04  0.7818609E-02  0.9044504E-01
       -1   -1    0    0    0  501  0.00000000000E+00  0.00000000000E+00  0.18859326683E+04  0.18859326683E+04  0.50400001928E-02 0.  1.
        1   -1    0    0  501    0  0.00000000000E+00  0.00000000000E+00 -0.21763807361E+03  0.21763807367E+03  0.50400001928E-02 0. -1.
    10030    2    1    2    0    0  0.00000000000E+00  0.00000000000E+00  0.16682945947E+04  0.21035707420E+04  0.12813286119E+04 0.  0.
        3    1    3    3  502    0 -0.31608741486E+03 -0.46630422127E+03  0.33322413153E+03  0.65451448619E+03  0.10100000352E+00 0. -1.
       -3    1    3    3    0  502  0.31608741486E+03  0.46630422127E+03  0.13350704632E+04  0.14490562558E+04  0.10100000352E+00 0.  1.
</event>
<event>
 5   0  0.1814770E-03  0.1316920E+04  0.7818609E-02  0.9016254E-01
        1   -1    0    0  501    0  0.00000000000E+00  0.00000000000E+00  0.40415930019E+03  0.40415930022E+03  0.50400001928E-02 0. -1.
       -1   -1    0    0    0  501  0.00000000000E+00  0.00000000000E+00 -0.10727684308E+04  0.10727684308E+04  0.50400001928E-02 0.  1.
    10030    2    1    2    0    0  0.00000000000E+00  0.00000000000E+00 -0.66860913061E+03  0.14769277310E+04  0.13169196457E+04 0.  0.
        5    1    3    3  502    0 -0.21041376294E+03 -0.45107314601E+03  0.14912165478E+03  0.51961552383E+03  0.46999998093E+01 0. -1.
       -5    1    3    3    0  502  0.21041376294E+03  0.45107314601E+03 -0.81773078540E+03  0.95731220721E+03  0.46999998093E+01 0.  1.
</event>
<event>
 5   0  0.3259968E-03  0.1297133E+04  0.7818609E-02  0.9031842E-01
        2   -1    0    0  501    0  0.00000000000E+00  0.00000000000E+00  0.10944527941E+04  0.10944527941E+04  0.25500000920E-02 0.  1.
       -2   -1    0    0    0  501  0.00000000000E+00  0.00000000000E+00 -0.38433666975E+03  0.38433666976E+03  0.25500000920E-02 0. -1.
    10030    2    1    2    0    0  0.00000000000E+00  0.00000000000E+00  0.71011612431E+03  0.14787894638E+04  0.12971327489E+04 0.  0.
        4    1    3    3  502    0 -0.50891794326E+02 -0.42619691146E+03 -0.19924638972E+03  0.47321720043E+03  0.12699999809E+01 0. -1.
       -4    1    3    3    0  502  0.50891794326E+02  0.42619691146E+03  0.90936251404E+03  0.10055722634E+04  0.12699999809E+01 0.  1.
</event>
<event>
 5   0  0.3336609E-03  0.1350046E+04  0.7818609E-02  0.8990793E-01
        2   -1    0    0  501    0  0.00000000000E+00  0.00000000000E+00  0.46939204195E+03  0.46939204196E+03  0.25500000920E-02 0. -1.
       -2   -1    0    0    0  501  0.00000000000E+00  0.00000000000E+00 -0.97073689829E+03  0.97073689829E+03  0.25500000920E-02 0.  1.
    10030    2    1    2    0    0  0.00000000000E+00  0.00000000000E+00 -0.50134485634E+03  0.14401289402E+04  0.13500461842E+04 0.  0.
        1    1    3    3  502    0  0.35542604097E+03 -0.37989861488E+03  0.20815051542E+03  0.56033674276E+03  0.50400001928E-02 0. -1.
       -1    1    3    3    0  502 -0.35542604097E+03  0.37989861488E+03 -0.70949537176E+03  0.87979219749E+03  0.50400001928E-02 0.  1.
</event>
<event>
 5   0  0.3294720E-03  0.1228182E+04  0.7818609E-02  0.9088540E-01
        2   -1    0    0  501    0  0.00000000000E+00  0.00000000000E+00  0.13296299289E+04  0.13296299289E+04  0.25500000920E-02 0. -1.
       -2   -1    0    0    0  501  0.00000000000E+00  0.00000000000E+00 -0.28361868843E+03  0.28361868844E+03  0.25500000920E-02 0.  1.
    10030    2    1    2    0    0  0.00000000000E+00  0.00000000000E+00  0.10460112405E+04  0.16132486174E+04  0.12281822284E+04 0.  0.
        5    1    3    3  502    0 -0.27641388085E+03  0.24673650766E+03 -0.12022266904E+03  0.38956272651E+03  0.46999998093E+01 0.  1.
       -5    1    3    3    0  502  0.27641388085E+03 -0.24673650766E+03  0.11662339096E+04  0.12236858909E+04  0.46999998093E+01 0. -1.
</event>
<event>
 5   0  0.3259968E-03  0.1286513E+04  0.7818609E-02  0.9040329E-01
       -2   -1    0    0    0  501  0.00000000000E+00  0.00000000000E+00  0.33881798549E+03  0.33881798550E+03  0.25500000920E-02 0.  1.
        2   -1    0    0  501    0  0.00000000000E+00  0.00000000000E+00 -0.12212425878E+04  0.12212425878E+04  0.25500000920E-02 0. -1.
    10030    2    1    2    0    0  0.00000000000E+00  0.00000000000E+00 -0.88242460226E+03  0.15600605733E+04  0.12865130445E+04 0.  0.
        4    1    3    3  502    0 -0.41964152504E+03  0.21675491439E+03  0.88326327963E+02  0.48050479245E+03  0.12699999809E+01 0.  1.
       -4    1    3    3    0  502  0.41964152504E+03 -0.21675491439E+03 -0.97075093022E+03  0.10795557808E+04  0.12699999809E+01 0. -1.
</event>
<event>
 5   0  0.3299104E-03  0.1219308E+04  0.7818609E-02  0.9096122E-01
        2   -1    0    0  501    0  0.00000000000E+00  0.00000000000E+00  0.11794076565E+04  0.11794076565E+04  0.25500000920E-02 0. -1.
       -2   -1    0    0    0  501  0.00000000000E+00  0.00000000000E+00 -0.31513941217E+03  0.31513941218E+03  0.25500000920E-02 0.  1.
    10030    2    1    2    0    0  0.00000000000E+00  0.00000000000E+00  0.86426824432E+03  0.14945470687E+04  0.12193077308E+04 0.  0.
        2    1    3    3  502    0 -0.25525843368E+03  0.90515066140E-01  0.11107536581E+04  0.11397063504E+04  0.25500000920E-02 0. -1.
       -2    1    3    3    0  502  0.25525843368E+03 -0.90515066140E-01 -0.24648541376E+03  0.35484071829E+03  0.25500000920E-02 0.  1.
</event>
<event>
 5   0  0.3294720E-03  0.1290319E+04  0.7818609E-02  0.9037277E-01
       -2   -1    0    0    0  501  0.00000000000E+00  0.00000000000E+00  0.47109385280E+03  0.47109385280E+03  0.25500000920E-02 0.  1.
        2   -1    0    0  501    0  0.00000000000E+00  0.00000000000E+00 -0.88354177515E+03  0.88354177515E+03  0.25500000920E-02 0. -1.
    10030    2    1    2    0    0  0.00000000000E+00  0.00000000000E+00 -0.41244792235E+03  0.13546356280E+04  0.12903194937E+04 0.  0.
        5    1    3    3  502    0 -0.83895936930E+02 -0.63361791768E+03 -0.11410751371E+03  0.64927098235E+03  0.46999998093E+01 0.  1.
       -5    1    3    3    0  502  0.83895936930E+02  0.63361791768E+03 -0.29834040864E+03  0.70536464560E+03  0.46999998093E+01 0. -1.
</event>
<event>
 5   0  0.3294720E-03  0.1308169E+04  0.7818609E-02  0.9023112E-01
        2   -1    0    0  501    0  0.00000000000E+00  0.00000000000E+00  0.90394129034E+03  0.90394129035E+03  0.25500000920E-02 0. -1.
       -2   -1    0    0    0  501  0.00000000000E+00  0.00000000000E+00 -0.47329032536E+03  0.47329032537E+03  0.25500000920E-02 0.  1.
    10030    2    1    2    0    0  0.00000000000E+00  0.00000000000E+00  0.43065096498E+03  0.13772316157E+04  0.13081692053E+04 0.  0.
        5    1    3    3  502    0 -0.13574156321E+03 -0.37846242038E+03 -0.32780255119E+03  0.51878336345E+03  0.46999998093E+01 0.  1.
       -5    1    3    3    0  502  0.13574156321E+03  0.37846242038E+03  0.75845351617E+03  0.85844825227E+03  0.46999998093E+01 0. -1.
</event>
<event>
 5   0  0.1823154E-03  0.1568607E+04  0.7818609E-02  0.8840069E-01
       -1   -1    0    0    0  501  0.00000000000E+00  0.00000000000E+00  0.58244737729E+03  0.58244737731E+03  0.50400001928E-02 0.  1.
        1   -1    0    0  501    0  0.00000000000E+00  0.00000000000E+00 -0.10561163088E+04  0.10561163088E+04  0.50400001928E-02 0. -1.
    10030    2    1    2    0    0  0.00000000000E+00  0.00000000000E+00 -0.47366893149E+03  0.16385636861E+04  0.15686072474E+04 0.  0.
        2    1    3    3  502    0  0.48321137665E+03  0.30027572874E+03  0.32712591060E+03  0.65625460698E+03  0.25500000920E-02 0.  1.
       -2    1    3    3    0  502 -0.48321137665E+03 -0.30027572874E+03 -0.80079484208E+03  0.98230907911E+03  0.25500000920E-02 0. -1.
</event>
<event>
 5   0  0.1823154E-03  0.1325014E+04  0.7818609E-02  0.9009961E-01
       -1   -1    0    0    0  501  0.00000000000E+00  0.00000000000E+00  0.49301421700E+03  0.49301421702E+03  0.50400001928E-02 0. -1.
        1   -1    0    0  501    0  0.00000000000E+00  0.00000000000E+00 -0.89026942659E+03  0.89026942660E+03  0.50400001928E-02 0.  1.
    10030    2    1    2    0    0  0.00000000000E+00  0.00000000000E+00 -0.39725520959E+03  0.13832836436E+04  0.13250139385E+04 0.  0.
        2    1    3    3  502    0 -0.39316174798E+03  0.20081114418E+03  0.31707384528E+03  0.54354125793E+03  0.25500000920E-02 0. -1.
       -2    1    3    3    0  502  0.39316174798E+03 -0.20081114418E+03 -0.71432905487E+03  0.83974238570E+03  0.25500000920E-02 0.  1.
</event>
<event>
 5   0  0.1254125E-03  0.1297731E+04  0.7818609E-02  0.9031366E-01
       -4   -1    0    0    0  501  0.00000000000E+00  0.00000000000E+00  0.90722955262E+03  0.90723044154E+03  0.12699999809E+01 0.  1.
        4   -1    0    0  501    0  0.00000000000E+00  0.00000000000E+00 -0.46407733781E+03  0.46407907555E+03  0.12699999809E+01 0. -1.
    10030    2    1    2    0    0  0.00000000000E+00  0.00000000000E+00  0.44315221482E+03  0.13713095171E+04  0.12977310608E+04 0.  0.
        1    1    3    3  502    0 -0.23910714701E+03 -0.22687217165E+03  0.81217777864E+03  0.87651352195E+03  0.50400001928E-02 0.  1.
       -1    1    3    3    0  502  0.23910714701E+03  0.22687217165E+03 -0.36902556383E+03  0.49479599514E+03  0.50400001928E-02 0. -1.
</event>
<event>
 5   0  0.1814770E-03  0.1307567E+04  0.7818609E-02  0.9023586E-01
       -1   -1    0    0    0  501  0.00000000000E+00  0.00000000000E+00  0.64546456159E+03  0.64546456161E+03  0.50400001928E-02 0. -1.
        1   -1    0    0  501    0  0.00000000000E+00  0.00000000000E+00 -0.66220990638E+03  0.66220990640E+03  0.50400001928E-02 0.  1.
    10030    2    1    2    0    0  0.00000000000E+00  0.00000000000E+00 -0.16745344790E+02  0.13076744680E+04  0.13075672479E+04 0.  0.
        5    1    3    3  502    0  0.62837145753E+02 -0.49362286589E+02 -0.65729088413E+03  0.66214691616E+03  0.46999998093E+01 0.  1.
       -5    1    3    3    0  502 -0.62837145753E+02  0.49362286589E+02  0.64054553934E+03  0.64552755185E+03  0.46999998093E+01 0. -1.
</event>
<event>
 5   0  0.3262927E-03  0.1315522E+04  0.7818609E-02  0.9017346E-01
       -2   -1    0    0    0  501  0.00000000000E+00  0.00000000000E+00  0.24578431201E+03  0.24578431202E+03  0.25500000920E-02 0.  1.
        2   -1    0    0  501    0  0.00000000000E+00  0.00000000000E+00 -0.17602819007E+04  0.17602819007E+04  0.25500000920E-02 0. -1.
    10030    2    1    2    0    0  0.00000000000E+00  0.00000000000E+00 -0.15144975887E+04  0.20060662127E+04  0.13155222171E+04 0.  0.
        3    1    3    3  502    0 -0.17954002833E+03  0.13890631826E+03  0.18415943646E+03  0.29230856173E+03  0.10100000352E+00 0.  1.
       -3    1    3    3    0  502  0.17954002833E+03 -0.13890631826E+03 -0.16986570251E+04  0.17137576510E+04  0.10100000352E+00 0. -1.
</event>
<event>
 5   0  0.1857986E-03  0.1311160E+04  0.7818609E-02  0.9020762E-01
        1   -1    0    0  501    0  0.00000000000E+00  0.00000000000E+00  0.58151641682E+03  0.58151641684E+03  0.50400001928E-02 0.  1.
       -1   -1    0    0    0  501  0.00000000000E+00  0.00000000000E+00 -0.73907668939E+03  0.73907668941E+03  0.50400001928E-02 0. -1.
    10030    2    1    2    0    0  0.00000000000E+00  0.00000000000E+00 -0.15756027257E+03  0.13205931063E+04  0.13111601400E+04 0.  0.
        1    1    3    3  502    0 -0.42607251014E+03  0.18879754305E+03  0.38562596059E+03  0.60488815302E+03  0.50400001928E-02 0.  1.
       -1    1    3    3    0  502  0.42607251014E+03 -0.18879754305E+03 -0.54318623316E+03  0.71570495323E+03  0.50400001928E-02 0. -1.
</event>
<event>
 5   0  0.1823154E-03  0.1309829E+04  0.7818609E-02  0.9021807E-01
       -1   -1    0    0    0  501  0.00000000000E+00  0.00000000000E+00  0.16981266612E+03  0.16981266619E+03  0.50400001928E-02 0. -1.
        1   -1    0    0  501    0  0.00000000000E+00  0.00000000000E+00 -0.25258011531E+04  0.25258011531E+04  0.50400001928E-02 0.  1.
    10030    2    1    2    0    0  0.00000000000E+00  0.00000000000E+00 -0.23559884870E+04  0.26956138193E+04  0.13098290392E+04 0.  0.
        2    1    3    3  502    0  0.28363520186E+03  0.49926041882E+03 -0.52979912392E+03  0.78127908282E+03  0.25500000920E-02 0. -1.
       -2    1    3    3    0  502 -0.28363520186E+03 -0.49926041882E+03 -0.18261893631E+04  0.19143347365E+04  0.25500000920E-02 0.  1.
</event>
<event>
 5   0  0.1814770E-03  0.1277467E+04  0.7818609E-02  0.9047627E-01
        1   -1    0    0  501    0  0.00000000000E+00  0.00000000000E+00  0.45800847773E+03  0.45800847775E+03  0.50400001928E-02 0. -1.
       -1   -1    0    0    0  501  0.00000000000E+00  0.00000000000E+00 -0.89077106899E+03  0.89077106900E+03  0.50400001928E-02 0.  1.
    10030    2    1    2    0    0  0.00000000000E+00  0.00000000000E+00 -0.43276259126E+03  0.13487795468E+04  0.12774673402E+04 0.  0.
        5    1    3    3  502    0  0.34909959796E+03  0.32498815989E+03 -0.66491451260E+03  0.81830387536E+03  0.46999998093E+01 0.  1.
       -5    1    3    3    0  502 -0.34909959796E+03 -0.32498815989E+03  0.23215192134E+03  0.53047567140E+03  0.46999998093E+01 0. -1.
</event>
<event>
 5   0  0.3299104E-03  0.1317794E+04  0.7818609E-02  0.9015573E-01
       -2   -1    0    0    0  501  0.00000000000E+00  0.00000000000E+00  0.90117238188E+03  0.90117238188E+03  0.25500000920E-02 0. -1.
        2   -1    0    0  501    0  0.00000000000E+00  0.00000000000E+00 -0.48175572444E+03  0.48175572445E+03  0.25500000920E-02 0.  1.
    10030    2    1    2    0    0  0.00000000000E+00  0.00000000000E+00  0.41941665743E+03  0.13829281063E+04  0.13177935403E+04 0.  0.
        2    1    3    3  502    0  0.18640477476E+03 -0.15958740416E+03 -0.43201440759E+03  0.49684135092E+03  0.25500000920E-02 0.  1.
       -2    1    3    3    0  502 -0.18640477476E+03  0.15958740416E+03  0.85143106502E+03  0.88608675540E+03  0.25500000920E-02 0. -1.
</event>
<event>
 5   0  0.3259968E-03  0.1297400E+04  0.7818609E-02  0.9031630E-01
       -2   -1    0    0    0  501  0.00000000000E+00  0.00000000000E+00  0.26920462545E+03  0.26920462546E+03  0.25500000920E-02 0.  1.
        2   -1    0    0  501    0  0.00000000000E+00  0.00000000000E+00 -0.15631667001E+04  0.15631667001E+04  0.25500000920E-02 0. -1.
    10030    2    1    2    0    0  0.00000000000E+00  0.00000000000E+00 -0.12939620747E+04  0.18323713256E+04  0.12974000247E+04 0.  0.
        4    1    3    3  502    0 -0.55899749422E+03 -0.63567280103E+02 -0.19087775273E+03  0.59410009849E+03  0.12699999809E+01 0.  1.
       -4    1    3    3    0  502  0.55899749422E+03  0.63567280103E+02 -0.11030843219E+04  0.12382712271E+04  0.12699999809E+01 0. -1.
</event>
<event>
 5   0  0.1873488E-03  0.1402386E+04  0.7818609E-02  0.8952093E-01
        1   -1    0    0  501    0  0.00000000000E+00  0.00000000000E+00  0.66420401008E+03  0.66420401010E+03  0.50400001928E-02 0.  1.
       -1   -1    0    0    0  501  0.00000000000E+00  0.00000000000E+00 -0.74024188558E+03  0.74024188559E+03  0.50400001928E-02 0. -1.
    10030    2    1    2    0    0  0.00000000000E+00  0.00000000000E+00 -0.76037875494E+02  0.14044458957E+04  0.14023860080E+04 0.  0.
        3    1    3    3  502    0 -0.23153982770E+03 -0.65272871975E+03  0.71714564428E+02  0.69628188426E+03  0.10100000352E+00 0.  1.
       -3    1    3    3    0  502  0.23153982770E+03  0.65272871975E+03 -0.14775243992E+03  0.70816401144E+03  0.10100000352E+00 0. -1.
</event>
<event>
 5   0  0.3299104E-03  0.1349556E+04  0.7818609E-02  0.8991164E-01
        2   -1    0    0  501    0  0.00000000000E+00  0.00000000000E+00  0.67267511961E+03  0.67267511961E+03  0.25500000920E-02 0.  1.
       -2   -1    0    0    0  501  0.00000000000E+00  0.00000000000E+00 -0.67688730162E+03  0.67688730163E+03  0.25500000920E-02 0. -1.
    10030    2    1    2    0    0  0.00000000000E+00  0.00000000000E+00 -0.42121820128E+01  0.13495624212E+04  0.13495558478E+04 0.  0.
        2    1    3    3  502    0  0.58696419265E+02 -0.13293525299E+03  0.65684187762E+03  0.67272453748E+03  0.25500000920E-02 0.  1.
       -2    1    3    3    0  502 -0.58696419265E+02  0.13293525299E+03 -0.66105405964E+03  0.67683788376E+03  0.25500000920E-02 0. -1.
</event>
<event>
 5   0  0.1814770E-03  0.1317852E+04  0.7818609E-02  0.9015527E-01
        1   -1    0    0  501    0  0.00000000000E+00  0.00000000000E+00  0.62364306962E+03  0.62364306964E+03  0.50400001928E-02 0. -1.
       -1   -1    0    0    0  501  0.00000000000E+00  0.00000000000E+00 -0.69620461116E+03  0.69620461117E+03  0.50400001928E-02 0.  1.
    10030    2    1    2    0    0  0.00000000000E+00  0.00000000000E+00 -0.72561541532E+02  0.13198476808E+04  0.13178515558E+04 0.  0.
        5    1    3    3  502    0 -0.32447010890E+03 -0.23189409414E+03 -0.56158010769E+03  0.68880333174E+03  0.46999998093E+01 0.  1.
       -5    1    3    3    0  502  0.32447010890E+03  0.23189409414E+03  0.48901856616E+03  0.63104434908E+03  0.46999998093E+01 0. -1.
</event>
<event>
 5   0  0.1254125E-03  0.1055944E+04  0.7818609E-02  0.9249229E-01
       -3   -1    0    0    0  501  0.00000000000E+00  0.00000000000E+00  0.10585290085E+04  0.10585290133E+04  0.10100000352E+00 0. -1.
        3   -1    0    0  501    0  0.00000000000E+00  0.00000000000E+00 -0.26334127431E+03  0.26334129368E+03  0.10100000352E+00 0.  1.
    10030    2    1    2    0    0  0.00000000000E+00  0.00000000000E+00  0.79518773414E+03  0.13218703070E+04  0.10559439265E+04 0.  0.
        1    1    3    3  502    0 -0.52502035872E+03 -0.21114297365E+02  0.33300337384E+03  0.62207992866E+03  0.50400001928E-02 0.  1.
       -1    1    3    3    0  502  0.52502035872E+03  0.21114297365E+02  0.46218436030E+03  0.69979037830E+03  0.50400001928E-02 0. -1.
</event>
<event>
 5   0  0.1803959E-03  0.1304786E+04  0.7818609E-02  0.9025778E-01
        1   -1    0    0  501    0  0.00000000000E+00  0.00000000000E+00  0.49575532809E+03  0.49575532812E+03  0.50400001928E-02 0. -1.
       -1   -1    0    0    0  501  0.00000000000E+00  0.00000000000E+00 -0.85852203997E+03  0.85852203998E+03  0.50400001928E-02 0.  1.
    10030    2    1    2    0    0  0.00000000000E+00  0.00000000000E+00 -0.36276671188E+03  0.13542773681E+04  0.13047863819E+04 0.  0.
        4    1    3    3  502    0 -0.33467405188E+03  0.31844858826E+02 -0.76169172612E+03  0.83258435883E+03  0.12699999809E+01 0.  1.
       -4    1    3    3    0  502  0.33467405188E+03 -0.31844858826E+02  0.39892501424E+03  0.52169300927E+03  0.12699999809E+01 0. -1.
</event>
<event>
 5   0  0.1823154E-03  0.1303368E+04  0.7818609E-02  0.9026898E-01
       -1   -1    0    0    0  501  0.00000000000E+00  0.00000000000E+00  0.37314025293E+03  0.37314025297E+03  0.50400001928E-02 0. -1.
        1   -1    0    0  501    0  0.00000000000E+00  0.00000000000E+00 -0.11381572951E+04  0.11381572951E+04  0.50400001928E-02 0.  1.
    10030    2    1    2    0    0  0.00000000000E+00  0.00000000000E+00 -0.76501704213E+03  0.15112975480E+04  0.13033684069E+04 0.  0.
        2    1    3    3  502    0 -0.19058510527E+02 -0.11380217289E+03  0.36120108833E+03  0.37918384406E+03  0.25500000920E-02 0. -1.
       -2    1    3    3    0  502  0.19058510527E+02  0.11380217289E+03 -0.11262181305E+04  0.11321137040E+04  0.25500000920E-02 0.  1.
</event>
<event>
 5   0  0.1814770E-03  0.1285559E+04  0.7818609E-02  0.9041096E-01
        1   -1    0    0  501    0  0.00000000000E+00  0.00000000000E+00  0.11095466938E+04  0.11095466938E+04  0.50400001928E-02 0.  1.
       -1   -1    0    0    0  501  0.00000000000E+00  0.00000000000E+00 -0.37237331420E+03  0.37237331423E+03  0.50400001928E-02 0. -1.
    10030    2    1    2    0    0  0.00000000000E+00  0.00000000000E+00  0.73717337955E+03  0.14819200080E+04  0.12855591463E+04 0.  0.
        5    1    3    3  502    0 -0.40629575416E+03 -0.67872632864E+01  0.94267286197E+03  0.10265361764E+04  0.46999998093E+01 0.  1.
       -5    1    3    3    0  502  0.40629575416E+03  0.67872632864E+01 -0.20549948242E+03  0.45538383158E+03  0.46999998093E+01 0. -1.
</event>
<event>
 5   0  0.1857986E-03  0.1048051E+04  0.7818609E-02  0.9257358E-01
        1   -1    0    0  501    0  0.00000000000E+00  0.00000000000E+00  0.14635398859E+04  0.14635398859E+04  0.50400001928E-02 0.  1.
       -1   -1    0    0    0  501  0.00000000000E+00  0.00000000000E+00 -0.18762923421E+03  0.18762923427E+03  0.50400001928E-02 0. -1.
    10030    2    1    2    0    0  0.00000000000E+00  0.00000000000E+00  0.12759106517E+04  0.16511691202E+04  0.10480512737E+04 0.  0.
        1    1    3    3  502    0 -0.13082456245E+03 -0.48982730897E+03  0.84670908143E+03  0.98689519573E+03  0.50400001928E-02 0.  1.
       -1    1    3    3    0  502  0.13082456245E+03  0.48982730897E+03  0.42920157025E+03  0.66427392444E+03  0.50400001928E-02 0. -1.
</event>
<event>
 5   0  0.3262927E-03  0.1334012E+04  0.7818609E-02  0.9003020E-01
       -2   -1    0    0    0  501  0.00000000000E+00  0.00000000000E+00  0.27042338809E+03  0.27042338811E+03  0.25500000920E-02 0. -1.
        2   -1    0    0  501    0  0.00000000000E+00  0.00000000000E+00 -0.16451876766E+04  0.16451876766E+04  0.25500000920E-02 0.  1.
    10030    2    1    2    0    0  0.00000000000E+00  0.00000000000E+00 -0.13747642885E+04  0.19156110647E+04  0.13340123321E+04 0.  0.
        3    1    3    3  502    0 -0.50290865490E+03  0.22113485255E+03 -0.14421165710E+03  0.56799185772E+03  0.10100000352E+00 0. -1.
       -3    1    3    3    0  502  0.50290865490E+03 -0.22113485255E+03 -0.12305526314E+04  0.13476192070E+04  0.10100000352E+00 0.  1.
</event>
<event>
 5   0  0.3262927E-03  0.1312626E+04  0.7818609E-02  0.9019612E-01
       -2   -1    0    0    0  501  0.00000000000E+00  0.00000000000E+00  0.10234236105E+04  0.10234236105E+04  0.25500000920E-02 0.  1.
        2   -1    0    0  501    0  0.00000000000E+00  0.00000000000E+00 -0.42088807022E+03  0.42088807023E+03  0.25500000920E-02 0. -1.
    10030    2    1    2    0    0  0.00000000000E+00  0.00000000000E+00  0.60253554025E+03  0.14443116807E+04  0.13126260525E+04 0.  0.
        3    1    3    3  502    0  0.30759298438E+02 -0.22658088798E+03  0.97817771962E+03  0.10045480051E+04  0.10100000352E+00 0.  1.
       -3    1    3    3    0  502 -0.30759298438E+02  0.22658088798E+03 -0.37564217937E+03  0.43976367558E+03  0.10100000352E+00 0. -1.
</event>
<event>
 5   0  0.1814770E-03  0.1300726E+04  0.7818609E-02  0.9028989E-01
        1   -1    0    0  501    0  0.00000000000E+00  0.00000000000E+00  0.15224793906E+04  0.15224793906E+04  0.50400001928E-02 0.  1.
       -1   -1    0    0    0  501  0.00000000000E+00  0.00000000000E+00 -0.27781799350E+03  0.27781799355E+03  0.50400001928E-02 0. -1.
    10030    2    1    2    0    0  0.00000000000E+00  0.00000000000E+00  0.12446613971E+04  0.18002973842E+04  0.13007262118E+04 0.  0.
        5    1    3    3  502    0  0.19575962012E+03  0.52780994010E+03  0.17161437394E+03  0.58853950172E+03  0.46999998093E+01 0.  1.
       -5    1    3    3    0  502 -0.19575962012E+03 -0.52780994010E+03  0.10730470232E+04  0.12117578824E+04  0.46999998093E+01 0. -1.
</event>
<event>
 5   0  0.1873488E-03  0.1333379E+04  0.7818609E-02  0.9003506E-01
        1   -1    0    0  501    0  0.00000000000E+00  0.00000000000E+00  0.50964478998E+03  0.50964479001E+03  0.50400001928E-02 0.  1.
       -1   -1    0    0    0  501  0.00000000000E+00  0.00000000000E+00 -0.87212652944E+03  0.87212652946E+03  0.50400001928E-02 0. -1.
    10030    2    1    2    0    0  0.00000000000E+00  0.00000000000E+00 -0.36248173946E+03  0.13817713195E+04  0.13333787788E+04 0.  0.
        3    1    3    3  502    0  0.70467441022E+02 -0.23320144950E+03 -0.82434921070E+03  0.85959304772E+03  0.10100000352E+00 0. -1.
       -3    1    3    3    0  502 -0.70467441022E+02  0.23320144950E+03  0.46186747124E+03  0.52217827175E+03  0.10100000352E+00 0.  1.
</event>
<event>
 5   0  0.1873488E-03  0.1247245E+04  0.7818609E-02  0.9072480E-01
       -1   -1    0    0    0  501  0.00000000000E+00  0.00000000000E+00  0.50798961955E+03  0.50798961958E+03  0.50400001928E-02 0.  1.
        1   -1    0    0  501    0  0.00000000000E+00  0.00000000000E+00 -0.76557610648E+03  0.76557610649E+03  0.50400001928E-02 0. -1.
    10030    2    1    2    0    0  0.00000000000E+00  0.00000000000E+00 -0.25758648692E+03  0.12735657261E+04  0.12472445071E+04 0.  0.
        3    1    3    3  502    0  0.54159217963E+02 -0.58070543492E+03 -0.35425299208E+03  0.68238348136E+03  0.10100000352E+00 0. -1.
       -3    1    3    3    0  502 -0.54159217963E+02  0.58070543492E+03  0.96666505152E+02  0.59118224471E+03  0.10100000352E+00 0.  1.
</event>
<event>
 5   0  0.3299104E-03  0.1267303E+04  0.7818609E-02  0.9055904E-01
       -2   -1    0    0    0  501  0.00000000000E+00  0.00000000000E+00  0.16712105208E+03  0.16712105210E+03  0.25500000920E-02 0.  1.
        2   -1    0    0  501    0  0.00000000000E+00  0.00000000000E+00 -0.24025342648E+04  0.24025342648E+04  0.25500000920E-02 0. -1.
    10030    2    1    2    0    0  0.00000000000E+00  0.00000000000E+00 -0.22354132127E+04  0.25696553169E+04  0.12673027326E+04 0.  0.
        2    1    3    3  502    0  0.42197684475E+03  0.46689473616E+03 -0.12675187936E+04  0.14151533642E+04  0.25500000920E-02 0.  1.
       -2    1    3    3    0  502 -0.42197684475E+03 -0.46689473616E+03 -0.96789441912E+03  0.11545019527E+04  0.25500000920E-02 0. -1.
</event>
<event>
 5   0  0.3299104E-03  0.1283658E+04  0.7818609E-02  0.9042626E-01
       -2   -1    0    0    0  501  0.00000000000E+00  0.00000000000E+00  0.39078307293E+03  0.39078307294E+03  0.25500000920E-02 0. -1.
        2   -1    0    0  501    0  0.00000000000E+00  0.00000000000E+00 -0.10541511610E+04  0.10541511610E+04  0.25500000920E-02 0.  1.
    10030    2    1    2    0    0  0.00000000000E+00  0.00000000000E+00 -0.66336808809E+03  0.14449342340E+04  0.12836579452E+04 0.  0.
        2    1    3    3  502    0  0.25074783598E+03 -0.22256396153E+03  0.28437555158E+03  0.43963467625E+03  0.25500000920E-02 0. -1.
       -2    1    3    3    0  502 -0.25074783598E+03  0.22256396153E+03 -0.94774363967E+03  0.10052995577E+04  0.25500000920E-02 0.  1.
</event>
<event>
 5   0  0.1803959E-03  0.1260020E+04  0.7818609E-02  0.9061885E-01
        1   -1    0    0  501    0  0.00000000000E+00  0.00000000000E+00  0.76816589925E+03  0.76816589927E+03  0.50400001928E-02 0.  1.
       -1   -1    0    0    0  501  0.00000000000E+00  0.00000000000E+00 -0.51670173313E+03  0.51670173316E+03  0.50400001928E-02 0. -1.
    10030    2    1    2    0    0  0.00000000000E+00  0.00000000000E+00  0.25146416612E+03  0.12848676324E+04  0.12600200816E+04 0.  0.
        4    1    3    3  502    0 -0.61159793859E+02  0.19785857010E+03  0.73246332328E+03  0.76117847250E+03  0.12699999809E+01 0.  1.
       -4    1    3    3    0  502  0.61159793859E+02 -0.19785857010E+03 -0.48099915716E+03  0.52368915993E+03  0.12699999809E+01 0. -1.
</event>
<event>
 5   0  0.3336609E-03  0.1310982E+04  0.7818609E-02  0.9020901E-01
        2   -1    0    0  501    0  0.00000000000E+00  0.00000000000E+00  0.16485016997E+04  0.16485016997E+04  0.25500000920E-02 0. -1.
       -2   -1    0    0    0  501  0.00000000000E+00  0.00000000000E+00 -0.26064195152E+03  0.26064195153E+03  0.25500000920E-02 0.  1.
    10030    2    1    2    0    0  0.00000000000E+00  0.00000000000E+00  0.13878597482E+04  0.19091436512E+04  0.13109823799E+04 0.  0.
        1    1    3    3  502    0  0.31041419136E+03  0.56953489845E+03  0.55622398535E+03  0.85446596928E+03  0.50400001928E-02 0.  1.
       -1    1    3    3    0  502 -0.31041419136E+03 -0.56953489845E+03  0.83163576282E+03  0.10546776819E+04  0.50400001928E-02 0. -1.
</event>
<event>
 5   0  0.1254125E-03  0.1293969E+04  0.7818609E-02  0.9034361E-01
       -3   -1    0    0    0  501  0.00000000000E+00  0.00000000000E+00  0.13589932192E+04  0.13589932230E+04  0.10100000352E+00 0.  1.
        3   -1    0    0  501    0  0.00000000000E+00  0.00000000000E+00 -0.30801402373E+03  0.30801404029E+03  0.10100000352E+00 0. -1.
    10030    2    1    2    0    0  0.00000000000E+00  0.00000000000E+00  0.10509791955E+04  0.16670072633E+04  0.12939690670E+04 0.  0.
        4    1    3    3  502    0  0.12388580260E+03 -0.50717095172E+02 -0.28997597908E+03  0.31938628207E+03  0.12699999809E+01 0. -1.
       -4    1    3    3    0  502 -0.12388580260E+03  0.50717095172E+02  0.13409551746E+04  0.13476209812E+04  0.12699999809E+01 0.  1.
</event>
<event>
 5   0  0.3294720E-03  0.1291313E+04  0.7818609E-02  0.9036483E-01
       -2   -1    0    0    0  501  0.00000000000E+00  0.00000000000E+00  0.65692873864E+03  0.65692873864E+03  0.25500000920E-02 0. -1.
        2   -1    0    0  501    0  0.00000000000E+00  0.00000000000E+00 -0.63457720174E+03  0.63457720175E+03  0.25500000920E-02 0.  1.
    10030    2    1    2    0    0  0.00000000000E+00  0.00000000000E+00  0.22351536893E+02  0.12915059404E+04  0.12913125117E+04 0.  0.
        5    1    3    3  502    0 -0.25240921469E+03 -0.56929782261E+03  0.18161106017E+03  0.64870262036E+03  0.46999998093E+01 0. -1.
       -5    1    3    3    0  502  0.25240921469E+03  0.56929782261E+03 -0.15925952328E+03  0.64280332003E+03  0.46999998093E+01 0.  1.
</event>
<event>
 5   0  0.3294720E-03  0.1292300E+04  0.7818609E-02  0.9035694E-01
        2   -1    0    0  501    0  0.00000000000E+00  0.00000000000E+00  0.69097620578E+03  0.69097620579E+03  0.25500000920E-02 0. -1.
       -2   -1    0    0    0  501  0.00000000000E+00  0.00000000000E+00 -0.60423171687E+03  0.60423171688E+03  0.25500000920E-02 0.  1.
    10030    2    1    2    0    0  0.00000000000E+00  0.00000000000E+00  0.86744488909E+02  0.12952079227E+04  0.12922998710E+04 0.  0.
        5    1    3    3  502    0 -0.41468824648E+03 -0.31307100917E+03 -0.34155952733E+03  0.62182376865E+03  0.46999998093E+01 0.  1.
       -5    1    3    3    0  502  0.41468824648E+03  0.31307100917E+03  0.42830401624E+03  0.67338415401E+03  0.46999998093E+01 0. -1.
</event>
<event>
 5   0  0.3299104E-03  0.1309263E+04  0.7818609E-02  0.9022252E-01
        2   -1    0    0  501    0  0.00000000000E+00  0.00000000000E+00  0.57609980229E+03  0.57609980229E+03  0.25500000920E-02 0.  1.
       -2   -1    0    0    0  501  0.00000000000E+00  0.00000000000E+00 -0.74386811256E+03  0.74386811256E+03  0.25500000920E-02 0. -1.
    10030    2    1    2    0    0  0.00000000000E+00  0.00000000000E+00 -0.16776831027E+03  0.13199679149E+04  0.13092628041E+04 0.  0.
        2    1    3    3  502    0 -0.10196770608E+03 -0.48119917249E+03 -0.51937928831E+03  0.71533551696E+03  0.25500000920E-02 0. -1.
       -2    1    3    3    0  502  0.10196770608E+03  0.48119917249E+03  0.35161097804E+03  0.60463239789E+03  0.25500000920E-02 0.  1.
</event>
<event>
 5   0  0.1814770E-03  0.1314518E+04  0.7818609E-02  0.9018131E-01
        1   -1    0    0  501    0  0.00000000000E+00  0.00000000000E+00  0.13756956268E+04  0.13756956268E+04  0.50400001928E-02 0. -1.
       -1   -1    0    0    0  501  0.00000000000E+00  0.00000000000E+00 -0.31401506068E+03  0.31401506072E+03  0.50400001928E-02 0.  1.
    10030    2    1    2    0    0  0.00000000000E+00  0.00000000000E+00  0.10616805661E+04  0.16897106875E+04  0.13145176237E+04 0.  0.
        5    1    3    3  502    0  0.50237112609E+03  0.16245296020E+03  0.27717030198E+02  0.52873248091E+03  0.46999998093E+01 0.  1.
       -5    1    3    3    0  502 -0.50237112609E+03 -0.16245296020E+03  0.10339635359E+04  0.11609782066E+04  0.46999998093E+01 0. -1.
</event>
<event>
 5   0  0.3262927E-03  0.1290384E+04  0.7818609E-02  0.9037226E-01
        2   -1    0    0  501    0  0.00000000000E+00  0.00000000000E+00  0.15129574307E+04  0.15129574307E+04  0.25500000920E-02 0.  1.
       -2   -1    0    0    0  501  0.00000000000E+00  0.00000000000E+00 -0.27513831897E+03  0.27513831898E+03  0.25500000920E-02 0. -1.
    10030    2    1    2    0    0  0.00000000000E+00  0.00000000000E+00  0.12378191117E+04  0.17880957497E+04  0.12903837633E+04 0.  0.
        3    1    3    3  502    0  0.51799933257E+03 -0.97149771576E+02  0.11346299142E+04  0.12510581278E+04  0.10100000352E+00 0.  1.
       -3    1    3    3    0  502 -0.51799933257E+03  0.97149771576E+02  0.10318919752E+03  0.53703762191E+03  0.10100000352E+00 0. -1.
</event>
<event>
 5   0  0.1873488E-03  0.1299621E+04  0.7818609E-02  0.9029866E-01
       -1   -1    0    0    0  501  0.00000000000E+00  0.00000000000E+00  0.51789477724E+03  0.51789477726E+03  0.50400001928E-02 0.  1.
        1   -1    0    0  501    0  0.00000000000E+00  0.00000000000E+00 -0.81532682333E+03  0.81532682334E+03  0.50400001928E-02 0. -1.
    10030    2    1    2    0    0  0.00000000000E+00  0.00000000000E+00 -0.29743204609E+03  0.13332216006E+04  0.12996207194E+04 0.  0.
        3    1    3    3  502    0  0.14704401091E+03  0.55425473019E+03 -0.46228741516E+03  0.73656629811E+03  0.10100000352E+00 0.  1.
       -3    1    3    3    0  502 -0.14704401091E+03 -0.55425473019E+03  0.16485536908E+03  0.59665530250E+03  0.10100000352E+00 0. -1.
</event>
<event>
 5   0  0.3259968E-03  0.1267017E+04  0.7818609E-02  0.9056138E-01
        2   -1    0    0  501    0  0.00000000000E+00  0.00000000000E+00  0.45863233672E+03  0.45863233673E+03  0.25500000920E-02 0.  1.
       -2   -1    0    0    0  501  0.00000000000E+00  0.00000000000E+00 -0.87506416512E+03  0.87506416513E+03  0.25500000920E-02 0. -1.
    10030    2    1    2    0    0  0.00000000000E+00  0.00000000000E+00 -0.41643182840E+03  0.13336965019E+04  0.12670165316E+04 0.  0.
        4    1    3    3  502    0  0.16748574177E+03 -0.85066255256E+02  0.42863973013E+03  0.46799719297E+03  0.12699999809E+01 0.  1.
       -4    1    3    3    0  502 -0.16748574177E+03  0.85066255256E+02 -0.84507155853E+03  0.86569930889E+03  0.12699999809E+01 0. -1.
</event>
<event>
 5   0  0.1823154E-03  0.1321924E+04  0.7818609E-02  0.9012357E-01
       -1   -1    0    0    0  501  0.00000000000E+00  0.00000000000E+00  0.28276884976E+03  0.28276884980E+03  0.50400001928E-02 0. -1.
        1   -1    0    0  501    0  0.00000000000E+00  0.00000000000E+00 -0.15449754064E+04  0.15449754064E+04  0.50400001928E-02 0.  1.
    10030    2    1    2    0    0  0.00000000000E+00  0.00000000000E+00 -0.12622065567E+04  0.18277442562E+04  0.13219242318E+04 0.  0.
        2    1    3    3  502    0  0.31440334477E+03  0.52517441747E+03 -0.97596932363E+03  0.11520302742E+04  0.25500000920E-02 0.  1.
       -2    1    3    3    0  502 -0.31440334477E+03 -0.52517441747E+03 -0.28623723305E+03  0.67571398207E+03  0.25500000920E-02 0. -1.
</event>
<event>
 5   0  0.1857986E-03  0.1319314E+04  0.7818609E-02  0.9014388E-01
        1   -1    0    0  501    0  0.00000000000E+00  0.00000000000E+00  0.10775390891E+04  0.10775390891E+04  0.50400001928E-02 0. -1.
       -1   -1    0    0    0  501  0.00000000000E+00  0.00000000000E+00 -0.40383426814E+03  0.40383426817E+03  0.50400001928E-02 0.  1.
    10030    2    1    2    0    0  0.00000000000E+00  0.00000000000E+00  0.67370482091E+03  0.14813733572E+04  0.13193137753E+04 0.  0.
        1    1    3    3  502    0  0.37261080290E+03 -0.37067747520E+03  0.78444966257E+03  0.94424672316E+03  0.50400001928E-02 0. -1.
       -1    1    3    3    0  502 -0.37261080290E+03  0.37067747520E+03 -0.11074484166E+03  0.53712663408E+03  0.50400001928E-02 0.  1.
</event>
<event>
 5   0  0.3294720E-03  0.1312243E+04  0.7818609E-02  0.9019912E-01
        2   -1    0    0  501    0  0.00000000000E+00  0.00000000000E+00  0.54045364644E+03  0.54045364645E+03  0.25500000920E-02 0.  1.
       -2   -1    0    0    0  501  0.00000000000E+00  0.00000000000E+00 -0.79654436997E+03  0.79654436997E+03  0.25500000920E-02 0. -1.
    10030    2    1    2    0    0  0.00000000000E+00  0.00000000000E+00 -0.25609072353E+03  0.13369980164E+04  0.13122428271E+04 0.  0.
        5    1    3    3  502    0 -0.46671169097E+03 -0.45977539280E+02 -0.59554720894E+03  0.75804505452E+03  0.46999998093E+01 0. -1.
       -5    1    3    3    0  502  0.46671169097E+03  0.45977539280E+02  0.33945648541E+03  0.57895296190E+03  0.46999998093E+01 0.  1.
</event>
<event>
 5   0  0.1814770E-03  0.1303749E+04  0.7818609E-02  0.9026597E-01
       -1   -1    0    0    0  501  0.00000000000E+00  0.00000000000E+00  0.69515286494E+03  0.69515286496E+03  0.50400001928E-02 0.  1.
        1   -1    0    0  501    0  0.00000000000E+00  0.00000000000E+00 -0.61129061276E+03  0.61129061279E+03  0.50400001928E-02 0. -1.
    10030    2    1    2    0    0  0.00000000000E+00  0.00000000000E+00  0.83862252176E+02  0.13064434777E+04  0.13037490875E+04 0.  0.
        5    1    3    3  502    0  0.29142994263E+03 -0.10007966008E+03  0.61754927897E+03  0.69017139304E+03  0.46999998093E+01 0. -1.
       -5    1    3    3    0  502 -0.29142994263E+03  0.10007966008E+03 -0.53368702679E+03  0.61627208470E+03  0.46999998093E+01 0.  1.
</event>
<event>
 5   0  0.3262927E-03  0.1430381E+04  0.7818609E-02  0.8932116E-01
        2   -1    0    0  501    0  0.00000000000E+00  0.00000000000E+00  0.44806367073E+03  0.44806367073E+03  0.25500000920E-02 0.  1.
       -2   -1    0    0    0  501  0.00000000000E+00  0.00000000000E+00 -0.11415724366E+04  0.11415724366E+04  0.25500000920E-02 0. -1.
    10030    2    1    2    0    0  0.00000000000E+00  0.00000000000E+00 -0.69350876585E+03  0.15896361073E+04  0.14303805596E+04 0.  0.
        3    1    3    3  502    0  0.43092726615E+03  0.41172965537E+03 -0.78608792209E+03  0.98648560521E+03  0.10100000352E+00 0. -1.
       -3    1    3    3    0  502 -0.43092726615E+03 -0.41172965537E+03  0.92579156242E+02  0.60315050211E+03  0.10100000352E+00 0.  1.
</event>
<event>
 5   0  0.3336609E-03  0.1271668E+04  0.7818609E-02  0.9052340E-01
       -2   -1    0    0    0  501  0.00000000000E+00  0.00000000000E+00  0.13066724948E+04  0.13066724949E+04  0.25500000920E-02 0. -1.
        2   -1    0    0  501    0  0.00000000000E+00  0.00000000000E+00 -0.30940012220E+03  0.30940012221E+03  0.25500000920E-02 0.  1.
    10030    2    1    2    0    0  0.00000000000E+00  0.00000000000E+00  0.99727237265E+03  0.16160726171E+04  0.12716676132E+04 0.  0.
        1    1    3    3  502    0  0.29825718357E+03 -0.12905720345E+03 -0.19588287090E+03  0.37945119377E+03  0.50400001928E-02 0.  1.
       -1    1    3    3    0  502 -0.29825718357E+03  0.12905720345E+03  0.11931552436E+04  0.12366214233E+04  0.50400001928E-02 0. -1.
</event>
<event>
 5   0  0.1823154E-03  0.1423440E+04  0.7818609E-02  0.8937024E-01
       -1   -1    0    0    0  501  0.00000000000E+00  0.00000000000E+00  0.30130068209E+03  0.30130068213E+03  0.50400001928E-02 0. -1.
        1   -1    0    0  501    0  0.00000000000E+00  0.00000000000E+00 -0.16811957075E+04  0.16811957076E+04  0.50400001928E-02 0.  1.
    10030    2    1    2    0    0  0.00000000000E+00  0.00000000000E+00 -0.13798950255E+04  0.19824963897E+04  0.14234400774E+04 0.  0.
        2    1    3    3  502    0 -0.12504151352E+03  0.24763333667E+03  0.22290195594E+03  0.35586926181E+03  0.25500000920E-02 0. -1.
       -2    1    3    3    0  502  0.12504151352E+03 -0.24763333667E+03 -0.16027969814E+04  0.16266271279E+04  0.25500000920E-02 0.  1.
</event>
<event>
 5   0  0.1823154E-03  0.1306068E+04  0.7818609E-02  0.9024767E-01
        1   -1    0    0  501    0  0.00000000000E+00  0.00000000000E+00  0.96708113488E+03  0.96708113489E+03  0.50400001928E-02 0. -1.
       -1   -1    0    0    0  501  0.00000000000E+00  0.00000000000E+00 -0.44096978158E+03  0.44096978161E+03  0.50400001928E-02 0.  1.
    10030    2    1    2    0    0  0.00000000000E+00  0.00000000000E+00  0.52611135330E+03  0.14080509165E+04  0.13060682323E+04 0.  0.
        2    1    3    3  502    0  0.40390682291E+03 -0.10000130717E+03 -0.27954566998E+03  0.50128511312E+03  0.25500000920E-02 0.  1.
       -2    1    3    3    0  502 -0.40390682291E+03  0.10000130717E+03  0.80565702328E+03  0.90676580338E+03  0.25500000920E-02 0. -1.
</event>
<event>
 5   0  0.3262927E-03  0.1284205E+04  0.7818609E-02  0.9042185E-01
        2   -1    0    0  501    0  0.00000000000E+00  0.00000000000E+00  0.56275863000E+03  0.56275863001E+03  0.25500000920E-02 0.  1.
       -2   -1    0    0    0  501  0.00000000000E+00  0.00000000000E+00 -0.73263335709E+03  0.73263335709E+03  0.25500000920E-02 0. -1.
    10030    2    1    2    0    0  0.00000000000E+00  0.00000000000E+00 -0.16987472708E+03  0.12953919871E+04  0.12842051929E+04 0.  0.
        3    1    3    3  502    0 -0.26473170379E+02 -0.22123092311E+03  0.52251425525E+03  0.56803618479E+03  0.10100000352E+00 0.  1.
       -3    1    3    3    0  502  0.26473170379E+02  0.22123092311E+03 -0.69238898234E+03  0.72735580231E+03  0.10100000352E+00 0. -1.
</event>
<event>
 5   0  0.3262927E-03  0.1313578E+04  0.7818609E-02  0.9018867E-01
       -2   -1    0    0    0  501  0.00000000000E+00  0.00000000000E+00  0.35228691908E+03  0.35228691909E+03  0.25500000920E-02 0. -1.
        2   -1    0    0  501    0  0.00000000000E+00  0.00000000000E+00 -0.12244890922E+04  0.12244890922E+04  0.25500000920E-02 0.  1.
    10030    2    1    2    0    0  0.00000000000E+00  0.00000000000E+00 -0.87220217314E+03  0.15767760113E+04  0.13135775421E+04 0.  0.
        3    1    3    3  502    0 -0.56390274610E+03  0.84099428710E+02 -0.82748806296E+03  0.10048858271E+04  0.10100000352E+00 0.  1.
       -3    1    3    3    0  502  0.56390274610E+03 -0.84099428710E+02 -0.44714110188E+02  0.57189018423E+03  0.10100000352E+00 0. -1.
</event>
<event>
 5   0  0.1803959E-03  0.1305821E+04  0.7818609E-02  0.9024962E-01
        1   -1    0    0  501    0  0.00000000000E+00  0.00000000000E+00  0.45868912766E+03  0.45868912768E+03  0.50400001928E-02 0.  1.
       -1   -1    0    0    0  501  0.00000000000E+00  0.00000000000E+00 -0.92936998490E+03  0.92936998492E+03  0.50400001928E-02 0. -1.
    10030    2    1    2    0    0  0.00000000000E+00  0.00000000000E+00 -0.47068085725E+03  0.13880591126E+04  0.13058206733E+04 0.  0.
        4    1    3    3  502    0 -0.55793923808E+03 -0.28367248530E+03 -0.43284862224E+03  0.76100316358E+03  0.12699999809E+01 0.  1.
       -4    1    3    3    0  502  0.55793923808E+03  0.28367248530E+03 -0.37832235009E+02  0.62705594902E+03  0.12699999809E+01 0. -1.
</event>
<event>
 5   0  0.1803959E-03  0.1333771E+04  0.7818609E-02  0.9003205E-01
       -1   -1    0    0    0  501  0.00000000000E+00  0.00000000000E+00  0.70718144780E+03  0.70718144782E+03  0.50400001928E-02 0.  1.
        1   -1    0    0  501    0  0.00000000000E+00  0.00000000000E+00 -0.62888566886E+03  0.62888566888E+03  0.50400001928E-02 0. -1.
    10030    2    1    2    0    0  0.00000000000E+00  0.00000000000E+00  0.78295778944E+02  0.13360671167E+04  0.13337710116E+04 0.  0.
        4    1    3    3  502    0 -0.23769113894E+03 -0.17369590732E+02  0.66306511821E+03  0.70459615675E+03  0.12699999809E+01 0.  1.
       -4    1    3    3    0  502  0.23769113894E+03  0.17369590732E+02 -0.58476933927E+03  0.63147095995E+03  0.12699999809E+01 0. -1.
</event>
<event>
 5   0  0.1857986E-03  0.1352531E+04  0.7818609E-02  0.8988915E-01
        1   -1    0    0  501    0  0.00000000000E+00  0.00000000000E+00  0.63502486394E+03  0.63502486396E+03  0.50400001928E-02 0. -1.
       -1   -1    0    0    0  501  0.00000000000E+00  0.00000000000E+00 -0.72018414270E+03  0.72018414272E+03  0.50400001928E-02 0.  1.
    10030    2    1    2    0    0  0.00000000000E+00  0.00000000000E+00 -0.85159278764E+02  0.13552090067E+04  0.13525307202E+04 0.  0.
        1    1    3    3  502    0 -0.31417867771E+03 -0.41010269813E+03  0.39468155130E+03  0.65012767324E+03  0.50400001928E-02 0. -1.
       -1    1    3    3    0  502  0.31417867771E+03  0.41010269813E+03 -0.47984083007E+03  0.70508133344E+03  0.50400001928E-02 0.  1.
</event>
<event>
 5   0  0.1857986E-03  0.1258718E+04  0.7818609E-02  0.9062958E-01
       -1   -1    0    0    0  501  0.00000000000E+00  0.00000000000E+00  0.24763587255E+03  0.24763587260E+03  0.50400001928E-02 0.  1.
        1   -1    0    0  501    0  0.00000000000E+00  0.00000000000E+00 -0.15994974909E+04  0.15994974909E+04  0.50400001928E-02 0. -1.
    10030    2    1    2    0    0  0.00000000000E+00  0.00000000000E+00 -0.13518616183E+04  0.18471333635E+04  0.12587183273E+04 0.  0.
        1    1    3    3  502    0 -0.31813783041E+03  0.40029850405E+03 -0.12143996726E+04  0.13176559249E+04  0.50400001928E-02 0. -1.
       -1    1    3    3    0  502  0.31813783041E+03 -0.40029850405E+03 -0.13746194575E+03  0.52947743865E+03  0.50400001928E-02 0.  1.
</event>
<event>
 5   0  0.1823154E-03  0.1326611E+04  0.7818609E-02  0.9008724E-01
       -1   -1    0    0    0  501  0.00000000000E+00  0.00000000000E+00  0.25952635134E+03  0.25952635139E+03  0.50400001928E-02 0. -1.
        1   -1    0    0  501    0  0.00000000000E+00  0.00000000000E+00 -0.16952972699E+04  0.16952972699E+04  0.50400001928E-02 0.  1.
    10030    2    1    2    0    0  0.00000000000E+00  0.00000000000E+00 -0.14357709185E+04  0.19548236213E+04  0.13266111939E+04 0.  0.
        2    1    3    3  502    0  0.42593198651E+03 -0.45717628039E+03 -0.38988935431E+03  0.73650656283E+03  0.25500000920E-02 0. -1.
       -2    1    3    3    0  502 -0.42593198651E+03  0.45717628039E+03 -0.10458815642E+04  0.12183170584E+04  0.25500000920E-02 0.  1.
</event>
<event>
 5   0  0.1814770E-03  0.1325859E+04  0.7818609E-02  0.9009307E-01
        1   -1    0    0  501    0  0.00000000000E+00  0.00000000000E+00  0.42754352813E+03  0.42754352816E+03  0.50400001928E-02 0. -1.
       -1   -1    0    0    0  501  0.00000000000E+00  0.00000000000E+00 -0.10279074866E+04  0.10279074866E+04  0.50400001928E-02 0.  1.
    10030    2    1    2    0    0  0.00000000000E+00  0.00000000000E+00 -0.60036395850E+03  0.14554510148E+04  0.13258585045E+04 0.  0.
        5    1    3    3  502    0  0.19638522766E+03 -0.50761284034E+03  0.11524518960E+03  0.55636453612E+03  0.46999998093E+01 0. -1.
       -5    1    3    3    0  502 -0.19638522766E+03  0.50761284034E+03 -0.71560914810E+03  0.89908647869E+03  0.46999998093E+01 0.  1.
</event>
<event>
 5   0  0.1823154E-03  0.1273847E+04  0.7818609E-02  0.9050566E-01
       -1   -1    0    0    0  501  0.00000000000E+00  0.00000000000E+00  0.51065010581E+03  0.51065010584E+03  0.50400001928E-02 0. -1.
        1   -1    0    0  501    0  0.00000000000E+00  0.00000000000E+00 -0.79442200998E+03  0.79442201000E+03  0.50400001928E-02 0.  1.
    10030    2    1    2    0    0  0.00000000000E+00  0.00000000000E+00 -0.28377190417E+03  0.13050721158E+04  0.12738472177E+04 0.  0.
        2    1    3    3  502    0  0.53994590025E+03  0.11607880961E+03 -0.46692580261E+03  0.72321198164E+03  0.25500000920E-02 0.  1.
       -2    1    3    3    0  502 -0.53994590025E+03 -0.11607880961E+03  0.18315389844E+03  0.58186013419E+03  0.25500000920E-02 0. -1.
</event>
<event>
 5   0  0.3336609E-03  0.1267127E+04  0.7818609E-02  0.9056048E-01
       -2   -1    0    0    0  501  0.00000000000E+00  0.00000000000E+00  0.26319407546E+03  0.26319407548E+03  0.25500000920E-02 0.  1.
        2   -1    0    0  501    0  0.00000000000E+00  0.00000000000E+00 -0.15251199369E+04  0.15251199369E+04  0.25500000920E-02 0. -1.
    10030    2    1    2    0    0  0.00000000000E+00  0.00000000000E+00 -0.12619258615E+04  0.17883140124E+04  0.12671267210E+04 0.  0.
        1    1    3    3  502    0  0.63337316494E+03 -0.10272553759E+02 -0.61453821946E+03  0.88256688960E+03  0.50400001928E-02 0.  1.
       -1    1    3    3    0  502 -0.63337316494E+03  0.10272553759E+02 -0.64738764201E+03  0.90574712281E+03  0.50400001928E-02 0. -1.
</event>
<event>
 5   0  0.3336609E-03  0.1278819E+04  0.7818609E-02  0.9046532E-01
       -2   -1    0    0    0  501  0.00000000000E+00  0.00000000000E+00  0.38187363386E+03  0.38187363387E+03  0.25500000920E-02 0. -1.
        2   -1    0    0  501    0  0.00000000000E+00  0.00000000000E+00 -0.10706282601E+04  0.10706282601E+04  0.25500000920E-02 0.  1.
    10030    2    1    2    0    0  0.00000000000E+00  0.00000000000E+00 -0.68875462621E+03  0.14525018939E+04  0.12788193058E+04 0.  0.
        1    1    3    3  502    0  0.46982046996E+03 -0.32183693697E+03 -0.14141399077E+02  0.56965802652E+03  0.50400001928E-02 0. -1.
       -1    1    3    3    0  502 -0.46982046996E+03  0.32183693697E+03 -0.67461322713E+03  0.88284386742E+03  0.50400001928E-02 0.  1.
</event>
<event>
 5   0  0.3299104E-03  0.1268505E+04  0.7818609E-02  0.9054921E-01
        2   -1    0    0  501    0  0.00000000000E+00  0.00000000000E+00  0.71096090025E+03  0.71096090026E+03  0.25500000920E-02 0. -1.
       -2   -1    0    0    0  501  0.00000000000E+00  0.00000000000E+00 -0.56582006071E+03  0.56582006072E+03  0.25500000920E-02 0.  1.
    10030    2    1    2    0    0  0.00000000000E+00  0.00000000000E+00  0.14514083954E+03  0.12767809610E+04  0.12685045365E+04 0.  0.
        2    1    3    3  502    0  0.57829169581E+03  0.98245142613E+01 -0.18943187159E+03  0.60860680287E+03  0.25500000920E-02 0.  1.
       -2    1    3    3    0  502 -0.57829169581E+03 -0.98245142613E+01  0.33457271113E+03  0.66817415810E+03  0.25500000920E-02 0. -1.
</event>
<event>
 5   0  0.1803959E-03  0.1242527E+04  0.7818609E-02  0.9076426E-01
       -1   -1    0    0    0  501  0.00000000000E+00  0.00000000000E+00  0.92704223052E+03  0.92704223054E+03  0.50400001928E-02 0. -1.
        1   -1    0    0  501    0  0.00000000000E+00  0.00000000000E+00 -0.41634410130E+03  0.41634410133E+03  0.50400001928E-02 0.  1.
    10030    2    1    2    0    0  0.00000000000E+00  0.00000000000E+00  0.51069812923E+03  0.13433863319E+04  0.12425273669E+04 0.  0.
        4    1    3    3  502    0 -0.21088449602E+03  0.31560905237E+03 -0.27639172463E+03  0.46954801985E+03  0.12699999809E+01 0.  1.
       -4    1    3    3    0  502  0.21088449602E+03 -0.31560905237E+03  0.78708985386E+03  0.87383831202E+03  0.12699999809E+01 0. -1.
</event>
<event>
 5   0  0.1803959E-03  0.1305224E+04  0.7818609E-02  0.9025433E-01
       -1   -1    0    0    0  501  0.00000000000E+00  0.00000000000E+00  0.36576339389E+03  0.36576339392E+03  0.50400001928E-02 0.  1.
        1   -1    0    0  501    0  0.00000000000E+00  0.00000000000E+00 -0.11644206103E+04  0.11644206103E+04  0.50400001928E-02 0. -1.
    10030    2    1    2    0    0  0.00000000000E+00  0.00000000000E+00 -0.79865721644E+03  0.15301840043E+04  0.13052240181E+04 0.  0.
        4    1    3    3  502    0 -0.60364339141E+03 -0.10565793818E+03 -0.13626156972E+03  0.62778799939E+03  0.12699999809E+01 0.  1.
       -4    1    3    3    0  502  0.60364339141E+03  0.10565793818E+03 -0.66239564673E+03  0.90239600487E+03  0.12699999809E+01 0. -1.
</event>
<event>
 5   0  0.1857986E-03  0.1303617E+04  0.7818609E-02  0.9026702E-01
       -1   -1    0    0    0  501  0.00000000000E+00  0.00000000000E+00  0.83901707528E+03  0.83901707530E+03  0.50400001928E-02 0. -1.
        1   -1    0    0  501    0  0.00000000000E+00  0.00000000000E+00 -0.50637156585E+03  0.50637156588E+03  0.50400001928E-02 0.  1.
    10030    2    1    2    0    0  0.00000000000E+00  0.00000000000E+00  0.33264550943E+03  0.13453886412E+04  0.13036171067E+04 0.  0.
        1    1    3    3  502    0  0.88368311433E+02 -0.11190021653E+03 -0.49007899588E+03  0.51039988162E+03  0.50400001928E-02 0.  1.
       -1    1    3    3    0  502 -0.88368311433E+02  0.11190021653E+03  0.82272450531E+03  0.83498875956E+03  0.50400001928E-02 0. -1.
</event>
<event>
 5   0  0.1823154E-03  0.1325653E+04  0.7818609E-02  0.9009466E-01
       -1   -1    0    0    0  501  0.00000000000E+00  0.00000000000E+00  0.77570833104E+03  0.77570833105E+03  0.50400001928E-02 0.  1.
        1   -1    0    0  501    0  0.00000000000E+00  0.00000000000E+00 -0.56637113286E+03  0.56637113288E+03  0.50400001928E-02 0. -1.
    10030    2    1    2    0    0  0.00000000000E+00  0.00000000000E+00  0.20933719818E+03  0.13420794639E+04  0.13256527543E+04 0.  0.
        2    1    3    3  502    0  0.18442758815E+03 -0.10751255465E+03 -0.53061513657E+03  0.57194834368E+03  0.25500000920E-02 0. -1.
       -2    1    3    3    0  502 -0.18442758815E+03  0.10751255465E+03  0.73995233475E+03  0.77013112025E+03  0.25500000920E-02 0.  1.
</event>
<event>
 5   0  0.1823154E-03  0.1268147E+04  0.7818609E-02  0.9055214E-01
        1   -1    0    0  501    0  0.00000000000E+00  0.00000000000E+00  0.86223697005E+03  0.86223697007E+03  0.50400001928E-02 0. -1.
       -1   -1    0    0    0  501  0.00000000000E+00  0.00000000000E+00 -0.46628604789E+03  0.46628604792E+03  0.50400001928E-02 0.  1.
    10030    2    1    2    0    0  0.00000000000E+00  0.00000000000E+00  0.39595092216E+03  0.13285230180E+04  0.12681467882E+04 0.  0.
        2    1    3    3  502    0 -0.24599159856E+03 -0.54969883414E+03  0.40583665059E+03  0.72621213277E+03  0.25500000920E-02 0. -1.
       -2    1    3    3    0  502  0.24599159856E+03  0.54969883414E+03 -0.98857284243E+01  0.60231088521E+03  0.25500000920E-02 0.  1.
</event>
<event>
 5   0  0.3262927E-03  0.1561035E+04  0.7818609E-02  0.8844850E-01
        2   -1    0    0  501    0  0.00000000000E+00  0.00000000000E+00  0.11476273817E+04  0.11476273817E+04  0.25500000920E-02 0.  1.
       -2   -1    0    0    0  501  0.00000000000E+00  0.00000000000E+00 -0.53084070823E+03  0.53084070824E+03  0.25500000920E-02 0. -1.
    10030    2    1    2    0    0  0.00000000000E+00  0.00000000000E+00  0.61678667350E+03  0.16784680900E+04  0.15610346980E+04 0.  0.
        3    1    3    3  502    0  0.38632717685E+03  0.38932053744E+03  0.90549650547E+03  0.10586515480E+04  0.10100000352E+00 0.  1.
       -3    1    3    3    0  502 -0.38632717685E+03 -0.38932053744E+03 -0.28870983196E+03  0.61981654198E+03  0.10100000352E+00 0. -1.
</event>
<event>
 5   0  0.3336609E-03  0.1219750E+04  0.7818609E-02  0.9095743E-01
        2   -1    0    0  501    0  0.00000000000E+00  0.00000000000E+00  0.11313029657E+04  0.11313029657E+04  0.25500000920E-02 0.  1.
       -2   -1    0    0    0  501  0.00000000000E+00  0.00000000000E+00 -0.32877790542E+03  0.32877790543E+03  0.25500000920E-02 0. -1.
    10030    2    1    2    0    0  0.00000000000E+00  0.00000000000E+00  0.80252506027E+03  0.14600808711E+04  0.12197498423E+04 0.  0.
        1    1    3    3  502    0  0.46015855688E+03 -0.77856643776E+02  0.87122548710E+03  0.98835287416E+03  0.50400001928E-02 0.  1.
       -1    1    3    3    0  502 -0.46015855688E+03  0.77856643776E+02 -0.68700426835E+02  0.47172799696E+03  0.50400001928E-02 0. -1.
</event>
<event>
 5   0  0.3262927E-03  0.8333247E+03  0.7818609E-02  0.9512995E-01
        2   -1    0    0  501    0  0.00000000000E+00  0.00000000000E+00  0.18857030722E+04  0.18857030722E+04  0.25500000920E-02 0.  1.
       -2   -1    0    0    0  501  0.00000000000E+00  0.00000000000E+00 -0.92065146535E+02  0.92065146571E+02  0.25500000920E-02 0. -1.
    10030    2    1    2    0    0  0.00000000000E+00  0.00000000000E+00  0.17936379256E+04  0.19777682188E+04  0.83332473790E+03 0.  0.
        3    1    3    3  502    0  0.18322502738E+02  0.37580013995E+02  0.18807121468E+04  0.18811768022E+04  0.10100000352E+00 0.  1.
       -3    1    3    3    0  502 -0.18322502738E+02 -0.37580013995E+02 -0.87074221197E+02  0.96591416578E+02  0.10100000352E+00 0. -1.
</event>
<event>
 5   0  0.1803959E-03  0.1251272E+04  0.7818609E-02  0.9069125E-01
        1   -1    0    0  501    0  0.00000000000E+00  0.00000000000E+00  0.33751157902E+03  0.33751157905E+03  0.50400001928E-02 0. -1.
       -1   -1    0    0    0  501  0.00000000000E+00  0.00000000000E+00 -0.11597252066E+04  0.11597252066E+04  0.50400001928E-02 0.  1.
    10030    2    1    2    0    0  0.00000000000E+00  0.00000000000E+00 -0.82221362760E+03  0.14972367857E+04  0.12512724495E+04 0.  0.
        4    1    3    3  502    0  0.26641567970E+03  0.30389056765E+03  0.16036379722E+03  0.43479299886E+03  0.12699999809E+01 0. -1.
       -4    1    3    3    0  502 -0.26641567970E+03 -0.30389056765E+03 -0.98257742482E+03  0.10624437868E+04  0.12699999809E+01 0.  1.
</event>
<event>
 5   0  0.3299104E-03  0.1070247E+04  0.7818609E-02  0.9234686E-01
        2   -1    0    0  501    0  0.00000000000E+00  0.00000000000E+00  0.47308855855E+03  0.47308855855E+03  0.25500000920E-02 0. -1.
       -2   -1    0    0    0  501  0.00000000000E+00  0.00000000000E+00 -0.60529301953E+03  0.60529301954E+03  0.25500000920E-02 0.  1.
    10030    2    1    2    0    0  0.00000000000E+00  0.00000000000E+00 -0.13220446099E+03  0.10783815781E+04  0.10702470782E+04 0.  0.
        2    1    3    3  502    0 -0.24416695762E+03  0.75845993639E+02  0.40756338035E+03  0.48112163426E+03  0.25500000920E-02 0. -1.
       -2    1    3    3    0  502  0.24416695762E+03 -0.75845993639E+02 -0.53976784134E+03  0.59725994382E+03  0.25500000920E-02 0.  1.
</event>
<event>
 5   0  0.3299104E-03  0.1342282E+04  0.7818609E-02  0.8996691E-01
        2   -1    0    0  501    0  0.00000000000E+00  0.00000000000E+00  0.61444628866E+03  0.61444628867E+03  0.25500000920E-02 0.  1.
       -2   -1    0    0    0  501  0.00000000000E+00  0.00000000000E+00 -0.73306672308E+03  0.73306672308E+03  0.25500000920E-02 0. -1.
    10030    2    1    2    0    0  0.00000000000E+00  0.00000000000E+00 -0.11862043442E+03  0.13475130117E+04  0.13422818293E+04 0.  0.
        2    1    3    3  502    0 -0.39823546148E+03 -0.16522702856E+02 -0.60138278673E+03  0.72147469718E+03  0.25500000920E-02 0. -1.
       -2    1    3    3    0  502  0.39823546148E+03  0.16522702856E+02  0.48276235231E+03  0.62603831457E+03  0.25500000920E-02 0.  1.
</event>
<event>
 5   0  0.1803959E-03  0.1136052E+04  0.7818609E-02  0.9170748E-01
        1   -1    0    0  501    0  0.00000000000E+00  0.00000000000E+00  0.14093076156E+04  0.14093076156E+04  0.50400001928E-02 0.  1.
       -1   -1    0    0    0  501  0.00000000000E+00  0.00000000000E+00 -0.22894473625E+03  0.22894473630E+03  0.50400001928E-02 0. -1.
    10030    2    1    2    0    0  0.00000000000E+00  0.00000000000E+00  0.11803628793E+04  0.16382523519E+04  0.11360520417E+04 0.  0.
        4    1    3    3  502    0 -0.53926702299E+03 -0.17834810174E+03  0.58165254997E+03  0.81298110020E+03  0.12699999809E+01 0. -1.
       -4    1    3    3    0  502  0.53926702299E+03  0.17834810174E+03  0.59871032934E+03  0.82527125167E+03  0.12699999809E+01 0.  1.
</event>
<event>
 5   0  0.1823154E-03  0.1260519E+04  0.7818609E-02  0.9061474E-01
        1   -1    0    0  501    0  0.00000000000E+00  0.00000000000E+00  0.55731371851E+03  0.55731371853E+03  0.50400001928E-02 0.  1.
       -1   -1    0    0    0  501  0.00000000000E+00  0.00000000000E+00 -0.71275271789E+03  0.71275271791E+03  0.50400001928E-02 0. -1.
    10030    2    1    2    0    0  0.00000000000E+00  0.00000000000E+00 -0.15543899938E+03  0.12700664364E+04  0.12605187307E+04 0.  0.
        2    1    3    3  502    0  0.42982250191E+03 -0.22614908258E+03  0.32698951848E+03  0.58550229368E+03  0.25500000920E-02 0. -1.
       -2    1    3    3    0  502 -0.42982250191E+03  0.22614908258E+03 -0.48242851786E+03  0.68456414276E+03  0.25500000920E-02 0.  1.
</event>
<event>
 5   0  0.1814770E-03  0.1291861E+04  0.7818609E-02  0.9036045E-01
        1   -1    0    0  501    0  0.00000000000E+00  0.00000000000E+00  0.81119533203E+03  0.81119533205E+03  0.50400001928E-02 0. -1.
       -1   -1    0    0    0  501  0.00000000000E+00  0.00000000000E+00 -0.51433485592E+03  0.51433485595E+03  0.50400001928E-02 0.  1.
    10030    2    1    2    0    0  0.00000000000E+00  0.00000000000E+00  0.29686047611E+03  0.13255301880E+04  0.12918607266E+04 0.  0.
        5    1    3    3  502    0  0.50671714488E+03  0.41124066553E+02  0.55724960860E+03  0.75432265646E+03  0.46999998093E+01 0.  1.
       -5    1    3    3    0  502 -0.50671714488E+03 -0.41124066553E+02 -0.26038913250E+03  0.57120753153E+03  0.46999998093E+01 0. -1.
</event>
<event>
 5   0  0.3259968E-03  0.1302211E+04  0.7818609E-02  0.9027813E-01
       -2   -1    0    0    0  501  0.00000000000E+00  0.00000000000E+00  0.32873470277E+03  0.32873470278E+03  0.25500000920E-02 0.  1.
        2   -1    0    0  501    0  0.00000000000E+00  0.00000000000E+00 -0.12896068561E+04  0.12896068561E+04  0.25500000920E-02 0. -1.
    10030    2    1    2    0    0  0.00000000000E+00  0.00000000000E+00 -0.96087215331E+03  0.16183415589E+04  0.13022112371E+04 0.  0.
        4    1    3    3  502    0 -0.16034394390E+03 -0.61794043458E+03 -0.63947277045E+03  0.90359703302E+03  0.12699999809E+01 0. -1.
       -4    1    3    3    0  502  0.16034394390E+03  0.61794043458E+03 -0.32139938286E+03  0.71474452585E+03  0.12699999809E+01 0.  1.
</event>
<event>
 5   0  0.1814770E-03  0.1331392E+04  0.7818609E-02  0.9005035E-01
       -1   -1    0    0    0  501  0.00000000000E+00  0.00000000000E+00  0.47875549799E+03  0.47875549802E+03  0.50400001928E-02 0. -1.
        1   -1    0    0  501    0  0.00000000000E+00  0.00000000000E+00 -0.92563082120E+03  0.92563082121E+03  0.50400001928E-02 0.  1.
    10030    2    1    2    0    0  0.00000000000E+00  0.00000000000E+00 -0.44687532321E+03  0.14043863192E+04  0.13313915199E+04 0.  0.
        5    1    3    3  502    0 -0.54888995253E+03 -0.18050152472E+03 -0.57211751308E+03  0.81314298816E+03  0.46999998093E+01 0.  1.
       -5    1    3    3    0  502  0.54888995253E+03  0.18050152472E+03  0.12524218988E+03  0.59124333107E+03  0.46999998093E+01 0. -1.
</event>
<event>
 5   0  0.3336609E-03  0.1308251E+04  0.7818609E-02  0.9023047E-01
       -2   -1    0    0    0  501  0.00000000000E+00  0.00000000000E+00  0.33169415423E+03  0.33169415424E+03  0.25500000920E-02 0. -1.
        2   -1    0    0  501    0  0.00000000000E+00  0.00000000000E+00 -0.12899846099E+04  0.12899846099E+04  0.25500000920E-02 0.  1.
    10030    2    1    2    0    0  0.00000000000E+00  0.00000000000E+00 -0.95829045569E+03  0.16216787642E+04  0.13082512819E+04 0.  0.
        1    1    3    3  502    0 -0.53383009955E+03  0.27173429165E+03 -0.80491186933E+03  0.10033430210E+04  0.50400001928E-02 0.  1.
       -1    1    3    3    0  502  0.53383009955E+03 -0.27173429165E+03 -0.15337858636E+03  0.61833574312E+03  0.50400001928E-02 0. -1.
</event>
<event>
 5   0  0.1814770E-03  0.1147521E+04  0.7818609E-02  0.9160073E-01
       -1   -1    0    0    0  501  0.00000000000E+00  0.00000000000E+00  0.25689542630E+03  0.25689542635E+03  0.50400001928E-02 0. -1.
        1   -1    0    0  501    0  0.00000000000E+00  0.00000000000E+00 -0.12814605586E+04  0.12814605586E+04  0.50400001928E-02 0.  1.
    10030    2    1    2    0    0  0.00000000000E+00  0.00000000000E+00 -0.10245651323E+04  0.15383559850E+04  0.11475214273E+04 0.  0.
        5    1    3    3  502    0  0.20137211541E+02 -0.53439895049E+03 -0.23367347045E+03  0.58362070419E+03  0.46999998093E+01 0.  1.
       -5    1    3    3    0  502 -0.20137211541E+02  0.53439895049E+03 -0.79089166187E+03  0.95473528079E+03  0.46999998093E+01 0. -1.
</event>
<event>
 5   0  0.1857986E-03  0.1299763E+04  0.7818609E-02  0.9029753E-01
        1   -1    0    0  501    0  0.00000000000E+00  0.00000000000E+00  0.53337571078E+03  0.53337571080E+03  0.50400001928E-02 0. -1.
       -1   -1    0    0    0  501  0.00000000000E+00  0.00000000000E+00 -0.79183590598E+03  0.79183590600E+03  0.50400001928E-02 0.  1.
    10030    2    1    2    0    0  0.00000000000E+00  0.00000000000E+00 -0.25846019520E+03  0.13252116168E+04  0.12997631156E+04 0.  0.
        1    1    3    3  502    0  0.50379021661E+03  0.40500814311E+03 -0.60759739993E+02  0.64925181892E+03  0.50400001928E-02 0. -1.
       -1    1    3    3    0  502 -0.50379021661E+03 -0.40500814311E+03 -0.19770045521E+03  0.67595979788E+03  0.50400001928E-02 0.  1.
</event>
<event>
 5   0  0.1873488E-03  0.1324580E+04  0.7818609E-02  0.9010297E-01
        1   -1    0    0  501    0  0.00000000000E+00  0.00000000000E+00  0.32272591110E+03  0.32272591114E+03  0.50400001928E-02 0.  1.
       -1   -1    0    0    0  501  0.00000000000E+00  0.00000000000E+00 -0.13591357345E+04  0.13591357345E+04  0.50400001928E-02 0. -1.
    10030    2    1    2    0    0  0.00000000000E+00  0.00000000000E+00 -0.10364098234E+04  0.16818616456E+04  0.13245804140E+04 0.  0.
        3    1    3    3  502    0 -0.67299601526E+01 -0.42158243015E+03 -0.11667025752E+04  0.12405530811E+04  0.10100000352E+00 0. -1.
       -3    1    3    3    0  502  0.67299601526E+01  0.42158243015E+03  0.13029275183E+03  0.44130856456E+03  0.10100000352E+00 0.  1.
</event>
<event>
 5   0  0.1814770E-03  0.1323869E+04  0.7818609E-02  0.9010848E-01
       -1   -1    0    0    0  501  0.00000000000E+00  0.00000000000E+00  0.10728792174E+04  0.10728792174E+04  0.50400001928E-02 0.  1.
        1   -1    0    0  501    0  0.00000000000E+00  0.00000000000E+00 -0.40839366748E+03  0.40839366752E+03  0.50400001928E-02 0. -1.
    10030    2    1    2    0    0  0.00000000000E+00  0.00000000000E+00  0.66448554987E+03  0.14812728849E+04  0.13238686919E+04 0.  0.
        5    1    3    3  502    0  0.36774778196E+03 -0.52949019411E+03  0.16427141359E+03  0.66528601677E+03  0.46999998093E+01 0. -1.
       -5    1    3    3    0  502 -0.36774778196E+03  0.52949019411E+03  0.50021413628E+03  0.81598686811E+03  0.46999998093E+01 0.  1.
</event>
<event>
 5   0  0.3259968E-03  0.1270111E+04  0.7818609E-02  0.9053609E-01
       -2   -1    0    0    0  501  0.00000000000E+00  0.00000000000E+00  0.95610631550E+03  0.95610631551E+03  0.25500000920E-02 0. -1.
        2   -1    0    0  501    0  0.00000000000E+00  0.00000000000E+00 -0.42181042350E+03  0.42181042351E+03  0.25500000920E-02 0.  1.
    10030    2    1    2    0    0  0.00000000000E+00  0.00000000000E+00  0.53429589200E+03  0.13779167390E+04  0.12701111918E+04 0.  0.
        4    1    3    3  502    0 -0.99990576057E+01 -0.25714244723E+02 -0.42115854743E+03  0.42206319256E+03  0.12699999809E+01 0.  1.
       -4    1    3    3    0  502  0.99990576057E+01  0.25714244723E+02  0.95545443944E+03  0.95585354646E+03  0.12699999809E+01 0. -1.
</event>
<event>
 5   0  0.3262927E-03  0.1309690E+04  0.7818609E-02  0.9021916E-01
       -2   -1    0    0    0  501  0.00000000000E+00  0.00000000000E+00  0.66296352210E+03  0.66296352210E+03  0.25500000920E-02 0. -1.
        2   -1    0    0  501    0  0.00000000000E+00  0.00000000000E+00 -0.64682578734E+03  0.64682578735E+03  0.25500000920E-02 0.  1.
    10030    2    1    2    0    0  0.00000000000E+00  0.00000000000E+00  0.16137734760E+02  0.13097893094E+04  0.13096898903E+04 0.  0.
        3    1    3    3  502    0  0.30401819934E+03  0.72179626497E+02  0.58359924075E+03  0.66198568566E+03  0.10100000352E+00 0. -1.
       -3    1    3    3    0  502 -0.30401819934E+03 -0.72179626497E+02 -0.56746150599E+03  0.64780362379E+03  0.10100000352E+00 0.  1.
</event>
<event>
 5   0  0.3299104E-03  0.1236853E+04  0.7818609E-02  0.9081197E-01
       -2   -1    0    0    0  501  0.00000000000E+00  0.00000000000E+00  0.12373617231E+04  0.12373617231E+04  0.25500000920E-02 0.  1.
        2   -1    0    0  501    0  0.00000000000E+00  0.00000000000E+00 -0.30908598438E+03  0.30908598439E+03  0.25500000920E-02 0. -1.
    10030    2    1    2    0    0  0.00000000000E+00  0.00000000000E+00  0.92827573876E+03  0.15464477075E+04  0.12368527257E+04 0.  0.
        2    1    3    3  502    0  0.14713803005E+03  0.23831569919E+03 -0.22524292316E+03  0.35941389346E+03  0.25500000920E-02 0. -1.
       -2    1    3    3    0  502 -0.14713803005E+03 -0.23831569919E+03  0.11535186619E+04  0.11870338141E+04  0.25500000920E-02 0.  1.
</event>
<event>
 5   0  0.3336609E-03  0.1341411E+04  0.7818609E-02  0.8997356E-01
        2   -1    0    0  501    0  0.00000000000E+00  0.00000000000E+00  0.10816891736E+04  0.10816891736E+04  0.25500000920E-02 0. -1.
       -2   -1    0    0    0  501  0.00000000000E+00  0.00000000000E+00 -0.41587335270E+03  0.41587335271E+03  0.25500000920E-02 0.  1.
    10030    2    1    2    0    0  0.00000000000E+00  0.00000000000E+00  0.66581582087E+03  0.14975625263E+04  0.13414107547E+04 0.  0.
        1    1    3    3  502    0  0.56778113070E+03  0.22661331152E+03  0.64091672815E+03  0.88572188512E+03  0.50400001928E-02 0. -1.
       -1    1    3    3    0  502 -0.56778113070E+03 -0.22661331152E+03  0.24899092723E+02  0.61184064117E+03  0.50400001928E-02 0.  1.
</event>
<event>
 5   0  0.3294720E-03  0.1275476E+04  0.7818609E-02  0.9049242E-01
       -2   -1    0    0    0  501  0.00000000000E+00  0.00000000000E+00  0.20125963869E+03  0.20125963871E+03  0.25500000920E-02 0. -1.
        2   -1    0    0  501    0  0.00000000000E+00  0.00000000000E+00 -0.20208211058E+04  0.20208211058E+04  0.25500000920E-02 0.  1.
    10030    2    1    2    0    0  0.00000000000E+00  0.00000000000E+00 -0.18195614671E+04  0.22220807445E+04  0.12754759514E+04 0.  0.
        5    1    3    3  502    0  0.22908262541E+03 -0.42558046239E+03 -0.16345898066E+04  0.17045537554E+04  0.46999998093E+01 0.  1.
       -5    1    3    3    0  502 -0.22908262541E+03  0.42558046239E+03 -0.18497166047E+03  0.51752698906E+03  0.46999998093E+01 0. -1.
</event>
<event>
 5   0  0.3262927E-03  0.1314560E+04  0.7818609E-02  0.9018098E-01
       -2   -1    0    0    0  501  0.00000000000E+00  0.00000000000E+00  0.58829415996E+03  0.58829415996E+03  0.25500000920E-02 0. -1.
        2   -1    0    0  501    0  0.00000000000E+00  0.00000000000E+00 -0.73435535043E+03  0.73435535043E+03  0.25500000920E-02 0.  1.
    10030    2    1    2    0    0  0.00000000000E+00  0.00000000000E+00 -0.14606119047E+03  0.13226495104E+04  0.13145599477E+04 0.  0.
        3    1    3    3  502    0  0.41833546668E+03 -0.17622257469E+03  0.40524501670E+03  0.60850841595E+03  0.10100000352E+00 0. -1.
       -3    1    3    3    0  502 -0.41833546668E+03  0.17622257469E+03 -0.55130620718E+03  0.71414109445E+03  0.10100000352E+00 0.  1.
</event>
<event>
 5   0  0.1857986E-03  0.1293849E+04  0.7818609E-02  0.9034457E-01
        1   -1    0    0  501    0  0.00000000000E+00  0.00000000000E+00  0.79882142960E+03  0.79882142961E+03  0.50400001928E-02 0. -1.
       -1   -1    0    0    0  501  0.00000000000E+00  0.00000000000E+00 -0.52391130532E+03  0.52391130535E+03  0.50400001928E-02 0.  1.
    10030    2    1    2    0    0  0.00000000000E+00  0.00000000000E+00  0.27491012428E+03  0.13227327350E+04  0.12938494162E+04 0.  0.
        1    1    3    3  502    0 -0.25181742697E+02  0.29728942901E+03 -0.44937687228E+03  0.53940216734E+03  0.50400001928E-02 0.  1.
       -1    1    3    3    0  502  0.25181742697E+02 -0.29728942901E+03  0.72428699655E+03  0.78333056762E+03  0.50400001928E-02 0. -1.
</event>
<event>
 5   0  0.1873488E-03  0.1151083E+04  0.7818609E-02  0.9156785E-01
       -1   -1    0    0    0  501  0.00000000000E+00  0.00000000000E+00  0.25634840446E+03  0.25634840451E+03  0.50400001928E-02 0.  1.
        1   -1    0    0  501    0  0.00000000000E+00  0.00000000000E+00 -0.12921784741E+04  0.12921784741E+04  0.50400001928E-02 0. -1.
    10030    2    1    2    0    0  0.00000000000E+00  0.00000000000E+00 -0.10358300696E+04  0.15485268786E+04  0.11510827775E+04 0.  0.
        3    1    3    3  502    0 -0.11129225603E+03  0.27188324314E+03  0.14788421871E+03  0.32890153009E+03  0.10100000352E+00 0.  1.
       -3    1    3    3    0  502  0.11129225603E+03 -0.27188324314E+03 -0.11837142883E+04  0.12196253485E+04  0.10100000352E+00 0. -1.
</event>
<event>
 5   0  0.1814770E-03  0.1314483E+04  0.7818609E-02  0.9018158E-01
       -1   -1    0    0    0  501  0.00000000000E+00  0.00000000000E+00  0.60521811751E+03  0.60521811753E+03  0.50400001928E-02 0.  1.
        1   -1    0    0  501    0  0.00000000000E+00  0.00000000000E+00 -0.71373718010E+03  0.71373718012E+03  0.50400001928E-02 0. -1.
    10030    2    1    2    0    0  0.00000000000E+00  0.00000000000E+00 -0.10851906259E+03  0.13189552977E+04  0.13144834310E+04 0.  0.
        5    1    3    3  502    0  0.32242020368E+03 -0.77843578735E+02  0.51505963046E+03  0.61263604483E+03  0.46999998093E+01 0.  1.
       -5    1    3    3    0  502 -0.32242020368E+03  0.77843578735E+02 -0.62357869305E+03  0.70631925283E+03  0.46999998093E+01 0. -1.
</event>
<event>
 5   0  0.1873488E-03  0.1218052E+04  0.7818609E-02  0.9097201E-01
       -1   -1    0    0    0  501  0.00000000000E+00  0.00000000000E+00  0.14943902065E+04  0.14943902065E+04  0.50400001928E-02 0. -1.
        1   -1    0    0  501    0  0.00000000000E+00  0.00000000000E+00 -0.24820334297E+03  0.24820334302E+03  0.50400001928E-02 0.  1.
    10030    2    1    2    0    0  0.00000000000E+00  0.00000000000E+00  0.12461868636E+04  0.17425935496E+04  0.12180519612E+04 0.  0.
        3    1    3    3  502    0 -0.18232537875E+03 -0.37547324095E+03  0.12575784280E+04  0.13250381923E+04  0.10100000352E+00 0. -1.
       -3    1    3    3    0  502  0.18232537875E+03  0.37547324095E+03 -0.11391564436E+02  0.41755535722E+03  0.10100000352E+00 0.  1.
</event>
<event>
 5   0  0.3299104E-03  0.8654932E+03  0.7818609E-02  0.9469775E-01
       -2   -1    0    0    0  501  0.00000000000E+00  0.00000000000E+00  0.74785785735E+03  0.74785785735E+03  0.25500000920E-02 0.  1.
        2   -1    0    0  501    0  0.00000000000E+00  0.00000000000E+00 -0.25040801810E+03  0.25040801811E+03  0.25500000920E-02 0. -1.
    10030    2    1    2    0    0  0.00000000000E+00  0.00000000000E+00  0.49744983926E+03  0.99826587546E+03  0.86549316320E+03 0.  0.
        2    1    3    3  502    0  0.10803026515E+03  0.23678636520E+03  0.64749574238E+03  0.69784601263E+03  0.25500000920E-02 0.  1.
       -2    1    3    3    0  502 -0.10803026515E+03 -0.23678636520E+03 -0.15004590313E+03  0.30041986283E+03  0.25500000920E-02 0. -1.
</event>
<event>
 5   0  0.3262927E-03  0.1295355E+04  0.7818609E-02  0.9033257E-01
        2   -1    0    0  501    0  0.00000000000E+00  0.00000000000E+00  0.19022534529E+04  0.19022534529E+04  0.25500000920E-02 0. -1.
       -2   -1    0    0    0  501  0.00000000000E+00  0.00000000000E+00 -0.22052050735E+03  0.22052050737E+03  0.25500000920E-02 0.  1.
    10030    2    1    2    0    0  0.00000000000E+00  0.00000000000E+00  0.16817329456E+04  0.21227739603E+04  0.12953546180E+04 0.  0.
        3    1    3    3  502    0  0.21716307930E+03 -0.11893112834E+03 -0.13990230335E+03  0.28438896073E+03  0.10100000352E+00 0.  1.
       -3    1    3    3    0  502 -0.21716307930E+03  0.11893112834E+03  0.18216352489E+04  0.18383849996E+04  0.10100000352E+00 0. -1.
</event>
<event>
 5   0  0.1873488E-03  0.1297426E+04  0.7818609E-02  0.9031609E-01
        1   -1    0    0  501    0  0.00000000000E+00  0.00000000000E+00  0.96278877188E+03  0.96278877189E+03  0.50400001928E-02 0. -1.
       -1   -1    0    0    0  501  0.00000000000E+00  0.00000000000E+00 -0.43709338153E+03  0.43709338156E+03  0.50400001928E-02 0.  1.
    10030    2    1    2    0    0  0.00000000000E+00  0.00000000000E+00  0.52569539035E+03  0.13998821535E+04  0.12974260673E+04 0.  0.
        3    1    3    3  502    0 -0.43735933947E+03  0.40744583083E+03  0.53481051805E+03  0.80207081813E+03  0.10100000352E+00 0. -1.
       -3    1    3    3    0  502  0.43735933947E+03 -0.40744583083E+03 -0.91151277076E+01  0.59781133532E+03  0.10100000352E+00 0.  1.
</event>
<event>
 5   0  0.1823154E-03  0.1242023E+04  0.7818609E-02  0.9076849E-01
        1   -1    0    0  501    0  0.00000000000E+00  0.00000000000E+00  0.60971856849E+03  0.60971856851E+03  0.50400001928E-02 0. -1.
       -1   -1    0    0    0  501  0.00000000000E+00  0.00000000000E+00 -0.63251332757E+03  0.63251332759E+03  0.50400001928E-02 0.  1.
    10030    2    1    2    0    0  0.00000000000E+00  0.00000000000E+00 -0.22794759074E+02  0.12422318961E+04  0.12420227384E+04 0.  0.
        2    1    3    3  502    0  0.34865504960E+03  0.46608603606E+03  0.20510751052E+03  0.61714311752E+03  0.25500000920E-02 0. -1.
       -2    1    3    3    0  502 -0.34865504960E+03 -0.46608603606E+03 -0.22790226959E+03  0.62508877858E+03  0.25500000920E-02 0.  1.
</event>
<event>
 5   0  0.3299104E-03  0.1293349E+04  0.7818609E-02  0.9034856E-01
        2   -1    0    0  501    0  0.00000000000E+00  0.00000000000E+00  0.14876891094E+04  0.14876891094E+04  0.25500000920E-02 0.  1.
       -2   -1    0    0    0  501  0.00000000000E+00  0.00000000000E+00 -0.28109889948E+03  0.28109889949E+03  0.25500000920E-02 0. -1.
    10030    2    1    2    0    0  0.00000000000E+00  0.00000000000E+00  0.12065902099E+04  0.17687880088E+04  0.12933487873E+04 0.  0.
        2    1    3    3  502    0 -0.31125924405E+03 -0.52429813705E+03  0.89793956171E+03  0.10853876312E+04  0.25500000920E-02 0.  1.
       -2    1    3    3    0  502  0.31125924405E+03  0.52429813705E+03  0.30865064817E+03  0.68340037763E+03  0.25500000920E-02 0. -1.
</event>
<event>
 5   0  0.1803959E-03  0.1385022E+04  0.7818609E-02  0.8964732E-01
       -1   -1    0    0    0  501  0.00000000000E+00  0.00000000000E+00  0.93975854755E+03  0.93975854756E+03  0.50400001928E-02 0. -1.
        1   -1    0    0  501    0  0.00000000000E+00  0.00000000000E+00 -0.51031348691E+03  0.51031348693E+03  0.50400001928E-02 0.  1.
    10030    2    1    2    0    0  0.00000000000E+00  0.00000000000E+00  0.42944506064E+03  0.14500720345E+04  0.13850219656E+04 0.  0.
        4    1    3    3  502    0 -0.86655847238E+02 -0.61041450110E+03 -0.11545360477E+03  0.62725293683E+03  0.12699999809E+01 0.  1.
       -4    1    3    3    0  502  0.86655847238E+02  0.61041450110E+03  0.54489866541E+03  0.82281909766E+03  0.12699999809E+01 0. -1.
</event>
<event>
 5   0  0.1254125E-03  0.1281374E+04  0.7818609E-02  0.9044467E-01
        3   -1    0    0  501    0  0.00000000000E+00  0.00000000000E+00  0.12897078771E+04  0.12897078811E+04  0.10100000352E+00 0.  1.
       -3   -1    0    0    0  501  0.00000000000E+00  0.00000000000E+00 -0.31827359368E+03  0.31827360971E+03  0.10100000352E+00 0. -1.
    10030    2    1    2    0    0  0.00000000000E+00  0.00000000000E+00  0.97143428343E+03  0.16079814908E+04  0.12813742262E+04 0.  0.
        1    1    3    3  502    0  0.38417589905E+03 -0.22061400586E+03  0.10665261738E+04  0.11548765044E+04  0.50400001928E-02 0.  1.
       -1    1    3    3    0  502 -0.38417589905E+03  0.22061400586E+03 -0.95091890402E+02  0.45310498634E+03  0.50400001928E-02 0. -1.
</event>
<event>
 5   0  0.3336609E-03  0.1289832E+04  0.7818609E-02  0.9037668E-01
       -2   -1    0    0    0  501  0.00000000000E+00  0.00000000000E+00  0.80279486181E+03  0.80279486182E+03  0.25500000920E-02 0.  1.
        2   -1    0    0  501    0  0.00000000000E+00  0.00000000000E+00 -0.51808579314E+03  0.51808579315E+03  0.25500000920E-02 0. -1.
    10030    2    1    2    0    0  0.00000000000E+00  0.00000000000E+00  0.28470906867E+03  0.13208806550E+04  0.12898319468E+04 0.  0.
        1    1    3    3  502    0  0.64246141863E+03  0.51250938151E+02  0.16600327059E+03  0.66553769162E+03  0.50400001928E-02 0. -1.
       -1    1    3    3    0  502 -0.64246141863E+03 -0.51250938151E+02  0.11870579808E+03  0.65534296335E+03  0.50400001928E-02 0.  1.
</event>
<event>
 5   0  0.1803959E-03  0.1326615E+04  0.7818609E-02  0.9008722E-01
        1   -1    0    0  501    0  0.00000000000E+00  0.00000000000E+00  0.18250708330E+04  0.18250708330E+04  0.50400001928E-02 0.  1.
       -1   -1    0    0    0  501  0.00000000000E+00  0.00000000000E+00 -0.24107367803E+03  0.24107367808E+03  0.50400001928E-02 0. -1.
    10030    2    1    2    0    0  0.00000000000E+00  0.00000000000E+00  0.15839971550E+04  0.20661445111E+04  0.13266145460E+04 0.  0.
        4    1    3    3  502    0  0.42691117028E+03  0.45834826357E+03  0.11319333961E+04  0.12936812220E+04  0.12699999809E+01 0.  1.
       -4    1    3    3    0  502 -0.42691117028E+03 -0.45834826357E+03  0.45206375887E+03  0.77246328910E+03  0.12699999809E+01 0. -1.
</event>
<event>
 5   0  0.1857986E-03  0.1332093E+04  0.7818609E-02  0.9004495E-01
        1   -1    0    0  501    0  0.00000000000E+00  0.00000000000E+00  0.67190415695E+03  0.67190415697E+03  0.50400001928E-02 0.  1.
       -1   -1    0    0    0  501  0.00000000000E+00  0.00000000000E+00 -0.66023998090E+03  0.66023998092E+03  0.50400001928E-02 0. -1.
    10030    2    1    2    0    0  0.00000000000E+00  0.00000000000E+00  0.11664176051E+02  0.13321441379E+04  0.13320930715E+04 0.  0.
        1    1    3    3  502    0  0.12933524186E+03  0.54124430174E+03 -0.36016689925E+03  0.66286740325E+03  0.50400001928E-02 0. -1.
       -1    1    3    3    0  502 -0.12933524186E+03 -0.54124430174E+03  0.37183107530E+03  0.66927673464E+03  0.50400001928E-02 0.  1.
</event>
<event>
 5   0  0.1823154E-03  0.1229116E+04  0.7818609E-02  0.9087746E-01
       -1   -1    0    0    0  501  0.00000000000E+00  0.00000000000E+00  0.15307012634E+03  0.15307012642E+03  0.50400001928E-02 0.  1.
        1   -1    0    0  501    0  0.00000000000E+00  0.00000000000E+00 -0.24673759859E+04  0.24673759860E+04  0.50400001928E-02 0. -1.
    10030    2    1    2    0    0  0.00000000000E+00  0.00000000000E+00 -0.23143058596E+04  0.26204461124E+04  0.12291160303E+04 0.  0.
        2    1    3    3  502    0 -0.28037943620E+03  0.12309523013E+03 -0.22931511711E+04  0.23135054263E+04  0.25500000920E-02 0. -1.
       -2    1    3    3    0  502  0.28037943620E+03 -0.12309523013E+03 -0.21154688519E+02  0.30694068609E+03  0.25500000920E-02 0.  1.
</event>
<event>
 5   0  0.3336609E-03  0.9553337E+03  0.7818609E-02  0.9358938E-01
        2   -1    0    0  501    0  0.00000000000E+00  0.00000000000E+00  0.14008139033E+04  0.14008139033E+04  0.25500000920E-02 0.  1.
       -2   -1    0    0    0  501  0.00000000000E+00  0.00000000000E+00 -0.16288073887E+03  0.16288073889E+03  0.25500000920E-02 0. -1.
    10030    2    1    2    0    0  0.00000000000E+00  0.00000000000E+00  0.12379331645E+04  0.15636946422E+04  0.95533366655E+03 0.  0.
        1    1    3    3  502    0 -0.33085787005E+03  0.30100547884E+02  0.11807331962E+04  0.12265821839E+04  0.50400001928E-02 0.  1.
       -1    1    3    3    0  502  0.33085787005E+03 -0.30100547884E+02  0.57199968220E+02  0.33711245831E+03  0.50400001928E-02 0. -1.
</event>
<event>
 5   0  0.3294720E-03  0.1276077E+04  0.7818609E-02  0.9048754E-01
        2   -1    0    0  501    0  0.00000000000E+00  0.00000000000E+00  0.15127127468E+04  0.15127127468E+04  0.25500000920E-02 0.  1.
       -2   -1    0    0    0  501  0.00000000000E+00  0.00000000000E+00 -0.26911466309E+03  0.26911466310E+03  0.25500000920E-02 0. -1.
    10030    2    1    2    0    0  0.00000000000E+00  0.00000000000E+00  0.12435980837E+04  0.17818274099E+04  0.12760770842E+04 0.  0.
        5    1    3    3  502    0  0.50573613545E+03  0.30909871622E+03  0.95152280597E+03  0.11210391587E+04  0.46999998093E+01 0.  1.
       -5    1    3    3    0  502 -0.50573613545E+03 -0.30909871622E+03  0.29207527777E+03  0.66078825123E+03  0.46999998093E+01 0. -1.
</event>
<event>
 5   0  0.1873488E-03  0.1290879E+04  0.7818609E-02  0.9036830E-01
        1   -1    0    0  501    0  0.00000000000E+00  0.00000000000E+00  0.76117257716E+03  0.76117257718E+03  0.50400001928E-02 0. -1.
       -1   -1    0    0    0  501  0.00000000000E+00  0.00000000000E+00 -0.54730315096E+03  0.54730315098E+03  0.50400001928E-02 0.  1.
    10030    2    1    2    0    0  0.00000000000E+00  0.00000000000E+00  0.21386942620E+03  0.13084757282E+04  0.12908790027E+04 0.  0.
        3    1    3    3  502    0 -0.55442893650E+03  0.23225243503E+03 -0.13134310350E+03  0.61529152460E+03  0.10100000352E+00 0.  1.
       -3    1    3    3    0  502  0.55442893650E+03 -0.23225243503E+03  0.34521252970E+03  0.69318420356E+03  0.10100000352E+00 0. -1.
</event>
<event>
 5   0  0.3259968E-03  0.1283649E+04  0.7818609E-02  0.9042633E-01
        2   -1    0    0  501    0  0.00000000000E+00  0.00000000000E+00  0.47303410752E+03  0.47303410753E+03  0.25500000920E-02 0. -1.
       -2   -1    0    0    0  501  0.00000000000E+00  0.00000000000E+00 -0.87084287965E+03  0.87084287966E+03  0.25500000920E-02 0.  1.
    10030    2    1    2    0    0  0.00000000000E+00  0.00000000000E+00 -0.39780877213E+03  0.13438769872E+04  0.12836485257E+04 0.  0.
        4    1    3    3  502    0  0.42982738460E+03  0.32520871216E+03  0.16590543782E+03  0.56394903512E+03  0.12699999809E+01 0. -1.
       -4    1    3    3    0  502 -0.42982738460E+03 -0.32520871216E+03 -0.56371420995E+03  0.77992795207E+03  0.12699999809E+01 0.  1.
</event>
<event>
 5   0  0.1803959E-03  0.1340102E+04  0.7818609E-02  0.8998355E-01
       -1   -1    0    0    0  501  0.00000000000E+00  0.00000000000E+00  0.51854327905E+03  0.51854327907E+03  0.50400001928E-02 0.  1.
        1   -1    0    0  501    0  0.00000000000E+00  0.00000000000E+00 -0.86582659167E+03  0.86582659168E+03  0.50400001928E-02 0. -1.
    10030    2    1    2    0    0  0.00000000000E+00  0.00000000000E+00 -0.34728331262E+03  0.13843698708E+04  0.13401023244E+04 0.  0.
        4    1    3    3  502    0 -0.51864110335E+03  0.37877905012E+03 -0.37101526010E+03  0.74169811852E+03  0.12699999809E+01 0. -1.
       -4    1    3    3    0  502  0.51864110335E+03 -0.37877905012E+03  0.23731947475E+02  0.64267175223E+03  0.12699999809E+01 0.  1.
</event>
<event>
 5   0  0.1814770E-03  0.1324087E+04  0.7818609E-02  0.9010679E-01
        1   -1    0    0  501    0  0.00000000000E+00  0.00000000000E+00  0.71252815266E+03  0.71252815267E+03  0.50400001928E-02 0. -1.
       -1   -1    0    0    0  501  0.00000000000E+00  0.00000000000E+00 -0.61513604780E+03  0.61513604782E+03  0.50400001928E-02 0.  1.
    10030    2    1    2    0    0  0.00000000000E+00  0.00000000000E+00  0.97392104856E+02  0.13276642005E+04  0.13240872355E+04 0.  0.
        5    1    3    3  502    0  0.33936918856E+03 -0.49089518529E+03 -0.23866169353E+03  0.64275269198E+03  0.46999998093E+01 0.  1.
       -5    1    3    3    0  502 -0.33936918856E+03  0.49089518529E+03  0.33605379839E+03  0.68491150851E+03  0.46999998093E+01 0. -1.
</event>
<event>
 5   0  0.1823154E-03  0.9474503E+03  0.7818609E-02  0.9368136E-01
       -1   -1    0    0    0  501  0.00000000000E+00  0.00000000000E+00  0.51744975231E+03  0.51744975233E+03  0.50400001928E-02 0.  1.
        1   -1    0    0  501    0  0.00000000000E+00  0.00000000000E+00 -0.43369529569E+03  0.43369529572E+03  0.50400001928E-02 0. -1.
    10030    2    1    2    0    0  0.00000000000E+00  0.00000000000E+00  0.83754456615E+02  0.95114504806E+03  0.94745031186E+03 0.  0.
        2    1    3    3  502    0 -0.24384369271E+03 -0.36588301026E+03  0.21887530042E+03  0.49115834596E+03  0.25500000920E-02 0.  1.
       -2    1    3    3    0  502  0.24384369271E+03  0.36588301026E+03 -0.13512084381E+03  0.45998670210E+03  0.25500000920E-02 0. -1.
</event>
<event>
 5   0  0.1823154E-03  0.1305143E+04  0.7818609E-02  0.9025496E-01
        1   -1    0    0  501    0  0.00000000000E+00  0.00000000000E+00  0.74536275355E+03  0.74536275356E+03  0.50400001928E-02 0.  1.
       -1   -1    0    0    0  501  0.00000000000E+00  0.00000000000E+00 -0.57133220817E+03  0.57133220819E+03  0.50400001928E-02 0. -1.
    10030    2    1    2    0    0  0.00000000000E+00  0.00000000000E+00  0.17403054537E+03  0.13166949618E+04  0.13051432839E+04 0.  0.
        2    1    3    3  502    0  0.38662597970E+03  0.27675350210E+02 -0.44261143430E+03  0.58834552345E+03  0.25500000920E-02 0. -1.
       -2    1    3    3    0  502 -0.38662597970E+03 -0.27675350210E+02  0.61664197967E+03  0.72834943831E+03  0.25500000920E-02 0.  1.
</event>
<event>
 5   0  0.1814770E-03  0.1314014E+04  0.7818609E-02  0.9018525E-01
        1   -1    0    0  501    0  0.00000000000E+00  0.00000000000E+00  0.13444681866E+04  0.13444681866E+04  0.50400001928E-02 0.  1.
       -1   -1    0    0    0  501  0.00000000000E+00  0.00000000000E+00 -0.32106233805E+03  0.32106233809E+03  0.50400001928E-02 0. -1.
    10030    2    1    2    0    0  0.00000000000E+00  0.00000000000E+00  0.10234058485E+04  0.16655305247E+04  0.13140138499E+04 0.  0.
        5    1    3    3  502    0 -0.61714619356E+03 -0.22098774699E+03  0.56740147467E+03  0.86698992612E+03  0.46999998093E+01 0.  1.
       -5    1    3    3    0  502  0.61714619356E+03  0.22098774699E+03  0.45600437386E+03  0.79854059854E+03  0.46999998093E+01 0. -1.
</event>
<event>
 5   0  0.1814770E-03  0.1304098E+04  0.7818609E-02  0.9026322E-01
       -1   -1    0    0    0  501  0.00000000000E+00  0.00000000000E+00  0.40296780949E+03  0.40296780952E+03  0.50400001928E-02 0. -1.
        1   -1    0    0  501    0  0.00000000000E+00  0.00000000000E+00 -0.10550915345E+04  0.10550915346E+04  0.50400001928E-02 0.  1.
    10030    2    1    2    0    0  0.00000000000E+00  0.00000000000E+00 -0.65212372505E+03  0.14580593441E+04  0.13040980401E+04 0.  0.
        5    1    3    3  502    0 -0.52081903243E+03 -0.30304737731E+03 -0.47542336440E+02  0.60446053733E+03  0.46999998093E+01 0. -1.
       -5    1    3    3    0  502  0.52081903243E+03  0.30304737731E+03 -0.60458138861E+03  0.85359880675E+03  0.46999998093E+01 0.  1.
</event>
<event>
 5   0  0.1823154E-03  0.1287126E+04  0.7818609E-02  0.9039837E-01
       -1   -1    0    0    0  501  0.00000000000E+00  0.00000000000E+00  0.31114569591E+03  0.31114569595E+03  0.50400001928E-02 0. -1.
        1   -1    0    0  501    0  0.00000000000E+00  0.00000000000E+00 -0.13311232279E+04  0.13311232279E+04  0.50400001928E-02 0.  1.
    10030    2    1    2    0    0  0.00000000000E+00  0.00000000000E+00 -0.10199775320E+04  0.16422689238E+04  0.12871258884E+04 0.  0.
        2    1    3    3  502    0 -0.41577029453E+03 -0.75770117199E+02 -0.11292596663E+04  0.12057501575E+04  0.25500000920E-02 0.  1.
       -2    1    3    3    0  502  0.41577029453E+03  0.75770117199E+02  0.10928213430E+03  0.43651876633E+03  0.25500000920E-02 0. -1.
</event>
<event>
 5   0  0.1823154E-03  0.1299698E+04  0.7818609E-02  0.9029805E-01
        1   -1    0    0  501    0  0.00000000000E+00  0.00000000000E+00  0.50597568894E+03  0.50597568897E+03  0.50400001928E-02 0.  1.
       -1   -1    0    0    0  501  0.00000000000E+00  0.00000000000E+00 -0.83463265654E+03  0.83463265655E+03  0.50400001928E-02 0. -1.
    10030    2    1    2    0    0  0.00000000000E+00  0.00000000000E+00 -0.32865696760E+03  0.13406083455E+04  0.12996981702E+04 0.  0.
        2    1    3    3  502    0 -0.17217199617E+03 -0.39114905398E+02  0.48076156465E+03  0.51215706003E+03  0.25500000920E-02 0.  1.
       -2    1    3    3    0  502  0.17217199617E+03  0.39114905398E+02 -0.80941853224E+03  0.82845128549E+03  0.25500000920E-02 0. -1.
</event>
<event>
 5   0  0.1254125E-03  0.1236180E+04  0.7818609E-02  0.9081765E-01
        4   -1    0    0  501    0  0.00000000000E+00  0.00000000000E+00  0.95426317402E+03  0.95426401912E+03  0.12699999809E+01 0. -1.
       -4   -1    0    0    0  501  0.00000000000E+00  0.00000000000E+00 -0.40034373204E+03  0.40034574643E+03  0.12699999809E+01 0.  1.
    10030    2    1    2    0    0  0.00000000000E+00  0.00000000000E+00  0.55391944198E+03  0.13546097655E+04  0.12361799500E+04 0.  0.
        4    1    3    3  502    0 -0.57599746532E+03  0.18780654104E+03  0.41111943707E+03  0.73216472282E+03  0.12699999809E+01 0.  1.
       -4    1    3    3    0  502  0.57599746532E+03 -0.18780654104E+03  0.14280000492E+03  0.62244504273E+03  0.12699999809E+01 0. -1.
</event>
<event>
 5   0  0.3336609E-03  0.1294859E+04  0.7818609E-02  0.9033652E-01
       -2   -1    0    0    0  501  0.00000000000E+00  0.00000000000E+00  0.23520860230E+03  0.23520860231E+03  0.25500000920E-02 0.  1.
        2   -1    0    0  501    0  0.00000000000E+00  0.00000000000E+00 -0.17820984837E+04  0.17820984837E+04  0.25500000920E-02 0. -1.
    10030    2    1    2    0    0  0.00000000000E+00  0.00000000000E+00 -0.15468898814E+04  0.20173070860E+04  0.12948589012E+04 0.  0.
        1    1    3    3  502    0  0.20127229458E+03 -0.57405245860E+03 -0.42816568482E+03  0.74389019047E+03  0.50400001928E-02 0.  1.
       -1    1    3    3    0  502 -0.20127229458E+03  0.57405245860E+03 -0.11187241965E+04  0.12734168955E+04  0.50400001928E-02 0. -1.
</event>
<event>
 5   0  0.1814770E-03  0.1334968E+04  0.7818609E-02  0.9002285E-01
       -1   -1    0    0    0  501  0.00000000000E+00  0.00000000000E+00  0.49985370949E+03  0.49985370951E+03  0.50400001928E-02 0. -1.
        1   -1    0    0  501    0  0.00000000000E+00  0.00000000000E+00 -0.89133111031E+03  0.89133111032E+03  0.50400001928E-02 0.  1.
    10030    2    1    2    0    0  0.00000000000E+00  0.00000000000E+00 -0.39147740082E+03  0.13911848198E+04  0.13349684070E+04 0.  0.
        5    1    3    3  502    0  0.24243400376E+03  0.13048510894E+02 -0.84366723737E+03  0.87791856525E+03  0.46999998093E+01 0.  1.
       -5    1    3    3    0  502 -0.24243400376E+03 -0.13048510894E+02  0.45218983655E+03  0.51326625458E+03  0.46999998093E+01 0. -1.
</event>
<event>
 5   0  0.1823154E-03  0.1265666E+04  0.7818609E-02  0.9057245E-01
        1   -1    0    0  501    0  0.00000000000E+00  0.00000000000E+00  0.80646316502E+03  0.80646316504E+03  0.50400001928E-02 0.  1.
       -1   -1    0    0    0  501  0.00000000000E+00  0.00000000000E+00 -0.49658480815E+03  0.49658480817E+03  0.50400001928E-02 0. -1.
    10030    2    1    2    0    0  0.00000000000E+00  0.00000000000E+00  0.30987835687E+03  0.13030479732E+04  0.12656656053E+04 0.  0.
        2    1    3    3  502    0 -0.25609399076E+02 -0.59857156244E+03  0.36475643868E+03  0.70142071273E+03  0.25500000920E-02 0.  1.
       -2    1    3    3    0  502  0.25609399076E+02  0.59857156244E+03 -0.54878081812E+02  0.60162726048E+03  0.25500000920E-02 0. -1.
</event>
<event>
 5   0  0.1857986E-03  0.1336224E+04  0.7818609E-02  0.9001323E-01
        1   -1    0    0  501    0  0.00000000000E+00  0.00000000000E+00  0.74819244618E+03  0.74819244620E+03  0.50400001928E-02 0. -1.
       -1   -1    0    0    0  501  0.00000000000E+00  0.00000000000E+00 -0.59660235012E+03  0.59660235014E+03  0.50400001928E-02 0.  1.
    10030    2    1    2    0    0  0.00000000000E+00  0.00000000000E+00  0.15159009606E+03  0.13447947963E+04  0.13362235917E+04 0.  0.
        1    1    3    3  502    0  0.35905419931E+03  0.12657939934E+03 -0.47675410902E+03  0.61011207402E+03  0.50400001928E-02 0.  1.
       -1    1    3    3    0  502 -0.35905419931E+03 -0.12657939934E+03  0.62834420509E+03  0.73468272231E+03  0.50400001928E-02 0. -1.
</event>
<event>
 5   0  0.3294720E-03  0.1296260E+04  0.7818609E-02  0.9032536E-01
       -2   -1    0    0    0  501  0.00000000000E+00  0.00000000000E+00  0.36801816881E+03  0.36801816882E+03  0.25500000920E-02 0. -1.
        2   -1    0    0  501    0  0.00000000000E+00  0.00000000000E+00 -0.11414453811E+04  0.11414453811E+04  0.25500000920E-02 0.  1.
    10030    2    1    2    0    0  0.00000000000E+00  0.00000000000E+00 -0.77342721233E+03  0.15094635500E+04  0.12962602192E+04 0.  0.
        5    1    3    3  502    0 -0.59280275629E+02  0.60630110169E+03 -0.12911596366E+03  0.62274248213E+03  0.46999998093E+01 0. -1.
       -5    1    3    3    0  502  0.59280275629E+02 -0.60630110169E+03 -0.64431124867E+03  0.88672106783E+03  0.46999998093E+01 0.  1.
</event>
<event>
 5   0  0.3294720E-03  0.1286709E+04  0.7818609E-02  0.9040172E-01
       -2   -1    0    0    0  501  0.00000000000E+00  0.00000000000E+00  0.16701695673E+03  0.16701695675E+03  0.25500000920E-02 0.  1.
        2   -1    0    0  501    0  0.00000000000E+00  0.00000000000E+00 -0.24782205552E+04  0.24782205552E+04  0.25500000920E-02 0. -1.
    10030    2    1    2    0    0  0.00000000000E+00  0.00000000000E+00 -0.23112035984E+04  0.26452375119E+04  0.12867087553E+04 0.  0.
        5    1    3    3  502    0  0.53833385095E+03 -0.15983211262E+03 -0.51028117215E+03  0.75878758817E+03  0.46999998093E+01 0.  1.
       -5    1    3    3    0  502 -0.53833385095E+03  0.15983211262E+03 -0.18009224263E+04  0.18864499238E+04  0.46999998093E+01 0. -1.
</event>
<event>
 5   0  0.3259968E-03  0.1298575E+04  0.7818609E-02  0.9030696E-01
       -2   -1    0    0    0  501  0.00000000000E+00  0.00000000000E+00  0.68495818409E+03  0.68495818409E+03  0.25500000920E-02 0.  1.
        2   -1    0    0  501    0  0.00000000000E+00  0.00000000000E+00 -0.61547434281E+03  0.61547434281E+03  0.25500000920E-02 0. -1.
    10030    2    1    2    0    0  0.00000000000E+00  0.00000000000E+00  0.69483841279E+02  0.13004325269E+04  0.12985748930E+04 0.  0.
        4    1    3    3  502    0 -0.57926982015E+03  0.22341725391E+03  0.22502368403E+03  0.66038327141E+03  0.12699999809E+01 0.  1.
       -4    1    3    3    0  502  0.57926982015E+03 -0.22341725391E+03 -0.15553984275E+03  0.64004925550E+03  0.12699999809E+01 0. -1.
</event>
<event>
 5   0  0.1814770E-03  0.1149445E+04  0.7818609E-02  0.9158296E-01
       -1   -1    0    0    0  501  0.00000000000E+00  0.00000000000E+00  0.41953218687E+03  0.41953218690E+03  0.50400001928E-02 0.  1.
        1   -1    0    0  501    0  0.00000000000E+00  0.00000000000E+00 -0.78731926126E+03  0.78731926128E+03  0.50400001928E-02 0. -1.
    10030    2    1    2    0    0  0.00000000000E+00  0.00000000000E+00 -0.36778707439E+03  0.12068514482E+04  0.11494446859E+04 0.  0.
        5    1    3    3  502    0 -0.42906406393E+03 -0.37873357951E+03 -0.12884821409E+03  0.58665070312E+03  0.46999998093E+01 0.  1.
       -5    1    3    3    0  502  0.42906406393E+03  0.37873357951E+03 -0.23893886030E+03  0.62020074505E+03  0.46999998093E+01 0. -1.
</event>
<event>
 5   0  0.3299104E-03  0.1312283E+04  0.7818609E-02  0.9019881E-01
       -2   -1    0    0    0  501  0.00000000000E+00  0.00000000000E+00  0.28002077167E+03  0.28002077168E+03  0.25500000920E-02 0. -1.
        2   -1    0    0  501    0  0.00000000000E+00  0.00000000000E+00 -0.15374630860E+04  0.15374630860E+04  0.25500000920E-02 0.  1.
    10030    2    1    2    0    0  0.00000000000E+00  0.00000000000E+00 -0.12574423144E+04  0.18174838577E+04  0.13122828960E+04 0.  0.
        2    1    3    3  502    0 -0.43640147466E+03 -0.13725621713E+03  0.22713822341E+02  0.45804086494E+03  0.25500000920E-02 0. -1.
       -2    1    3    3    0  502  0.43640147466E+03  0.13725621713E+03 -0.12801561367E+04  0.13594429928E+04  0.25500000920E-02 0.  1.
</event>
<event>
 5   0  0.1823154E-03  0.9315999E+03  0.7818609E-02  0.9386920E-01
        1   -1    0    0  501    0  0.00000000000E+00  0.00000000000E+00  0.42118381032E+03  0.42118381035E+03  0.50400001928E-02 0. -1.
       -1   -1    0    0    0  501  0.00000000000E+00  0.00000000000E+00 -0.51514234356E+03  0.51514234359E+03  0.50400001928E-02 0.  1.
    10030    2    1    2    0    0  0.00000000000E+00  0.00000000000E+00 -0.93958533248E+02  0.93632615394E+03  0.93159994664E+03 0.  0.
        2    1    3    3  502    0  0.14970992002E+03 -0.48353275306E+02 -0.48763082385E+03  0.51238161537E+03  0.25500000920E-02 0.  1.
       -2    1    3    3    0  502 -0.14970992002E+03  0.48353275306E+02  0.39367229061E+03  0.42394453857E+03  0.25500000920E-02 0. -1.
</event>
<event>
 5   0  0.3299104E-03  0.1285956E+04  0.7818609E-02  0.9040777E-01
       -2   -1    0    0    0  501  0.00000000000E+00  0.00000000000E+00  0.71949587563E+03  0.71949587563E+03  0.25500000920E-02 0.  1.
        2   -1    0    0  501    0  0.00000000000E+00  0.00000000000E+00 -0.57459752607E+03  0.57459752607E+03  0.25500000920E-02 0. -1.
    10030    2    1    2    0    0  0.00000000000E+00  0.00000000000E+00  0.14489834956E+03  0.12940934017E+04  0.12859557538E+04 0.  0.
        2    1    3    3  502    0 -0.17890663216E+03  0.21870748637E+03  0.65366790417E+03  0.71212518322E+03  0.25500000920E-02 0.  1.
       -2    1    3    3    0  502  0.17890663216E+03 -0.21870748637E+03 -0.50876955461E+03  0.58196821849E+03  0.25500000920E-02 0. -1.
</event>
<event>
 5   0  0.1814770E-03  0.1288292E+04  0.7818609E-02  0.9038901E-01
       -1   -1    0    0    0  501  0.00000000000E+00  0.00000000000E+00  0.41356669851E+03  0.41356669854E+03  0.50400001928E-02 0.  1.
        1   -1    0    0  501    0  0.00000000000E+00  0.00000000000E+00 -0.10032823693E+04  0.10032823693E+04  0.50400001928E-02 0. -1.
    10030    2    1    2    0    0  0.00000000000E+00  0.00000000000E+00 -0.58971567078E+03  0.14168490678E+04  0.12882921674E+04 0.  0.
        5    1    3    3  502    0  0.28670458256E+02 -0.20270107034E+03 -0.96653285278E+03  0.98798662167E+03  0.46999998093E+01 0. -1.
       -5    1    3    3    0  502 -0.28670458256E+02  0.20270107034E+03  0.37681718200E+03  0.42886244618E+03  0.46999998093E+01 0.  1.
</event>
<event>
 5   0  0.3259968E-03  0.1298343E+04  0.7818609E-02  0.9030880E-01
       -2   -1    0    0    0  501  0.00000000000E+00  0.00000000000E+00  0.47386203810E+03  0.47386203811E+03  0.25500000920E-02 0.  1.
        2   -1    0    0  501    0  0.00000000000E+00  0.00000000000E+00 -0.88933828212E+03  0.88933828212E+03  0.25500000920E-02 0. -1.
    10030    2    1    2    0    0  0.00000000000E+00  0.00000000000E+00 -0.41547624401E+03  0.13632003202E+04  0.12983430224E+04 0.  0.
        4    1    3    3  502    0  0.27363751953E+03 -0.15293376148E+03  0.38912701961E+03  0.49968758018E+03  0.12699999809E+01 0.  1.
       -4    1    3    3    0  502 -0.27363751953E+03  0.15293376148E+03 -0.80460326362E+03  0.86351274005E+03  0.12699999809E+01 0. -1.
</event>
<event>
 5   0  0.1857986E-03  0.9221896E+03  0.7818609E-02  0.9398261E-01
       -1   -1    0    0    0  501  0.00000000000E+00  0.00000000000E+00  0.18430225812E+03  0.18430225818E+03  0.50400001928E-02 0. -1.
        1   -1    0    0  501    0  0.00000000000E+00  0.00000000000E+00 -0.11535855531E+04  0.11535855531E+04  0.50400001928E-02 0.  1.
    10030    2    1    2    0    0  0.00000000000E+00  0.00000000000E+00 -0.96928329494E+03  0.13378878113E+04  0.92218961697E+03 0.  0.
        1    1    3    3  502    0 -0.11575726823E+03 -0.31521190704E+02  0.16126213518E+03  0.20099454440E+03  0.50400001928E-02 0. -1.
       -1    1    3    3    0  502  0.11575726823E+03  0.31521190704E+02 -0.11305454301E+04  0.11368932669E+04  0.50400001928E-02 0.  1.
</event>
<event>
 5   0  0.1814770E-03  0.1299617E+04  0.7818609E-02  0.9029869E-01
        1   -1    0    0  501    0  0.00000000000E+00  0.00000000000E+00  0.20487463537E+04  0.20487463537E+04  0.50400001928E-02 0.  1.
       -1   -1    0    0    0  501  0.00000000000E+00  0.00000000000E+00 -0.20610231936E+03  0.20610231942E+03  0.50400001928E-02 0. -1.
    10030    2    1    2    0    0  0.00000000000E+00  0.00000000000E+00  0.18426440343E+04  0.22548486731E+04  0.12996174442E+04 0.  0.
        5    1    3    3  502    0  0.16667707649E+03  0.43169513717E+03  0.12986979196E+03  0.48065600189E+03  0.46999998093E+01 0. -1.
       -5    1    3    3    0  502 -0.16667707649E+03 -0.43169513717E+03  0.17127742423E+04  0.17741926712E+04  0.46999998093E+01 0.  1.
</event>
<event>
 5   0  0.1803959E-03  0.1294404E+04  0.7818609E-02  0.9034015E-01
       -1   -1    0    0    0  501  0.00000000000E+00  0.00000000000E+00  0.48171036307E+03  0.48171036310E+03  0.50400001928E-02 0.  1.
        1   -1    0    0  501    0  0.00000000000E+00  0.00000000000E+00 -0.86954775858E+03  0.86954775860E+03  0.50400001928E-02 0. -1.
    10030    2    1    2    0    0  0.00000000000E+00  0.00000000000E+00 -0.38783739551E+03  0.13512581217E+04  0.12944035948E+04 0.  0.
        4    1    3    3  502    0 -0.20918728371E+03 -0.39740437379E+03  0.29257533663E+03  0.53599579893E+03  0.12699999809E+01 0.  1.
       -4    1    3    3    0  502  0.20918728371E+03  0.39740437379E+03 -0.68041273214E+03  0.81526232277E+03  0.12699999809E+01 0. -1.
</event>
<event>
 5   0  0.3299104E-03  0.1307972E+04  0.7818609E-02  0.9023267E-01
       -2   -1    0    0    0  501  0.00000000000E+00  0.00000000000E+00  0.50989919657E+03  0.50989919657E+03  0.25500000920E-02 0. -1.
        2   -1    0    0  501    0  0.00000000000E+00  0.00000000000E+00 -0.83878875218E+03  0.83878875218E+03  0.25500000920E-02 0.  1.
    10030    2    1    2    0    0  0.00000000000E+00  0.00000000000E+00 -0.32888955561E+03  0.13486879488E+04  0.13079720346E+04 0.  0.
        2    1    3    3  502    0 -0.47602881103E+03  0.32628212718E+03 -0.48164771709E+03  0.75169673328E+03  0.25500000920E-02 0.  1.
       -2    1    3    3    0  502  0.47602881103E+03 -0.32628212718E+03  0.15275816147E+03  0.59699121547E+03  0.25500000920E-02 0. -1.
</event>
<event>
 5   0  0.3262927E-03  0.1294538E+04  0.7818609E-02  0.9033908E-01
        2   -1    0    0  501    0  0.00000000000E+00  0.00000000000E+00  0.19239331361E+04  0.19239331361E+04  0.25500000920E-02 0.  1.
       -2   -1    0    0    0  501  0.00000000000E+00  0.00000000000E+00 -0.21776077219E+03  0.21776077220E+03  0.25500000920E-02 0. -1.
    10030    2    1    2    0    0  0.00000000000E+00  0.00000000000E+00  0.17061723639E+04  0.21416939083E+04  0.12945380108E+04 0.  0.
        3    1    3    3  502    0  0.57284578906E+03 -0.28393078319E+03  0.68609611758E+03  0.93781495000E+03  0.10100000352E+00 0. -1.
       -3    1    3    3    0  502 -0.57284578906E+03  0.28393078319E+03  0.10200762463E+04  0.12038789583E+04  0.10100000352E+00 0.  1.
</event>
<event>
 5   0  0.1814770E-03  0.8512517E+03  0.7818609E-02  0.9488659E-01
       -1   -1    0    0    0  501  0.00000000000E+00  0.00000000000E+00  0.17371298987E+03  0.17371298994E+03  0.50400001928E-02 0.  1.
        1   -1    0    0  501    0  0.00000000000E+00  0.00000000000E+00 -0.10428543726E+04  0.10428543726E+04  0.50400001928E-02 0. -1.
    10030    2    1    2    0    0  0.00000000000E+00  0.00000000000E+00 -0.86914138276E+03  0.12165673626E+04  0.85125166929E+03 0.  0.
        5    1    3    3  502    0  0.26734471321E+03 -0.16188848478E+03 -0.84743015313E+03  0.90323918849E+03  0.46999998093E+01 0. -1.
       -5    1    3    3    0  502 -0.26734471321E+03  0.16188848478E+03 -0.21711229632E+02  0.31332817409E+03  0.46999998093E+01 0.  1.
</event>
<event>
 5   0  0.3294720E-03  0.1317109E+04  0.7818609E-02  0.9016106E-01
        2   -1    0    0  501    0  0.00000000000E+00  0.00000000000E+00  0.14401338817E+04  0.14401338817E+04  0.25500000920E-02 0. -1.
       -2   -1    0    0    0  501  0.00000000000E+00  0.00000000000E+00 -0.30114858814E+03  0.30114858815E+03  0.25500000920E-02 0.  1.
    10030    2    1    2    0    0  0.00000000000E+00  0.00000000000E+00  0.11389852935E+04  0.17412824698E+04  0.13171093883E+04 0.  0.
        5    1    3    3  502    0  0.14021027182E+03 -0.44813379167E+03  0.11799146297E+04  0.12699226114E+04  0.46999998093E+01 0. -1.
       -5    1    3    3    0  502 -0.14021027182E+03  0.44813379167E+03 -0.40929336188E+02  0.47135985841E+03  0.46999998093E+01 0.  1.
</event>
<event>
 5   0  0.3294720E-03  0.1316037E+04  0.7818609E-02  0.9016943E-01
       -2   -1    0    0    0  501  0.00000000000E+00  0.00000000000E+00  0.93007617860E+03  0.93007617860E+03  0.25500000920E-02 0. -1.
        2   -1    0    0  501    0  0.00000000000E+00  0.00000000000E+00 -0.46554097956E+03  0.46554097956E+03  0.25500000920E-02 0.  1.
    10030    2    1    2    0    0  0.00000000000E+00  0.00000000000E+00  0.46453519904E+03  0.13956171582E+04  0.13160373479E+04 0.  0.
        5    1    3    3  502    0 -0.14158019643E+03  0.30589456989E+03 -0.36701487445E+03  0.49833567801E+03  0.46999998093E+01 0.  1.
       -5    1    3    3    0  502  0.14158019643E+03 -0.30589456989E+03  0.83155007350E+03  0.89728148016E+03  0.46999998093E+01 0. -1.
</event>
<event>
 5   0  0.3294720E-03  0.1322185E+04  0.7818609E-02  0.9012155E-01
       -2   -1    0    0    0  501  0.00000000000E+00  0.00000000000E+00  0.57097168041E+03  0.57097168041E+03  0.25500000920E-02 0.  1.
        2   -1    0    0  501    0  0.00000000000E+00  0.00000000000E+00 -0.76543757361E+03  0.76543757361E+03  0.25500000920E-02 0. -1.
    10030    2    1    2    0    0  0.00000000000E+00  0.00000000000E+00 -0.19446589320E+03  0.13364092540E+04  0.13221848247E+04 0.  0.
        5    1    3    3  502    0 -0.52711105065E+03  0.13669206008E+03  0.28161984292E+03  0.61307634510E+03  0.46999998093E+01 0. -1.
       -5    1    3    3    0  502  0.52711105065E+03 -0.13669206008E+03 -0.47608573612E+03  0.72333290892E+03  0.46999998093E+01 0.  1.
</event>
<event>
 5   0  0.1803959E-03  0.1187266E+04  0.7818609E-02  0.9124076E-01
        1   -1    0    0  501    0  0.00000000000E+00  0.00000000000E+00  0.93301122182E+03  0.93301122183E+03  0.50400001928E-02 0.  1.
       -1   -1    0    0    0  501  0.00000000000E+00  0.00000000000E+00 -0.37770223070E+03  0.37770223073E+03  0.50400001928E-02 0. -1.
    10030    2    1    2    0    0  0.00000000000E+00  0.00000000000E+00  0.55530899112E+03  0.13107134526E+04  0.11872664735E+04 0.  0.
        4    1    3    3  502    0 -0.41870308395E+03 -0.35721415289E+03  0.32073637979E+02  0.55131166746E+03  0.12699999809E+01 0. -1.
       -4    1    3    3    0  502  0.41870308395E+03  0.35721415289E+03  0.52323535314E+03  0.75940178510E+03  0.12699999809E+01 0.  1.
</event>
<event>
 5   0  0.3259968E-03  0.1290053E+04  0.7818609E-02  0.9037491E-01
        2   -1    0    0  501    0  0.00000000000E+00  0.00000000000E+00  0.12944899129E+04  0.12944899129E+04  0.25500000920E-02 0.  1.
       -2   -1    0    0    0  501  0.00000000000E+00  0.00000000000E+00 -0.32140779454E+03  0.32140779455E+03  0.25500000920E-02 0. -1.
    10030    2    1    2    0    0  0.00000000000E+00  0.00000000000E+00  0.97308211837E+03  0.16158977075E+04  0.12900529415E+04 0.  0.
        4    1    3    3  502    0 -0.22675379134E+03  0.19229560499E+03  0.12035421286E+04  0.12397218034E+04  0.12699999809E+01 0.  1.
       -4    1    3    3    0  502  0.22675379134E+03 -0.19229560499E+03 -0.23046001024E+03  0.37617590407E+03  0.12699999809E+01 0. -1.
</event>
<event>
 5   0  0.1857986E-03  0.1283567E+04  0.7818609E-02  0.9042699E-01
       -1   -1    0    0    0  501  0.00000000000E+00  0.00000000000E+00  0.38013804106E+03  0.38013804109E+03  0.50400001928E-02 0. -1.
        1   -1    0    0  501    0  0.00000000000E+00  0.00000000000E+00 -0.10835165324E+04  0.10835165324E+04  0.50400001928E-02 0.  1.
    10030    2    1    2    0    0  0.00000000000E+00  0.00000000000E+00 -0.70337849137E+03  0.14636545735E+04  0.12835666747E+04 0.  0.
        1    1    3    3  502    0  0.31566901151E+03 -0.23761122248E+03  0.22501521677E+03  0.45468435830E+03  0.50400001928E-02 0. -1.
       -1    1    3    3    0  502 -0.31566901151E+03  0.23761122248E+03 -0.92839370814E+03  0.10089702152E+04  0.50400001928E-02 0.  1.
</event>
<event>
 5   0  0.1857986E-03  0.1351981E+04  0.7818609E-02  0.8989330E-01
       -1   -1    0    0    0  501  0.00000000000E+00  0.00000000000E+00  0.28384179127E+03  0.28384179131E+03  0.50400001928E-02 0.  1.
        1   -1    0    0  501    0  0.00000000000E+00  0.00000000000E+00 -0.16099210116E+04  0.16099210116E+04  0.50400001928E-02 0. -1.
    10030    2    1    2    0    0  0.00000000000E+00  0.00000000000E+00 -0.13260792203E+04  0.18937628029E+04  0.13519805676E+04 0.  0.
        1    1    3    3  502    0  0.12993893530E+03 -0.37952331887E+03  0.99093637258E+02  0.41320893679E+03  0.50400001928E-02 0.  1.
       -1    1    3    3    0  502 -0.12993893530E+03  0.37952331887E+03 -0.14251728576E+04  0.14805538661E+04  0.50400001928E-02 0. -1.
</event>
<event>
 5   0  0.1823154E-03  0.1318803E+04  0.7818609E-02  0.9014786E-01
        1   -1    0    0  501    0  0.00000000000E+00  0.00000000000E+00  0.47376158470E+03  0.47376158473E+03  0.50400001928E-02 0. -1.
       -1   -1    0    0    0  501  0.00000000000E+00  0.00000000000E+00 -0.91778332893E+03  0.91778332894E+03  0.50400001928E-02 0.  1.
    10030    2    1    2    0    0  0.00000000000E+00  0.00000000000E+00 -0.44402174423E+03  0.13915449137E+04  0.13188032216E+04 0.  0.
        2    1    3    3  502    0 -0.53293620567E+03 -0.67838909618E+02 -0.62544455181E+03  0.82450227675E+03  0.25500000920E-02 0.  1.
       -2    1    3    3    0  502  0.53293620567E+03  0.67838909618E+02  0.18142280758E+03  0.56704263692E+03  0.25500000920E-02 0. -1.
</event>
<event>
 5   0  0.3259968E-03  0.1337407E+04  0.7818609E-02  0.9000416E-01
       -2   -1    0    0    0  501  0.00000000000E+00  0.00000000000E+00  0.10388752412E+04  0.10388752412E+04  0.25500000920E-02 0.  1.
        2   -1    0    0  501    0  0.00000000000E+00  0.00000000000E+00 -0.43043117499E+03  0.43043117500E+03  0.25500000920E-02 0. -1.
    10030    2    1    2    0    0  0.00000000000E+00  0.00000000000E+00  0.60844406620E+03  0.14693064162E+04  0.13374068801E+04 0.  0.
        4    1    3    3  502    0  0.47750129049E+01 -0.60182363436E+02 -0.42742973707E+03  0.43167407919E+03  0.12699999809E+01 0. -1.
       -4    1    3    3    0  502 -0.47750129049E+01  0.60182363436E+02  0.10358738033E+04  0.10376323370E+04  0.12699999809E+01 0.  1.
</event>
<event>
 5   0  0.1803959E-03  0.1300345E+04  0.7818609E-02  0.9029292E-01
       -1   -1    0    0    0  501  0.00000000000E+00  0.00000000000E+00  0.46250977702E+03  0.46250977704E+03  0.50400001928E-02 0. -1.
        1   -1    0    0  501    0  0.00000000000E+00  0.00000000000E+00 -0.91397881635E+03  0.91397881636E+03  0.50400001928E-02 0.  1.
    10030    2    1    2    0    0  0.00000000000E+00  0.00000000000E+00 -0.45146903933E+03  0.13764885934E+04  0.13003447829E+04 0.  0.
        4    1    3    3  502    0  0.79687310719E+02  0.64416141069E+03 -0.26574369176E+03  0.70136674652E+03  0.12699999809E+01 0.  1.
       -4    1    3    3    0  502 -0.79687310719E+02 -0.64416141069E+03 -0.18572534757E+03  0.67512184688E+03  0.12699999809E+01 0. -1.
</event>
<event>
 5   0  0.1857986E-03  0.1296072E+04  0.7818609E-02  0.9032686E-01
        1   -1    0    0  501    0  0.00000000000E+00  0.00000000000E+00  0.12263830119E+04  0.12263830119E+04  0.50400001928E-02 0.  1.
       -1   -1    0    0    0  501  0.00000000000E+00  0.00000000000E+00 -0.34243013275E+03  0.34243013279E+03  0.50400001928E-02 0. -1.
    10030    2    1    2    0    0  0.00000000000E+00  0.00000000000E+00  0.88395287914E+03  0.15688131447E+04  0.12960717536E+04 0.  0.
        1    1    3    3  502    0  0.82303001659E+01  0.23407688802E+03  0.11733556321E+04  0.11965045619E+04  0.50400001928E-02 0.  1.
       -1    1    3    3    0  502 -0.82303001659E+01 -0.23407688802E+03 -0.28940275296E+03  0.37230858275E+03  0.50400001928E-02 0. -1.
</event>
<event>
 5   0  0.3336609E-03  0.1308928E+04  0.7818609E-02  0.9022515E-01
       -2   -1    0    0    0  501  0.00000000000E+00  0.00000000000E+00  0.11451712852E+04  0.11451712852E+04  0.25500000920E-02 0.  1.
        2   -1    0    0  501    0  0.00000000000E+00  0.00000000000E+00 -0.37402542592E+03  0.37402542592E+03  0.25500000920E-02 0. -1.
    10030    2    1    2    0    0  0.00000000000E+00  0.00000000000E+00  0.77114585928E+03  0.15191967111E+04  0.13089280770E+04 0.  0.
        1    1    3    3  502    0  0.32399787512E+02 -0.49610567292E+03 -0.10841974067E+03  0.50884715301E+03  0.50400001928E-02 0. -1.
       -1    1    3    3    0  502 -0.32399787512E+02  0.49610567292E+03  0.87956559995E+03  0.10103495581E+04  0.50400001928E-02 0.  1.
</event>
<event>
 5   0  0.3294720E-03  0.1156642E+04  0.7818609E-02  0.9151678E-01
        2   -1    0    0  501    0  0.00000000000E+00  0.00000000000E+00  0.13499997047E+04  0.13499997047E+04  0.25500000920E-02 0. -1.
       -2   -1    0    0    0  501  0.00000000000E+00  0.00000000000E+00 -0.24774471967E+03  0.24774471968E+03  0.25500000920E-02 0.  1.
    10030    2    1    2    0    0  0.00000000000E+00  0.00000000000E+00  0.11022549850E+04  0.15977444243E+04  0.11566422064E+04 0.  0.
        5    1    3    3  502    0  0.30281105548E+03  0.20884270891E+03  0.11675371297E+04  0.12241220738E+04  0.46999998093E+01 0. -1.
       -5    1    3    3    0  502 -0.30281105548E+03 -0.20884270891E+03 -0.65282144721E+02  0.37362235052E+03  0.46999998093E+01 0.  1.
</event>
<event>
 5   0  0.1803959E-03  0.1293144E+04  0.7818609E-02  0.9035020E-01
        1   -1    0    0  501    0  0.00000000000E+00  0.00000000000E+00  0.12226751421E+04  0.12226751421E+04  0.50400001928E-02 0. -1.
       -1   -1    0    0    0  501  0.00000000000E+00  0.00000000000E+00 -0.34191847864E+03  0.34191847868E+03  0.50400001928E-02 0.  1.
    10030    2    1    2    0    0  0.00000000000E+00  0.00000000000E+00  0.88075666350E+03  0.15645936208E+04  0.12931438041E+04 0.  0.
        4    1    3    3  502    0  0.37201794389E+03  0.51775628071E+03  0.57060413072E+03  0.85560481747E+03  0.12699999809E+01 0.  1.
       -4    1    3    3    0  502 -0.37201794389E+03 -0.51775628071E+03  0.31015253278E+03  0.70898880335E+03  0.12699999809E+01 0. -1.
</event>
<event>
 5   0  0.3259968E-03  0.1303669E+04  0.7818609E-02  0.9026660E-01
       -2   -1    0    0    0  501  0.00000000000E+00  0.00000000000E+00  0.94175239327E+03  0.94175239327E+03  0.25500000920E-02 0.  1.
        2   -1    0    0  501    0  0.00000000000E+00  0.00000000000E+00 -0.45116784773E+03  0.45116784773E+03  0.25500000920E-02 0. -1.
    10030    2    1    2    0    0  0.00000000000E+00  0.00000000000E+00  0.49058454554E+03  0.13929202410E+04  0.13036692838E+04 0.  0.
        4    1    3    3  502    0 -0.64599107402E+02  0.46422849969E+03  0.72930130452E+03  0.86692741927E+03  0.12699999809E+01 0.  1.
       -4    1    3    3    0  502  0.64599107402E+02 -0.46422849969E+03 -0.23871675898E+03  0.52599282174E+03  0.12699999809E+01 0. -1.
</event>
<event>
 5   0  0.3299104E-03  0.1244291E+04  0.7818609E-02  0.9074948E-01
       -2   -1    0    0    0  501  0.00000000000E+00  0.00000000000E+00  0.56821457570E+03  0.56821457571E+03  0.25500000920E-02 0.  1.
        2   -1    0    0  501    0  0.00000000000E+00  0.00000000000E+00 -0.68119502674E+03  0.68119502674E+03  0.25500000920E-02 0. -1.
    10030    2    1    2    0    0  0.00000000000E+00  0.00000000000E+00 -0.11298045104E+03  0.12494096025E+04  0.12442908713E+04 0.  0.
        2    1    3    3  502    0 -0.50087701420E+03 -0.21697836914E+03 -0.35622709616E+03  0.65180912856E+03  0.25500000920E-02 0. -1.
       -2    1    3    3    0  502  0.50087701420E+03  0.21697836914E+03  0.24324664512E+03  0.59760047389E+03  0.25500000920E-02 0.  1.
</event>
<event>
 5   0  0.1857986E-03  0.1310213E+04  0.7818609E-02  0.9021505E-01
       -1   -1    0    0    0  501  0.00000000000E+00  0.00000000000E+00  0.57155866229E+03  0.57155866231E+03  0.50400001928E-02 0. -1.
        1   -1    0    0  501    0  0.00000000000E+00  0.00000000000E+00 -0.75086660920E+03  0.75086660922E+03  0.50400001928E-02 0.  1.
    10030    2    1    2    0    0  0.00000000000E+00  0.00000000000E+00 -0.17930794691E+03  0.13224252715E+04  0.13102126770E+04 0.  0.
        1    1    3    3  502    0  0.73818038326E+02  0.29094833194E+02  0.56669092582E+03  0.57221867982E+03  0.50400001928E-02 0. -1.
       -1    1    3    3    0  502 -0.73818038326E+02 -0.29094833194E+02 -0.74599887273E+03  0.75020659171E+03  0.50400001928E-02 0.  1.
</event>
<event>
 5   0  0.3299104E-03  0.1091615E+04  0.7818609E-02  0.9213403E-01
       -2   -1    0    0    0  501  0.00000000000E+00  0.00000000000E+00  0.30499551367E+03  0.30499551368E+03  0.25500000920E-02 0. -1.
        2   -1    0    0  501    0  0.00000000000E+00  0.00000000000E+00 -0.97675483497E+03  0.97675483497E+03  0.25500000920E-02 0.  1.
    10030    2    1    2    0    0  0.00000000000E+00  0.00000000000E+00 -0.67175932130E+03  0.12817503487E+04  0.10916150285E+04 0.  0.
        2    1    3    3  502    0 -0.11253440600E+03  0.20696899920E+03  0.24222349126E+03  0.33789403500E+03  0.25500000920E-02 0. -1.
       -2    1    3    3    0  502  0.11253440600E+03 -0.20696899920E+03 -0.91398281256E+03  0.94385631365E+03  0.25500000920E-02 0.  1.
</event>
<event>
 5   0  0.1823154E-03  0.1284056E+04  0.7818609E-02  0.9042306E-01
       -1   -1    0    0    0  501  0.00000000000E+00  0.00000000000E+00  0.78492796518E+03  0.78492796520E+03  0.50400001928E-02 0. -1.
        1   -1    0    0  501    0  0.00000000000E+00  0.00000000000E+00 -0.52514342087E+03  0.52514342089E+03  0.50400001928E-02 0.  1.
    10030    2    1    2    0    0  0.00000000000E+00  0.00000000000E+00  0.25978454431E+03  0.13100713861E+04  0.12840556947E+04 0.  0.
        2    1    3    3  502    0  0.59234313949E+03 -0.21975019608E+03  0.13389356797E+02  0.63193339717E+03  0.25500000920E-02 0.  1.
       -2    1    3    3    0  502 -0.59234313949E+03  0.21975019608E+03  0.24639518752E+03  0.67813798892E+03  0.25500000920E-02 0. -1.
</event>
<event>
 5   0  0.1803959E-03  0.1297703E+04  0.7818609E-02  0.9031389E-01
       -1   -1    0    0    0  501  0.00000000000E+00  0.00000000000E+00  0.29915830616E+03  0.29915830621E+03  0.50400001928E-02 0. -1.
        1   -1    0    0  501    0  0.00000000000E+00  0.00000000000E+00 -0.14073086623E+04  0.14073086623E+04  0.50400001928E-02 0.  1.
    10030    2    1    2    0    0  0.00000000000E+00  0.00000000000E+00 -0.11081503561E+04  0.17064669685E+04  0.12977027020E+04 0.  0.
        4    1    3    3  502    0 -0.85886715789E+02  0.42964614580E+03  0.75246618926E+02  0.44456271223E+03  0.12699999809E+01 0. -1.
       -4    1    3    3    0  502  0.85886715789E+02 -0.42964614580E+03 -0.11833969751E+04  0.12619042563E+04  0.12699999809E+01 0.  1.
</event>
<event>
 5   0  0.3336609E-03  0.1295583E+04  0.7818609E-02  0.9033075E-01
       -2   -1    0    0    0  501  0.00000000000E+00  0.00000000000E+00  0.43721663255E+03  0.43721663256E+03  0.25500000920E-02 0.  1.
        2   -1    0    0  501    0  0.00000000000E+00  0.00000000000E+00 -0.95978484939E+03  0.95978484940E+03  0.25500000920E-02 0. -1.
    10030    2    1    2    0    0  0.00000000000E+00  0.00000000000E+00 -0.52256821684E+03  0.13970014820E+04  0.12955831117E+04 0.  0.
        1    1    3    3  502    0  0.19674236588E+03 -0.25356439488E+03 -0.86803246108E+03  0.92546356730E+03  0.50400001928E-02 0. -1.
       -1    1    3    3    0  502 -0.19674236588E+03  0.25356439488E+03  0.34546424424E+03  0.47153791465E+03  0.50400001928E-02 0.  1.
</event>
<event>
 5   0  0.3299104E-03  0.1121233E+04  0.7818609E-02  0.9184740E-01
       -2   -1    0    0    0  501  0.00000000000E+00  0.00000000000E+00  0.37216240085E+03  0.37216240086E+03  0.25500000920E-02 0.  1.
        2   -1    0    0  501    0  0.00000000000E+00  0.00000000000E+00 -0.84449938709E+03  0.84449938710E+03  0.25500000920E-02 0. -1.
    10030    2    1    2    0    0  0.00000000000E+00  0.00000000000E+00 -0.47233698624E+03  0.12166617880E+04  0.11212331059E+04 0.  0.
        2    1    3    3  502    0  0.24759690127E+03 -0.11806325731E+03  0.29436926293E+03  0.40236354359E+03  0.25500000920E-02 0.  1.
       -2    1    3    3    0  502 -0.24759690127E+03  0.11806325731E+03 -0.76670624918E+03  0.81429824436E+03  0.25500000920E-02 0. -1.
</event>
<event>
 5   0  0.1857986E-03  0.1296555E+04  0.7818609E-02  0.9032302E-01
        1   -1    0    0  501    0  0.00000000000E+00  0.00000000000E+00  0.55602801926E+03  0.55602801928E+03  0.50400001928E-02 0.  1.
       -1   -1    0    0    0  501  0.00000000000E+00  0.00000000000E+00 -0.75583163020E+03  0.75583163022E+03  0.50400001928E-02 0. -1.
    10030    2    1    2    0    0  0.00000000000E+00  0.00000000000E+00 -0.19980361094E+03  0.13118596495E+04  0.12965547644E+04 0.  0.
        1    1    3    3  502    0  0.12910714024E+03  0.13017516477E+03  0.52924956025E+03  0.56010652936E+03  0.50400001928E-02 0.  1.
       -1    1    3    3    0  502 -0.12910714024E+03 -0.13017516477E+03 -0.72905317119E+03  0.75175312014E+03  0.50400001928E-02 0. -1.
</event>
<event>
 5   0  0.1823154E-03  0.1292645E+04  0.7818609E-02  0.9035418E-01
        1   -1    0    0  501    0  0.00000000000E+00  0.00000000000E+00  0.95460141259E+03  0.95460141260E+03  0.50400001928E-02 0.  1.
       -1   -1    0    0    0  501  0.00000000000E+00  0.00000000000E+00 -0.43759905786E+03  0.43759905789E+03  0.50400001928E-02 0. -1.
    10030    2    1    2    0    0  0.00000000000E+00  0.00000000000E+00  0.51700235472E+03  0.13922004705E+04  0.12926448527E+04 0.  0.
        2    1    3    3  502    0  0.94157296839E+02  0.32917063829E+03  0.84891259260E+03  0.91535320808E+03  0.25500000920E-02 0.  1.
       -2    1    3    3    0  502 -0.94157296839E+02 -0.32917063829E+03 -0.33191023788E+03  0.47684726242E+03  0.25500000920E-02 0. -1.
</event>
<event>
 5   0  0.3336609E-03  0.1297684E+04  0.7818609E-02  0.9031404E-01
       -2   -1    0    0    0  501  0.00000000000E+00  0.00000000000E+00  0.20477939429E+03  0.20477939431E+03  0.25500000920E-02 0.  1.
        2   -1    0    0  501    0  0.00000000000E+00  0.00000000000E+00 -0.20558519645E+04  0.20558519645E+04  0.25500000920E-02 0. -1.
    10030    2    1    2    0    0  0.00000000000E+00  0.00000000000E+00 -0.18510725702E+04  0.22606313588E+04  0.12976842760E+04 0.  0.
        1    1    3    3  502    0 -0.10346931503E+03 -0.40166411553E+03 -0.56331431030E+02  0.41858474769E+03  0.50400001928E-02 0.  1.
       -1    1    3    3    0  502  0.10346931503E+03  0.40166411553E+03 -0.17947411392E+04  0.18420466111E+04  0.50400001928E-02 0. -1.
</event>
<event>
 5   0  0.1823154E-03  0.1258799E+04  0.7818609E-02  0.9062892E-01
        1   -1    0    0  501    0  0.00000000000E+00  0.00000000000E+00  0.10659402699E+04  0.10659402699E+04  0.50400001928E-02 0. -1.
       -1   -1    0    0    0  501  0.00000000000E+00  0.00000000000E+00 -0.37163772151E+03  0.37163772155E+03  0.50400001928E-02 0.  1.
    10030    2    1    2    0    0  0.00000000000E+00  0.00000000000E+00  0.69430254834E+03  0.14375779914E+04  0.12587988135E+04 0.  0.
        2    1    3    3  502    0  0.33942707535E+03  0.28690773096E+03  0.85611064032E+03  0.96459950966E+03  0.25500000920E-02 0. -1.
       -2    1    3    3    0  502 -0.33942707535E+03 -0.28690773096E+03 -0.16180809198E+03  0.47297848175E+03  0.25500000920E-02 0.  1.
</event>
<event>
 5   0  0.1873488E-03  0.1332691E+04  0.7818609E-02  0.9004035E-01
       -1   -1    0    0    0  501  0.00000000000E+00  0.00000000000E+00  0.14565899115E+04  0.14565899115E+04  0.50400001928E-02 0. -1.
        1   -1    0    0  501    0  0.00000000000E+00  0.00000000000E+00 -0.30483270224E+03  0.30483270229E+03  0.50400001928E-02 0.  1.
    10030    2    1    2    0    0  0.00000000000E+00  0.00000000000E+00  0.11517572092E+04  0.17614226138E+04  0.13326908701E+04 0.  0.
        3    1    3    3  502    0 -0.31526471264E+03  0.40688034689E+03  0.16573317834E+02  0.51499334052E+03  0.10100000352E+00 0. -1.
       -3    1    3    3    0  502  0.31526471264E+03 -0.40688034689E+03  0.11351838914E+04  0.12464292733E+04  0.10100000352E+00 0.  1.
</event>
<event>
 5   0  0.3259968E-03  0.1295148E+04  0.7818609E-02  0.9033421E-01
       -2   -1    0    0    0  501  0.00000000000E+00  0.00000000000E+00  0.48569856069E+03  0.48569856070E+03  0.25500000920E-02 0. -1.
        2   -1    0    0  501    0  0.00000000000E+00  0.00000000000E+00 -0.86340025527E+03  0.86340025527E+03  0.25500000920E-02 0.  1.
    10030    2    1    2    0    0  0.00000000000E+00  0.00000000000E+00 -0.37770169457E+03  0.13490988160E+04  0.12951482715E+04 0.  0.
        4    1    3    3  502    0  0.48267899524E+03  0.37746344014E+03 -0.40708455968E+03  0.73564741060E+03  0.12699999809E+01 0.  1.
       -4    1    3    3    0  502 -0.48267899524E+03 -0.37746344014E+03  0.29382865111E+02  0.61345140537E+03  0.12699999809E+01 0. -1.
</event>
<event>
 5   0  0.3259968E-03  0.1312447E+04  0.7818609E-02  0.9019752E-01
       -2   -1    0    0    0  501  0.00000000000E+00  0.00000000000E+00  0.49906397788E+03  0.49906397789E+03  0.25500000920E-02 0. -1.
        2   -1    0    0  501    0  0.00000000000E+00  0.00000000000E+00 -0.86287381760E+03  0.86287381761E+03  0.25500000920E-02 0.  1.
    10030    2    1    2    0    0  0.00000000000E+00  0.00000000000E+00 -0.36380983972E+03  0.13619377955E+04  0.13124469358E+04 0.  0.
        4    1    3    3  502    0 -0.25533409694E+03 -0.43454698927E+03 -0.61799092286E+03  0.79745907768E+03  0.12699999809E+01 0.  1.
       -4    1    3    3    0  502  0.25533409694E+03  0.43454698927E+03  0.25418108314E+03  0.56447871781E+03  0.12699999809E+01 0. -1.
</event>
<event>
 5   0  0.3259968E-03  0.1353248E+04  0.7818609E-02  0.8988373E-01
       -2   -1    0    0    0  501  0.00000000000E+00  0.00000000000E+00  0.51720665226E+03  0.51720665226E+03  0.25500000920E-02 0. -1.
        2   -1    0    0  501    0  0.00000000000E+00  0.00000000000E+00 -0.88517758242E+03  0.88517758242E+03  0.25500000920E-02 0.  1.
    10030    2    1    2    0    0  0.00000000000E+00  0.00000000000E+00 -0.36797093016E+03  0.14023842347E+04  0.13532475517E+04 0.  0.
        4    1    3    3  502    0 -0.11931347423E+03  0.66531999634E+03 -0.15235306601E+03  0.69289210725E+03  0.12699999809E+01 0. -1.
       -4    1    3    3    0  502  0.11931347423E+03 -0.66531999634E+03 -0.21561786415E+03  0.70949212744E+03  0.12699999809E+01 0.  1.
</event>
<event>
 5   0  0.3262927E-03  0.1159709E+04  0.7818609E-02  0.9148873E-01
       -2   -1    0    0    0  501  0.00000000000E+00  0.00000000000E+00  0.61589941167E+03  0.61589941168E+03  0.25500000920E-02 0.  1.
        2   -1    0    0  501    0  0.00000000000E+00  0.00000000000E+00 -0.54591942172E+03  0.54591942173E+03  0.25500000920E-02 0. -1.
    10030    2    1    2    0    0  0.00000000000E+00  0.00000000000E+00  0.69979989948E+02  0.11618188334E+04  0.11597093613E+04 0.  0.
        3    1    3    3  502    0 -0.56450872057E+03  0.68801648862E+02  0.14845534935E+03  0.58774379064E+03  0.10100000352E+00 0. -1.
       -3    1    3    3    0  502  0.56450872057E+03 -0.68801648862E+02 -0.78475359402E+02  0.57407504276E+03  0.10100000352E+00 0.  1.
</event>
<event>
 5   0  0.1857986E-03  0.9788548E+03  0.7818609E-02  0.9332045E-01
       -1   -1    0    0    0  501  0.00000000000E+00  0.00000000000E+00  0.37307064179E+03  0.37307064182E+03  0.50400001928E-02 0.  1.
        1   -1    0    0  501    0  0.00000000000E+00  0.00000000000E+00 -0.64207455270E+03  0.64207455272E+03  0.50400001928E-02 0. -1.
    10030    2    1    2    0    0  0.00000000000E+00  0.00000000000E+00 -0.26900391091E+03  0.10151451945E+04  0.97885477059E+03 0.  0.
        1    1    3    3  502    0  0.20865330084E+03 -0.35890830333E+03  0.13431403346E+03  0.43633889324E+03  0.50400001928E-02 0.  1.
       -1    1    3    3    0  502 -0.20865330084E+03  0.35890830333E+03 -0.40331794437E+03  0.57880630130E+03  0.50400001928E-02 0. -1.
</event>
<event>
 5   0  0.3299104E-03  0.1298489E+04  0.7818609E-02  0.9030764E-01
        2   -1    0    0  501    0  0.00000000000E+00  0.00000000000E+00  0.18677309374E+04  0.18677309374E+04  0.25500000920E-02 0.  1.
       -2   -1    0    0    0  501  0.00000000000E+00  0.00000000000E+00 -0.22568486174E+03  0.22568486175E+03  0.25500000920E-02 0. -1.
    10030    2    1    2    0    0  0.00000000000E+00  0.00000000000E+00  0.16420460757E+04  0.20934157992E+04  0.12984892736E+04 0.  0.
        2    1    3    3  502    0 -0.42361381334E+03  0.16356261764E+03  0.15691176012E+04  0.16335028127E+04  0.25500000920E-02 0.  1.
       -2    1    3    3    0  502  0.42361381334E+03 -0.16356261764E+03  0.72928474506E+02  0.45991298649E+03  0.25500000920E-02 0. -1.
</event>
<event>
 5   0  0.3336609E-03  0.1287496E+04  0.7818609E-02  0.9039540E-01
       -2   -1    0    0    0  501  0.00000000000E+00  0.00000000000E+00  0.63254080000E+03  0.63254080001E+03  0.25500000920E-02 0. -1.
        2   -1    0    0  501    0  0.00000000000E+00  0.00000000000E+00 -0.65515415131E+03  0.65515415131E+03  0.25500000920E-02 0.  1.
    10030    2    1    2    0    0  0.00000000000E+00  0.00000000000E+00 -0.22613351307E+02  0.12876949513E+04  0.12874963782E+04 0.  0.
        1    1    3    3  502    0  0.15822660043E+03  0.21230334064E+03  0.57555751544E+03  0.63354148967E+03  0.50400001928E-02 0. -1.
       -1    1    3    3    0  502 -0.15822660043E+03 -0.21230334064E+03 -0.59817086675E+03  0.65415346165E+03  0.50400001928E-02 0.  1.
</event>
<event>
 5   0  0.1823154E-03  0.1358178E+04  0.7818609E-02  0.8984661E-01
        1   -1    0    0  501    0  0.00000000000E+00  0.00000000000E+00  0.16702668469E+04  0.16702668470E+04  0.50400001928E-02 0. -1.
       -1   -1    0    0    0  501  0.00000000000E+00  0.00000000000E+00 -0.27610057713E+03  0.27610057718E+03  0.50400001928E-02 0.  1.
    10030    2    1    2    0    0  0.00000000000E+00  0.00000000000E+00  0.13941662698E+04  0.19463674241E+04  0.13581776621E+04 0.  0.
        2    1    3    3  502    0 -0.58309127219E+03 -0.31942125677E+03  0.89532568834E+03  0.11151831505E+04  0.25500000920E-02 0. -1.
       -2    1    3    3    0  502  0.58309127219E+03  0.31942125677E+03  0.49884058147E+03  0.83118427362E+03  0.25500000920E-02 0.  1.
</event>
<event>
 5   0  0.1823154E-03  0.9748920E+03  0.7818609E-02  0.9336520E-01
        1   -1    0    0  501    0  0.00000000000E+00  0.00000000000E+00  0.21984051345E+04  0.21984051345E+04  0.50400001928E-02 0.  1.
       -1   -1    0    0    0  501  0.00000000000E+00  0.00000000000E+00 -0.10807999470E+03  0.10807999482E+03  0.50400001928E-02 0. -1.
    10030    2    1    2    0    0  0.00000000000E+00  0.00000000000E+00  0.20903251398E+04  0.23064851293E+04  0.97489202569E+03 0.  0.
        2    1    3    3  502    0 -0.27811171460E+03 -0.75724094726E+02  0.19751802395E+04  0.19961005092E+04  0.25500000920E-02 0.  1.
       -2    1    3    3    0  502  0.27811171460E+03  0.75724094726E+02  0.11514490024E+03  0.31038462007E+03  0.25500000920E-02 0. -1.
</event>
<event>
 5   0  0.3336609E-03  0.1355544E+04  0.7818609E-02  0.8986642E-01
       -2   -1    0    0    0  501  0.00000000000E+00  0.00000000000E+00  0.20921359044E+03  0.20921359046E+03  0.25500000920E-02 0.  1.
        2   -1    0    0  501    0  0.00000000000E+00  0.00000000000E+00 -0.21957221690E+04  0.21957221690E+04  0.25500000920E-02 0. -1.
    10030    2    1    2    0    0  0.00000000000E+00  0.00000000000E+00 -0.19865085785E+04  0.24049357594E+04  0.13555440511E+04 0.  0.
        1    1    3    3  502    0  0.43641243760E+03  0.50938047570E+03 -0.82078160859E+03  0.10600031763E+04  0.50400001928E-02 0. -1.
       -1    1    3    3    0  502 -0.43641243760E+03 -0.50938047570E+03 -0.11657269699E+04  0.13449325831E+04  0.50400001928E-02 0.  1.
</event>
<event>
 5   0  0.3259968E-03  0.1285706E+04  0.7818609E-02  0.9040978E-01
       -2   -1    0    0    0  501  0.00000000000E+00  0.00000000000E+00  0.26534229529E+03  0.26534229530E+03  0.25500000920E-02 0.  1.
        2   -1    0    0  501    0  0.00000000000E+00  0.00000000000E+00 -0.15574594850E+04  0.15574594850E+04  0.25500000920E-02 0. -1.
    10030    2    1    2    0    0  0.00000000000E+00  0.00000000000E+00 -0.12921171898E+04  0.18228017804E+04  0.12857058366E+04 0.  0.
        4    1    3    3  502    0  0.49680846226E+03 -0.31977300992E+03 -0.28687702410E+03  0.65679027544E+03  0.12699999809E+01 0.  1.
       -4    1    3    3    0  502 -0.49680846226E+03  0.31977300992E+03 -0.10052401657E+04  0.11660115049E+04  0.12699999809E+01 0. -1.
</event>
<event>
 5   0  0.3259968E-03  0.1265796E+04  0.7818609E-02  0.9057138E-01
       -2   -1    0    0    0  501  0.00000000000E+00  0.00000000000E+00  0.40211895595E+03  0.40211895596E+03  0.25500000920E-02 0. -1.
        2   -1    0    0  501    0  0.00000000000E+00  0.00000000000E+00 -0.99612278257E+03  0.99612278257E+03  0.25500000920E-02 0.  1.
    10030    2    1    2    0    0  0.00000000000E+00  0.00000000000E+00 -0.59400382662E+03  0.13982417385E+04  0.12657959604E+04 0.  0.
        4    1    3    3  502    0  0.46146659625E+03  0.19601589679E+03 -0.72366054673E+03  0.88037483553E+03  0.12699999809E+01 0.  1.
       -4    1    3    3    0  502 -0.46146659625E+03 -0.19601589679E+03  0.12965672011E+03  0.51786690299E+03  0.12699999809E+01 0. -1.
</event>
<event>
 5   0  0.1873488E-03  0.1297344E+04  0.7818609E-02  0.9031674E-01
        1   -1    0    0  501    0  0.00000000000E+00  0.00000000000E+00  0.14465038418E+04  0.14465038418E+04  0.50400001928E-02 0. -1.
       -1   -1    0    0    0  501  0.00000000000E+00  0.00000000000E+00 -0.29089117672E+03  0.29089117676E+03  0.50400001928E-02 0.  1.
    10030    2    1    2    0    0  0.00000000000E+00  0.00000000000E+00  0.11556126651E+04  0.17373950186E+04  0.12973437551E+04 0.  0.
        3    1    3    3  502    0  0.45101796746E+03  0.35685269666E+03  0.97959610320E+03  0.11359443603E+04  0.10100000352E+00 0. -1.
       -3    1    3    3    0  502 -0.45101796746E+03 -0.35685269666E+03  0.17601656189E+03  0.60145065828E+03  0.10100000352E+00 0.  1.
</event>
<event>
 5   0  0.1254125E-03  0.1295160E+04  0.7818609E-02  0.9033412E-01
        3   -1    0    0  501    0  0.00000000000E+00  0.00000000000E+00  0.23035566381E+04  0.23035566403E+04  0.10100000352E+00 0.  1.
       -3   -1    0    0    0  501  0.00000000000E+00  0.00000000000E+00 -0.18204875140E+03  0.18204877942E+03  0.10100000352E+00 0. -1.
    10030    2    1    2    0    0  0.00000000000E+00  0.00000000000E+00  0.21215078867E+04  0.24856054197E+04  0.12951596771E+04 0.  0.
        3    1    3    3  502    0  0.63463156502E+03  0.11863567754E+03  0.96426078284E+03  0.11604441024E+04  0.10100000352E+00 0. -1.
       -3    1    3    3    0  502 -0.63463156502E+03 -0.11863567754E+03  0.11572471038E+04  0.13251613173E+04  0.10100000352E+00 0.  1.
</event>
<event>
 5   0  0.1873488E-03  0.1145367E+04  0.7818609E-02  0.9162068E-01
        1   -1    0    0  501    0  0.00000000000E+00  0.00000000000E+00  0.35983138962E+03  0.35983138966E+03  0.50400001928E-02 0. -1.
       -1   -1    0    0    0  501  0.00000000000E+00  0.00000000000E+00 -0.91144466221E+03  0.91144466222E+03  0.50400001928E-02 0.  1.
    10030    2    1    2    0    0  0.00000000000E+00  0.00000000000E+00 -0.55161327259E+03  0.12712760519E+04  0.11453670144E+04 0.  0.
        3    1    3    3  502    0 -0.21923674635E+02  0.53136414913E+03 -0.51161857352E+03  0.73795804858E+03  0.10100000352E+00 0.  1.
       -3    1    3    3    0  502  0.21923674635E+02 -0.53136414913E+03 -0.39994699069E+02  0.53331800330E+03  0.10100000352E+00 0. -1.
</event>
<event>
 5   0  0.3299104E-03  0.1321515E+04  0.7818609E-02  0.9012675E-01
        2   -1    0    0  501    0  0.00000000000E+00  0.00000000000E+00  0.39775361425E+03  0.39775361426E+03  0.25500000920E-02 0.  1.
       -2   -1    0    0    0  501  0.00000000000E+00  0.00000000000E+00 -0.10976657119E+04  0.10976657119E+04  0.25500000920E-02 0. -1.
    10030    2    1    2    0    0  0.00000000000E+00  0.00000000000E+00 -0.69991209765E+03  0.14954193262E+04  0.13215150459E+04 0.  0.
        2    1    3    3  502    0  0.35688390223E+03  0.48368993032E+03 -0.39481381785E+02  0.60239592286E+03  0.25500000920E-02 0.  1.
       -2    1    3    3    0  502 -0.35688390223E+03 -0.48368993032E+03 -0.66043071587E+03  0.89302340330E+03  0.25500000920E-02 0. -1.
</event>
<event>
 5   0  0.1823154E-03  0.1059230E+04  0.7818609E-02  0.9245866E-01
       -1   -1    0    0    0  501  0.00000000000E+00  0.00000000000E+00  0.27202949996E+03  0.27202950001E+03  0.50400001928E-02 0. -1.
        1   -1    0    0  501    0  0.00000000000E+00  0.00000000000E+00 -0.10311094726E+04  0.10311094726E+04  0.50400001928E-02 0.  1.
    10030    2    1    2    0    0  0.00000000000E+00  0.00000000000E+00 -0.75907997264E+03  0.13031389726E+04  0.10592302758E+04 0.  0.
        2    1    3    3  502    0  0.41034761078E+03 -0.29007840170E+03 -0.17381786422E+03  0.53173611006E+03  0.25500000920E-02 0.  1.
       -2    1    3    3    0  502 -0.41034761078E+03  0.29007840170E+03 -0.58526210842E+03  0.77140286256E+03  0.25500000920E-02 0. -1.
</event>
<event>
 5   0  0.1823154E-03  0.1341907E+04  0.7818609E-02  0.8996977E-01
       -1   -1    0    0    0  501  0.00000000000E+00  0.00000000000E+00  0.28349549577E+03  0.28349549582E+03  0.50400001928E-02 0. -1.
        1   -1    0    0  501    0  0.00000000000E+00  0.00000000000E+00 -0.15879557838E+04  0.15879557838E+04  0.50400001928E-02 0.  1.
    10030    2    1    2    0    0  0.00000000000E+00  0.00000000000E+00 -0.13044602880E+04  0.18714512796E+04  0.13419065724E+04 0.  0.
        2    1    3    3  502    0 -0.52453067110E+03 -0.10486325289E+03 -0.12170940361E+04  0.13294535040E+04  0.25500000920E-02 0. -1.
       -2    1    3    3    0  502  0.52453067110E+03  0.10486325289E+03 -0.87366251921E+02  0.54199777556E+03  0.25500000920E-02 0.  1.
</event>
<event>
 5   0  0.1857986E-03  0.1296958E+04  0.7818609E-02  0.9031981E-01
        1   -1    0    0  501    0  0.00000000000E+00  0.00000000000E+00  0.20735145624E+04  0.20735145625E+04  0.50400001928E-02 0. -1.
       -1   -1    0    0    0  501  0.00000000000E+00  0.00000000000E+00 -0.20280789567E+03  0.20280789573E+03  0.50400001928E-02 0.  1.
    10030    2    1    2    0    0  0.00000000000E+00  0.00000000000E+00  0.18707066668E+04  0.22763224582E+04  0.12969581722E+04 0.  0.
        1    1    3    3  502    0  0.16780189045E+03 -0.86014361825E+02 -0.15362889977E+03  0.24322373188E+03  0.50400001928E-02 0.  1.
       -1    1    3    3    0  502 -0.16780189045E+03  0.86014361825E+02  0.20243355665E+04  0.20330987263E+04  0.50400001928E-02 0. -1.
</event>
<event>
 5   0  0.3299104E-03  0.1314997E+04  0.7818609E-02  0.9017756E-01
        2   -1    0    0  501    0  0.00000000000E+00  0.00000000000E+00  0.63951438367E+03  0.63951438367E+03  0.25500000920E-02 0. -1.
       -2   -1    0    0    0  501  0.00000000000E+00  0.00000000000E+00 -0.67598826465E+03  0.67598826466E+03  0.25500000920E-02 0.  1.
    10030    2    1    2    0    0  0.00000000000E+00  0.00000000000E+00 -0.36473880987E+02  0.13155026483E+04  0.13149969102E+04 0.  0.
        2    1    3    3  502    0 -0.15671264626E+03  0.62794277020E+03 -0.13418338041E+03  0.66096607759E+03  0.25500000920E-02 0.  1.
       -2    1    3    3    0  502  0.15671264626E+03 -0.62794277020E+03  0.97709499427E+02  0.65453657073E+03  0.25500000920E-02 0. -1.
</event>
<event>
 5   0  0.3259968E-03  0.9585245E+03  0.7818609E-02  0.9355242E-01
       -2   -1    0    0    0  501  0.00000000000E+00  0.00000000000E+00  0.13262834472E+03  0.13262834474E+03  0.25500000920E-02 0. -1.
        2   -1    0    0  501    0  0.00000000000E+00  0.00000000000E+00 -0.17318492044E+04  0.17318492044E+04  0.25500000920E-02 0.  1.
    10030    2    1    2    0    0  0.00000000000E+00  0.00000000000E+00 -0.15992208597E+04  0.18644775491E+04  0.95852447711E+03 0.  0.
        4    1    3    3  502    0 -0.28163183745E+02 -0.27120236631E+03 -0.32946386517E+02  0.27464698377E+03  0.12699999809E+01 0. -1.
       -4    1    3    3    0  502  0.28163183745E+02  0.27120236631E+03 -0.15662744732E+04  0.15898305654E+04  0.12699999809E+01 0.  1.
</event>
<event>
 5   0  0.1857986E-03  0.1253751E+04  0.7818609E-02  0.9067067E-01
        1   -1    0    0  501    0  0.00000000000E+00  0.00000000000E+00  0.87652343424E+03  0.87652343425E+03  0.50400001928E-02 0.  1.
       -1   -1    0    0    0  501  0.00000000000E+00  0.00000000000E+00 -0.44833105904E+03  0.44833105907E+03  0.50400001928E-02 0. -1.
    10030    2    1    2    0    0  0.00000000000E+00  0.00000000000E+00  0.42819237520E+03  0.13248544933E+04  0.12537506603E+04 0.  0.
        1    1    3    3  502    0 -0.15235652751E+03  0.97797192103E+02  0.84829639116E+03  0.86740046665E+03  0.50400001928E-02 0.  1.
       -1    1    3    3    0  502  0.15235652751E+03 -0.97797192103E+02 -0.42010401597E+03  0.45745402667E+03  0.50400001928E-02 0. -1.
</event>
<event>
 5   0  0.3336609E-03  0.1315220E+04  0.7818609E-02  0.9017582E-01
       -2   -1    0    0    0  501  0.00000000000E+00  0.00000000000E+00  0.37502757824E+03  0.37502757825E+03  0.25500000920E-02 0. -1.
        2   -1    0    0  501    0  0.00000000000E+00  0.00000000000E+00 -0.11531176682E+04  0.11531176682E+04  0.25500000920E-02 0.  1.
    10030    2    1    2    0    0  0.00000000000E+00  0.00000000000E+00 -0.77809008995E+03  0.15281452464E+04  0.13152200220E+04 0.  0.
        1    1    3    3  502    0 -0.61200266369E+03  0.23714530571E+03 -0.34162371193E+03  0.73992696732E+03  0.50400001928E-02 0. -1.
       -1    1    3    3    0  502  0.61200266369E+03 -0.23714530571E+03 -0.43646637802E+03  0.78821827913E+03  0.50400001928E-02 0.  1.
</event>
<event>
 5   0  0.1823154E-03  0.1300756E+04  0.7818609E-02  0.9028965E-01
        1   -1    0    0  501    0  0.00000000000E+00  0.00000000000E+00  0.88411713028E+03  0.88411713029E+03  0.50400001928E-02 0.  1.
       -1   -1    0    0    0  501  0.00000000000E+00  0.00000000000E+00 -0.47843416755E+03  0.47843416758E+03  0.50400001928E-02 0. -1.
    10030    2    1    2    0    0  0.00000000000E+00  0.00000000000E+00  0.40568296272E+03  0.13625512979E+04  0.13007564619E+04 0.  0.
        2    1    3    3  502    0 -0.12804069384E+03  0.60493144669E+03  0.41405213578E+03  0.74416103474E+03  0.25500000920E-02 0. -1.
       -2    1    3    3    0  502  0.12804069384E+03 -0.60493144669E+03 -0.83691730578E+01  0.61839026313E+03  0.25500000920E-02 0.  1.
</event>
<event>
 5   0  0.1803959E-03  0.1125755E+04  0.7818609E-02  0.9180446E-01
        1   -1    0    0  501    0  0.00000000000E+00  0.00000000000E+00  0.49631275392E+03  0.49631275394E+03  0.50400001928E-02 0.  1.
       -1   -1    0    0    0  501  0.00000000000E+00  0.00000000000E+00 -0.63837007822E+03  0.63837007824E+03  0.50400001928E-02 0. -1.
    10030    2    1    2    0    0  0.00000000000E+00  0.00000000000E+00 -0.14205732430E+03  0.11346828322E+04  0.11257552337E+04 0.  0.
        4    1    3    3  502    0 -0.45271297746E+03 -0.30109732909E+03 -0.21785805170E+03  0.58572381302E+03  0.12699999809E+01 0. -1.
       -4    1    3    3    0  502  0.45271297746E+03  0.30109732909E+03  0.75800727399E+02  0.54895901916E+03  0.12699999809E+01 0.  1.
</event>
<event>
 5   0  0.1857986E-03  0.1283876E+04  0.7818609E-02  0.9042450E-01
        1   -1    0    0  501    0  0.00000000000E+00  0.00000000000E+00  0.15364332726E+04  0.15364332726E+04  0.50400001928E-02 0. -1.
       -1   -1    0    0    0  501  0.00000000000E+00  0.00000000000E+00 -0.26820854291E+03  0.26820854296E+03  0.50400001928E-02 0.  1.
    10030    2    1    2    0    0  0.00000000000E+00  0.00000000000E+00  0.12682247297E+04  0.18046418155E+04  0.12838762080E+04 0.  0.
        1    1    3    3  502    0  0.94636944276E+02 -0.49998239112E+03  0.11841858045E+04  0.12888888867E+04  0.50400001928E-02 0. -1.
       -1    1    3    3    0  502 -0.94636944276E+02  0.49998239112E+03  0.84038925170E+02  0.51575292885E+03  0.50400001928E-02 0.  1.
</event>
<event>
 5   0  0.1857986E-03  0.1229394E+04  0.7818609E-02  0.9087510E-01
        1   -1    0    0  501    0  0.00000000000E+00  0.00000000000E+00  0.53135550401E+03  0.53135550404E+03  0.50400001928E-02 0.  1.
       -1   -1    0    0    0  501  0.00000000000E+00  0.00000000000E+00 -0.71111071452E+03  0.71111071454E+03  0.50400001928E-02 0. -1.
    10030    2    1    2    0    0  0.00000000000E+00  0.00000000000E+00 -0.17975521050E+03  0.12424662186E+04  0.12293943096E+04 0.  0.
        1    1    3    3  502    0 -0.22283708930E+03 -0.17611164751E+02  0.48882424980E+03  0.53750876152E+03  0.50400001928E-02 0.  1.
       -1    1    3    3    0  502  0.22283708930E+03  0.17611164751E+02 -0.66857946030E+03  0.70495745705E+03  0.50400001928E-02 0. -1.
</event>
<event>
 5   0  0.1857986E-03  0.1291828E+04  0.7818609E-02  0.9036071E-01
       -1   -1    0    0    0  501  0.00000000000E+00  0.00000000000E+00  0.33544772176E+03  0.33544772180E+03  0.50400001928E-02 0. -1.
        1   -1    0    0  501    0  0.00000000000E+00  0.00000000000E+00 -0.12437261118E+04  0.12437261118E+04  0.50400001928E-02 0.  1.
    10030    2    1    2    0    0  0.00000000000E+00  0.00000000000E+00 -0.90827839006E+03  0.15791738336E+04  0.12918283024E+04 0.  0.
        1    1    3    3  502    0 -0.28137089699E+03  0.27694337787E+03 -0.10790619251E+04  0.11490177781E+04  0.50400001928E-02 0.  1.
       -1    1    3    3    0  502  0.28137089699E+03 -0.27694337787E+03  0.17078353505E+03  0.43015605551E+03  0.50400001928E-02 0. -1.
</event>
<event>
 5   0  0.1823154E-03  0.1292320E+04  0.7818609E-02  0.9035678E-01
       -1   -1    0    0    0  501  0.00000000000E+00  0.00000000000E+00  0.64939193476E+03  0.64939193478E+03  0.50400001928E-02 0. -1.
        1   -1    0    0  501    0  0.00000000000E+00  0.00000000000E+00 -0.64294420216E+03  0.64294420218E+03  0.50400001928E-02 0.  1.
    10030    2    1    2    0    0  0.00000000000E+00  0.00000000000E+00  0.64477326061E+01  0.12923361370E+04  0.12923200523E+04 0.  0.
        2    1    3    3  502    0  0.35744557323E+03  0.22046686446E+03  0.49430003773E+03  0.64861814919E+03  0.25500000920E-02 0. -1.
       -2    1    3    3    0  502 -0.35744557323E+03 -0.22046686446E+03 -0.48785230513E+03  0.64371798777E+03  0.25500000920E-02 0.  1.
</event>
<event>
 5   0  0.1803959E-03  0.1287970E+04  0.7818609E-02  0.9039160E-01
       -1   -1    0    0    0  501  0.00000000000E+00  0.00000000000E+00  0.31515832046E+03  0.31515832050E+03  0.50400001928E-02 0.  1.
        1   -1    0    0  501    0  0.00000000000E+00  0.00000000000E+00 -0.13159001363E+04  0.13159001364E+04  0.50400001928E-02 0. -1.
    10030    2    1    2    0    0  0.00000000000E+00  0.00000000000E+00 -0.10007418159E+04  0.16310584568E+04  0.12879703054E+04 0.  0.
        4    1    3    3  502    0  0.58551987372E+03 -0.23987927090E+03 -0.34872407015E+03  0.72248576258E+03  0.12699999809E+01 0.  1.
       -4    1    3    3    0  502 -0.58551987372E+03  0.23987927090E+03 -0.65201774573E+03  0.90857269427E+03  0.12699999809E+01 0. -1.
</event>
<event>
 5   0  0.3299104E-03  0.1302606E+04  0.7818609E-02  0.9027501E-01
       -2   -1    0    0    0  501  0.00000000000E+00  0.00000000000E+00  0.31225770602E+03  0.31225770603E+03  0.25500000920E-02 0.  1.
        2   -1    0    0  501    0  0.00000000000E+00  0.00000000000E+00 -0.13584793428E+04  0.13584793428E+04  0.25500000920E-02 0. -1.
    10030    2    1    2    0    0  0.00000000000E+00  0.00000000000E+00 -0.10462216368E+04  0.16707370488E+04  0.13026060698E+04 0.  0.
        2    1    3    3  502    0 -0.15072270185E+03 -0.18561240655E+03  0.25392962780E+03  0.34878296146E+03  0.25500000920E-02 0.  1.
       -2    1    3    3    0  502  0.15072270185E+03  0.18561240655E+03 -0.13001512646E+04  0.13219540874E+04  0.25500000920E-02 0. -1.
</event>
<event>
 5   0  0.1823154E-03  0.1295062E+04  0.7818609E-02  0.9033491E-01
       -1   -1    0    0    0  501  0.00000000000E+00  0.00000000000E+00  0.44903940125E+03  0.44903940127E+03  0.50400001928E-02 0. -1.
        1   -1    0    0  501    0  0.00000000000E+00  0.00000000000E+00 -0.93376232923E+03  0.93376232924E+03  0.50400001928E-02 0.  1.
    10030    2    1    2    0    0  0.00000000000E+00  0.00000000000E+00 -0.48472292798E+03  0.13828017305E+04  0.12950615078E+04 0.  0.
        2    1    3    3  502    0 -0.48245877146E+03 -0.68813336644E+02 -0.69762167239E+03  0.85098633318E+03  0.25500000920E-02 0.  1.
       -2    1    3    3    0  502  0.48245877146E+03  0.68813336644E+02  0.21289874441E+03  0.53181539733E+03  0.25500000920E-02 0. -1.
</event>
<event>
 5   0  0.1814770E-03  0.1286823E+04  0.7818609E-02  0.9040080E-01
        1   -1    0    0  501    0  0.00000000000E+00  0.00000000000E+00  0.10315300861E+04  0.10315300862E+04  0.50400001928E-02 0. -1.
       -1   -1    0    0    0  501  0.00000000000E+00  0.00000000000E+00 -0.40132463242E+03  0.40132463246E+03  0.50400001928E-02 0.  1.
    10030    2    1    2    0    0  0.00000000000E+00  0.00000000000E+00  0.63020545372E+03  0.14328547186E+04  0.12868231156E+04 0.  0.
        5    1    3    3  502    0  0.23373940738E+03  0.18183074063E+03 -0.32090896094E+03  0.43669346230E+03  0.46999998093E+01 0. -1.
       -5    1    3    3    0  502 -0.23373940738E+03 -0.18183074063E+03  0.95111441467E+03  0.99616125632E+03  0.46999998093E+01 0.  1.
</event>
<event>
 5   0  0.3336609E-03  0.1299189E+04  0.7818609E-02  0.9030208E-01
        2   -1    0    0  501    0  0.00000000000E+00  0.00000000000E+00  0.14308769121E+04  0.14308769121E+04  0.25500000920E-02 0.  1.
       -2   -1    0    0    0  501  0.00000000000E+00  0.00000000000E+00 -0.29490537372E+03  0.29490537373E+03  0.25500000920E-02 0. -1.
    10030    2    1    2    0    0  0.00000000000E+00  0.00000000000E+00  0.11359715384E+04  0.17257822858E+04  0.12991894250E+04 0.  0.
        1    1    3    3  502    0  0.63495361092E+03  0.31262618381E+02  0.74535871916E+03  0.97964435362E+03  0.50400001928E-02 0.  1.
       -1    1    3    3    0  502 -0.63495361092E+03 -0.31262618381E+02  0.39061281922E+03  0.74613793222E+03  0.50400001928E-02 0. -1.
</event>
<event>
 5   0  0.3336609E-03  0.1306919E+04  0.7818609E-02  0.9024096E-01
       -2   -1    0    0    0  501  0.00000000000E+00  0.00000000000E+00  0.42892068567E+03  0.42892068568E+03  0.25500000920E-02 0. -1.
        2   -1    0    0  501    0  0.00000000000E+00  0.00000000000E+00 -0.99554376812E+03  0.99554376813E+03  0.25500000920E-02 0.  1.
    10030    2    1    2    0    0  0.00000000000E+00  0.00000000000E+00 -0.56662308245E+03  0.14244644538E+04  0.13069189962E+04 0.  0.
        1    1    3    3  502    0  0.29503321754E+02 -0.42315520483E+02  0.42669796242E+03  0.42980483993E+03  0.50400001928E-02 0. -1.
       -1    1    3    3    0  502 -0.29503321754E+02  0.42315520483E+02 -0.99332104487E+03  0.99465961388E+03  0.50400001928E-02 0.  1.
</event>
<event>
 5   0  0.3299104E-03  0.1301348E+04  0.7818609E-02  0.9028497E-01
       -2   -1    0    0    0  501  0.00000000000E+00  0.00000000000E+00  0.43917271107E+03  0.43917271108E+03  0.25500000920E-02 0.  1.
        2   -1    0    0  501    0  0.00000000000E+00  0.00000000000E+00 -0.96403215781E+03  0.96403215781E+03  0.25500000920E-02 0. -1.
    10030    2    1    2    0    0  0.00000000000E+00  0.00000000000E+00 -0.52485944674E+03  0.14032048689E+04  0.13013479417E+04 0.  0.
        2    1    3    3  502    0 -0.30048674442E+03 -0.36876260846E+03 -0.74113617593E+03  0.88065939855E+03  0.25500000920E-02 0. -1.
       -2    1    3    3    0  502  0.30048674442E+03  0.36876260846E+03  0.21627672920E+03  0.52254547034E+03  0.25500000920E-02 0.  1.
</event>
<event>
 5   0  0.3294720E-03  0.1304164E+04  0.7818609E-02  0.9026270E-01
       -2   -1    0    0    0  501  0.00000000000E+00  0.00000000000E+00  0.25576946224E+03  0.25576946225E+03  0.25500000920E-02 0.  1.
        2   -1    0    0  501    0  0.00000000000E+00  0.00000000000E+00 -0.16624761130E+04  0.16624761130E+04  0.25500000920E-02 0. -1.
    10030    2    1    2    0    0  0.00000000000E+00  0.00000000000E+00 -0.14067066508E+04  0.19182455753E+04  0.13041635195E+04 0.  0.
        5    1    3    3  502    0 -0.22901363015E+03 -0.25993048819E+03  0.10919343463E+03  0.36325803178E+03  0.46999998093E+01 0.  1.
       -5    1    3    3    0  502  0.22901363015E+03  0.25993048819E+03 -0.15159000854E+04  0.15549875435E+04  0.46999998093E+01 0. -1.
</event>
<event>
 5   0  0.1803959E-03  0.1260031E+04  0.7818609E-02  0.9061875E-01
       -1   -1    0    0    0  501  0.00000000000E+00  0.00000000000E+00  0.48300763102E+03  0.48300763105E+03  0.50400001928E-02 0. -1.
        1   -1    0    0  501    0  0.00000000000E+00  0.00000000000E+00 -0.82176702491E+03  0.82176702493E+03  0.50400001928E-02 0.  1.
    10030    2    1    2    0    0  0.00000000000E+00  0.00000000000E+00 -0.33875939389E+03  0.13047746560E+04  0.12600313393E+04 0.  0.
        4    1    3    3  502    0  0.59443465919E+03  0.13873864591E+03 -0.33085665088E+03  0.69431168235E+03  0.12699999809E+01 0. -1.
       -4    1    3    3    0  502 -0.59443465919E+03 -0.13873864591E+03 -0.79027430035E+01  0.61046297362E+03  0.12699999809E+01 0.  1.
</event>
<event>
 5   0  0.3336609E-03  0.1264774E+04  0.7818609E-02  0.9057976E-01
       -2   -1    0    0    0  501  0.00000000000E+00  0.00000000000E+00  0.26456966496E+03  0.26456966497E+03  0.25500000920E-02 0. -1.
        2   -1    0    0  501    0  0.00000000000E+00  0.00000000000E+00 -0.15115611758E+04  0.15115611758E+04  0.25500000920E-02 0.  1.
    10030    2    1    2    0    0  0.00000000000E+00  0.00000000000E+00 -0.12469915108E+04  0.17761308408E+04  0.12647738673E+04 0.  0.
        1    1    3    3  502    0  0.17460743736E+03  0.49736381403E+03 -0.11141090912E+04  0.12325167698E+04  0.50400001928E-02 0.  1.
       -1    1    3    3    0  502 -0.17460743736E+03 -0.49736381403E+03 -0.13288241962E+03  0.54361407097E+03  0.50400001928E-02 0. -1.
</event>
<event>
 5   0  0.1857986E-03  0.1308861E+04  0.7818609E-02  0.9022567E-01
       -1   -1    0    0    0  501  0.00000000000E+00  0.00000000000E+00  0.41075516858E+03  0.41075516861E+03  0.50400001928E-02 0.  1.
        1   -1    0    0  501    0  0.00000000000E+00  0.00000000000E+00 -0.10426635851E+04  0.10426635851E+04  0.50400001928E-02 0. -1.
    10030    2    1    2    0    0  0.00000000000E+00  0.00000000000E+00 -0.63190841649E+03  0.14534187537E+04  0.13088612710E+04 0.  0.
        1    1    3    3  502    0  0.16760352582E+03 -0.53853894921E+03  0.52613779546E+02  0.56646566666E+03  0.50400001928E-02 0.  1.
       -1    1    3    3    0  502 -0.16760352582E+03  0.53853894921E+03 -0.68452219604E+03  0.88695308702E+03  0.50400001928E-02 0. -1.
</event>
<event>
 5   0  0.1254125E-03  0.1320841E+04  0.7818609E-02  0.9013200E-01
        4   -1    0    0  501    0  0.00000000000E+00  0.00000000000E+00  0.95275790378E+03  0.95275875022E+03  0.12699999809E+01 0.  1.
       -4   -1    0    0    0  501  0.00000000000E+00  0.00000000000E+00 -0.45777955396E+03  0.45778131562E+03  0.12699999809E+01 0. -1.
    10030    2    1    2    0    0  0.00000000000E+00  0.00000000000E+00  0.49497834982E+03  0.14105400658E+04  0.13208405318E+04 0.  0.
        5    1    3    3  502    0  0.25762309225E+03 -0.33134828650E+03  0.79198919912E+03  0.89634275037E+03  0.46999998093E+01 0.  1.
       -5    1    3    3    0  502 -0.25762309225E+03  0.33134828650E+03 -0.29701084931E+03  0.51419731546E+03  0.46999998093E+01 0. -1.
</event>
<event>
 5   0  0.1857986E-03  0.1297890E+04  0.7818609E-02  0.9031240E-01
        1   -1    0    0  501    0  0.00000000000E+00  0.00000000000E+00  0.71925710402E+03  0.71925710403E+03  0.50400001928E-02 0. -1.
       -1   -1    0    0    0  501  0.00000000000E+00  0.00000000000E+00 -0.58550654942E+03  0.58550654944E+03  0.50400001928E-02 0.  1.
    10030    2    1    2    0    0  0.00000000000E+00  0.00000000000E+00  0.13375055460E+03  0.13047636535E+04  0.12978902036E+04 0.  0.
        1    1    3    3  502    0 -0.96271208622E+02  0.55318960555E+03 -0.26018264886E+03  0.61885531112E+03  0.50400001928E-02 0.  1.
       -1    1    3    3    0  502  0.96271208622E+02 -0.55318960555E+03  0.39393320346E+03  0.68590834236E+03  0.50400001928E-02 0. -1.
</event>
<event>
 5   0  0.1814770E-03  0.1297132E+04  0.7818609E-02  0.9031842E-01
        1   -1    0    0  501    0  0.00000000000E+00  0.00000000000E+00  0.33374382103E+03  0.33374382107E+03  0.50400001928E-02 0.  1.
       -1   -1    0    0    0  501  0.00000000000E+00  0.00000000000E+00 -0.12603619886E+04  0.12603619886E+04  0.50400001928E-02 0. -1.
    10030    2    1    2    0    0  0.00000000000E+00  0.00000000000E+00 -0.92661816761E+03  0.15941058097E+04  0.12971322616E+04 0.  0.
        5    1    3    3  502    0  0.62108047973E+03 -0.10766175861E+03 -0.27578332671E+03  0.68804836302E+03  0.46999998093E+01 0.  1.
       -5    1    3    3    0  502 -0.62108047973E+03  0.10766175861E+03 -0.65083484090E+03  0.90605744668E+03  0.46999998093E+01 0. -1.
</event>
<event>
 5   0  0.1823154E-03  0.1294994E+04  0.7818609E-02  0.9033544E-01
        1   -1    0    0  501    0  0.00000000000E+00  0.00000000000E+00  0.58120173249E+03  0.58120173251E+03  0.50400001928E-02 0.  1.
       -1   -1    0    0    0  501  0.00000000000E+00  0.00000000000E+00 -0.72135435531E+03  0.72135435532E+03  0.50400001928E-02 0. -1.
    10030    2    1    2    0    0  0.00000000000E+00  0.00000000000E+00 -0.14015262281E+03  0.13025560878E+04  0.12949940557E+04 0.  0.
        2    1    3    3  502    0 -0.46977312115E+03  0.29576784279E+02 -0.51729703504E+03  0.69939816556E+03  0.25500000920E-02 0. -1.
       -2    1    3    3    0  502  0.46977312115E+03 -0.29576784279E+02  0.37714441223E+03  0.60315792227E+03  0.25500000920E-02 0.  1.
</event>
<event>
 5   0  0.3336609E-03  0.1330871E+04  0.7818609E-02  0.9005436E-01
       -2   -1    0    0    0  501  0.00000000000E+00  0.00000000000E+00  0.25435743767E+03  0.25435743769E+03  0.25500000920E-02 0. -1.
        2   -1    0    0  501    0  0.00000000000E+00  0.00000000000E+00 -0.17408738097E+04  0.17408738097E+04  0.25500000920E-02 0.  1.
    10030    2    1    2    0    0  0.00000000000E+00  0.00000000000E+00 -0.14865163721E+04  0.19952312474E+04  0.13308706948E+04 0.  0.
        1    1    3    3  502    0  0.53473333677E+03 -0.20712496229E+03 -0.12493632294E+04  0.13746814069E+04  0.50400001928E-02 0.  1.
       -1    1    3    3    0  502 -0.53473333677E+03  0.20712496229E+03 -0.23715314262E+03  0.62054984050E+03  0.50400001928E-02 0. -1.
</event>
<event>
 5   0  0.3262927E-03  0.1306055E+04  0.7818609E-02  0.9024777E-01
       -2   -1    0    0    0  501  0.00000000000E+00  0.00000000000E+00  0.69122635519E+03  0.69122635519E+03  0.25500000920E-02 0. -1.
        2   -1    0    0  501    0  0.00000000000E+00  0.00000000000E+00 -0.61693931411E+03  0.61693931412E+03  0.25500000920E-02 0.  1.
    10030    2    1    2    0    0  0.00000000000E+00  0.00000000000E+00  0.74287041076E+02  0.13081656693E+04  0.13060546902E+04 0.  0.
        3    1    3    3  502    0 -0.20308542062E+03 -0.41334774902E+03 -0.42657849211E+03  0.62774936863E+03  0.10100000352E+00 0.  1.
       -3    1    3    3    0  502  0.20308542062E+03  0.41334774902E+03  0.50086553318E+03  0.68041630067E+03  0.10100000352E+00 0. -1.
</event>
<event>
 5   0  0.1857986E-03  0.1321736E+04  0.7818609E-02  0.9012503E-01
        1   -1    0    0  501    0  0.00000000000E+00  0.00000000000E+00  0.12513794306E+04  0.12513794306E+04  0.50400001928E-02 0. -1.
       -1   -1    0    0    0  501  0.00000000000E+00  0.00000000000E+00 -0.34901229307E+03  0.34901229311E+03  0.50400001928E-02 0.  1.
    10030    2    1    2    0    0  0.00000000000E+00  0.00000000000E+00  0.90236713751E+03  0.16003917237E+04  0.13217364406E+04 0.  0.
        1    1    3    3  502    0 -0.44219712664E+03 -0.49102879104E+03  0.43912189433E+03  0.79339499025E+03  0.50400001928E-02 0. -1.
       -1    1    3    3    0  502  0.44219712664E+03  0.49102879104E+03  0.46324524318E+03  0.80699673345E+03  0.50400001928E-02 0.  1.
</event>
<event>
 5   0  0.1823154E-03  0.1228201E+04  0.7818609E-02  0.9088525E-01
        1   -1    0    0  501    0  0.00000000000E+00  0.00000000000E+00  0.33165213339E+03  0.33165213343E+03  0.50400001928E-02 0.  1.
       -1   -1    0    0    0  501  0.00000000000E+00  0.00000000000E+00 -0.11370926358E+04  0.11370926358E+04  0.50400001928E-02 0. -1.
    10030    2    1    2    0    0  0.00000000000E+00  0.00000000000E+00 -0.80544050239E+03  0.14687447692E+04  0.12282006327E+04 0.  0.
        2    1    3    3  502    0  0.55254334117E+03 -0.16720237932E+03 -0.65316014008E+03  0.87171035793E+03  0.25500000920E-02 0. -1.
       -2    1    3    3    0  502 -0.55254334117E+03  0.16720237932E+03 -0.15228036231E+03  0.59703441130E+03  0.25500000920E-02 0.  1.
</event>
<event>
 5   0  0.1254125E-03  0.1330068E+04  0.7818609E-02  0.9006055E-01
        3   -1    0    0  501    0  0.00000000000E+00  0.00000000000E+00  0.53103955952E+03  0.53103956912E+03  0.10100000352E+00 0.  1.
       -3   -1    0    0    0  501  0.00000000000E+00  0.00000000000E+00 -0.83283815520E+03  0.83283816133E+03  0.10100000352E+00 0. -1.
    10030    2    1    2    0    0  0.00000000000E+00  0.00000000000E+00 -0.30179859568E+03  0.13638777304E+04  0.13300676942E+04 0.  0.
        1    1    3    3  502    0  0.45486696209E+03  0.46469239460E+03 -0.79753368419E+01  0.65031267927E+03  0.50400001928E-02 0.  1.
       -1    1    3    3    0  502 -0.45486696209E+03 -0.46469239460E+03 -0.29382325884E+03  0.71356505118E+03  0.50400001928E-02 0. -1.
</event>
<event>
 5   0  0.1803959E-03  0.1300443E+04  0.7818609E-02  0.9029214E-01
       -1   -1    0    0    0  501  0.00000000000E+00  0.00000000000E+00  0.79912883402E+03  0.79912883404E+03  0.50400001928E-02 0. -1.
        1   -1    0    0  501    0  0.00000000000E+00  0.00000000000E+00 -0.52906103366E+03  0.52906103368E+03  0.50400001928E-02 0.  1.
    10030    2    1    2    0    0  0.00000000000E+00  0.00000000000E+00  0.27006780036E+03  0.13281898677E+04  0.13004428891E+04 0.  0.
        4    1    3    3  502    0 -0.26525390547E+03 -0.45989074462E+03  0.51844639662E+03  0.74205620436E+03  0.12699999809E+01 0. -1.
       -4    1    3    3    0  502  0.26525390547E+03  0.45989074462E+03 -0.24837859626E+03  0.58613366337E+03  0.12699999809E+01 0.  1.
</event>
<event>
 5   0  0.1823154E-03  0.8056300E+03  0.7818609E-02  0.9551903E-01
       -1   -1    0    0    0  501  0.00000000000E+00  0.00000000000E+00  0.99660126817E+02  0.99660126944E+02  0.50400001928E-02 0. -1.
        1   -1    0    0  501    0  0.00000000000E+00  0.00000000000E+00 -0.16281329462E+04  0.16281329462E+04  0.50400001928E-02 0.  1.
    10030    2    1    2    0    0  0.00000000000E+00  0.00000000000E+00 -0.15284728194E+04  0.17277930732E+04  0.80563002926E+03 0.  0.
        2    1    3    3  502    0  0.20060189129E+03 -0.13389709438E+03 -0.14561651831E+04  0.14760035878E+04  0.25500000920E-02 0.  1.
       -2    1    3    3    0  502 -0.20060189129E+03  0.13389709438E+03 -0.72307636284E+02  0.25178948537E+03  0.25500000920E-02 0. -1.
</event>
<event>
 5   0  0.1873488E-03  0.1273337E+04  0.7818609E-02  0.9050981E-01
        1   -1    0    0  501    0  0.00000000000E+00  0.00000000000E+00  0.80052456201E+03  0.80052456202E+03  0.50400001928E-02 0.  1.
       -1   -1    0    0    0  501  0.00000000000E+00  0.00000000000E+00 -0.50635118362E+03  0.50635118364E+03  0.50400001928E-02 0. -1.
    10030    2    1    2    0    0  0.00000000000E+00  0.00000000000E+00  0.29417337839E+03  0.13068757457E+04  0.12733366554E+04 0.  0.
        3    1    3    3  502    0 -0.71857955905E+02 -0.52185401713E+03 -0.21989445201E+03  0.57083164002E+03  0.10100000352E+00 0. -1.
       -3    1    3    3    0  502  0.71857955905E+02  0.52185401713E+03  0.51406783039E+03  0.73604410565E+03  0.10100000352E+00 0.  1.
</event>
<event>
 5   0  0.3336609E-03  0.1312197E+04  0.7818609E-02  0.9019949E-01
        2   -1    0    0  501    0  0.00000000000E+00  0.00000000000E+00  0.28530473841E+03  0.28530473842E+03  0.25500000920E-02 0. -1.
       -2   -1    0    0    0  501  0.00000000000E+00  0.00000000000E+00 -0.15087906237E+04  0.15087906237E+04  0.25500000920E-02 0.  1.
    10030    2    1    2    0    0  0.00000000000E+00  0.00000000000E+00 -0.12234858853E+04  0.17940953621E+04  0.13121968057E+04 0.  0.
        1    1    3    3  502    0 -0.63585619762E+03  0.14811143595E+03 -0.52297707741E+03  0.83651367295E+03  0.50400001928E-02 0. -1.
       -1    1    3    3    0  502  0.63585619762E+03 -0.14811143595E+03 -0.70050880790E+03  0.95758168919E+03  0.50400001928E-02 0.  1.
</event>
<event>
 5   0  0.1814770E-03  0.1295918E+04  0.7818609E-02  0.9032809E-01
        1   -1    0    0  501    0  0.00000000000E+00  0.00000000000E+00  0.11419703795E+04  0.11419703795E+04  0.50400001928E-02 0.  1.
       -1   -1    0    0    0  501  0.00000000000E+00  0.00000000000E+00 -0.36765457353E+03  0.36765457356E+03  0.50400001928E-02 0. -1.
    10030    2    1    2    0    0  0.00000000000E+00  0.00000000000E+00  0.77431580596E+03  0.15096249531E+04  0.12959176407E+04 0.  0.
        5    1    3    3  502    0  0.22074539957E+03  0.12081252086E+03  0.10827010540E+04  0.11115699973E+04  0.46999998093E+01 0.  1.
       -5    1    3    3    0  502 -0.22074539957E+03 -0.12081252086E+03 -0.30838524800E+03  0.39805495577E+03  0.46999998093E+01 0. -1.
</event>
<event>
 5   0  0.3299104E-03  0.1296228E+04  0.7818609E-02  0.9032561E-01
       -2   -1    0    0    0  501  0.00000000000E+00  0.00000000000E+00  0.76928826310E+03  0.76928826311E+03  0.25500000920E-02 0.  1.
        2   -1    0    0  501    0  0.00000000000E+00  0.00000000000E+00 -0.54602683240E+03  0.54602683240E+03  0.25500000920E-02 0. -1.
    10030    2    1    2    0    0  0.00000000000E+00  0.00000000000E+00  0.22326143071E+03  0.13153150955E+04  0.12962284266E+04 0.  0.
        2    1    3    3  502    0  0.19897011336E+03  0.23610530113E+02  0.73707126761E+03  0.76381975406E+03  0.25500000920E-02 0.  1.
       -2    1    3    3    0  502 -0.19897011336E+03 -0.23610530113E+02 -0.51380983690E+03  0.55149534146E+03  0.25500000920E-02 0. -1.
</event>
<event>
 5   0  0.1823154E-03  0.1283946E+04  0.7818609E-02  0.9042394E-01
        1   -1    0    0  501    0  0.00000000000E+00  0.00000000000E+00  0.11705671765E+04  0.11705671765E+04  0.50400001928E-02 0. -1.
       -1   -1    0    0    0  501  0.00000000000E+00  0.00000000000E+00 -0.35207648073E+03  0.35207648077E+03  0.50400001928E-02 0.  1.
    10030    2    1    2    0    0  0.00000000000E+00  0.00000000000E+00  0.81849069579E+03  0.15226436573E+04  0.12839457496E+04 0.  0.
        2    1    3    3  502    0  0.36881772570E+03 -0.52425564003E+03  0.45131892724E+03  0.78393830432E+03  0.25500000920E-02 0.  1.
       -2    1    3    3    0  502 -0.36881772570E+03  0.52425564003E+03  0.36717176854E+03  0.73870535297E+03  0.25500000920E-02 0. -1.
</event>
<event>
 5   0  0.3262927E-03  0.1328099E+04  0.7818609E-02  0.9007574E-01
       -2   -1    0    0    0  501  0.00000000000E+00  0.00000000000E+00  0.13370928161E+04  0.13370928161E+04  0.25500000920E-02 0.  1.
        2   -1    0    0  501    0  0.00000000000E+00  0.00000000000E+00 -0.32979153072E+03  0.32979153073E+03  0.25500000920E-02 0. -1.
    10030    2    1    2    0    0  0.00000000000E+00  0.00000000000E+00  0.10073012853E+04  0.16668843468E+04  0.13280992230E+04 0.  0.
        3    1    3    3  502    0 -0.40666449022E+03 -0.30765757625E+03  0.10375181129E+04  0.11560592704E+04  0.10100000352E+00 0.  1.
       -3    1    3    3    0  502  0.40666449022E+03  0.30765757625E+03 -0.30216827547E+02  0.51082507642E+03  0.10100000352E+00 0. -1.
</event>
<event>
 5   0  0.1857986E-03  0.1362592E+04  0.7818609E-02  0.8981350E-01
       -1   -1    0    0    0  501  0.00000000000E+00  0.00000000000E+00  0.96179578736E+03  0.96179578737E+03  0.50400001928E-02 0.  1.
        1   -1    0    0  501    0  0.00000000000E+00  0.00000000000E+00 -0.48260188987E+03  0.48260188990E+03  0.50400001928E-02 0. -1.
    10030    2    1    2    0    0  0.00000000000E+00  0.00000000000E+00  0.47919389749E+03  0.14443976773E+04  0.13625923303E+04 0.  0.
        1    1    3    3  502    0  0.19159832646E+03 -0.35783946677E+03  0.81962727488E+03  0.91462991009E+03  0.50400001928E-02 0.  1.
       -1    1    3    3    0  502 -0.19159832646E+03  0.35783946677E+03 -0.34043337739E+03  0.52976776718E+03  0.50400001928E-02 0. -1.
</event>
<event>
 5   0  0.3262927E-03  0.1312648E+04  0.7818609E-02  0.9019595E-01
       -2   -1    0    0    0  501  0.00000000000E+00  0.00000000000E+00  0.15573641288E+03  0.15573641290E+03  0.25500000920E-02 0.  1.
        2   -1    0    0  501    0  0.00000000000E+00  0.00000000000E+00 -0.27659633761E+04  0.27659633761E+04  0.25500000920E-02 0. -1.
    10030    2    1    2    0    0  0.00000000000E+00  0.00000000000E+00 -0.26102269632E+04  0.29216997890E+04  0.13126480326E+04 0.  0.
        3    1    3    3  502    0 -0.49469151601E+03  0.22583084450E+03 -0.21230538221E+04  0.21915922996E+04  0.10100000352E+00 0.  1.
       -3    1    3    3    0  502  0.49469151601E+03 -0.22583084450E+03 -0.48717314119E+03  0.73010748937E+03  0.10100000352E+00 0. -1.
</event>
<event>
 5   0  0.1873488E-03  0.1041564E+04  0.7818609E-02  0.9264097E-01
       -1   -1    0    0    0  501  0.00000000000E+00  0.00000000000E+00  0.20943841086E+03  0.20943841092E+03  0.50400001928E-02 0.  1.
        1   -1    0    0  501    0  0.00000000000E+00  0.00000000000E+00 -0.12949587134E+04  0.12949587134E+04  0.50400001928E-02 0. -1.
    10030    2    1    2    0    0  0.00000000000E+00  0.00000000000E+00 -0.10855203025E+04  0.15043971243E+04  0.10415643909E+04 0.  0.
        3    1    3    3  502    0  0.14234516505E+01  0.26218563884E+03 -0.11926765811E+04  0.12211555072E+04  0.10100000352E+00 0. -1.
       -3    1    3    3    0  502 -0.14234516505E+01 -0.26218563884E+03  0.10715627858E+03  0.28324161712E+03  0.10100000352E+00 0.  1.
</event>
<event>
 5   0  0.1814770E-03  0.1416065E+04  0.7818609E-02  0.8942271E-01
       -1   -1    0    0    0  501  0.00000000000E+00  0.00000000000E+00  0.34652045193E+03  0.34652045196E+03  0.50400001928E-02 0.  1.
        1   -1    0    0  501    0  0.00000000000E+00  0.00000000000E+00 -0.14466962120E+04  0.14466962120E+04  0.50400001928E-02 0. -1.
    10030    2    1    2    0    0  0.00000000000E+00  0.00000000000E+00 -0.11001757601E+04  0.17932166640E+04  0.14160647234E+04 0.  0.
        5    1    3    3  502    0 -0.48906244200E+03  0.49572536321E+03 -0.71207042533E+03  0.99598799618E+03  0.46999998093E+01 0. -1.
       -5    1    3    3    0  502  0.48906244200E+03 -0.49572536321E+03 -0.38810533475E+03  0.79722866780E+03  0.46999998093E+01 0.  1.
</event>
<event>
 5   0  0.1873488E-03  0.1318733E+04  0.7818609E-02  0.9014840E-01
        1   -1    0    0  501    0  0.00000000000E+00  0.00000000000E+00  0.74384583673E+03  0.74384583675E+03  0.50400001928E-02 0.  1.
       -1   -1    0    0    0  501  0.00000000000E+00  0.00000000000E+00 -0.58448138668E+03  0.58448138670E+03  0.50400001928E-02 0. -1.
    10030    2    1    2    0    0  0.00000000000E+00  0.00000000000E+00  0.15936445005E+03  0.13283272235E+04  0.13187327950E+04 0.  0.
        3    1    3    3  502    0  0.59096378224E+03 -0.65738074481E+02 -0.20735479521E+03  0.62972669282E+03  0.10100000352E+00 0. -1.
       -3    1    3    3    0  502 -0.59096378224E+03  0.65738074481E+02  0.36671924526E+03  0.69860053063E+03  0.10100000352E+00 0.  1.
</event>
<event>
 5   0  0.3294720E-03  0.1304704E+04  0.7818609E-02  0.9025843E-01
        2   -1    0    0  501    0  0.00000000000E+00  0.00000000000E+00  0.13172779564E+04  0.13172779564E+04  0.25500000920E-02 0.  1.
       -2   -1    0    0    0  501  0.00000000000E+00  0.00000000000E+00 -0.32306263223E+03  0.32306263225E+03  0.25500000920E-02 0. -1.
    10030    2    1    2    0    0  0.00000000000E+00  0.00000000000E+00  0.99421532413E+03  0.16403405886E+04  0.13047042331E+04 0.  0.
        5    1    3    3  502    0 -0.30729613705E+03 -0.29307018956E+03 -0.12547931150E+03  0.44281847236E+03  0.46999998093E+01 0. -1.
       -5    1    3    3    0  502  0.30729613705E+03  0.29307018956E+03  0.11196946356E+04  0.11975221163E+04  0.46999998093E+01 0.  1.
</event>
<event>
 5   0  0.3336609E-03  0.1325394E+04  0.7818609E-02  0.9009666E-01
        2   -1    0    0  501    0  0.00000000000E+00  0.00000000000E+00  0.69232422556E+03  0.69232422556E+03  0.25500000920E-02 0. -1.
       -2   -1    0    0    0  501  0.00000000000E+00  0.00000000000E+00 -0.63433763330E+03  0.63433763331E+03  0.25500000920E-02 0.  1.
    10030    2    1    2    0    0  0.00000000000E+00  0.00000000000E+00  0.57986592255E+02  0.13266618589E+04  0.13253939953E+04 0.  0.
        1    1    3    3  502    0 -0.16131879511E+03  0.64053280620E+03  0.82535410477E+02  0.66567118270E+03  0.50400001928E-02 0. -1.
       -1    1    3    3    0  502  0.16131879511E+03 -0.64053280620E+03 -0.24548818222E+02  0.66099067616E+03  0.50400001928E-02 0.  1.
</event>
<event>
 5   0  0.3336609E-03  0.1267460E+04  0.7818609E-02  0.9055775E-01
        2   -1    0    0  501    0  0.00000000000E+00  0.00000000000E+00  0.10258097148E+04  0.10258097148E+04  0.25500000920E-02 0. -1.
       -2   -1    0    0    0  501  0.00000000000E+00  0.00000000000E+00 -0.39150883297E+03  0.39150883298E+03  0.25500000920E-02 0.  1.
    10030    2    1    2    0    0  0.00000000000E+00  0.00000000000E+00  0.63430088179E+03  0.14173185477E+04  0.12674597655E+04 0.  0.
        1    1    3    3  502    0 -0.28617184591E+03 -0.13022086947E+03  0.93244603056E+03  0.98402611762E+03  0.50400001928E-02 0. -1.
       -1    1    3    3    0  502  0.28617184591E+03  0.13022086947E+03 -0.29814514876E+03  0.43329243012E+03  0.50400001928E-02 0.  1.
</event>
<event>
 5   0  0.1823154E-03  0.1298334E+04  0.7818609E-02  0.9030887E-01
        1   -1    0    0  501    0  0.00000000000E+00  0.00000000000E+00  0.89387302252E+03  0.89387302254E+03  0.50400001928E-02 0. -1.
       -1   -1    0    0    0  501  0.00000000000E+00  0.00000000000E+00 -0.47145153293E+03  0.47145153296E+03  0.50400001928E-02 0.  1.
    10030    2    1    2    0    0  0.00000000000E+00  0.00000000000E+00  0.42242148959E+03  0.13653245555E+04  0.12983340198E+04 0.  0.
        2    1    3    3  502    0 -0.53165925231E+03  0.24929317719E+03  0.50227562630E+03  0.77271563562E+03  0.25500000920E-02 0. -1.
       -2    1    3    3    0  502  0.53165925231E+03 -0.24929317719E+03 -0.79854136707E+02  0.59260891987E+03  0.25500000920E-02 0.  1.
</event>
<event>
 5   0  0.1254125E-03  0.8956578E+03  0.7818609E-02  0.9431026E-01
        4   -1    0    0  501    0  0.00000000000E+00  0.00000000000E+00  0.16338291196E+03  0.16338784783E+03  0.12699999809E+01 0. -1.
       -4   -1    0    0    0  501  0.00000000000E+00  0.00000000000E+00 -0.12274651198E+04  0.12274657768E+04  0.12699999809E+01 0.  1.
    10030    2    1    2    0    0  0.00000000000E+00  0.00000000000E+00 -0.10640822078E+04  0.13908536246E+04  0.89565778068E+03 0.  0.
        4    1    3    3  502    0  0.28826033349E+03 -0.11738888382E+03 -0.32033966625E+02  0.31289288555E+03  0.12699999809E+01 0. -1.
       -4    1    3    3    0  502 -0.28826033349E+03  0.11738888382E+03 -0.10320482412E+04  0.10779607390E+04  0.12699999809E+01 0.  1.
</event>
<event>
 5   0  0.3299104E-03  0.1297368E+04  0.7818609E-02  0.9031655E-01
        2   -1    0    0  501    0  0.00000000000E+00  0.00000000000E+00  0.94624769273E+03  0.94624769273E+03  0.25500000920E-02 0. -1.
       -2   -1    0    0    0  501  0.00000000000E+00  0.00000000000E+00 -0.44469458151E+03  0.44469458152E+03  0.25500000920E-02 0.  1.
    10030    2    1    2    0    0  0.00000000000E+00  0.00000000000E+00  0.50155311122E+03  0.13909422742E+04  0.12973684469E+04 0.  0.
        2    1    3    3  502    0  0.30310261294E+03  0.53348876905E+03  0.25095305250E+02  0.61409383243E+03  0.25500000920E-02 0. -1.
       -2    1    3    3    0  502 -0.30310261294E+03 -0.53348876905E+03  0.47645780597E+03  0.77684844182E+03  0.25500000920E-02 0.  1.
</event>
<event>
 5   0  0.1814770E-03  0.1225037E+04  0.7818609E-02  0.9091220E-01
        1   -1    0    0  501    0  0.00000000000E+00  0.00000000000E+00  0.42204818072E+03  0.42204818075E+03  0.50400001928E-02 0.  1.
       -1   -1    0    0    0  501  0.00000000000E+00  0.00000000000E+00 -0.88894813123E+03  0.88894813125E+03  0.50400001928E-02 0. -1.
    10030    2    1    2    0    0  0.00000000000E+00  0.00000000000E+00 -0.46689995052E+03  0.13109963120E+04  0.12250370469E+04 0.  0.
        5    1    3    3  502    0 -0.55169380460E+03 -0.26484416334E+03 -0.26069972955E+03  0.66520291932E+03  0.46999998093E+01 0. -1.
       -5    1    3    3    0  502  0.55169380460E+03  0.26484416334E+03 -0.20620022097E+03  0.64579339267E+03  0.46999998093E+01 0.  1.
</event>
<event>
 5   0  0.1803959E-03  0.1223680E+04  0.7818609E-02  0.9092379E-01
       -1   -1    0    0    0  501  0.00000000000E+00  0.00000000000E+00  0.31018315221E+03  0.31018315225E+03  0.50400001928E-02 0.  1.
        1   -1    0    0  501    0  0.00000000000E+00  0.00000000000E+00 -0.12068608005E+04  0.12068608005E+04  0.50400001928E-02 0. -1.
    10030    2    1    2    0    0  0.00000000000E+00  0.00000000000E+00 -0.89667764832E+03  0.15170439528E+04  0.12236795127E+04 0.  0.
        4    1    3    3  502    0  0.45573096413E+03  0.21902586607E+03 -0.21243163950E+02  0.50607897268E+03  0.12699999809E+01 0. -1.
       -4    1    3    3    0  502 -0.45573096413E+03 -0.21902586607E+03 -0.87543448437E+03  0.10109649801E+04  0.12699999809E+01 0.  1.
</event>
<event>
 5   0  0.1873488E-03  0.1262683E+04  0.7818609E-02  0.9059693E-01
       -1   -1    0    0    0  501  0.00000000000E+00  0.00000000000E+00  0.56478770490E+03  0.56478770493E+03  0.50400001928E-02 0.  1.
        1   -1    0    0  501    0  0.00000000000E+00  0.00000000000E+00 -0.70573821142E+03  0.70573821144E+03  0.50400001928E-02 0. -1.
    10030    2    1    2    0    0  0.00000000000E+00  0.00000000000E+00 -0.14095050652E+03  0.12705259164E+04  0.12626832773E+04 0.  0.
        3    1    3    3  502    0  0.51696707085E+03  0.14489920459E+03 -0.40471537889E+03  0.67234312664E+03  0.10100000352E+00 0. -1.
       -3    1    3    3    0  502 -0.51696707085E+03 -0.14489920459E+03  0.26376487237E+03  0.59818278973E+03  0.10100000352E+00 0.  1.
</event>
<event>
 5   0  0.1814770E-03  0.1322466E+04  0.7818609E-02  0.9011936E-01
       -1   -1    0    0    0  501  0.00000000000E+00  0.00000000000E+00  0.39495635211E+03  0.39495635214E+03  0.50400001928E-02 0.  1.
        1   -1    0    0  501    0  0.00000000000E+00  0.00000000000E+00 -0.11070319155E+04  0.11070319155E+04  0.50400001928E-02 0. -1.
    10030    2    1    2    0    0  0.00000000000E+00  0.00000000000E+00 -0.71207556338E+03  0.15019882676E+04  0.13224663127E+04 0.  0.
        5    1    3    3  502    0  0.15905249459E+03 -0.54736468446E+03 -0.73664280307E+03  0.93143464781E+03  0.46999998093E+01 0. -1.
       -5    1    3    3    0  502 -0.15905249459E+03  0.54736468446E+03  0.24567239692E+02  0.57055361983E+03  0.46999998093E+01 0.  1.
</event>
<event>
 5   0  0.3299104E-03  0.1327347E+04  0.7818609E-02  0.9008155E-01
        2   -1    0    0  501    0  0.00000000000E+00  0.00000000000E+00  0.74121445991E+03  0.74121445991E+03  0.25500000920E-02 0.  1.
       -2   -1    0    0    0  501  0.00000000000E+00  0.00000000000E+00 -0.59424464323E+03  0.59424464324E+03  0.25500000920E-02 0. -1.
    10030    2    1    2    0    0  0.00000000000E+00  0.00000000000E+00  0.14696981667E+03  0.13354591032E+04  0.13273473129E+04 0.  0.
        2    1    3    3  502    0  0.11113357808E+03  0.65391819577E+03  0.50919212737E+02  0.66524615382E+03  0.25500000920E-02 0. -1.
       -2    1    3    3    0  502 -0.11113357808E+03 -0.65391819577E+03  0.96050603935E+02  0.67021294934E+03  0.25500000920E-02 0.  1.
</event>
<event>
 5   0  0.3299104E-03  0.1277998E+04  0.7818609E-02  0.9047197E-01
        2   -1    0    0  501    0  0.00000000000E+00  0.00000000000E+00  0.22114238734E+04  0.22114238734E+04  0.25500000920E-02 0. -1.
       -2   -1    0    0    0  501  0.00000000000E+00  0.00000000000E+00 -0.18464101434E+03  0.18464101436E+03  0.25500000920E-02 0.  1.
    10030    2    1    2    0    0  0.00000000000E+00  0.00000000000E+00  0.20267828591E+04  0.23960648878E+04  0.12779977264E+04 0.  0.
        2    1    3    3  502    0 -0.30149764534E+02  0.15661753452E+02  0.22097292862E+04  0.22099904563E+04  0.25500000920E-02 0. -1.
       -2    1    3    3    0  502  0.30149764534E+02 -0.15661753452E+02 -0.18294642713E+03  0.18607443142E+03  0.25500000920E-02 0.  1.
</event>
<event>
 5   0  0.1803959E-03  0.1329540E+04  0.7818609E-02  0.9006462E-01
        1   -1    0    0  501    0  0.00000000000E+00  0.00000000000E+00  0.84666870778E+03  0.84666870780E+03  0.50400001928E-02 0.  1.
       -1   -1    0    0    0  501  0.00000000000E+00  0.00000000000E+00 -0.52195076424E+03  0.52195076426E+03  0.50400001928E-02 0. -1.
    10030    2    1    2    0    0  0.00000000000E+00  0.00000000000E+00  0.32471794354E+03  0.13686194721E+04  0.13295403403E+04 0.  0.
        4    1    3    3  502    0  0.77835526378E+02  0.44063072959E+03 -0.34372557454E+03  0.56423638000E+03  0.12699999809E+01 0. -1.
       -4    1    3    3    0  502 -0.77835526378E+02 -0.44063072959E+03  0.66844351809E+03  0.80438309206E+03  0.12699999809E+01 0.  1.
</event>
<event>
 5   0  0.1857986E-03  0.1268390E+04  0.7818609E-02  0.9055015E-01
        1   -1    0    0  501    0  0.00000000000E+00  0.00000000000E+00  0.10006534006E+04  0.10006534006E+04  0.50400001928E-02 0.  1.
       -1   -1    0    0    0  501  0.00000000000E+00  0.00000000000E+00 -0.40194077369E+03  0.40194077372E+03  0.50400001928E-02 0. -1.
    10030    2    1    2    0    0  0.00000000000E+00  0.00000000000E+00  0.59871262689E+03  0.14025941743E+04  0.12683901640E+04 0.  0.
        1    1    3    3  502    0 -0.39042722298E+03 -0.49430167685E+03  0.21782725787E+03  0.66649552023E+03  0.50400001928E-02 0. -1.
       -1    1    3    3    0  502  0.39042722298E+03  0.49430167685E+03  0.38088536902E+03  0.73609865409E+03  0.50400001928E-02 0.  1.
</event>
<event>
 5   0  0.1857986E-03  0.1212694E+04  0.7818609E-02  0.9101818E-01
        1   -1    0    0  501    0  0.00000000000E+00  0.00000000000E+00  0.41790881381E+03  0.41790881384E+03  0.50400001928E-02 0.  1.
       -1   -1    0    0    0  501  0.00000000000E+00  0.00000000000E+00 -0.87975305364E+03  0.87975305365E+03  0.50400001928E-02 0. -1.
    10030    2    1    2    0    0  0.00000000000E+00  0.00000000000E+00 -0.46184423983E+03  0.12976618675E+04  0.12126937868E+04 0.  0.
        1    1    3    3  502    0  0.17004117781E+03 -0.50196762943E+03 -0.54613054833E+03  0.76101516344E+03  0.50400001928E-02 0. -1.
       -1    1    3    3    0  502 -0.17004117781E+03  0.50196762943E+03  0.84286308498E+02  0.53664670405E+03  0.50400001928E-02 0.  1.
</event>
<event>
 5   0  0.1254125E-03  0.1326442E+04  0.7818609E-02  0.9008856E-01
        3   -1    0    0  501    0  0.00000000000E+00  0.00000000000E+00  0.45461111433E+03  0.45461112555E+03  0.10100000352E+00 0. -1.
       -3   -1    0    0    0  501  0.00000000000E+00  0.00000000000E+00 -0.96755609255E+03  0.96755609782E+03  0.10100000352E+00 0.  1.
    10030    2    1    2    0    0  0.00000000000E+00  0.00000000000E+00 -0.51294497822E+03  0.14221672234E+04  0.13264415029E+04 0.  0.
        3    1    3    3  502    0  0.32636876096E+03 -0.16735614801E+03 -0.84892337898E+03  0.92476784221E+03  0.10100000352E+00 0.  1.
       -3    1    3    3    0  502 -0.32636876096E+03  0.16735614801E+03  0.33597840075E+03  0.49739938116E+03  0.10100000352E+00 0. -1.
</event>
<event>
 5   0  0.1814770E-03  0.1390715E+04  0.7818609E-02  0.8960567E-01
       -1   -1    0    0    0  501  0.00000000000E+00  0.00000000000E+00  0.88724531716E+03  0.88724531718E+03  0.50400001928E-02 0.  1.
        1   -1    0    0  501    0  0.00000000000E+00  0.00000000000E+00 -0.54496976339E+03  0.54496976342E+03  0.50400001928E-02 0. -1.
    10030    2    1    2    0    0  0.00000000000E+00  0.00000000000E+00  0.34227555377E+03  0.14322150806E+04  0.13907147380E+04 0.  0.
        5    1    3    3  502    0 -0.66559841364E+03 -0.63069559038E+02  0.36789068364E+03  0.76312820851E+03  0.46999998093E+01 0. -1.
       -5    1    3    3    0  502  0.66559841364E+03  0.63069559038E+02 -0.25615129872E+02  0.66908687208E+03  0.46999998093E+01 0.  1.
</event>
<event>
 5   0  0.3259968E-03  0.1324312E+04  0.7818609E-02  0.9010505E-01
        2   -1    0    0  501    0  0.00000000000E+00  0.00000000000E+00  0.14345623532E+04  0.14345623532E+04  0.25500000920E-02 0. -1.
       -2   -1    0    0    0  501  0.00000000000E+00  0.00000000000E+00 -0.30563359404E+03  0.30563359405E+03  0.25500000920E-02 0.  1.
    10030    2    1    2    0    0  0.00000000000E+00  0.00000000000E+00  0.11289287592E+04  0.17401959473E+04  0.13243118181E+04 0.  0.
        4    1    3    3  502    0  0.12826260517E+03  0.12260701754E+03 -0.27381051469E+03  0.32627838956E+03  0.12699999809E+01 0.  1.
       -4    1    3    3    0  502 -0.12826260517E+03 -0.12260701754E+03  0.14027392739E+04  0.14139175577E+04  0.12699999809E+01 0. -1.
</event>
<event>
 5   0  0.3262927E-03  0.1614183E+04  0.7818609E-02  0.8811882E-01
        2   -1    0    0  501    0  0.00000000000E+00  0.00000000000E+00  0.18380863311E+04  0.18380863311E+04  0.25500000920E-02 0. -1.
       -2   -1    0    0    0  501  0.00000000000E+00  0.00000000000E+00 -0.35438872069E+03  0.35438872070E+03  0.25500000920E-02 0.  1.
    10030    2    1    2    0    0  0.00000000000E+00  0.00000000000E+00  0.14836976105E+04  0.21924750518E+04  0.16141834635E+04 0.  0.
        3    1    3    3  502    0 -0.80513792872E+03 -0.20382422924E+02  0.67082191850E+03  0.10481720202E+04  0.10100000352E+00 0.  1.
       -3    1    3    3    0  502  0.80513792872E+03  0.20382422924E+02  0.81287569196E+03  0.11443030316E+04  0.10100000352E+00 0. -1.
</event>
<event>
 5   0  0.3336609E-03  0.1301874E+04  0.7818609E-02  0.9028080E-01
       -2   -1    0    0    0  501  0.00000000000E+00  0.00000000000E+00  0.33973111496E+03  0.33973111497E+03  0.25500000920E-02 0.  1.
        2   -1    0    0  501    0  0.00000000000E+00  0.00000000000E+00 -0.12472190921E+04  0.12472190921E+04  0.25500000920E-02 0. -1.
    10030    2    1    2    0    0  0.00000000000E+00  0.00000000000E+00 -0.90748797717E+03  0.15869502071E+04  0.13018742378E+04 0.  0.
        1    1    3    3  502    0  0.29467351463E+03  0.58041561991E+03 -0.45119849586E+03  0.79201947877E+03  0.50400001928E-02 0. -1.
       -1    1    3    3    0  502 -0.29467351463E+03 -0.58041561991E+03 -0.45628948131E+03  0.79493072833E+03  0.50400001928E-02 0.  1.
</event>
<event>
 5   0  0.3262927E-03  0.1249587E+04  0.7818609E-02  0.9070527E-01
        2   -1    0    0  501    0  0.00000000000E+00  0.00000000000E+00  0.55150691549E+03  0.55150691550E+03  0.25500000920E-02 0.  1.
       -2   -1    0    0    0  501  0.00000000000E+00  0.00000000000E+00 -0.70781871599E+03  0.70781871599E+03  0.25500000920E-02 0. -1.
    10030    2    1    2    0    0  0.00000000000E+00  0.00000000000E+00 -0.15631180050E+03  0.12593256315E+04  0.12495869986E+04 0.  0.
        3    1    3    3  502    0  0.40519894060E+03  0.17483434099E+02  0.40081119668E+03  0.57021178304E+03  0.10100000352E+00 0. -1.
       -3    1    3    3    0  502 -0.40519894060E+03 -0.17483434099E+02 -0.55712299718E+03  0.68911384845E+03  0.10100000352E+00 0.  1.
</event>
<event>
 5   0  0.3294720E-03  0.1310739E+04  0.7818609E-02  0.9021092E-01
       -2   -1    0    0    0  501  0.00000000000E+00  0.00000000000E+00  0.13672304705E+04  0.13672304705E+04  0.25500000920E-02 0.  1.
        2   -1    0    0  501    0  0.00000000000E+00  0.00000000000E+00 -0.31414525143E+03  0.31414525144E+03  0.25500000920E-02 0. -1.
    10030    2    1    2    0    0  0.00000000000E+00  0.00000000000E+00  0.10530852191E+04  0.16813757219E+04  0.13107386619E+04 0.  0.
        5    1    3    3  502    0 -0.56052519267E+03 -0.10498372177E+03  0.94077351939E+03  0.11001304369E+04  0.46999998093E+01 0.  1.
       -5    1    3    3    0  502  0.56052519267E+03  0.10498372177E+03  0.11231169968E+03  0.58124528501E+03  0.46999998093E+01 0. -1.
</event>
<event>
 5   0  0.1254125E-03  0.1322854E+04  0.7818609E-02  0.9011636E-01
       -4   -1    0    0    0  501  0.00000000000E+00  0.00000000000E+00  0.20782809638E+03  0.20783197671E+03  0.12699999809E+01 0. -1.
        4   -1    0    0  501    0  0.00000000000E+00  0.00000000000E+00 -0.21050124619E+04  0.21050128451E+04  0.12699999809E+01 0.  1.
    10030    2    1    2    0    0  0.00000000000E+00  0.00000000000E+00 -0.18971843656E+04  0.23128448218E+04  0.13228539801E+04 0.  0.
        2    1    3    3  502    0  0.25953475215E+03  0.33289931054E+03 -0.58283952936E+02  0.42611883050E+03  0.25500000920E-02 0. -1.
       -2    1    3    3    0  502 -0.25953475215E+03 -0.33289931054E+03 -0.18389004126E+04  0.18867259913E+04  0.25500000920E-02 0.  1.
</event>
<event>
 5   0  0.1857986E-03  0.1316314E+04  0.7818609E-02  0.9016727E-01
        1   -1    0    0  501    0  0.00000000000E+00  0.00000000000E+00  0.12161404665E+04  0.12161404665E+04  0.50400001928E-02 0. -1.
       -1   -1    0    0    0  501  0.00000000000E+00  0.00000000000E+00 -0.35618447220E+03  0.35618447224E+03  0.50400001928E-02 0.  1.
    10030    2    1    2    0    0  0.00000000000E+00  0.00000000000E+00  0.85995599425E+03  0.15723249387E+04  0.13163135648E+04 0.  0.
        1    1    3    3  502    0  0.49632811551E+03  0.26194887181E+03  0.19289173228E+02  0.56154330369E+03  0.50400001928E-02 0.  1.
       -1    1    3    3    0  502 -0.49632811551E+03 -0.26194887181E+03  0.84066682103E+03  0.10107816350E+04  0.50400001928E-02 0. -1.
</event>
<event>
 5   0  0.3336609E-03  0.1307571E+04  0.7818609E-02  0.9023583E-01
       -2   -1    0    0    0  501  0.00000000000E+00  0.00000000000E+00  0.37436575442E+03  0.37436575442E+03  0.25500000920E-02 0.  1.
        2   -1    0    0  501    0  0.00000000000E+00  0.00000000000E+00 -0.11417595439E+04  0.11417595439E+04  0.25500000920E-02 0. -1.
    10030    2    1    2    0    0  0.00000000000E+00  0.00000000000E+00 -0.76739378948E+03  0.15161252983E+04  0.13075712952E+04 0.  0.
        1    1    3    3  502    0  0.40513875680E+03 -0.40965401810E+03 -0.74198312727E+03  0.93941087282E+03  0.50400001928E-02 0. -1.
       -1    1    3    3    0  502 -0.40513875680E+03  0.40965401810E+03 -0.25410662216E+02  0.57671442550E+03  0.50400001928E-02 0.  1.
</event>
<event>
 5   0  0.1873488E-03  0.1260511E+04  0.7818609E-02  0.9061480E-01
        1   -1    0    0  501    0  0.00000000000E+00  0.00000000000E+00  0.44624098492E+03  0.44624098495E+03  0.50400001928E-02 0. -1.
       -1   -1    0    0    0  501  0.00000000000E+00  0.00000000000E+00 -0.89015108172E+03  0.89015108173E+03  0.50400001928E-02 0.  1.
    10030    2    1    2    0    0  0.00000000000E+00  0.00000000000E+00 -0.44391009680E+03  0.13363920667E+04  0.12605108416E+04 0.  0.
        3    1    3    3  502    0 -0.33973098432E+03 -0.31282123417E+03 -0.67666492642E+03  0.81923726667E+03  0.10100000352E+00 0.  1.
       -3    1    3    3    0  502  0.33973098432E+03  0.31282123417E+03  0.23275482962E+03  0.51715480001E+03  0.10100000352E+00 0. -1.
</event>
<event>
 5   0  0.1823154E-03  0.1282653E+04  0.7818609E-02  0.9043436E-01
        1   -1    0    0  501    0  0.00000000000E+00  0.00000000000E+00  0.43842864088E+03  0.43842864091E+03  0.50400001928E-02 0. -1.
       -1   -1    0    0    0  501  0.00000000000E+00  0.00000000000E+00 -0.93812168184E+03  0.93812168185E+03  0.50400001928E-02 0.  1.
    10030    2    1    2    0    0  0.00000000000E+00  0.00000000000E+00 -0.49969304096E+03  0.13765503228E+04  0.12826525858E+04 0.  0.
        2    1    3    3  502    0  0.60198754362E+03  0.20448826433E+03 -0.15944867924E+03  0.65546039868E+03  0.25500000920E-02 0. -1.
       -2    1    3    3    0  502 -0.60198754362E+03 -0.20448826433E+03 -0.34024436172E+03  0.72108992408E+03  0.25500000920E-02 0.  1.
</event>
<event>
 5   0  0.1803959E-03  0.1315528E+04  0.7818609E-02  0.9017341E-01
        1   -1    0    0  501    0  0.00000000000E+00  0.00000000000E+00  0.46336274889E+03  0.46336274892E+03  0.50400001928E-02 0. -1.
       -1   -1    0    0    0  501  0.00000000000E+00  0.00000000000E+00 -0.93372465816E+03  0.93372465817E+03  0.50400001928E-02 0.  1.
    10030    2    1    2    0    0  0.00000000000E+00  0.00000000000E+00 -0.47036190927E+03  0.13970874071E+04  0.13155276118E+04 0.  0.
        4    1    3    3  502    0  0.28582841960E+03  0.17831049269E+03  0.36478584985E+03  0.49655095046E+03  0.12699999809E+01 0. -1.
       -4    1    3    3    0  502 -0.28582841960E+03 -0.17831049269E+03 -0.83514775912E+03  0.90053645663E+03  0.12699999809E+01 0.  1.
</event>
<event>
 5   0  0.3259968E-03  0.1288681E+04  0.7818609E-02  0.9038590E-01
        2   -1    0    0  501    0  0.00000000000E+00  0.00000000000E+00  0.60455027655E+03  0.60455027656E+03  0.25500000920E-02 0. -1.
       -2   -1    0    0    0  501  0.00000000000E+00  0.00000000000E+00 -0.68674929023E+03  0.68674929023E+03  0.25500000920E-02 0.  1.
    10030    2    1    2    0    0  0.00000000000E+00  0.00000000000E+00 -0.82199013675E+02  0.12912995668E+04  0.12886806794E+04 0.  0.
        4    1    3    3  502    0 -0.16491375986E+03 -0.35807594618E+03 -0.55179978513E+03  0.67815893947E+03  0.12699999809E+01 0.  1.
       -4    1    3    3    0  502  0.16491375986E+03  0.35807594618E+03  0.46960077145E+03  0.61314062732E+03  0.12699999809E+01 0. -1.
</event>
<event>
 5   0  0.1814770E-03  0.1311332E+04  0.7818609E-02  0.9020627E-01
       -1   -1    0    0    0  501  0.00000000000E+00  0.00000000000E+00  0.12025609365E+04  0.12025609365E+04  0.50400001928E-02 0. -1.
        1   -1    0    0  501    0  0.00000000000E+00  0.00000000000E+00 -0.35748523386E+03  0.35748523390E+03  0.50400001928E-02 0.  1.
    10030    2    1    2    0    0  0.00000000000E+00  0.00000000000E+00  0.84507570259E+03  0.15600461704E+04  0.13113318080E+04 0.  0.
        5    1    3    3  502    0 -0.24779303392E+03 -0.37343628792E+03  0.99186411495E+03  0.10884266449E+04  0.46999998093E+01 0. -1.
       -5    1    3    3    0  502  0.24779303392E+03  0.37343628792E+03 -0.14678841236E+03  0.47161952546E+03  0.46999998093E+01 0.  1.
</event>
<event>
 5   0  0.1814770E-03  0.1287495E+04  0.7818609E-02  0.9039541E-01
       -1   -1    0    0    0  501  0.00000000000E+00  0.00000000000E+00  0.19746892798E+03  0.19746892804E+03  0.50400001928E-02 0.  1.
        1   -1    0    0  501    0  0.00000000000E+00  0.00000000000E+00 -0.20986140284E+04  0.20986140284E+04  0.50400001928E-02 0. -1.
    10030    2    1    2    0    0  0.00000000000E+00  0.00000000000E+00 -0.19011451004E+04  0.22960829564E+04  0.12874953398E+04 0.  0.
        5    1    3    3  502    0  0.33269530700E+03 -0.13384421798E+03  0.28036514871E+01  0.35865079457E+03  0.46999998093E+01 0.  1.
       -5    1    3    3    0  502 -0.33269530700E+03  0.13384421798E+03 -0.19039487519E+04  0.19374321619E+04  0.46999998093E+01 0. -1.
</event>
<event>
 5   0  0.1814770E-03  0.1269352E+04  0.7818609E-02  0.9054229E-01
        1   -1    0    0  501    0  0.00000000000E+00  0.00000000000E+00  0.37328820157E+03  0.37328820160E+03  0.50400001928E-02 0. -1.
       -1   -1    0    0    0  501  0.00000000000E+00  0.00000000000E+00 -0.10790950702E+04  0.10790950702E+04  0.50400001928E-02 0.  1.
    10030    2    1    2    0    0  0.00000000000E+00  0.00000000000E+00 -0.70580686866E+03  0.14523832718E+04  0.12693517371E+04 0.  0.
        5    1    3    3  502    0  0.38653809398E+03  0.19081133424E+03 -0.88586980464E+03  0.98519442962E+03  0.46999998093E+01 0.  1.
       -5    1    3    3    0  502 -0.38653809398E+03 -0.19081133424E+03  0.18006293599E+03  0.46718884222E+03  0.46999998093E+01 0. -1.
</event>
<event>
 5   0  0.3294720E-03  0.1382043E+04  0.7818609E-02  0.8966920E-01
        2   -1    0    0  501    0  0.00000000000E+00  0.00000000000E+00  0.46967318097E+03  0.46967318097E+03  0.25500000920E-02 0. -1.
       -2   -1    0    0    0  501  0.00000000000E+00  0.00000000000E+00 -0.10166874162E+04  0.10166874162E+04  0.25500000920E-02 0.  1.
    10030    2    1    2    0    0  0.00000000000E+00  0.00000000000E+00 -0.54701423518E+03  0.14863605971E+04  0.13820431438E+04 0.  0.
        5    1    3    3  502    0  0.49785478381E+03  0.45673485914E+03 -0.42944292496E+03  0.80056819392E+03  0.46999998093E+01 0.  1.
       -5    1    3    3    0  502 -0.49785478381E+03 -0.45673485914E+03 -0.11757131023E+03  0.68579240321E+03  0.46999998093E+01 0. -1.
</event>
<event>
 5   0  0.3336609E-03  0.1434830E+04  0.7818609E-02  0.8928985E-01
        2   -1    0    0  501    0  0.00000000000E+00  0.00000000000E+00  0.22753905831E+04  0.22753905831E+04  0.25500000920E-02 0. -1.
       -2   -1    0    0    0  501  0.00000000000E+00  0.00000000000E+00 -0.22619614024E+03  0.22619614026E+03  0.25500000920E-02 0.  1.
    10030    2    1    2    0    0  0.00000000000E+00  0.00000000000E+00  0.20491944429E+04  0.25015867234E+04  0.14348303976E+04 0.  0.
        1    1    3    3  502    0  0.22189475458E+03 -0.50901275393E+03  0.18165890586E+04  0.18995597052E+04  0.50400001928E-02 0. -1.
       -1    1    3    3    0  502 -0.22189475458E+03  0.50901275393E+03  0.23260538424E+03  0.60202701814E+03  0.50400001928E-02 0.  1.
</event>
<event>
 5   0  0.1823154E-03  0.1307733E+04  0.7818609E-02  0.9023456E-01
       -1   -1    0    0    0  501  0.00000000000E+00  0.00000000000E+00  0.48057229712E+03  0.48057229714E+03  0.50400001928E-02 0.  1.
        1   -1    0    0  501    0  0.00000000000E+00  0.00000000000E+00 -0.88964998421E+03  0.88964998422E+03  0.50400001928E-02 0. -1.
    10030    2    1    2    0    0  0.00000000000E+00  0.00000000000E+00 -0.40907768709E+03  0.13702222814E+04  0.13077325974E+04 0.  0.
        2    1    3    3  502    0 -0.63821006087E+02  0.54704991684E+03  0.16472822094E+03  0.57486704473E+03  0.25500000920E-02 0.  1.
       -2    1    3    3    0  502  0.63821006087E+02 -0.54704991684E+03 -0.57380590803E+03  0.79535523663E+03  0.25500000920E-02 0. -1.
</event>
<event>
 5   0  0.1254125E-03  0.1055968E+04  0.7818609E-02  0.9249204E-01
       -4   -1    0    0    0  501  0.00000000000E+00  0.00000000000E+00  0.30823528738E+03  0.30823790372E+03  0.12699999809E+01 0. -1.
        4   -1    0    0  501    0  0.00000000000E+00  0.00000000000E+00 -0.90439039485E+03  0.90439128656E+03  0.12699999809E+01 0.  1.
    10030    2    1    2    0    0  0.00000000000E+00  0.00000000000E+00 -0.59615510747E+03  0.12126291903E+04  0.10559681060E+04 0.  0.
        2    1    3    3  502    0 -0.27660980887E+03 -0.37415352603E+03 -0.58462288005E+03  0.74718656257E+03  0.25500000920E-02 0.  1.
       -2    1    3    3    0  502  0.27660980887E+03  0.37415352603E+03 -0.11532227420E+02  0.46544262770E+03  0.25500000920E-02 0. -1.
</event>
<event>
 5   0  0.3336609E-03  0.1313954E+04  0.7818609E-02  0.9018572E-01
        2   -1    0    0  501    0  0.00000000000E+00  0.00000000000E+00  0.59992072439E+03  0.59992072440E+03  0.25500000920E-02 0. -1.
       -2   -1    0    0    0  501  0.00000000000E+00  0.00000000000E+00 -0.71945931233E+03  0.71945931233E+03  0.25500000920E-02 0.  1.
    10030    2    1    2    0    0  0.00000000000E+00  0.00000000000E+00 -0.11953858793E+03  0.13193800367E+04  0.13139536549E+04 0.  0.
        1    1    3    3  502    0  0.10845542500E+03 -0.22857346956E+03  0.54904326586E+03  0.60453032844E+03  0.50400001928E-02 0. -1.
       -1    1    3    3    0  502 -0.10845542500E+03  0.22857346956E+03 -0.66858185379E+03  0.71484970829E+03  0.50400001928E-02 0.  1.
</event>
<event>
 5   0  0.1254125E-03  0.1330982E+04  0.7818609E-02  0.9005351E-01
       -3   -1    0    0    0  501  0.00000000000E+00  0.00000000000E+00  0.27415055416E+03  0.27415057277E+03  0.10100000352E+00 0. -1.
        3   -1    0    0  501    0  0.00000000000E+00  0.00000000000E+00 -0.16154557797E+04  0.16154557829E+04  0.10100000352E+00 0.  1.
    10030    2    1    2    0    0  0.00000000000E+00  0.00000000000E+00 -0.13413052256E+04  0.18896063557E+04  0.13309817697E+04 0.  0.
        4    1    3    3  502    0 -0.18440911171E+03 -0.14590139167E+02  0.23691430877E+03  0.30058209401E+03  0.12699999809E+01 0. -1.
       -4    1    3    3    0  502  0.18440911171E+03  0.14590139167E+02 -0.15782195343E+04  0.15890242616E+04  0.12699999809E+01 0.  1.
</event>
<event>
 5   0  0.3336609E-03  0.1229695E+04  0.7818609E-02  0.9087254E-01
       -2   -1    0    0    0  501  0.00000000000E+00  0.00000000000E+00  0.29785827647E+03  0.29785827649E+03  0.25500000920E-02 0. -1.
        2   -1    0    0  501    0  0.00000000000E+00  0.00000000000E+00 -0.12691858571E+04  0.12691858571E+04  0.25500000920E-02 0.  1.
    10030    2    1    2    0    0  0.00000000000E+00  0.00000000000E+00 -0.97132758067E+03  0.15670441336E+04  0.12296951036E+04 0.  0.
        1    1    3    3  502    0  0.43010138702E+03 -0.32803694089E+03 -0.85815812821E+03  0.10144115589E+04  0.50400001928E-02 0. -1.
       -1    1    3    3    0  502 -0.43010138702E+03  0.32803694089E+03 -0.11316945245E+03  0.55263257477E+03  0.50400001928E-02 0.  1.
</event>
<event>
 5   0  0.3262927E-03  0.1339730E+04  0.7818609E-02  0.8998639E-01
       -2   -1    0    0    0  501  0.00000000000E+00  0.00000000000E+00  0.55123707806E+03  0.55123707807E+03  0.25500000920E-02 0.  1.
        2   -1    0    0  501    0  0.00000000000E+00  0.00000000000E+00 -0.81402155572E+03  0.81402155573E+03  0.25500000920E-02 0. -1.
    10030    2    1    2    0    0  0.00000000000E+00  0.00000000000E+00 -0.26278447766E+03  0.13652586338E+04  0.13397296203E+04 0.  0.
        3    1    3    3  502    0 -0.28294849629E+03  0.31808892336E+03  0.39564604372E+03  0.58118518290E+03  0.10100000352E+00 0.  1.
       -3    1    3    3    0  502  0.28294849629E+03 -0.31808892336E+03 -0.65843052138E+03  0.78407345089E+03  0.10100000352E+00 0. -1.
</event>
<event>
 5   0  0.1803959E-03  0.1301807E+04  0.7818609E-02  0.9028134E-01
       -1   -1    0    0    0  501  0.00000000000E+00  0.00000000000E+00  0.26011611116E+03  0.26011611121E+03  0.50400001928E-02 0. -1.
        1   -1    0    0  501    0  0.00000000000E+00  0.00000000000E+00 -0.16287927328E+04  0.16287927328E+04  0.50400001928E-02 0.  1.
    10030    2    1    2    0    0  0.00000000000E+00  0.00000000000E+00 -0.13686766217E+04  0.18889088440E+04  0.13018067930E+04 0.  0.
        4    1    3    3  502    0  0.58976735693E+03  0.27175207238E+03 -0.74921062770E+03  0.99145998492E+03  0.12699999809E+01 0. -1.
       -4    1    3    3    0  502 -0.58976735693E+03 -0.27175207238E+03 -0.61946599396E+03  0.89744885911E+03  0.12699999809E+01 0.  1.
</event>
<event>
 5   0  0.1803959E-03  0.1312493E+04  0.7818609E-02  0.9019717E-01
       -1   -1    0    0    0  501  0.00000000000E+00  0.00000000000E+00  0.23551318876E+03  0.23551318881E+03  0.50400001928E-02 0. -1.
        1   -1    0    0  501    0  0.00000000000E+00  0.00000000000E+00 -0.18285990779E+04  0.18285990779E+04  0.50400001928E-02 0.  1.
    10030    2    1    2    0    0  0.00000000000E+00  0.00000000000E+00 -0.15930858891E+04  0.20641122667E+04  0.13124925902E+04 0.  0.
        4    1    3    3  502    0  0.14700918581E+03 -0.52342528813E+03 -0.21855486042E+03  0.58596379827E+03  0.12699999809E+01 0. -1.
       -4    1    3    3    0  502 -0.14700918581E+03  0.52342528813E+03 -0.13745310287E+04  0.14781484684E+04  0.12699999809E+01 0.  1.
</event>
<event>
 5   0  0.1857986E-03  0.1294310E+04  0.7818609E-02  0.9034090E-01
       -1   -1    0    0    0  501  0.00000000000E+00  0.00000000000E+00  0.17091420614E+04  0.17091420614E+04  0.50400001928E-02 0.  1.
        1   -1    0    0  501    0  0.00000000000E+00  0.00000000000E+00 -0.24504067859E+03  0.24504067864E+03  0.50400001928E-02 0. -1.
    10030    2    1    2    0    0  0.00000000000E+00  0.00000000000E+00  0.14641013828E+04  0.19541827401E+04  0.12943095929E+04 0.  0.
        1    1    3    3  502    0 -0.20925758298E+03 -0.22217401724E+03  0.15936567538E+04  0.16226188335E+04  0.50400001928E-02 0.  1.
       -1    1    3    3    0  502  0.20925758298E+03  0.22217401724E+03 -0.12955537094E+03  0.33156390656E+03  0.50400001928E-02 0. -1.
</event>
<event>
 5   0  0.3294720E-03  0.1265827E+04  0.7818609E-02  0.9057112E-01
       -2   -1    0    0    0  501  0.00000000000E+00  0.00000000000E+00  0.20702914327E+03  0.20702914329E+03  0.25500000920E-02 0. -1.
        2   -1    0    0  501    0  0.00000000000E+00  0.00000000000E+00 -0.19348941767E+04  0.19348941767E+04  0.25500000920E-02 0.  1.
    10030    2    1    2    0    0  0.00000000000E+00  0.00000000000E+00 -0.17278650334E+04  0.21419233200E+04  0.12658269767E+04 0.  0.
        5    1    3    3  502    0 -0.58382157238E+03  0.16819809897E+03 -0.56399769388E+03  0.82900767039E+03  0.46999998093E+01 0. -1.
       -5    1    3    3    0  502  0.58382157238E+03 -0.16819809897E+03 -0.11638673395E+04  0.13129156496E+04  0.46999998093E+01 0.  1.
</event>
<event>
 5   0  0.1857986E-03  0.8912048E+03  0.7818609E-02  0.9436643E-01
       -1   -1    0    0    0  501  0.00000000000E+00  0.00000000000E+00  0.12825319464E+03  0.12825319474E+03  0.50400001928E-02 0.  1.
        1   -1    0    0  501    0  0.00000000000E+00  0.00000000000E+00 -0.15481991687E+04  0.15481991687E+04  0.50400001928E-02 0. -1.
    10030    2    1    2    0    0  0.00000000000E+00  0.00000000000E+00 -0.14199459741E+04  0.16764523635E+04  0.89120477875E+03 0.  0.
        1    1    3    3  502    0 -0.23239416631E+03  0.28596536159E+03 -0.23865032359E+03  0.43901846606E+03  0.50400001928E-02 0.  1.
       -1    1    3    3    0  502  0.23239416631E+03 -0.28596536159E+03 -0.11812956505E+04  0.12374338974E+04  0.50400001928E-02 0. -1.
</event>
<event>
 5   0  0.1254125E-03  0.1312712E+04  0.7818609E-02  0.9019545E-01
       -3   -1    0    0    0  501  0.00000000000E+00  0.00000000000E+00  0.14529549753E+04  0.14529549788E+04  0.10100000352E+00 0.  1.
        3   -1    0    0  501    0  0.00000000000E+00  0.00000000000E+00 -0.29650136858E+03  0.29650138578E+03  0.10100000352E+00 0. -1.
    10030    2    1    2    0    0  0.00000000000E+00  0.00000000000E+00  0.11564536067E+04  0.17494563645E+04  0.13127119361E+04 0.  0.
        1    1    3    3  502    0  0.50350646242E+02 -0.18098504419E+03  0.14163613135E+04  0.14287652516E+04  0.50400001928E-02 0.  1.
       -1    1    3    3    0  502 -0.50350646242E+02  0.18098504419E+03 -0.25990770685E+03  0.32069111291E+03  0.50400001928E-02 0. -1.
</event>
<event>
 5   0  0.3294720E-03  0.1070310E+04  0.7818609E-02  0.9234623E-01
       -2   -1    0    0    0  501  0.00000000000E+00  0.00000000000E+00  0.38050057854E+03  0.38050057854E+03  0.25500000920E-02 0.  1.
        2   -1    0    0  501    0  0.00000000000E+00  0.00000000000E+00 -0.75266815988E+03  0.75266815988E+03  0.25500000920E-02 0. -1.
    10030    2    1    2    0    0  0.00000000000E+00  0.00000000000E+00 -0.37216758134E+03  0.11331687384E+04  0.10703096193E+04 0.  0.
        5    1    3    3  502    0 -0.60468044314E+02  0.47423771952E+03  0.68475865416E+02  0.48297912288E+03  0.46999998093E+01 0.  1.
       -5    1    3    3    0  502  0.60468044314E+02 -0.47423771952E+03 -0.44064344676E+03  0.65018961555E+03  0.46999998093E+01 0. -1.
</event>
<event>
 5   0  0.3336609E-03  0.1307022E+04  0.7818609E-02  0.9024015E-01
       -2   -1    0    0    0  501  0.00000000000E+00  0.00000000000E+00  0.29913663239E+03  0.29913663241E+03  0.25500000920E-02 0. -1.
        2   -1    0    0  501    0  0.00000000000E+00  0.00000000000E+00 -0.14276969267E+04  0.14276969267E+04  0.25500000920E-02 0.  1.
    10030    2    1    2    0    0  0.00000000000E+00  0.00000000000E+00 -0.11285602943E+04  0.17268335591E+04  0.13070217301E+04 0.  0.
        1    1    3    3  502    0  0.14088021495E+03  0.60170851985E+03 -0.28346410779E+03  0.67989137239E+03  0.50400001928E-02 0. -1.
       -1    1    3    3    0  502 -0.14088021495E+03 -0.60170851985E+03 -0.84509618649E+03  0.10469421867E+04  0.50400001928E-02 0.  1.
</event>
<event>
 5   0  0.3259968E-03  0.1322557E+04  0.7818609E-02  0.9011866E-01
        2   -1    0    0  501    0  0.00000000000E+00  0.00000000000E+00  0.76225309687E+03  0.76225309687E+03  0.25500000920E-02 0.  1.
       -2   -1    0    0    0  501  0.00000000000E+00  0.00000000000E+00 -0.57368027614E+03  0.57368027614E+03  0.25500000920E-02 0. -1.
    10030    2    1    2    0    0  0.00000000000E+00  0.00000000000E+00  0.18857282073E+03  0.13359333730E+04  0.13225574726E+04 0.  0.
        4    1    3    3  502    0  0.44962974642E+03  0.16359900884E+03 -0.36679082241E+03  0.60288362464E+03  0.12699999809E+01 0. -1.
       -4    1    3    3    0  502 -0.44962974642E+03 -0.16359900884E+03  0.55536364314E+03  0.73304974837E+03  0.12699999809E+01 0.  1.
</event>
<event>
 5   0  0.3294720E-03  0.1329076E+04  0.7818609E-02  0.9006820E-01
        2   -1    0    0  501    0  0.00000000000E+00  0.00000000000E+00  0.15687311759E+04  0.15687311759E+04  0.25500000920E-02 0.  1.
       -2   -1    0    0    0  501  0.00000000000E+00  0.00000000000E+00 -0.28150822871E+03  0.28150822872E+03  0.25500000920E-02 0. -1.
    10030    2    1    2    0    0  0.00000000000E+00  0.00000000000E+00  0.12872229472E+04  0.18502394046E+04  0.13290759717E+04 0.  0.
        5    1    3    3  502    0  0.65932345064E+03 -0.39501436420E+02  0.54206393832E+03  0.85447245671E+03  0.46999998093E+01 0.  1.
       -5    1    3    3    0  502 -0.65932345064E+03  0.39501436420E+02  0.74515900884E+03  0.99576694788E+03  0.46999998093E+01 0. -1.
</event>
<event>
 5   0  0.1803959E-03  0.1319604E+04  0.7818609E-02  0.9014162E-01
       -1   -1    0    0    0  501  0.00000000000E+00  0.00000000000E+00  0.97093145160E+03  0.97093145161E+03  0.50400001928E-02 0. -1.
        1   -1    0    0  501    0  0.00000000000E+00  0.00000000000E+00 -0.44837193916E+03  0.44837193919E+03  0.50400001928E-02 0.  1.
    10030    2    1    2    0    0  0.00000000000E+00  0.00000000000E+00  0.52255951243E+03  0.14193033908E+04  0.13196036038E+04 0.  0.
        4    1    3    3  502    0  0.40021195109E+03 -0.81909442195E+02  0.81855526477E+03  0.91482954527E+03  0.12699999809E+01 0. -1.
       -4    1    3    3    0  502 -0.40021195109E+03  0.81909442195E+02 -0.29599575234E+03  0.50447384553E+03  0.12699999809E+01 0.  1.
</event>
<event>
 5   0  0.3336609E-03  0.1332210E+04  0.7818609E-02  0.9004405E-01
       -2   -1    0    0    0  501  0.00000000000E+00  0.00000000000E+00  0.61750601893E+03  0.61750601893E+03  0.25500000920E-02 0.  1.
        2   -1    0    0  501    0  0.00000000000E+00  0.00000000000E+00 -0.71852874173E+03  0.71852874173E+03  0.25500000920E-02 0. -1.
    10030    2    1    2    0    0  0.00000000000E+00  0.00000000000E+00 -0.10102272280E+03  0.13360347607E+04  0.13322099276E+04 0.  0.
        1    1    3    3  502    0  0.50989281926E+03 -0.42480771818E+03  0.66042199132E+01  0.66369865173E+03  0.50400001928E-02 0.  1.
       -1    1    3    3    0  502 -0.50989281926E+03  0.42480771818E+03 -0.10762694271E+03  0.67233610894E+03  0.50400001928E-02 0. -1.
</event>
<event>
 5   0  0.1803959E-03  0.1276194E+04  0.7818609E-02  0.9048659E-01
       -1   -1    0    0    0  501  0.00000000000E+00  0.00000000000E+00  0.26397449656E+03  0.26397449661E+03  0.50400001928E-02 0. -1.
        1   -1    0    0  501    0  0.00000000000E+00  0.00000000000E+00 -0.15424521123E+04  0.15424521123E+04  0.50400001928E-02 0.  1.
    10030    2    1    2    0    0  0.00000000000E+00  0.00000000000E+00 -0.12784776157E+04  0.18064266089E+04  0.12761943737E+04 0.  0.
        4    1    3    3  502    0  0.13943639493E+03 -0.61814307003E+03 -0.74538128670E+03  0.97833442069E+03  0.12699999809E+01 0.  1.
       -4    1    3    3    0  502 -0.13943639493E+03  0.61814307003E+03 -0.53309632903E+03  0.82809218822E+03  0.12699999809E+01 0. -1.
</event>
<event>
 5   0  0.1823154E-03  0.1301224E+04  0.7818609E-02  0.9028595E-01
       -1   -1    0    0    0  501  0.00000000000E+00  0.00000000000E+00  0.33097970317E+03  0.33097970321E+03  0.50400001928E-02 0.  1.
        1   -1    0    0  501    0  0.00000000000E+00  0.00000000000E+00 -0.12789179823E+04  0.12789179824E+04  0.50400001928E-02 0. -1.
    10030    2    1    2    0    0  0.00000000000E+00  0.00000000000E+00 -0.94793827918E+03  0.16098976856E+04  0.13012238765E+04 0.  0.
        2    1    3    3  502    0 -0.14187049916E+03  0.10424210534E+03 -0.12488887400E+04  0.12612361951E+04  0.25500000920E-02 0. -1.
       -2    1    3    3    0  502  0.14187049916E+03 -0.10424210534E+03  0.30095046080E+03  0.34866149044E+03  0.25500000920E-02 0.  1.
</event>
<event>
 5   0  0.1254125E-03  0.1283818E+04  0.7818609E-02  0.9042497E-01
        4   -1    0    0  501    0  0.00000000000E+00  0.00000000000E+00  0.20124058292E+03  0.20124459027E+03  0.12699999809E+01 0. -1.
       -4   -1    0    0    0  501  0.00000000000E+00  0.00000000000E+00 -0.20475096824E+04  0.20475100762E+04  0.12699999809E+01 0.  1.
    10030    2    1    2    0    0  0.00000000000E+00  0.00000000000E+00 -0.18462690995E+04  0.22487546665E+04  0.12838177295E+04 0.  0.
        3    1    3    3  502    0 -0.31071447574E+03  0.32337614425E+03 -0.17276035055E+04  0.17848611987E+04  0.10100000352E+00 0.  1.
       -3    1    3    3    0  502  0.31071447574E+03 -0.32337614425E+03 -0.11866559392E+03  0.46389346782E+03  0.10100000352E+00 0. -1.
</event>
<event>
 5   0  0.1857986E-03  0.1281139E+04  0.7818609E-02  0.9044657E-01
       -1   -1    0    0    0  501  0.00000000000E+00  0.00000000000E+00  0.50514949418E+03  0.50514949420E+03  0.50400001928E-02 0. -1.
        1   -1    0    0  501    0  0.00000000000E+00  0.00000000000E+00 -0.81229272740E+03  0.81229272742E+03  0.50400001928E-02 0.  1.
    10030    2    1    2    0    0  0.00000000000E+00  0.00000000000E+00 -0.30714323323E+03  0.13174422216E+04  0.12811389626E+04 0.  0.
        1    1    3    3  502    0  0.25452629118E+03  0.53281071635E+03  0.10177573102E+03  0.59919044703E+03  0.50400001928E-02 0. -1.
       -1    1    3    3    0  502 -0.25452629118E+03 -0.53281071635E+03 -0.40891896425E+03  0.71825177459E+03  0.50400001928E-02 0.  1.
</event>
<event>
 5   0  0.1803959E-03  0.1292371E+04  0.7818609E-02  0.9035637E-01
        1   -1    0    0  501    0  0.00000000000E+00  0.00000000000E+00  0.37440936735E+03  0.37440936738E+03  0.50400001928E-02 0.  1.
       -1   -1    0    0    0  501  0.00000000000E+00  0.00000000000E+00 -0.11152389081E+04  0.11152389081E+04  0.50400001928E-02 0. -1.
    10030    2    1    2    0    0  0.00000000000E+00  0.00000000000E+00 -0.74082954071E+03  0.14896482755E+04  0.12923712997E+04 0.  0.
        4    1    3    3  502    0  0.43539517433E+03 -0.43254509701E+03 -0.60349493694E+03  0.86073920010E+03  0.12699999809E+01 0. -1.
       -4    1    3    3    0  502 -0.43539517433E+03  0.43254509701E+03 -0.13733460377E+03  0.62890907536E+03  0.12699999809E+01 0.  1.
</event>
<event>
 5   0  0.3259968E-03  0.1310057E+04  0.7818609E-02  0.9021628E-01
        2   -1    0    0  501    0  0.00000000000E+00  0.00000000000E+00  0.66060012122E+03  0.66060012123E+03  0.25500000920E-02 0.  1.
       -2   -1    0    0    0  501  0.00000000000E+00  0.00000000000E+00 -0.64950348383E+03  0.64950348383E+03  0.25500000920E-02 0. -1.
    10030    2    1    2    0    0  0.00000000000E+00  0.00000000000E+00  0.11096637393E+02  0.13101036051E+04  0.13100566097E+04 0.  0.
        4    1    3    3  502    0 -0.34916324232E+02 -0.60106356704E+03 -0.25246075419E+03  0.65286645389E+03  0.12699999809E+01 0.  1.
       -4    1    3    3    0  502  0.34916324232E+02  0.60106356704E+03  0.26355739158E+03  0.65723715117E+03  0.12699999809E+01 0. -1.
</event>
<event>
 5   0  0.3259968E-03  0.1281034E+04  0.7818609E-02  0.9044742E-01
        2   -1    0    0  501    0  0.00000000000E+00  0.00000000000E+00  0.89288646350E+03  0.89288646351E+03  0.25500000920E-02 0.  1.
       -2   -1    0    0    0  501  0.00000000000E+00  0.00000000000E+00 -0.45947860323E+03  0.45947860323E+03  0.25500000920E-02 0. -1.
    10030    2    1    2    0    0  0.00000000000E+00  0.00000000000E+00  0.43340786028E+03  0.13523650667E+04  0.12810343088E+04 0.  0.
        4    1    3    3  502    0 -0.12303061917E+03  0.24971663013E+03 -0.39227525583E+03  0.48101602661E+03  0.12699999809E+01 0. -1.
       -4    1    3    3    0  502  0.12303061917E+03 -0.24971663013E+03  0.82568311611E+03  0.87134904013E+03  0.12699999809E+01 0.  1.
</event>
<event>
 5   0  0.1873488E-03  0.1316108E+04  0.7818609E-02  0.9016888E-01
        1   -1    0    0  501    0  0.00000000000E+00  0.00000000000E+00  0.82462215213E+03  0.82462215215E+03  0.50400001928E-02 0.  1.
       -1   -1    0    0    0  501  0.00000000000E+00  0.00000000000E+00 -0.52513110195E+03  0.52513110198E+03  0.50400001928E-02 0. -1.
    10030    2    1    2    0    0  0.00000000000E+00  0.00000000000E+00  0.29949105018E+03  0.13497532541E+04  0.13161075024E+04 0.  0.
        3    1    3    3  502    0 -0.61101310637E+03  0.18707938197E+03 -0.11431398237E+02  0.63911376012E+03  0.10100000352E+00 0. -1.
       -3    1    3    3    0  502  0.61101310637E+03 -0.18707938197E+03  0.31092244842E+03  0.71063949401E+03  0.10100000352E+00 0.  1.
</event>
<event>
 5   0  0.3299104E-03  0.1330107E+04  0.7818609E-02  0.9006025E-01
        2   -1    0    0  501    0  0.00000000000E+00  0.00000000000E+00  0.21249478856E+04  0.21249478856E+04  0.25500000920E-02 0.  1.
       -2   -1    0    0    0  501  0.00000000000E+00  0.00000000000E+00 -0.20814444516E+03  0.20814444518E+03  0.25500000920E-02 0. -1.
    10030    2    1    2    0    0  0.00000000000E+00  0.00000000000E+00  0.19168034405E+04  0.23330923308E+04  0.13301069110E+04 0.  0.
        2    1    3    3  502    0  0.27553807525E+03  0.17933319593E+03 -0.55645087683E+02  0.33343365437E+03  0.25500000920E-02 0. -1.
       -2    1    3    3    0  502 -0.27553807525E+03 -0.17933319593E+03  0.19724485282E+04  0.19996586764E+04  0.25500000920E-02 0.  1.
</event>
<event>
 5   0  0.1814770E-03  0.1344465E+04  0.7818609E-02  0.8995029E-01
       -1   -1    0    0    0  501  0.00000000000E+00  0.00000000000E+00  0.49913149096E+03  0.49913149099E+03  0.50400001928E-02 0.  1.
        1   -1    0    0  501    0  0.00000000000E+00  0.00000000000E+00 -0.90536533763E+03  0.90536533765E+03  0.50400001928E-02 0. -1.
    10030    2    1    2    0    0  0.00000000000E+00  0.00000000000E+00 -0.40623384667E+03  0.14044968286E+04  0.13444647275E+04 0.  0.
        5    1    3    3  502    0  0.37590911267E+03 -0.51265113498E+03  0.25170851951E+02  0.63621891591E+03  0.46999998093E+01 0.  1.
       -5    1    3    3    0  502 -0.37590911267E+03  0.51265113498E+03 -0.43140469862E+03  0.76827791272E+03  0.46999998093E+01 0. -1.
</event>
<event>
 5   0  0.3336609E-03  0.1304908E+04  0.7818609E-02  0.9025682E-01
       -2   -1    0    0    0  501  0.00000000000E+00  0.00000000000E+00  0.36072573126E+03  0.36072573127E+03  0.25500000920E-02 0. -1.
        2   -1    0    0  501    0  0.00000000000E+00  0.00000000000E+00 -0.11801109106E+04  0.11801109106E+04  0.25500000920E-02 0.  1.
    10030    2    1    2    0    0  0.00000000000E+00  0.00000000000E+00 -0.81938517931E+03  0.15408366418E+04  0.13049082285E+04 0.  0.
        1    1    3    3  502    0 -0.37899998645E+03 -0.71155295861E+02  0.21176354619E+03  0.43994075213E+03  0.50400001928E-02 0. -1.
       -1    1    3    3    0  502  0.37899998645E+03  0.71155295861E+02 -0.10311487255E+04  0.11008958897E+04  0.50400001928E-02 0.  1.
</event>
<event>
 5   0  0.3259968E-03  0.1263741E+04  0.7818609E-02  0.9058824E-01
       -2   -1    0    0    0  501  0.00000000000E+00  0.00000000000E+00  0.37008291443E+03  0.37008291444E+03  0.25500000920E-02 0. -1.
        2   -1    0    0  501    0  0.00000000000E+00  0.00000000000E+00 -0.10788397671E+04  0.10788397671E+04  0.25500000920E-02 0.  1.
    10030    2    1    2    0    0  0.00000000000E+00  0.00000000000E+00 -0.70875685271E+03  0.14489226816E+04  0.12637407412E+04 0.  0.
        4    1    3    3  502    0 -0.43052311082E+03 -0.45397474397E+03 -0.25301972681E+03  0.67488059104E+03  0.12699999809E+01 0.  1.
       -4    1    3    3    0  502  0.43052311082E+03  0.45397474397E+03 -0.45573712590E+03  0.77404209055E+03  0.12699999809E+01 0. -1.
</event>
<event>
 5   0  0.1873488E-03  0.9418084E+03  0.7818609E-02  0.9374777E-01
        1   -1    0    0  501    0  0.00000000000E+00  0.00000000000E+00  0.66143937608E+03  0.66143937610E+03  0.50400001928E-02 0. -1.
       -1   -1    0    0    0  501  0.00000000000E+00  0.00000000000E+00 -0.33525484158E+03  0.33525484161E+03  0.50400001928E-02 0.  1.
    10030    2    1    2    0    0  0.00000000000E+00  0.00000000000E+00  0.32618453451E+03  0.99669421772E+03  0.94180837386E+03 0.  0.
        3    1    3    3  502    0  0.18840457009E+03  0.22656111948E+03  0.55181937971E+03  0.62556443387E+03  0.10100000352E+00 0. -1.
       -3    1    3    3    0  502 -0.18840457009E+03 -0.22656111948E+03 -0.22563484520E+03  0.37112978385E+03  0.10100000352E+00 0.  1.
</event>
<event>
 5   0  0.3259968E-03  0.1283922E+04  0.7818609E-02  0.9042413E-01
       -2   -1    0    0    0  501  0.00000000000E+00  0.00000000000E+00  0.66507174769E+03  0.66507174770E+03  0.25500000920E-02 0. -1.
        2   -1    0    0  501    0  0.00000000000E+00  0.00000000000E+00 -0.61965354293E+03  0.61965354293E+03  0.25500000920E-02 0.  1.
    10030    2    1    2    0    0  0.00000000000E+00  0.00000000000E+00  0.45418204762E+02  0.12847252906E+04  0.12839222169E+04 0.  0.
        4    1    3    3  502    0 -0.19062627504E+03  0.39349388344E+03 -0.44762387567E+03  0.62573521558E+03  0.12699999809E+01 0.  1.
       -4    1    3    3    0  502  0.19062627504E+03 -0.39349388344E+03  0.49304208043E+03  0.65899007505E+03  0.12699999809E+01 0. -1.
</event>
<event>
 5   0  0.3294720E-03  0.1254295E+04  0.7818609E-02  0.9066616E-01
        2   -1    0    0  501    0  0.00000000000E+00  0.00000000000E+00  0.13381317575E+04  0.13381317575E+04  0.25500000920E-02 0.  1.
       -2   -1    0    0    0  501  0.00000000000E+00  0.00000000000E+00 -0.29392773886E+03  0.29392773887E+03  0.25500000920E-02 0. -1.
    10030    2    1    2    0    0  0.00000000000E+00  0.00000000000E+00  0.10442040187E+04  0.16320594964E+04  0.12542950877E+04 0.  0.
        5    1    3    3  502    0 -0.43819545150E+03 -0.13349056713E+03  0.10794203938E+04  0.11726062688E+04  0.46999998093E+01 0.  1.
       -5    1    3    3    0  502  0.43819545150E+03  0.13349056713E+03 -0.35216375114E+02  0.45945322755E+03  0.46999998093E+01 0. -1.
</event>
<event>
 5   0  0.3336609E-03  0.1316810E+04  0.7818609E-02  0.9016340E-01
       -2   -1    0    0    0  501  0.00000000000E+00  0.00000000000E+00  0.32408870629E+03  0.32408870630E+03  0.25500000920E-02 0. -1.
        2   -1    0    0  501    0  0.00000000000E+00  0.00000000000E+00 -0.13375870328E+04  0.13375870328E+04  0.25500000920E-02 0.  1.
    10030    2    1    2    0    0  0.00000000000E+00  0.00000000000E+00 -0.10134983266E+04  0.16616757391E+04  0.13168095550E+04 0.  0.
        1    1    3    3  502    0 -0.58352031276E+03  0.29530109962E+03 -0.60283696644E+03  0.88944426637E+03  0.50400001928E-02 0.  1.
       -1    1    3    3    0  502  0.58352031276E+03 -0.29530109962E+03 -0.41066136011E+03  0.77223147278E+03  0.50400001928E-02 0. -1.
</event>
<event>
 5   0  0.1803959E-03  0.1303937E+04  0.7818609E-02  0.9026449E-01
       -1   -1    0    0    0  501  0.00000000000E+00  0.00000000000E+00  0.68623908671E+03  0.68623908673E+03  0.50400001928E-02 0. -1.
        1   -1    0    0  501    0  0.00000000000E+00  0.00000000000E+00 -0.61940941182E+03  0.61940941184E+03  0.50400001928E-02 0.  1.
    10030    2    1    2    0    0  0.00000000000E+00  0.00000000000E+00  0.66829674889E+02  0.13056484986E+04  0.13039370370E+04 0.  0.
        4    1    3    3  502    0 -0.23388372684E+02 -0.64095237593E+03 -0.83761714196E+02  0.64682656242E+03  0.12699999809E+01 0.  1.
       -4    1    3    3    0  502  0.23388372684E+02  0.64095237593E+03  0.15059138909E+03  0.65882193615E+03  0.12699999809E+01 0. -1.
</event>
<event>
 5   0  0.3336609E-03  0.1263451E+04  0.7818609E-02  0.9059062E-01
       -2   -1    0    0    0  501  0.00000000000E+00  0.00000000000E+00  0.22474573390E+03  0.22474573392E+03  0.25500000920E-02 0.  1.
        2   -1    0    0  501    0  0.00000000000E+00  0.00000000000E+00 -0.17756828025E+04  0.17756828025E+04  0.25500000920E-02 0. -1.
    10030    2    1    2    0    0  0.00000000000E+00  0.00000000000E+00 -0.15509370686E+04  0.20004285364E+04  0.12634510432E+04 0.  0.
        1    1    3    3  502    0 -0.33779141677E+03  0.48124503548E+03 -0.40966915745E+03  0.71660912917E+03  0.50400001928E-02 0. -1.
       -1    1    3    3    0  502  0.33779141677E+03 -0.48124503548E+03 -0.11412679112E+04  0.12838194073E+04  0.50400001928E-02 0.  1.
</event>
<event>
 5   0  0.1823154E-03  0.1297717E+04  0.7818609E-02  0.9031378E-01
       -1   -1    0    0    0  501  0.00000000000E+00  0.00000000000E+00  0.56661581922E+03  0.56661581924E+03  0.50400001928E-02 0. -1.
        1   -1    0    0  501    0  0.00000000000E+00  0.00000000000E+00 -0.74303851674E+03  0.74303851676E+03  0.50400001928E-02 0.  1.
    10030    2    1    2    0    0  0.00000000000E+00  0.00000000000E+00 -0.17642269752E+03  0.13096543360E+04  0.12977170383E+04 0.  0.
        2    1    3    3  502    0 -0.14620954843E+03  0.32059504358E+03 -0.63807088577E+03  0.72889839436E+03  0.25500000920E-02 0.  1.
       -2    1    3    3    0  502  0.14620954843E+03 -0.32059504358E+03  0.46164818826E+03  0.58075594164E+03  0.25500000920E-02 0. -1.
</event>
<event>
 5   0  0.3262927E-03  0.1334259E+04  0.7818609E-02  0.9002830E-01
       -2   -1    0    0    0  501  0.00000000000E+00  0.00000000000E+00  0.40329693004E+03  0.40329693005E+03  0.25500000920E-02 0. -1.
        2   -1    0    0  501    0  0.00000000000E+00  0.00000000000E+00 -0.11035586499E+04  0.11035586499E+04  0.25500000920E-02 0.  1.
    10030    2    1    2    0    0  0.00000000000E+00  0.00000000000E+00 -0.70026171988E+03  0.15068555800E+04  0.13342590688E+04 0.  0.
        3    1    3    3  502    0 -0.42987149979E+03 -0.28173918778E+03  0.13020514760E+03  0.53020738105E+03  0.10100000352E+00 0. -1.
       -3    1    3    3    0  502  0.42987149979E+03  0.28173918778E+03 -0.83046686748E+03  0.97664819892E+03  0.10100000352E+00 0.  1.
</event>
<event>
 5   0  0.1803959E-03  0.1163898E+04  0.7818609E-02  0.9145057E-01
        1   -1    0    0  501    0  0.00000000000E+00  0.00000000000E+00  0.44548267594E+03  0.44548267597E+03  0.50400001928E-02 0. -1.
       -1   -1    0    0    0  501  0.00000000000E+00  0.00000000000E+00 -0.76021966990E+03  0.76021966992E+03  0.50400001928E-02 0.  1.
    10030    2    1    2    0    0  0.00000000000E+00  0.00000000000E+00 -0.31473699396E+03  0.12057023459E+04  0.11638980933E+04 0.  0.
        4    1    3    3  502    0  0.41789405316E+03 -0.31011903144E+03 -0.42721222093E+03  0.67329128016E+03  0.12699999809E+01 0.  1.
       -4    1    3    3    0  502 -0.41789405316E+03  0.31011903144E+03  0.11247522696E+03  0.53241106573E+03  0.12699999809E+01 0. -1.
</event>
<event>
 5   0  0.1803959E-03  0.1298644E+04  0.7818609E-02  0.9030641E-01
       -1   -1    0    0    0  501  0.00000000000E+00  0.00000000000E+00  0.73912401977E+03  0.73912401979E+03  0.50400001928E-02 0. -1.
        1   -1    0    0  501    0  0.00000000000E+00  0.00000000000E+00 -0.57043089540E+03  0.57043089542E+03  0.50400001928E-02 0.  1.
    10030    2    1    2    0    0  0.00000000000E+00  0.00000000000E+00  0.16869312437E+03  0.13095549152E+04  0.12986441798E+04 0.  0.
        4    1    3    3  502    0  0.19169792292E+03 -0.50503589837E+03 -0.27896952155E+03  0.60797611725E+03  0.12699999809E+01 0.  1.
       -4    1    3    3    0  502 -0.19169792292E+03  0.50503589837E+03  0.44766264592E+03  0.70157879796E+03  0.12699999809E+01 0. -1.
</event>
<event>
 5   0  0.3336609E-03  0.1291373E+04  0.7818609E-02  0.9036434E-01
        2   -1    0    0  501    0  0.00000000000E+00  0.00000000000E+00  0.68333643581E+03  0.68333643582E+03  0.25500000920E-02 0.  1.
       -2   -1    0    0    0  501  0.00000000000E+00  0.00000000000E+00 -0.61011138854E+03  0.61011138855E+03  0.25500000920E-02 0. -1.
    10030    2    1    2    0    0  0.00000000000E+00  0.00000000000E+00  0.73225047274E+02  0.12934478244E+04  0.12913734420E+04 0.  0.
        1    1    3    3  502    0  0.29211981509E+03  0.51339959927E+03 -0.22457101039E+03  0.63193771341E+03  0.50400001928E-02 0. -1.
       -1    1    3    3    0  502 -0.29211981509E+03 -0.51339959927E+03  0.29779605766E+03  0.66151011095E+03  0.50400001928E-02 0.  1.
</event>
<event>
 5   0  0.3259968E-03  0.1368405E+04  0.7818609E-02  0.8977012E-01
       -2   -1    0    0    0  501  0.00000000000E+00  0.00000000000E+00  0.51384775805E+03  0.51384775806E+03  0.25500000920E-02 0.  1.
        2   -1    0    0  501    0  0.00000000000E+00  0.00000000000E+00 -0.91103419557E+03  0.91103419558E+03  0.25500000920E-02 0. -1.
    10030    2    1    2    0    0  0.00000000000E+00  0.00000000000E+00 -0.39718643752E+03  0.14248819536E+04  0.13684047339E+04 0.  0.
        4    1    3    3  502    0  0.25728945737E+02  0.33842032836E+03 -0.81720096629E+03  0.88487814387E+03  0.12699999809E+01 0. -1.
       -4    1    3    3    0  502 -0.25728945737E+02 -0.33842032836E+03  0.42001452877E+03  0.54000380977E+03  0.12699999809E+01 0.  1.
</event>
<event>
 5   0  0.1814770E-03  0.1274858E+04  0.7818609E-02  0.9049744E-01
        1   -1    0    0  501    0  0.00000000000E+00  0.00000000000E+00  0.13843829335E+04  0.13843829335E+04  0.50400001928E-02 0.  1.
       -1   -1    0    0    0  501  0.00000000000E+00  0.00000000000E+00 -0.29349941912E+03  0.29349941916E+03  0.50400001928E-02 0. -1.
    10030    2    1    2    0    0  0.00000000000E+00  0.00000000000E+00  0.10908835144E+04  0.16778823527E+04  0.12748577754E+04 0.  0.
        5    1    3    3  502    0 -0.39269038738E+03 -0.13519953377E+03 -0.90958337038E+02  0.42518250593E+03  0.46999998093E+01 0. -1.
       -5    1    3    3    0  502  0.39269038738E+03  0.13519953377E+03  0.11818418514E+04  0.12526998468E+04  0.46999998093E+01 0.  1.
</event>
<event>
 5   0  0.3336609E-03  0.1357186E+04  0.7818609E-02  0.8985406E-01
       -2   -1    0    0    0  501  0.00000000000E+00  0.00000000000E+00  0.77751146546E+03  0.77751146546E+03  0.25500000920E-02 0. -1.
        2   -1    0    0  501    0  0.00000000000E+00  0.00000000000E+00 -0.59225904215E+03  0.59225904215E+03  0.25500000920E-02 0.  1.
    10030    2    1    2    0    0  0.00000000000E+00  0.00000000000E+00  0.18525242331E+03  0.13697705076E+04  0.13571856112E+04 0.  0.
        1    1    3    3  502    0  0.40997976223E+02  0.56155968683E+03 -0.28964454080E+03  0.63318565679E+03  0.50400001928E-02 0.  1.
       -1    1    3    3    0  502 -0.40997976223E+02 -0.56155968683E+03  0.47489696411E+03  0.73658485083E+03  0.50400001928E-02 0. -1.
</event>
<event>
 5   0  0.3262927E-03  0.1334232E+04  0.7818609E-02  0.9002851E-01
        2   -1    0    0  501    0  0.00000000000E+00  0.00000000000E+00  0.57765475047E+03  0.57765475047E+03  0.25500000920E-02 0. -1.
       -2   -1    0    0    0  501  0.00000000000E+00  0.00000000000E+00 -0.77043218024E+03  0.77043218024E+03  0.25500000920E-02 0.  1.
    10030    2    1    2    0    0  0.00000000000E+00  0.00000000000E+00 -0.19277742977E+03  0.13480869307E+04  0.13342320770E+04 0.  0.
        3    1    3    3  502    0  0.27644569891E+02  0.65924363626E+03  0.30066120775E+01  0.65982985997E+03  0.10100000352E+00 0. -1.
       -3    1    3    3    0  502 -0.27644569891E+02 -0.65924363626E+03 -0.19578404184E+03  0.68825707075E+03  0.10100000352E+00 0.  1.
</event>
<event>
 5   0  0.1857986E-03  0.1309730E+04  0.7818609E-02  0.9021885E-01
        1   -1    0    0  501    0  0.00000000000E+00  0.00000000000E+00  0.15505424038E+04  0.15505424038E+04  0.50400001928E-02 0.  1.
       -1   -1    0    0    0  501  0.00000000000E+00  0.00000000000E+00 -0.27657939915E+03  0.27657939920E+03  0.50400001928E-02 0. -1.
    10030    2    1    2    0    0  0.00000000000E+00  0.00000000000E+00  0.12739630046E+04  0.18271218030E+04  0.13097298751E+04 0.  0.
        1    1    3    3  502    0 -0.10114240273E+03 -0.21553071908E+03  0.14880282553E+04  0.15069543341E+04  0.50400001928E-02 0.  1.
       -1    1    3    3    0  502  0.10114240273E+03  0.21553071908E+03 -0.21406525073E+03  0.32016746882E+03  0.50400001928E-02 0. -1.
</event>
<event>
 5   0  0.1803959E-03  0.9812942E+03  0.7818609E-02  0.9329302E-01
        1   -1    0    0  501    0  0.00000000000E+00  0.00000000000E+00  0.43039471587E+03  0.43039471590E+03  0.50400001928E-02 0.  1.
       -1   -1    0    0    0  501  0.00000000000E+00  0.00000000000E+00 -0.55933439702E+03  0.55933439704E+03  0.50400001928E-02 0. -1.
    10030    2    1    2    0    0  0.00000000000E+00  0.00000000000E+00 -0.12893968115E+03  0.98972911294E+03  0.98129418404E+03 0.  0.
        4    1    3    3  502    0  0.28666354572E+02 -0.32082633338E+02  0.42848682506E+03  0.43064327162E+03  0.12699999809E+01 0.  1.
       -4    1    3    3    0  502 -0.28666354572E+02  0.32082633338E+02 -0.55742650620E+03  0.55908584132E+03  0.12699999809E+01 0. -1.
</event>
<event>
 5   0  0.1873488E-03  0.1298500E+04  0.7818609E-02  0.9030755E-01
       -1   -1    0    0    0  501  0.00000000000E+00  0.00000000000E+00  0.10066842444E+04  0.10066842444E+04  0.50400001928E-02 0. -1.
        1   -1    0    0  501    0  0.00000000000E+00  0.00000000000E+00 -0.41872679843E+03  0.41872679847E+03  0.50400001928E-02 0.  1.
    10030    2    1    2    0    0  0.00000000000E+00  0.00000000000E+00  0.58795744597E+03  0.14254110429E+04  0.12985001667E+04 0.  0.
        3    1    3    3  502    0  0.47280178550E+03  0.30942376920E+02 -0.19328115556E+03  0.51171923391E+03  0.10100000352E+00 0.  1.
       -3    1    3    3    0  502 -0.47280178550E+03 -0.30942376920E+02  0.78123860152E+03  0.91369180897E+03  0.10100000352E+00 0. -1.
</event>
<event>
 5   0  0.1814770E-03  0.1292426E+04  0.7818609E-02  0.9035593E-01
        1   -1    0    0  501    0  0.00000000000E+00  0.00000000000E+00  0.11115159347E+04  0.11115159347E+04  0.50400001928E-02 0. -1.
       -1   -1    0    0    0  501  0.00000000000E+00  0.00000000000E+00 -0.37569533708E+03  0.37569533711E+03  0.50400001928E-02 0.  1.
    10030    2    1    2    0    0  0.00000000000E+00  0.00000000000E+00  0.73582059763E+03  0.14872112718E+04  0.12924261740E+04 0.  0.
        5    1    3    3  502    0 -0.43259107069E+03  0.11721860538E+03  0.90357175159E+03  0.10086323593E+04  0.46999998093E+01 0. -1.
       -5    1    3    3    0  502  0.43259107069E+03 -0.11721860538E+03 -0.16775115396E+03  0.47857891256E+03  0.46999998093E+01 0.  1.
</event>
<event>
 5   0  0.1254125E-03  0.1307943E+04  0.7818609E-02  0.9023290E-01
        3   -1    0    0  501    0  0.00000000000E+00  0.00000000000E+00  0.37636289236E+03  0.37636290591E+03  0.10100000352E+00 0.  1.
       -3   -1    0    0    0  501  0.00000000000E+00  0.00000000000E+00 -0.11363463070E+04  0.11363463115E+04  0.10100000352E+00 0. -1.
    10030    2    1    2    0    0  0.00000000000E+00  0.00000000000E+00 -0.75998341469E+03  0.15127092174E+04  0.13079428068E+04 0.  0.
        5    1    3    3  502    0 -0.55477806810E+03  0.30292939123E+03 -0.18607761566E+03  0.65893238649E+03  0.46999998093E+01 0.  1.
       -5    1    3    3    0  502  0.55477806810E+03 -0.30292939123E+03 -0.57390579903E+03  0.85377683095E+03  0.46999998093E+01 0. -1.
</event>
<event>
 5   0  0.1873488E-03  0.1341920E+04  0.7818609E-02  0.8996967E-01
        1   -1    0    0  501    0  0.00000000000E+00  0.00000000000E+00  0.95922706844E+03  0.95922706845E+03  0.50400001928E-02 0.  1.
       -1   -1    0    0    0  501  0.00000000000E+00  0.00000000000E+00 -0.46932288173E+03  0.46932288176E+03  0.50400001928E-02 0. -1.
    10030    2    1    2    0    0  0.00000000000E+00  0.00000000000E+00  0.48990418670E+03  0.14285499502E+04  0.13419198367E+04 0.  0.
        3    1    3    3  502    0 -0.49035438886E+03 -0.30395878327E+03  0.60962898591E+03  0.83933657091E+03  0.10100000352E+00 0. -1.
       -3    1    3    3    0  502  0.49035438886E+03  0.30395878327E+03 -0.11972479921E+03  0.58921337930E+03  0.10100000352E+00 0.  1.
</event>
<event>
 5   0  0.3259968E-03  0.1378124E+04  0.7818609E-02  0.8969807E-01
       -2   -1    0    0    0  501  0.00000000000E+00  0.00000000000E+00  0.13141770186E+04  0.13141770186E+04  0.25500000920E-02 0.  1.
        2   -1    0    0  501    0  0.00000000000E+00  0.00000000000E+00 -0.36129580386E+03  0.36129580387E+03  0.25500000920E-02 0. -1.
    10030    2    1    2    0    0  0.00000000000E+00  0.00000000000E+00  0.95288121477E+03  0.16754728225E+04  0.13781242939E+04 0.  0.
        4    1    3    3  502    0 -0.55840353706E+03 -0.17629696165E+03  0.34882670509E+02  0.58661191813E+03  0.12699999809E+01 0.  1.
       -4    1    3    3    0  502  0.55840353706E+03  0.17629696165E+03  0.91799854426E+03  0.10888609044E+04  0.12699999809E+01 0. -1.
</event>
<event>
 5   0  0.3336609E-03  0.1298734E+04  0.7818609E-02  0.9030570E-01
        2   -1    0    0  501    0  0.00000000000E+00  0.00000000000E+00  0.10850074591E+04  0.10850074591E+04  0.25500000920E-02 0.  1.
       -2   -1    0    0    0  501  0.00000000000E+00  0.00000000000E+00 -0.38864031273E+03  0.38864031274E+03  0.25500000920E-02 0. -1.
    10030    2    1    2    0    0  0.00000000000E+00  0.00000000000E+00  0.69636714640E+03  0.14736477719E+04  0.12987342118E+04 0.  0.
        1    1    3    3  502    0  0.39864439536E+03  0.11839708577E+03 -0.21772768445E+03  0.46940448279E+03  0.50400001928E-02 0. -1.
       -1    1    3    3    0  502 -0.39864439536E+03 -0.11839708577E+03  0.91409483085E+03  0.10042432891E+04  0.50400001928E-02 0.  1.
</event>
<event>
 5   0  0.1823154E-03  0.1343959E+04  0.7818609E-02  0.8995414E-01
       -1   -1    0    0    0  501  0.00000000000E+00  0.00000000000E+00  0.47109572029E+03  0.47109572031E+03  0.50400001928E-02 0. -1.
        1   -1    0    0  501    0  0.00000000000E+00  0.00000000000E+00 -0.95852337665E+03  0.95852337666E+03  0.50400001928E-02 0.  1.
    10030    2    1    2    0    0  0.00000000000E+00  0.00000000000E+00 -0.48742765636E+03  0.14296190970E+04  0.13439587204E+04 0.  0.
        2    1    3    3  502    0  0.49150004727E+03 -0.37255274813E+03 -0.52753126255E+03  0.81157690922E+03  0.25500000920E-02 0.  1.
       -2    1    3    3    0  502 -0.49150004727E+03  0.37255274813E+03  0.40103606185E+02  0.61804218776E+03  0.25500000920E-02 0. -1.
</event>
<event>
 5   0  0.3294720E-03  0.1283106E+04  0.7818609E-02  0.9043071E-01
        2   -1    0    0  501    0  0.00000000000E+00  0.00000000000E+00  0.48273116078E+03  0.48273116079E+03  0.25500000920E-02 0. -1.
       -2   -1    0    0    0  501  0.00000000000E+00  0.00000000000E+00 -0.85262805972E+03  0.85262805973E+03  0.25500000920E-02 0.  1.
    10030    2    1    2    0    0  0.00000000000E+00  0.00000000000E+00 -0.36989689895E+03  0.13353592205E+04  0.12831058148E+04 0.  0.
        5    1    3    3  502    0 -0.53663653683E+03  0.57691120298E+02  0.17596083188E+03  0.56770709206E+03  0.46999998093E+01 0. -1.
       -5    1    3    3    0  502  0.53663653683E+03 -0.57691120298E+02 -0.54585773083E+03  0.76765212845E+03  0.46999998093E+01 0.  1.
</event>
<event>
 5   0  0.1823154E-03  0.1281652E+04  0.7818609E-02  0.9044244E-01
       -1   -1    0    0    0  501  0.00000000000E+00  0.00000000000E+00  0.28709021946E+03  0.28709021950E+03  0.50400001928E-02 0.  1.
        1   -1    0    0  501    0  0.00000000000E+00  0.00000000000E+00 -0.14304132453E+04  0.14304132453E+04  0.50400001928E-02 0. -1.
    10030    2    1    2    0    0  0.00000000000E+00  0.00000000000E+00 -0.11433230258E+04  0.17175034648E+04  0.12816515167E+04 0.  0.
        2    1    3    3  502    0 -0.21131331345E+03  0.47265515297E+03 -0.65615945213E+02  0.52188280518E+03  0.25500000920E-02 0.  1.
       -2    1    3    3    0  502  0.21131331345E+03 -0.47265515297E+03 -0.10777070806E+04  0.11956206596E+04  0.25500000920E-02 0. -1.
</event>
<event>
 5   0  0.3299104E-03  0.1303645E+04  0.7818609E-02  0.9026679E-01
        2   -1    0    0  501    0  0.00000000000E+00  0.00000000000E+00  0.12884651256E+04  0.12884651256E+04  0.25500000920E-02 0. -1.
       -2   -1    0    0    0  501  0.00000000000E+00  0.00000000000E+00 -0.32975108754E+03  0.32975108755E+03  0.25500000920E-02 0.  1.
    10030    2    1    2    0    0  0.00000000000E+00  0.00000000000E+00  0.95871403807E+03  0.16182162132E+04  0.13036453144E+04 0.  0.
        2    1    3    3  502    0 -0.42883951263E+03 -0.29926989938E+03  0.96236025800E+03  0.10952639255E+04  0.25500000920E-02 0. -1.
       -2    1    3    3    0  502  0.42883951263E+03  0.29926989938E+03 -0.36462199302E+01  0.52295228769E+03  0.25500000920E-02 0.  1.
</event>
<event>
 5   0  0.3262927E-03  0.1230331E+04  0.7818609E-02  0.9086714E-01
        2   -1    0    0  501    0  0.00000000000E+00  0.00000000000E+00  0.94620151693E+03  0.94620151694E+03  0.25500000920E-02 0.  1.
       -2   -1    0    0    0  501  0.00000000000E+00  0.00000000000E+00 -0.39994499217E+03  0.39994499217E+03  0.25500000920E-02 0. -1.
    10030    2    1    2    0    0  0.00000000000E+00  0.00000000000E+00  0.54625652477E+03  0.13461465091E+04  0.12303309446E+04 0.  0.
        3    1    3    3  502    0 -0.90677761338E+01 -0.61333510313E+03  0.32405398253E+03  0.69373854375E+03  0.10100000352E+00 0. -1.
       -3    1    3    3    0  502  0.90677761338E+01  0.61333510313E+03  0.22220254224E+03  0.65240796536E+03  0.10100000352E+00 0.  1.
</event>
<event>
 5   0  0.1254125E-03  0.1286352E+04  0.7818609E-02  0.9040459E-01
        3   -1    0    0  501    0  0.00000000000E+00  0.00000000000E+00  0.16543563377E+03  0.16543566460E+03  0.10100000352E+00 0.  1.
       -3   -1    0    0    0  501  0.00000000000E+00  0.00000000000E+00 -0.25005214469E+04  0.25005214490E+04  0.10100000352E+00 0. -1.
    10030    2    1    2    0    0  0.00000000000E+00  0.00000000000E+00 -0.23350858132E+04  0.26659571136E+04  0.12863520422E+04 0.  0.
        4    1    3    3  502    0 -0.54010034686E+03 -0.34047312612E+03 -0.13286577953E+04  0.14740975152E+04  0.12699999809E+01 0. -1.
       -4    1    3    3    0  502  0.54010034686E+03  0.34047312612E+03 -0.10064280179E+04  0.11918595984E+04  0.12699999809E+01 0.  1.
</event>
<event>
 5   0  0.3336609E-03  0.1294338E+04  0.7818609E-02  0.9034067E-01
       -2   -1    0    0    0  501  0.00000000000E+00  0.00000000000E+00  0.30697612139E+03  0.30697612140E+03  0.25500000920E-02 0. -1.
        2   -1    0    0  501    0  0.00000000000E+00  0.00000000000E+00 -0.13643662578E+04  0.13643662578E+04  0.25500000920E-02 0.  1.
    10030    2    1    2    0    0  0.00000000000E+00  0.00000000000E+00 -0.10573901364E+04  0.16713423792E+04  0.12943382278E+04 0.  0.
        1    1    3    3  502    0  0.28033837991E+03  0.52871348839E+03 -0.84683125615E+03  0.10369429765E+04  0.50400001928E-02 0.  1.
       -1    1    3    3    0  502 -0.28033837991E+03 -0.52871348839E+03 -0.21055888023E+03  0.63439940268E+03  0.50400001928E-02 0. -1.
</event>
<event>
 5   0  0.3259968E-03  0.1302407E+04  0.7818609E-02  0.9027658E-01
       -2   -1    0    0    0  501  0.00000000000E+00  0.00000000000E+00  0.41758749357E+03  0.41758749358E+03  0.25500000920E-02 0.  1.
        2   -1    0    0  501    0  0.00000000000E+00  0.00000000000E+00 -0.10155144186E+04  0.10155144186E+04  0.25500000920E-02 0. -1.
    10030    2    1    2    0    0  0.00000000000E+00  0.00000000000E+00 -0.59792692500E+03  0.14331019122E+04  0.13024071879E+04 0.  0.
        4    1    3    3  502    0 -0.99214312389E+01 -0.61100145650E+03 -0.54658662199E+03  0.81986569808E+03  0.12699999809E+01 0. -1.
       -4    1    3    3    0  502  0.99214312389E+01  0.61100145650E+03 -0.51340303018E+02  0.61323621408E+03  0.12699999809E+01 0.  1.
</event>
<event>
 5   0  0.1814770E-03  0.1305942E+04  0.7818609E-02  0.9024866E-01
       -1   -1    0    0    0  501  0.00000000000E+00  0.00000000000E+00  0.25938013163E+03  0.25938013168E+03  0.50400001928E-02 0.  1.
        1   -1    0    0  501    0  0.00000000000E+00  0.00000000000E+00 -0.16438075785E+04  0.16438075785E+04  0.50400001928E-02 0. -1.
    10030    2    1    2    0    0  0.00000000000E+00  0.00000000000E+00 -0.13844274468E+04  0.19031877102E+04  0.13059418458E+04 0.  0.
        5    1    3    3  502    0  0.61994279291E+03 -0.15099674674E+03 -0.89425160563E+03  0.10985613812E+04  0.46999998093E+01 0. -1.
       -5    1    3    3    0  502 -0.61994279291E+03  0.15099674674E+03 -0.49017584121E+03  0.80462632900E+03  0.46999998093E+01 0.  1.
</event>
<event>
 5   0  0.1823154E-03  0.1312808E+04  0.7818609E-02  0.9019470E-01
       -1   -1    0    0    0  501  0.00000000000E+00  0.00000000000E+00  0.47640644587E+03  0.47640644590E+03  0.50400001928E-02 0.  1.
        1   -1    0    0  501    0  0.00000000000E+00  0.00000000000E+00 -0.90440825351E+03  0.90440825352E+03  0.50400001928E-02 0. -1.
    10030    2    1    2    0    0  0.00000000000E+00  0.00000000000E+00 -0.42800180764E+03  0.13808146994E+04  0.13128075589E+04 0.  0.
        2    1    3    3  502    0  0.57382838143E+03 -0.24129115438E+03  0.50305359186E+01  0.62251565347E+03  0.25500000920E-02 0.  1.
       -2    1    3    3    0  502 -0.57382838143E+03  0.24129115438E+03 -0.43303234355E+03  0.75829904595E+03  0.25500000920E-02 0. -1.
</event>
<event>
 5   0  0.1814770E-03  0.1294917E+04  0.7818609E-02  0.9033606E-01
       -1   -1    0    0    0  501  0.00000000000E+00  0.00000000000E+00  0.31507673679E+03  0.31507673683E+03  0.50400001928E-02 0. -1.
        1   -1    0    0  501    0  0.00000000000E+00  0.00000000000E+00 -0.13304765892E+04  0.13304765892E+04  0.50400001928E-02 0.  1.
    10030    2    1    2    0    0  0.00000000000E+00  0.00000000000E+00 -0.10153998524E+04  0.16455533260E+04  0.12949165566E+04 0.  0.
        5    1    3    3  502    0 -0.21284635708E+03  0.18280855699E+03  0.23378391048E+03  0.36523902725E+03  0.46999998093E+01 0. -1.
       -5    1    3    3    0  502  0.21284635708E+03 -0.18280855699E+03 -0.12491837629E+04  0.12803142988E+04  0.46999998093E+01 0.  1.
</event>
<event>
 5   0  0.3262927E-03  0.1290416E+04  0.7818609E-02  0.9037200E-01
       -2   -1    0    0    0  501  0.00000000000E+00  0.00000000000E+00  0.61370537150E+03  0.61370537151E+03  0.25500000920E-02 0. -1.
        2   -1    0    0  501    0  0.00000000000E+00  0.00000000000E+00 -0.67832823216E+03  0.67832823217E+03  0.25500000920E-02 0.  1.
    10030    2    1    2    0    0  0.00000000000E+00  0.00000000000E+00 -0.64622860662E+02  0.12920336037E+04  0.12904164905E+04 0.  0.
        3    1    3    3  502    0 -0.46465813228E+03 -0.28688631714E+03  0.31175087789E+03  0.62880804617E+03  0.10100000352E+00 0. -1.
       -3    1    3    3    0  502  0.46465813228E+03  0.28688631714E+03 -0.37637373855E+03  0.66322555751E+03  0.10100000352E+00 0.  1.
</event>
<event>
 5   0  0.3299104E-03  0.1334166E+04  0.7818609E-02  0.9002901E-01
       -2   -1    0    0    0  501  0.00000000000E+00  0.00000000000E+00  0.62011730923E+03  0.62011730923E+03  0.25500000920E-02 0.  1.
        2   -1    0    0  501    0  0.00000000000E+00  0.00000000000E+00 -0.71760615337E+03  0.71760615338E+03  0.25500000920E-02 0. -1.
    10030    2    1    2    0    0  0.00000000000E+00  0.00000000000E+00 -0.97488844143E+02  0.13377234626E+04  0.13341664018E+04 0.  0.
        2    1    3    3  502    0  0.13725761988E+03 -0.34451482055E+03 -0.60472245754E+03  0.70937956445E+03  0.25500000920E-02 0. -1.
       -2    1    3    3    0  502 -0.13725761988E+03  0.34451482055E+03  0.50723361340E+03  0.62834389817E+03  0.25500000920E-02 0.  1.
</event>
<event>
 5   0  0.3294720E-03  0.1278310E+04  0.7818609E-02  0.9046945E-01
        2   -1    0    0  501    0  0.00000000000E+00  0.00000000000E+00  0.79674981014E+03  0.79674981015E+03  0.25500000920E-02 0. -1.
       -2   -1    0    0    0  501  0.00000000000E+00  0.00000000000E+00 -0.51273202137E+03  0.51273202137E+03  0.25500000920E-02 0.  1.
    10030    2    1    2    0    0  0.00000000000E+00  0.00000000000E+00  0.28401778878E+03  0.13094818315E+04  0.12783100417E+04 0.  0.
        5    1    3    3  502    0  0.38019888105E+02 -0.63705123612E+03  0.17774894741E+03  0.66249269252E+03  0.46999998093E+01 0.  1.
       -5    1    3    3    0  502 -0.38019888105E+02  0.63705123612E+03  0.10626884137E+03  0.64698913900E+03  0.46999998093E+01 0. -1.
</event>
<event>
 5   0  0.1803959E-03  0.1300796E+04  0.7818609E-02  0.9028934E-01
        1   -1    0    0  501    0  0.00000000000E+00  0.00000000000E+00  0.64522016928E+03  0.64522016930E+03  0.50400001928E-02 0. -1.
       -1   -1    0    0    0  501  0.00000000000E+00  0.00000000000E+00 -0.65561727993E+03  0.65561727995E+03  0.50400001928E-02 0.  1.
    10030    2    1    2    0    0  0.00000000000E+00  0.00000000000E+00 -0.10397110652E+02  0.13008374493E+04  0.13007958985E+04 0.  0.
        4    1    3    3  502    0  0.59263777408E+03 -0.20051772073E+03 -0.18293715546E+03  0.65183932325E+03  0.12699999809E+01 0.  1.
       -4    1    3    3    0  502 -0.59263777408E+03  0.20051772073E+03  0.17254004481E+03  0.64899812600E+03  0.12699999809E+01 0. -1.
</event>
<event>
 5   0  0.1857986E-03  0.1415137E+04  0.7818609E-02  0.8942934E-01
       -1   -1    0    0    0  501  0.00000000000E+00  0.00000000000E+00  0.33523483228E+03  0.33523483232E+03  0.50400001928E-02 0. -1.
        1   -1    0    0  501    0  0.00000000000E+00  0.00000000000E+00 -0.14934392976E+04  0.14934392976E+04  0.50400001928E-02 0.  1.
    10030    2    1    2    0    0  0.00000000000E+00  0.00000000000E+00 -0.11582044653E+04  0.18286741299E+04  0.14151365623E+04 0.  0.
        1    1    3    3  502    0 -0.58309267038E+03 -0.12639471528E+03 -0.87580756096E+02  0.60302825404E+03  0.50400001928E-02 0. -1.
       -1    1    3    3    0  502  0.58309267038E+03  0.12639471528E+03 -0.10706237092E+04  0.12256458759E+04  0.50400001928E-02 0.  1.
</event>
<event>
 5   0  0.3299104E-03  0.1272413E+04  0.7818609E-02  0.9051732E-01
       -2   -1    0    0    0  501  0.00000000000E+00  0.00000000000E+00  0.42808271656E+03  0.42808271657E+03  0.25500000920E-02 0. -1.
        2   -1    0    0  501    0  0.00000000000E+00  0.00000000000E+00 -0.94551540139E+03  0.94551540140E+03  0.25500000920E-02 0.  1.
    10030    2    1    2    0    0  0.00000000000E+00  0.00000000000E+00 -0.51743268483E+03  0.13735981180E+04  0.12724131430E+04 0.  0.
        2    1    3    3  502    0 -0.51032949996E+03 -0.31276561885E+03 -0.49150364149E+03  0.77448974200E+03  0.25500000920E-02 0.  1.
       -2    1    3    3    0  502  0.51032949996E+03  0.31276561885E+03 -0.25929043336E+02  0.59910837597E+03  0.25500000920E-02 0. -1.
</event>
<event>
 5   0  0.1254125E-03  0.1285615E+04  0.7818609E-02  0.9041051E-01
       -3   -1    0    0    0  501  0.00000000000E+00  0.00000000000E+00  0.87853822973E+03  0.87853823554E+03  0.10100000352E+00 0. -1.
        3   -1    0    0  501    0  0.00000000000E+00  0.00000000000E+00 -0.47032846306E+03  0.47032847390E+03  0.10100000352E+00 0.  1.
    10030    2    1    2    0    0  0.00000000000E+00  0.00000000000E+00  0.40820976668E+03  0.13488667094E+04  0.12856151003E+04 0.  0.
        4    1    3    3  502    0 -0.27688450077E+03 -0.13433491994E+03 -0.38800909618E+03  0.49524092026E+03  0.12699999809E+01 0.  1.
       -4    1    3    3    0  502  0.27688450077E+03  0.13433491994E+03  0.79621886286E+03  0.85362578918E+03  0.12699999809E+01 0. -1.
</event>
<event>
 5   0  0.1803959E-03  0.1296138E+04  0.7818609E-02  0.9032633E-01
       -1   -1    0    0    0  501  0.00000000000E+00  0.00000000000E+00  0.93227416401E+03  0.93227416403E+03  0.50400001928E-02 0. -1.
        1   -1    0    0  501    0  0.00000000000E+00  0.00000000000E+00 -0.45050446127E+03  0.45050446130E+03  0.50400001928E-02 0.  1.
    10030    2    1    2    0    0  0.00000000000E+00  0.00000000000E+00  0.48176970274E+03  0.13827786253E+04  0.12961383723E+04 0.  0.
        4    1    3    3  502    0 -0.31150384770E+03 -0.25392928619E+03 -0.30150620161E+03  0.50241649259E+03  0.12699999809E+01 0.  1.
       -4    1    3    3    0  502  0.31150384770E+03  0.25392928619E+03  0.78327590435E+03  0.88036213274E+03  0.12699999809E+01 0. -1.
</event>
<event>
 5   0  0.3259968E-03  0.1268848E+04  0.7818609E-02  0.9054641E-01
       -2   -1    0    0    0  501  0.00000000000E+00  0.00000000000E+00  0.33853355458E+03  0.33853355459E+03  0.25500000920E-02 0.  1.
        2   -1    0    0  501    0  0.00000000000E+00  0.00000000000E+00 -0.11889326211E+04  0.11889326211E+04  0.25500000920E-02 0. -1.
    10030    2    1    2    0    0  0.00000000000E+00  0.00000000000E+00 -0.85039906653E+03  0.15274661757E+04  0.12688476447E+04 0.  0.
        4    1    3    3  502    0 -0.13691968918E+03 -0.58370549744E+03 -0.67492466557E+03  0.90276465711E+03  0.12699999809E+01 0. -1.
       -4    1    3    3    0  502  0.13691968918E+03  0.58370549744E+03 -0.17547440096E+03  0.62470151859E+03  0.12699999809E+01 0.  1.
</event>
<event>
 5   0  0.1814770E-03  0.1302953E+04  0.7818609E-02  0.9027227E-01
       -1   -1    0    0    0  501  0.00000000000E+00  0.00000000000E+00  0.56287722144E+03  0.56287722146E+03  0.50400001928E-02 0.  1.
        1   -1    0    0  501    0  0.00000000000E+00  0.00000000000E+00 -0.75402174482E+03  0.75402174484E+03  0.50400001928E-02 0. -1.
    10030    2    1    2    0    0  0.00000000000E+00  0.00000000000E+00 -0.19114452338E+03  0.13168989663E+04  0.13029530531E+04 0.  0.
        5    1    3    3  502    0 -0.61156545534E+03  0.62422699616E+02 -0.31349704111E+03  0.69008070860E+03  0.46999998093E+01 0. -1.
       -5    1    3    3    0  502  0.61156545534E+03 -0.62422699616E+02  0.12235251773E+03  0.62681825770E+03  0.46999998093E+01 0.  1.
</event>
<event>
 5   0  0.3262927E-03  0.1298386E+04  0.7818609E-02  0.9030846E-01
        2   -1    0    0  501    0  0.00000000000E+00  0.00000000000E+00  0.12204474181E+04  0.12204474181E+04  0.25500000920E-02 0.  1.
       -2   -1    0    0    0  501  0.00000000000E+00  0.00000000000E+00 -0.34532566918E+03  0.34532566919E+03  0.25500000920E-02 0. -1.
    10030    2    1    2    0    0  0.00000000000E+00  0.00000000000E+00  0.87512174888E+03  0.15657730873E+04  0.12983864161E+04 0.  0.
        3    1    3    3  502    0 -0.26230481093E+03 -0.14065654406E+03  0.11333187023E+04  0.11717505572E+04  0.10100000352E+00 0.  1.
       -3    1    3    3    0  502  0.26230481093E+03  0.14065654406E+03 -0.25819695340E+03  0.39402253003E+03  0.10100000352E+00 0. -1.
</event>
<event>
 5   0  0.3336609E-03  0.1293737E+04  0.7818609E-02  0.9034547E-01
        2   -1    0    0  501    0  0.00000000000E+00  0.00000000000E+00  0.19105990431E+04  0.19105990431E+04  0.25500000920E-02 0. -1.
       -2   -1    0    0    0  501  0.00000000000E+00  0.00000000000E+00 -0.21900911237E+03  0.21900911238E+03  0.25500000920E-02 0.  1.
    10030    2    1    2    0    0  0.00000000000E+00  0.00000000000E+00  0.16915899307E+04  0.21296081555E+04  0.12937366046E+04 0.  0.
        1    1    3    3  502    0 -0.16875131918E+03 -0.61405696578E+03  0.65886659887E+03  0.91632317447E+03  0.50400001928E-02 0.  1.
       -1    1    3    3    0  502  0.16875131918E+03  0.61405696578E+03  0.10327233319E+04  0.12132849810E+04  0.50400001928E-02 0. -1.
</event>
<event>
 5   0  0.1857986E-03  0.1474856E+04  0.7818609E-02  0.8901348E-01
        1   -1    0    0  501    0  0.00000000000E+00  0.00000000000E+00  0.16461583136E+04  0.16461583136E+04  0.50400001928E-02 0. -1.
       -1   -1    0    0    0  501  0.00000000000E+00  0.00000000000E+00 -0.33034474224E+03  0.33034474228E+03  0.50400001928E-02 0.  1.
    10030    2    1    2    0    0  0.00000000000E+00  0.00000000000E+00  0.13158135713E+04  0.19765030558E+04  0.14748555778E+04 0.  0.
        1    1    3    3  502    0  0.47141283381E+03  0.33118846036E+03  0.12747814895E+04  0.13989223360E+04  0.50400001928E-02 0. -1.
       -1    1    3    3    0  502 -0.47141283381E+03 -0.33118846036E+03  0.41032081799E+02  0.57758071983E+03  0.50400001928E-02 0.  1.
</event>
<event>
 5   0  0.1254125E-03  0.1307740E+04  0.7818609E-02  0.9023450E-01
       -3   -1    0    0    0  501  0.00000000000E+00  0.00000000000E+00  0.14435230592E+03  0.14435234126E+03  0.10100000352E+00 0.  1.
        3   -1    0    0  501    0  0.00000000000E+00  0.00000000000E+00 -0.29618211478E+04  0.29618211495E+04  0.10100000352E+00 0. -1.
    10030    2    1    2    0    0  0.00000000000E+00  0.00000000000E+00 -0.28174688418E+04  0.31061734907E+04  0.13077396835E+04 0.  0.
        5    1    3    3  502    0  0.38340144610E+03 -0.80703100542E+02 -0.16539186388E+03  0.42530720420E+03  0.46999998093E+01 0.  1.
       -5    1    3    3    0  502 -0.38340144610E+03  0.80703100542E+02 -0.26520769780E+04  0.26808662866E+04  0.46999998093E+01 0. -1.
</event>
<event>
 5   0  0.1823154E-03  0.1025968E+04  0.7818609E-02  0.9280513E-01
        1   -1    0    0  501    0  0.00000000000E+00  0.00000000000E+00  0.15433746191E+04  0.15433746192E+04  0.50400001928E-02 0.  1.
       -1   -1    0    0    0  501  0.00000000000E+00  0.00000000000E+00 -0.17050462242E+03  0.17050462249E+03  0.50400001928E-02 0. -1.
    10030    2    1    2    0    0  0.00000000000E+00  0.00000000000E+00  0.13728699967E+04  0.17138792416E+04  0.10259678489E+04 0.  0.
        2    1    3    3  502    0 -0.10704596493E+03 -0.39470656049E+03  0.12037519085E+04  0.12713263801E+04  0.25500000920E-02 0.  1.
       -2    1    3    3    0  502  0.10704596493E+03  0.39470656049E+03  0.16911808823E+03  0.44255286156E+03  0.25500000920E-02 0. -1.
</event>
<event>
 5   0  0.1803959E-03  0.1296893E+04  0.7818609E-02  0.9032032E-01
        1   -1    0    0  501    0  0.00000000000E+00  0.00000000000E+00  0.40640576262E+03  0.40640576265E+03  0.50400001928E-02 0. -1.
       -1   -1    0    0    0  501  0.00000000000E+00  0.00000000000E+00 -0.10346387265E+04  0.10346387265E+04  0.50400001928E-02 0.  1.
    10030    2    1    2    0    0  0.00000000000E+00  0.00000000000E+00 -0.62823296384E+03  0.14410444891E+04  0.12968934277E+04 0.  0.
        4    1    3    3  502    0  0.26453621563E+03  0.56012053397E+03 -0.52717692321E+03  0.81340736609E+03  0.12699999809E+01 0.  1.
       -4    1    3    3    0  502 -0.26453621563E+03 -0.56012053397E+03 -0.10105604063E+03  0.62763712303E+03  0.12699999809E+01 0. -1.
</event>
<event>
 5   0  0.1803959E-03  0.1144526E+04  0.7818609E-02  0.9162848E-01
       -1   -1    0    0    0  501  0.00000000000E+00  0.00000000000E+00  0.27190178125E+03  0.27190178129E+03  0.50400001928E-02 0. -1.
        1   -1    0    0  501    0  0.00000000000E+00  0.00000000000E+00 -0.12044242996E+04  0.12044242997E+04  0.50400001928E-02 0.  1.
    10030    2    1    2    0    0  0.00000000000E+00  0.00000000000E+00 -0.93252251840E+03  0.14763260810E+04  0.11445262994E+04 0.  0.
        4    1    3    3  502    0 -0.53273633261E+03  0.14211378320E+03 -0.66391175383E+03  0.86300912929E+03  0.12699999809E+01 0.  1.
       -4    1    3    3    0  502  0.53273633261E+03 -0.14211378320E+03 -0.26861076457E+03  0.61331695167E+03  0.12699999809E+01 0. -1.
</event>
<event>
 5   0  0.1857986E-03  0.1280265E+04  0.7818609E-02  0.9045364E-01
        1   -1    0    0  501    0  0.00000000000E+00  0.00000000000E+00  0.86055554098E+03  0.86055554100E+03  0.50400001928E-02 0.  1.
       -1   -1    0    0    0  501  0.00000000000E+00  0.00000000000E+00 -0.47616846192E+03  0.47616846194E+03  0.50400001928E-02 0. -1.
    10030    2    1    2    0    0  0.00000000000E+00  0.00000000000E+00  0.38438707907E+03  0.13367240029E+04  0.12802646732E+04 0.  0.
        1    1    3    3  502    0 -0.37378505840E+03 -0.64248174404E+02  0.73061534332E+03  0.82319006172E+03  0.50400001928E-02 0.  1.
       -1    1    3    3    0  502  0.37378505840E+03  0.64248174404E+02 -0.34622826425E+03  0.51353394122E+03  0.50400001928E-02 0. -1.
</event>
<event>
 5   0  0.3294720E-03  0.1312307E+04  0.7818609E-02  0.9019862E-01
        2   -1    0    0  501    0  0.00000000000E+00  0.00000000000E+00  0.70083378158E+03  0.70083378159E+03  0.25500000920E-02 0.  1.
       -2   -1    0    0    0  501  0.00000000000E+00  0.00000000000E+00 -0.61432139097E+03  0.61432139097E+03  0.25500000920E-02 0. -1.
    10030    2    1    2    0    0  0.00000000000E+00  0.00000000000E+00  0.86512390615E+02  0.13151551726E+04  0.13123066464E+04 0.  0.
        5    1    3    3  502    0 -0.49164324577E+03 -0.16092485510E+03  0.44774746016E+03  0.68418547791E+03  0.46999998093E+01 0.  1.
       -5    1    3    3    0  502  0.49164324577E+03  0.16092485510E+03 -0.36123506954E+03  0.63096969465E+03  0.46999998093E+01 0. -1.
</event>
<event>
 5   0  0.3299104E-03  0.1314763E+04  0.7818609E-02  0.9017939E-01
        2   -1    0    0  501    0  0.00000000000E+00  0.00000000000E+00  0.78337350985E+03  0.78337350986E+03  0.25500000920E-02 0. -1.
       -2   -1    0    0    0  501  0.00000000000E+00  0.00000000000E+00 -0.55165338581E+03  0.55165338582E+03  0.25500000920E-02 0.  1.
    10030    2    1    2    0    0  0.00000000000E+00  0.00000000000E+00  0.23172012404E+03  0.13350268957E+04  0.13147633233E+04 0.  0.
        2    1    3    3  502    0  0.41564560264E+03  0.16618580734E+03 -0.37298653901E+03  0.58266452428E+03  0.25500000920E-02 0.  1.
       -2    1    3    3    0  502 -0.41564560264E+03 -0.16618580734E+03  0.60470666305E+03  0.75236237140E+03  0.25500000920E-02 0. -1.
</event>
<event>
 5   0  0.1823154E-03  0.1290440E+04  0.7818609E-02  0.9037180E-01
       -1   -1    0    0    0  501  0.00000000000E+00  0.00000000000E+00  0.64995624724E+03  0.64995624726E+03  0.50400001928E-02 0.  1.
        1   -1    0    0  501    0  0.00000000000E+00  0.00000000000E+00 -0.64051872269E+03  0.64051872271E+03  0.50400001928E-02 0. -1.
    10030    2    1    2    0    0  0.00000000000E+00  0.00000000000E+00  0.94375245420E+01  0.12904749700E+04  0.12904404602E+04 0.  0.
        2    1    3    3  502    0 -0.61781299698E+03  0.17739327191E+03 -0.51388648289E+02  0.64482715927E+03  0.25500000920E-02 0.  1.
       -2    1    3    3    0  502  0.61781299698E+03 -0.17739327191E+03  0.60826172831E+02  0.64564781070E+03  0.25500000920E-02 0. -1.
</event>
<event>
 5   0  0.1857986E-03  0.1227018E+04  0.7818609E-02  0.9089531E-01
        1   -1    0    0  501    0  0.00000000000E+00  0.00000000000E+00  0.53202755477E+03  0.53202755479E+03  0.50400001928E-02 0. -1.
       -1   -1    0    0    0  501  0.00000000000E+00  0.00000000000E+00 -0.70746979321E+03  0.70746979323E+03  0.50400001928E-02 0.  1.
    10030    2    1    2    0    0  0.00000000000E+00  0.00000000000E+00 -0.17544223844E+03  0.12394973480E+04  0.12270182137E+04 0.  0.
        1    1    3    3  502    0 -0.51086437030E+01  0.47601798682E+03  0.30322157345E+03  0.56441345186E+03  0.50400001928E-02 0. -1.
       -1    1    3    3    0  502  0.51086437030E+01 -0.47601798682E+03 -0.47866381189E+03  0.67508389616E+03  0.50400001928E-02 0.  1.
</event>
<event>
 5   0  0.1873488E-03  0.1258503E+04  0.7818609E-02  0.9063136E-01
       -1   -1    0    0    0  501  0.00000000000E+00  0.00000000000E+00  0.68155805424E+03  0.68155805426E+03  0.50400001928E-02 0. -1.
        1   -1    0    0  501    0  0.00000000000E+00  0.00000000000E+00 -0.58095911891E+03  0.58095911893E+03  0.50400001928E-02 0.  1.
    10030    2    1    2    0    0  0.00000000000E+00  0.00000000000E+00  0.10059893533E+03  0.12625171732E+04  0.12585028672E+04 0.  0.
        3    1    3    3  502    0 -0.43376885563E+02 -0.55518306672E+03 -0.24363267116E+03  0.60783770896E+03  0.10100000352E+00 0.  1.
       -3    1    3    3    0  502  0.43376885563E+02  0.55518306672E+03  0.34423160650E+03  0.65467946423E+03  0.10100000352E+00 0. -1.
</event>
<event>
 5   0  0.1857986E-03  0.1304124E+04  0.7818609E-02  0.9026301E-01
       -1   -1    0    0    0  501  0.00000000000E+00  0.00000000000E+00  0.59476261648E+03  0.59476261650E+03  0.50400001928E-02 0. -1.
        1   -1    0    0  501    0  0.00000000000E+00  0.00000000000E+00 -0.71488169672E+03  0.71488169674E+03  0.50400001928E-02 0.  1.
    10030    2    1    2    0    0  0.00000000000E+00  0.00000000000E+00 -0.12011908025E+03  0.13096443132E+04  0.13041240868E+04 0.  0.
        1    1    3    3  502    0 -0.51753930940E+03 -0.38008598200E+03 -0.17399735461E+03  0.66527240280E+03  0.50400001928E-02 0.  1.
       -1    1    3    3    0  502  0.51753930940E+03  0.38008598200E+03  0.53878274360E+02  0.64437191044E+03  0.50400001928E-02 0. -1.
</event>
<event>
 5   0  0.1803959E-03  0.1275508E+04  0.7818609E-02  0.9049216E-01
       -1   -1    0    0    0  501  0.00000000000E+00  0.00000000000E+00  0.30159134291E+03  0.30159134295E+03  0.50400001928E-02 0. -1.
        1   -1    0    0  501    0  0.00000000000E+00  0.00000000000E+00 -0.13486128928E+04  0.13486128928E+04  0.50400001928E-02 0.  1.
    10030    2    1    2    0    0  0.00000000000E+00  0.00000000000E+00 -0.10470215499E+04  0.16502042358E+04  0.12755077004E+04 0.  0.
        4    1    3    3  502    0 -0.17540077300E+03  0.26344906736E+02 -0.13160593427E+04  0.13279583170E+04  0.12699999809E+01 0.  1.
       -4    1    3    3    0  502  0.17540077300E+03 -0.26344906736E+02  0.26903779282E+03  0.32224591875E+03  0.12699999809E+01 0. -1.
</event>
<event>
 5   0  0.1803959E-03  0.1282285E+04  0.7818609E-02  0.9043733E-01
        1   -1    0    0  501    0  0.00000000000E+00  0.00000000000E+00  0.19971628758E+04  0.19971628758E+04  0.50400001928E-02 0.  1.
       -1   -1    0    0    0  501  0.00000000000E+00  0.00000000000E+00 -0.20582370092E+03  0.20582370098E+03  0.50400001928E-02 0. -1.
    10030    2    1    2    0    0  0.00000000000E+00  0.00000000000E+00  0.17913391748E+04  0.22029865767E+04  0.12822846088E+04 0.  0.
        4    1    3    3  502    0 -0.31092691149E+03 -0.22962567468E+03  0.16860138041E+02  0.38689710766E+03  0.12699999809E+01 0. -1.
       -4    1    3    3    0  502  0.31092691149E+03  0.22962567468E+03  0.17744790368E+04  0.18160894691E+04  0.12699999809E+01 0.  1.
</event>
<event>
 5   0  0.1873488E-03  0.1296324E+04  0.7818609E-02  0.9032485E-01
       -1   -1    0    0    0  501  0.00000000000E+00  0.00000000000E+00  0.81223894172E+03  0.81223894174E+03  0.50400001928E-02 0.  1.
        1   -1    0    0  501    0  0.00000000000E+00  0.00000000000E+00 -0.51722947314E+03  0.51722947317E+03  0.50400001928E-02 0. -1.
    10030    2    1    2    0    0  0.00000000000E+00  0.00000000000E+00  0.29500946858E+03  0.13294684149E+04  0.12963239100E+04 0.  0.
        3    1    3    3  502    0 -0.24983901783E+02  0.63735575667E+03  0.29375701509E+02  0.63852133711E+03  0.10100000352E+00 0.  1.
       -3    1    3    3    0  502  0.24983901783E+02 -0.63735575667E+03  0.26563376707E+03  0.69094707780E+03  0.10100000352E+00 0. -1.
</event>
<event>
 5   0  0.3299104E-03  0.1287788E+04  0.7818609E-02  0.9039306E-01
       -2   -1    0    0    0  501  0.00000000000E+00  0.00000000000E+00  0.57148936852E+03  0.57148936852E+03  0.25500000920E-02 0. -1.
        2   -1    0    0  501    0  0.00000000000E+00  0.00000000000E+00 -0.72547207681E+03  0.72547207681E+03  0.25500000920E-02 0.  1.
    10030    2    1    2    0    0  0.00000000000E+00  0.00000000000E+00 -0.15398270829E+03  0.12969614453E+04  0.12877881488E+04 0.  0.
        2    1    3    3  502    0 -0.43799158232E+03  0.78295452896E+02  0.39176236161E+03  0.59282759055E+03  0.25500000920E-02 0. -1.
       -2    1    3    3    0  502  0.43799158232E+03 -0.78295452896E+02 -0.54574506990E+03  0.70413385479E+03  0.25500000920E-02 0.  1.
</event>
<event>
 5   0  0.1814770E-03  0.1274861E+04  0.7818609E-02  0.9049742E-01
        1   -1    0    0  501    0  0.00000000000E+00  0.00000000000E+00  0.67889329011E+03  0.67889329013E+03  0.50400001928E-02 0. -1.
       -1   -1    0    0    0  501  0.00000000000E+00  0.00000000000E+00 -0.59849968725E+03  0.59849968727E+03  0.50400001928E-02 0.  1.
    10030    2    1    2    0    0  0.00000000000E+00  0.00000000000E+00  0.80393602860E+02  0.12773929774E+04  0.12748606541E+04 0.  0.
        5    1    3    3  502    0 -0.20703819642E+03  0.16678878379E+03 -0.54027424070E+03  0.60216414567E+03  0.46999998093E+01 0.  1.
       -5    1    3    3    0  502  0.20703819642E+03 -0.16678878379E+03  0.62066784356E+03  0.67522883173E+03  0.46999998093E+01 0. -1.
</event>
<event>
 5   0  0.3336609E-03  0.1309158E+04  0.7818609E-02  0.9022334E-01
        2   -1    0    0  501    0  0.00000000000E+00  0.00000000000E+00  0.65349208430E+03  0.65349208430E+03  0.25500000920E-02 0. -1.
       -2   -1    0    0    0  501  0.00000000000E+00  0.00000000000E+00 -0.65566809530E+03  0.65566809531E+03  0.25500000920E-02 0.  1.
    10030    2    1    2    0    0  0.00000000000E+00  0.00000000000E+00 -0.21760110070E+01  0.13091601796E+04  0.13091583712E+04 0.  0.
        1    1    3    3  502    0  0.58895568729E+03  0.48478226477E+02  0.28043497600E+03  0.65411215844E+03  0.50400001928E-02 0. -1.
       -1    1    3    3    0  502 -0.58895568729E+03 -0.48478226477E+02 -0.28261098701E+03  0.65504802117E+03  0.50400001928E-02 0.  1.
</event>
<event>
 5   0  0.1873488E-03  0.1351949E+04  0.7818609E-02  0.8989354E-01
       -1   -1    0    0    0  501  0.00000000000E+00  0.00000000000E+00  0.92016601261E+03  0.92016601262E+03  0.50400001928E-02 0. -1.
        1   -1    0    0  501    0  0.00000000000E+00  0.00000000000E+00 -0.49658596080E+03  0.49658596083E+03  0.50400001928E-02 0.  1.
    10030    2    1    2    0    0  0.00000000000E+00  0.00000000000E+00  0.42358005181E+03  0.14167519734E+04  0.13519489983E+04 0.  0.
        3    1    3    3  502    0  0.62279408885E+03  0.13347131873E+03  0.44903623309E+03  0.77930778185E+03  0.10100000352E+00 0. -1.
       -3    1    3    3    0  502 -0.62279408885E+03 -0.13347131873E+03 -0.25456181278E+02  0.63744419160E+03  0.10100000352E+00 0.  1.
</event>
<event>
 5   0  0.3336609E-03  0.1290121E+04  0.7818609E-02  0.9037436E-01
       -2   -1    0    0    0  501  0.00000000000E+00  0.00000000000E+00  0.33369307448E+03  0.33369307449E+03  0.25500000920E-02 0. -1.
        2   -1    0    0  501    0  0.00000000000E+00  0.00000000000E+00 -0.12469627891E+04  0.12469627891E+04  0.25500000920E-02 0.  1.
    10030    2    1    2    0    0  0.00000000000E+00  0.00000000000E+00 -0.91326971466E+03  0.15806558636E+04  0.12901206872E+04 0.  0.
        1    1    3    3  502    0 -0.15882177568E+03 -0.48827611896E+03  0.21766006925E+02  0.51391797387E+03  0.50400001928E-02 0. -1.
       -1    1    3    3    0  502  0.15882177568E+03  0.48827611896E+03 -0.93503572159E+03  0.10667378898E+04  0.50400001928E-02 0.  1.
</event>
<event>
 5   0  0.1857986E-03  0.1247138E+04  0.7818609E-02  0.9072568E-01
       -1   -1    0    0    0  501  0.00000000000E+00  0.00000000000E+00  0.25697895510E+03  0.25697895515E+03  0.50400001928E-02 0. -1.
        1   -1    0    0  501    0  0.00000000000E+00  0.00000000000E+00 -0.15131139068E+04  0.15131139068E+04  0.50400001928E-02 0.  1.
    10030    2    1    2    0    0  0.00000000000E+00  0.00000000000E+00 -0.12561349517E+04  0.17700928619E+04  0.12471382133E+04 0.  0.
        1    1    3    3  502    0 -0.57584940626E+03 -0.23635826517E+03 -0.68061433174E+03  0.92233596742E+03  0.50400001928E-02 0.  1.
       -1    1    3    3    0  502  0.57584940626E+03  0.23635826517E+03 -0.57552061993E+03  0.84775689451E+03  0.50400001928E-02 0. -1.
</event>
<event>
 5   0  0.3294720E-03  0.1260751E+04  0.7818609E-02  0.9061283E-01
       -2   -1    0    0    0  501  0.00000000000E+00  0.00000000000E+00  0.53095932033E+03  0.53095932034E+03  0.25500000920E-02 0. -1.
        2   -1    0    0  501    0  0.00000000000E+00  0.00000000000E+00 -0.74840566765E+03  0.74840566766E+03  0.25500000920E-02 0.  1.
    10030    2    1    2    0    0  0.00000000000E+00  0.00000000000E+00 -0.21744634732E+03  0.12793649880E+04  0.12607505140E+04 0.  0.
        5    1    3    3  502    0  0.26947423620E+03 -0.35591259435E+02 -0.68586269729E+03  0.73777559682E+03  0.46999998093E+01 0.  1.
       -5    1    3    3    0  502 -0.26947423620E+03  0.35591259435E+02  0.46841634997E+03  0.54158939118E+03  0.46999998093E+01 0. -1.
</event>
<event>
 5   0  0.1823154E-03  0.1276316E+04  0.7818609E-02  0.9048561E-01
       -1   -1    0    0    0  501  0.00000000000E+00  0.00000000000E+00  0.75834957231E+03  0.75834957233E+03  0.50400001928E-02 0.  1.
        1   -1    0    0  501    0  0.00000000000E+00  0.00000000000E+00 -0.53701556241E+03  0.53701556243E+03  0.50400001928E-02 0. -1.
    10030    2    1    2    0    0  0.00000000000E+00  0.00000000000E+00  0.22133400990E+03  0.12953651348E+04  0.12763158263E+04 0.  0.
        2    1    3    3  502    0  0.26079366279E+03 -0.11202986182E+03  0.69075825950E+03  0.74680050721E+03  0.25500000920E-02 0.  1.
       -2    1    3    3    0  502 -0.26079366279E+03  0.11202986182E+03 -0.46942424960E+03  0.54856462756E+03  0.25500000920E-02 0. -1.
</event>
<event>
 5   0  0.3262927E-03  0.1289129E+04  0.7818609E-02  0.9038231E-01
        2   -1    0    0  501    0  0.00000000000E+00  0.00000000000E+00  0.24364131627E+04  0.24364131627E+04  0.25500000920E-02 0. -1.
       -2   -1    0    0    0  501  0.00000000000E+00  0.00000000000E+00 -0.17052246127E+03  0.17052246129E+03  0.25500000920E-02 0.  1.
    10030    2    1    2    0    0  0.00000000000E+00  0.00000000000E+00  0.22658907014E+04  0.26069356239E+04  0.12891286502E+04 0.  0.
        3    1    3    3  502    0 -0.30061577351E+03 -0.50965089284E+03  0.16499023981E+04  0.17527954271E+04  0.10100000352E+00 0. -1.
       -3    1    3    3    0  502  0.30061577351E+03  0.50965089284E+03  0.61598830329E+03  0.85414019684E+03  0.10100000352E+00 0.  1.
</event>
<event>
 5   0  0.3299104E-03  0.1224804E+04  0.7818609E-02  0.9091419E-01
       -2   -1    0    0    0  501  0.00000000000E+00  0.00000000000E+00  0.48796260530E+03  0.48796260530E+03  0.25500000920E-02 0. -1.
        2   -1    0    0  501    0  0.00000000000E+00  0.00000000000E+00 -0.76857556698E+03  0.76857556698E+03  0.25500000920E-02 0.  1.
    10030    2    1    2    0    0  0.00000000000E+00  0.00000000000E+00 -0.28061296168E+03  0.12565381723E+04  0.12248038799E+04 0.  0.
        2    1    3    3  502    0 -0.27415107266E+03 -0.33795874577E+03 -0.58235477927E+03  0.72698831725E+03  0.25500000920E-02 0.  1.
       -2    1    3    3    0  502  0.27415107266E+03  0.33795874577E+03  0.30174181758E+03  0.52954985503E+03  0.25500000920E-02 0. -1.
</event>
<event>
 5   0  0.1254125E-03  0.1295711E+04  0.7818609E-02  0.9032973E-01
       -4   -1    0    0    0  501  0.00000000000E+00  0.00000000000E+00  0.35829555288E+03  0.35829780367E+03  0.12699999809E+01 0.  1.
        4   -1    0    0  501    0  0.00000000000E+00  0.00000000000E+00 -0.11714198789E+04  0.11714205673E+04  0.12699999809E+01 0. -1.
    10030    2    1    2    0    0  0.00000000000E+00  0.00000000000E+00 -0.81312432602E+03  0.15297183710E+04  0.12957110500E+04 0.  0.
        5    1    3    3  502    0  0.59932506690E+03  0.13081902308E+03 -0.16063820464E+03  0.63413789936E+03  0.46999998093E+01 0.  1.
       -5    1    3    3    0  502 -0.59932506690E+03 -0.13081902308E+03 -0.65248612138E+03  0.89558047165E+03  0.46999998093E+01 0. -1.
</event>
<event>
 5   0  0.3294720E-03  0.1278139E+04  0.7818609E-02  0.9047083E-01
       -2   -1    0    0    0  501  0.00000000000E+00  0.00000000000E+00  0.69084453231E+03  0.69084453231E+03  0.25500000920E-02 0.  1.
        2   -1    0    0  501    0  0.00000000000E+00  0.00000000000E+00 -0.59117432528E+03  0.59117432529E+03  0.25500000920E-02 0. -1.
    10030    2    1    2    0    0  0.00000000000E+00  0.00000000000E+00  0.99670207026E+02  0.12820188576E+04  0.12781385688E+04 0.  0.
        5    1    3    3  502    0 -0.53110427727E+03 -0.34088662880E+03 -0.51028687691E+02  0.63316780081E+03  0.46999998093E+01 0. -1.
       -5    1    3    3    0  502  0.53110427727E+03  0.34088662880E+03  0.15069889472E+03  0.64885105678E+03  0.46999998093E+01 0.  1.
</event>
<event>
 5   0  0.3294720E-03  0.1295003E+04  0.7818609E-02  0.9033537E-01
        2   -1    0    0  501    0  0.00000000000E+00  0.00000000000E+00  0.77729342258E+03  0.77729342258E+03  0.25500000920E-02 0. -1.
       -2   -1    0    0    0  501  0.00000000000E+00  0.00000000000E+00 -0.53938239242E+03  0.53938239242E+03  0.25500000920E-02 0.  1.
    10030    2    1    2    0    0  0.00000000000E+00  0.00000000000E+00  0.23791103016E+03  0.13166758150E+04  0.12950032987E+04 0.  0.
        5    1    3    3  502    0  0.22676475867E+03 -0.47768790150E+03 -0.26096672983E+03  0.58968950397E+03  0.46999998093E+01 0.  1.
       -5    1    3    3    0  502 -0.22676475867E+03  0.47768790150E+03  0.49887775999E+03  0.72698631103E+03  0.46999998093E+01 0. -1.
</event>
<event>
 5   0  0.3262927E-03  0.1311242E+04  0.7818609E-02  0.9020697E-01
       -2   -1    0    0    0  501  0.00000000000E+00  0.00000000000E+00  0.53762542926E+03  0.53762542927E+03  0.25500000920E-02 0. -1.
        2   -1    0    0  501    0  0.00000000000E+00  0.00000000000E+00 -0.79951429049E+03  0.79951429049E+03  0.25500000920E-02 0.  1.
    10030    2    1    2    0    0  0.00000000000E+00  0.00000000000E+00 -0.26188886122E+03  0.13371397198E+04  0.13112424850E+04 0.  0.
        3    1    3    3  502    0 -0.54902482845E+03 -0.20831889355E+03 -0.42827493120E+03  0.72680427252E+03  0.10100000352E+00 0.  1.
       -3    1    3    3    0  502  0.54902482845E+03  0.20831889355E+03  0.16638606998E+03  0.61033544723E+03  0.10100000352E+00 0. -1.
</event>
<event>
 5   0  0.3336609E-03  0.1304497E+04  0.7818609E-02  0.9026007E-01
        2   -1    0    0  501    0  0.00000000000E+00  0.00000000000E+00  0.99449421564E+03  0.99449421564E+03  0.25500000920E-02 0.  1.
       -2   -1    0    0    0  501  0.00000000000E+00  0.00000000000E+00 -0.42778306524E+03  0.42778306525E+03  0.25500000920E-02 0. -1.
    10030    2    1    2    0    0  0.00000000000E+00  0.00000000000E+00  0.56671115039E+03  0.14222772809E+04  0.13044965066E+04 0.  0.
        1    1    3    3  502    0  0.13340019924E+03 -0.44501082454E+03  0.78250944177E+03  0.91002817187E+03  0.50400001928E-02 0.  1.
       -1    1    3    3    0  502 -0.13340019924E+03  0.44501082454E+03 -0.21579829137E+03  0.51224910903E+03  0.50400001928E-02 0. -1.
</event>
<event>
 5   0  0.1814770E-03  0.1319574E+04  0.7818609E-02  0.9014186E-01
        1   -1    0    0  501    0  0.00000000000E+00  0.00000000000E+00  0.26915723779E+03  0.26915723784E+03  0.50400001928E-02 0.  1.
       -1   -1    0    0    0  501  0.00000000000E+00  0.00000000000E+00 -0.16173392707E+04  0.16173392707E+04  0.50400001928E-02 0. -1.
    10030    2    1    2    0    0  0.00000000000E+00  0.00000000000E+00 -0.13481820329E+04  0.18864965085E+04  0.13195735231E+04 0.  0.
        5    1    3    3  502    0 -0.20438575771E+03 -0.32180173206E+03 -0.14439237827E+04  0.14934081401E+04  0.46999998093E+01 0. -1.
       -5    1    3    3    0  502  0.20438575771E+03  0.32180173206E+03  0.95741749823E+02  0.39308836840E+03  0.46999998093E+01 0.  1.
</event>
<event>
 5   0  0.1857986E-03  0.1112266E+04  0.7818609E-02  0.9193318E-01
        1   -1    0    0  501    0  0.00000000000E+00  0.00000000000E+00  0.10668345070E+04  0.10668345070E+04  0.50400001928E-02 0.  1.
       -1   -1    0    0    0  501  0.00000000000E+00  0.00000000000E+00 -0.28990803415E+03  0.28990803419E+03  0.50400001928E-02 0. -1.
    10030    2    1    2    0    0  0.00000000000E+00  0.00000000000E+00  0.77692647288E+03  0.13567425412E+04  0.11122659659E+04 0.  0.
        1    1    3    3  502    0  0.43578471629E+03  0.14834908006E+03  0.76908814036E+03  0.89633271511E+03  0.50400001928E-02 0.  1.
       -1    1    3    3    0  502 -0.43578471629E+03 -0.14834908006E+03  0.78383325169E+01  0.46040982612E+03  0.50400001928E-02 0. -1.
</event>
<event>
 5   0  0.1254125E-03  0.1222901E+04  0.7818609E-02  0.9093044E-01
       -3   -1    0    0    0  501  0.00000000000E+00  0.00000000000E+00  0.54212802287E+03  0.54212803228E+03  0.10100000352E+00 0. -1.
        3   -1    0    0  501    0  0.00000000000E+00  0.00000000000E+00 -0.68963742039E+03  0.68963742779E+03  0.10100000352E+00 0.  1.
    10030    2    1    2    0    0  0.00000000000E+00  0.00000000000E+00 -0.14750939753E+03  0.12317654601E+04  0.12229011106E+04 0.  0.
        3    1    3    3  502    0  0.36903046617E+02 -0.12762763307E+03 -0.67492361515E+03  0.68787538411E+03  0.10100000352E+00 0.  1.
       -3    1    3    3    0  502 -0.36903046617E+02  0.12762763307E+03  0.52741421762E+03  0.54389007596E+03  0.10100000352E+00 0. -1.
</event>
<event>
 5   0  0.3299104E-03  0.8549766E+03  0.7818609E-02  0.9483682E-01
        2   -1    0    0  501    0  0.00000000000E+00  0.00000000000E+00  0.48026139420E+03  0.48026139421E+03  0.25500000920E-02 0.  1.
       -2   -1    0    0    0  501  0.00000000000E+00  0.00000000000E+00 -0.38051411546E+03  0.38051411547E+03  0.25500000920E-02 0. -1.
    10030    2    1    2    0    0  0.00000000000E+00  0.00000000000E+00  0.99747278741E+02  0.86077550967E+03  0.85497658356E+03 0.  0.
        2    1    3    3  502    0 -0.30665715771E+03  0.51288808644E+02  0.34525253225E+03  0.46461647119E+03  0.25500000920E-02 0.  1.
       -2    1    3    3    0  502  0.30665715771E+03 -0.51288808644E+02 -0.24550525351E+03  0.39615903849E+03  0.25500000920E-02 0. -1.
</event>
<event>
 5   0  0.1823154E-03  0.1207316E+04  0.7818609E-02  0.9106477E-01
       -1   -1    0    0    0  501  0.00000000000E+00  0.00000000000E+00  0.55272282259E+03  0.55272282262E+03  0.50400001928E-02 0. -1.
        1   -1    0    0  501    0  0.00000000000E+00  0.00000000000E+00 -0.65928667517E+03  0.65928667519E+03  0.50400001928E-02 0.  1.
    10030    2    1    2    0    0  0.00000000000E+00  0.00000000000E+00 -0.10656385258E+03  0.12120094978E+04  0.12073156870E+04 0.  0.
        2    1    3    3  502    0 -0.31792609933E+03  0.49717459121E+03 -0.18083184063E+03  0.61721935596E+03  0.25500000920E-02 0.  1.
       -2    1    3    3    0  502  0.31792609933E+03 -0.49717459121E+03  0.74267988050E+02  0.59479014185E+03  0.25500000920E-02 0. -1.
</event>
<event>
 5   0  0.3336609E-03  0.1266864E+04  0.7818609E-02  0.9056263E-01
        2   -1    0    0  501    0  0.00000000000E+00  0.00000000000E+00  0.10879700407E+04  0.10879700407E+04  0.25500000920E-02 0.  1.
       -2   -1    0    0    0  501  0.00000000000E+00  0.00000000000E+00 -0.36879316430E+03  0.36879316431E+03  0.25500000920E-02 0. -1.
    10030    2    1    2    0    0  0.00000000000E+00  0.00000000000E+00  0.71917687640E+03  0.14567632050E+04  0.12668637085E+04 0.  0.
        1    1    3    3  502    0 -0.10878572744E+03 -0.60251876319E+03  0.17284879448E+03  0.63619171659E+03  0.50400001928E-02 0. -1.
       -1    1    3    3    0  502  0.10878572744E+03  0.60251876319E+03  0.54632808192E+03  0.82057148842E+03  0.50400001928E-02 0.  1.
</event>
<event>
 5   0  0.3294720E-03  0.1322030E+04  0.7818609E-02  0.9012275E-01
       -2   -1    0    0    0  501  0.00000000000E+00  0.00000000000E+00  0.22638860842E+03  0.22638860844E+03  0.25500000920E-02 0.  1.
        2   -1    0    0  501    0  0.00000000000E+00  0.00000000000E+00 -0.19300473903E+04  0.19300473903E+04  0.25500000920E-02 0. -1.
    10030    2    1    2    0    0  0.00000000000E+00  0.00000000000E+00 -0.17036587818E+04  0.21564359987E+04  0.13220298679E+04 0.  0.
        5    1    3    3  502    0 -0.29356426045E+03  0.28996399427E+03 -0.95156507538E+01  0.41276110596E+03  0.46999998093E+01 0.  1.
       -5    1    3    3    0  502  0.29356426045E+03 -0.28996399427E+03 -0.16941431311E+04  0.17436748927E+04  0.46999998093E+01 0. -1.
</event>
<event>
 5   0  0.1254125E-03  0.1290283E+04  0.7818609E-02  0.9037306E-01
       -3   -1    0    0    0  501  0.00000000000E+00  0.00000000000E+00  0.84171857671E+03  0.84171858277E+03  0.10100000352E+00 0.  1.
        3   -1    0    0  501    0  0.00000000000E+00  0.00000000000E+00 -0.49447356402E+03  0.49447357434E+03  0.10100000352E+00 0. -1.
    10030    2    1    2    0    0  0.00000000000E+00  0.00000000000E+00  0.34724501269E+03  0.13361921571E+04  0.12902830627E+04 0.  0.
        3    1    3    3  502    0 -0.25229137656E+03 -0.41218905602E+03 -0.26896778032E+03  0.55307724021E+03  0.10100000352E+00 0. -1.
       -3    1    3    3    0  502  0.25229137656E+03  0.41218905602E+03  0.61621279301E+03  0.78311491689E+03  0.10100000352E+00 0.  1.
</event>
<event>
 5   0  0.1873488E-03  0.1294871E+04  0.7818609E-02  0.9033643E-01
        1   -1    0    0  501    0  0.00000000000E+00  0.00000000000E+00  0.59167802460E+03  0.59167802462E+03  0.50400001928E-02 0.  1.
       -1   -1    0    0    0  501  0.00000000000E+00  0.00000000000E+00 -0.70844710190E+03  0.70844710192E+03  0.50400001928E-02 0. -1.
    10030    2    1    2    0    0  0.00000000000E+00  0.00000000000E+00 -0.11676907730E+03  0.13001251265E+04  0.12948707763E+04 0.  0.
        3    1    3    3  502    0  0.62833109000E+02  0.40723616254E+03 -0.55979384282E+03  0.69509599936E+03  0.10100000352E+00 0.  1.
       -3    1    3    3    0  502 -0.62833109000E+02 -0.40723616254E+03  0.44302476552E+03  0.60502912718E+03  0.10100000352E+00 0. -1.
</event>
<event>
 5   0  0.1814770E-03  0.1313964E+04  0.7818609E-02  0.9018564E-01
       -1   -1    0    0    0  501  0.00000000000E+00  0.00000000000E+00  0.58146219823E+03  0.58146219826E+03  0.50400001928E-02 0.  1.
        1   -1    0    0  501    0  0.00000000000E+00  0.00000000000E+00 -0.74231067021E+03  0.74231067022E+03  0.50400001928E-02 0. -1.
    10030    2    1    2    0    0  0.00000000000E+00  0.00000000000E+00 -0.16084847197E+03  0.13237728685E+04  0.13139643741E+04 0.  0.
        5    1    3    3  502    0 -0.59322202194E+03  0.10436713593E+03 -0.34467716205E+03  0.69399517463E+03  0.46999998093E+01 0.  1.
       -5    1    3    3    0  502  0.59322202194E+03 -0.10436713593E+03  0.18382869008E+03  0.62977769385E+03  0.46999998093E+01 0. -1.
</event>
<event>
 5   0  0.3336609E-03  0.1304586E+04  0.7818609E-02  0.9025936E-01
       -2   -1    0    0    0  501  0.00000000000E+00  0.00000000000E+00  0.19479650859E+03  0.19479650860E+03  0.25500000920E-02 0. -1.
        2   -1    0    0  501    0  0.00000000000E+00  0.00000000000E+00 -0.21842593593E+04  0.21842593593E+04  0.25500000920E-02 0.  1.
    10030    2    1    2    0    0  0.00000000000E+00  0.00000000000E+00 -0.19894628507E+04  0.23790558679E+04  0.13045859068E+04 0.  0.
        1    1    3    3  502    0  0.29308738837E+03  0.40371926453E+03 -0.17610743825E+04  0.18303749458E+04  0.50400001928E-02 0.  1.
       -1    1    3    3    0  502 -0.29308738837E+03 -0.40371926453E+03 -0.22838846824E+03  0.54868092205E+03  0.50400001928E-02 0. -1.
</event>
<event>
 5   0  0.3259968E-03  0.9895046E+03  0.7818609E-02  0.9320131E-01
       -2   -1    0    0    0  501  0.00000000000E+00  0.00000000000E+00  0.29260347121E+03  0.29260347122E+03  0.25500000920E-02 0.  1.
        2   -1    0    0  501    0  0.00000000000E+00  0.00000000000E+00 -0.83655813513E+03  0.83655813513E+03  0.25500000920E-02 0. -1.
    10030    2    1    2    0    0  0.00000000000E+00  0.00000000000E+00 -0.54395466392E+03  0.11291616064E+04  0.98950455122E+03 0.  0.
        4    1    3    3  502    0  0.37079361623E+03  0.12252320888E+03  0.74670299912E+02  0.39758912100E+03  0.12699999809E+01 0.  1.
       -4    1    3    3    0  502 -0.37079361623E+03 -0.12252320888E+03 -0.61862496383E+03  0.73157248535E+03  0.12699999809E+01 0. -1.
</event>
<event>
 5   0  0.1254125E-03  0.1295576E+04  0.7818609E-02  0.9033081E-01
        4   -1    0    0  501    0  0.00000000000E+00  0.00000000000E+00  0.46329209773E+03  0.46329383843E+03  0.12699999809E+01 0.  1.
       -4   -1    0    0    0  501  0.00000000000E+00  0.00000000000E+00 -0.90575194323E+03  0.90575283359E+03  0.12699999809E+01 0. -1.
    10030    2    1    2    0    0  0.00000000000E+00  0.00000000000E+00 -0.44245984549E+03  0.13690466720E+04  0.12955763487E+04 0.  0.
        1    1    3    3  502    0  0.27367303039E+03 -0.58233686730E+03 -0.14203763771E+03  0.65892931725E+03  0.50400001928E-02 0.  1.
       -1    1    3    3    0  502 -0.27367303039E+03  0.58233686730E+03 -0.30042220778E+03  0.71011735476E+03  0.50400001928E-02 0. -1.
</event>
<event>
 5   0  0.1803959E-03  0.1311313E+04  0.7818609E-02  0.9020641E-01
        1   -1    0    0  501    0  0.00000000000E+00  0.00000000000E+00  0.37377394727E+03  0.37377394731E+03  0.50400001928E-02 0.  1.
       -1   -1    0    0    0  501  0.00000000000E+00  0.00000000000E+00 -0.11501220557E+04  0.11501220557E+04  0.50400001928E-02 0. -1.
    10030    2    1    2    0    0  0.00000000000E+00  0.00000000000E+00 -0.77634810846E+03  0.15238960031E+04  0.13113133274E+04 0.  0.
        4    1    3    3  502    0  0.36006887769E+03  0.46920366046E+03 -0.59309300642E+02  0.59440800610E+03  0.12699999809E+01 0.  1.
       -4    1    3    3    0  502 -0.36006887769E+03 -0.46920366046E+03 -0.71703880782E+03  0.92948799695E+03  0.12699999809E+01 0. -1.
</event>
<event>
 5   0  0.3262927E-03  0.1294979E+04  0.7818609E-02  0.9033556E-01
        2   -1    0    0  501    0  0.00000000000E+00  0.00000000000E+00  0.88459120798E+03  0.88459120798E+03  0.25500000920E-02 0.  1.
       -2   -1    0    0    0  501  0.00000000000E+00  0.00000000000E+00 -0.47393979560E+03  0.47393979561E+03  0.25500000920E-02 0. -1.
    10030    2    1    2    0    0  0.00000000000E+00  0.00000000000E+00  0.41065141238E+03  0.13585310036E+04  0.12949794999E+04 0.  0.
        3    1    3    3  502    0 -0.54714568957E+03  0.34237676605E+03  0.25935777464E+03  0.69559810309E+03  0.10100000352E+00 0. -1.
       -3    1    3    3    0  502  0.54714568957E+03 -0.34237676605E+03  0.15129363773E+03  0.66293290050E+03  0.10100000352E+00 0.  1.
</event>
<event>
 5   0  0.1857986E-03  0.1321336E+04  0.7818609E-02  0.9012814E-01
       -1   -1    0    0    0  501  0.00000000000E+00  0.00000000000E+00  0.26989877278E+03  0.26989877283E+03  0.50400001928E-02 0.  1.
        1   -1    0    0  501    0  0.00000000000E+00  0.00000000000E+00 -0.16172079336E+04  0.16172079336E+04  0.50400001928E-02 0. -1.
    10030    2    1    2    0    0  0.00000000000E+00  0.00000000000E+00 -0.13473091608E+04  0.18871067064E+04  0.13213363488E+04 0.  0.
        1    1    3    3  502    0  0.64868984193E+03 -0.34422957803E+02 -0.84562426117E+03  0.10663319568E+04  0.50400001928E-02 0. -1.
       -1    1    3    3    0  502 -0.64868984193E+03  0.34422957803E+02 -0.50168489964E+03  0.82077474961E+03  0.50400001928E-02 0.  1.
</event>
<event>
 5   0  0.3294720E-03  0.1308281E+04  0.7818609E-02  0.9023024E-01
       -2   -1    0    0    0  501  0.00000000000E+00  0.00000000000E+00  0.78502213273E+03  0.78502213274E+03  0.25500000920E-02 0.  1.
        2   -1    0    0  501    0  0.00000000000E+00  0.00000000000E+00 -0.54507996183E+03  0.54507996184E+03  0.25500000920E-02 0. -1.
    10030    2    1    2    0    0  0.00000000000E+00  0.00000000000E+00  0.23994217090E+03  0.13301020946E+04  0.13082810618E+04 0.  0.
        5    1    3    3  502    0  0.20364015501E+03  0.35608992213E+03  0.63798722602E+03  0.75849794722E+03  0.46999998093E+01 0.  1.
       -5    1    3    3    0  502 -0.20364015501E+03 -0.35608992213E+03 -0.39804505512E+03  0.57160414736E+03  0.46999998093E+01 0. -1.
</event>
<event>
 5   0  0.1823154E-03  0.1333738E+04  0.7818609E-02  0.9003231E-01
       -1   -1    0    0    0  501  0.00000000000E+00  0.00000000000E+00  0.82540828531E+03  0.82540828532E+03  0.50400001928E-02 0. -1.
        1   -1    0    0  501    0  0.00000000000E+00  0.00000000000E+00 -0.53878074910E+03  0.53878074913E+03  0.50400001928E-02 0.  1.
    10030    2    1    2    0    0  0.00000000000E+00  0.00000000000E+00  0.28662753621E+03  0.13641890344E+04  0.13337377468E+04 0.  0.
        2    1    3    3  502    0 -0.19391383689E+03 -0.47680038998E+03 -0.29036307358E+03  0.59097538234E+03  0.25500000920E-02 0.  1.
       -2    1    3    3    0  502  0.19391383689E+03  0.47680038998E+03  0.57699060979E+03  0.77321365211E+03  0.25500000920E-02 0. -1.
</event>
<event>
 5   0  0.3336609E-03  0.1296171E+04  0.7818609E-02  0.9032607E-01
        2   -1    0    0  501    0  0.00000000000E+00  0.00000000000E+00  0.64643379025E+03  0.64643379025E+03  0.25500000920E-02 0. -1.
       -2   -1    0    0    0  501  0.00000000000E+00  0.00000000000E+00 -0.64974170288E+03  0.64974170288E+03  0.25500000920E-02 0.  1.
    10030    2    1    2    0    0  0.00000000000E+00  0.00000000000E+00 -0.33079126295E+01  0.12961754931E+04  0.12961712721E+04 0.  0.
        1    1    3    3  502    0  0.25078717125E+03 -0.10626796893E+02 -0.59915724734E+03  0.64961260851E+03  0.50400001928E-02 0.  1.
       -1    1    3    3    0  502 -0.25078717125E+03  0.10626796893E+02  0.59584933471E+03  0.64656288462E+03  0.50400001928E-02 0. -1.
</event>
<event>
 5   0  0.3299104E-03  0.1311249E+04  0.7818609E-02  0.9020692E-01
        2   -1    0    0  501    0  0.00000000000E+00  0.00000000000E+00  0.16308626790E+04  0.16308626790E+04  0.25500000920E-02 0. -1.
       -2   -1    0    0    0  501  0.00000000000E+00  0.00000000000E+00 -0.26356810888E+03  0.26356810889E+03  0.25500000920E-02 0.  1.
    10030    2    1    2    0    0  0.00000000000E+00  0.00000000000E+00  0.13672945701E+04  0.18944307879E+04  0.13112488584E+04 0.  0.
        2    1    3    3  502    0 -0.70278948433E+02 -0.10031427359E+03  0.16141863663E+04  0.16188266458E+04  0.25500000920E-02 0. -1.
       -2    1    3    3    0  502  0.70278948433E+02  0.10031427359E+03 -0.24689179620E+03  0.27560414205E+03  0.25500000920E-02 0.  1.
</event>
<event>
 5   0  0.1814770E-03  0.1293683E+04  0.7818609E-02  0.9034590E-01
       -1   -1    0    0    0  501  0.00000000000E+00  0.00000000000E+00  0.69322835505E+03  0.69322835507E+03  0.50400001928E-02 0.  1.
        1   -1    0    0  501    0  0.00000000000E+00  0.00000000000E+00 -0.60355874519E+03  0.60355874521E+03  0.50400001928E-02 0. -1.
    10030    2    1    2    0    0  0.00000000000E+00  0.00000000000E+00  0.89669609863E+02  0.12967871003E+04  0.12936831701E+04 0.  0.
        5    1    3    3  502    0  0.90160630463E+02  0.16761645164E+03 -0.57483748891E+03  0.60554474880E+03  0.46999998093E+01 0. -1.
       -5    1    3    3    0  502 -0.90160630463E+02 -0.16761645164E+03  0.66450709878E+03  0.69124235147E+03  0.46999998093E+01 0.  1.
</event>
<event>
 5   0  0.1803959E-03  0.1124241E+04  0.7818609E-02  0.9181882E-01
       -1   -1    0    0    0  501  0.00000000000E+00  0.00000000000E+00  0.31787826016E+03  0.31787826020E+03  0.50400001928E-02 0. -1.
        1   -1    0    0  501    0  0.00000000000E+00  0.00000000000E+00 -0.99402711405E+03  0.99402711406E+03  0.50400001928E-02 0.  1.
    10030    2    1    2    0    0  0.00000000000E+00  0.00000000000E+00 -0.67614885389E+03  0.13119053743E+04  0.11242412723E+04 0.  0.
        4    1    3    3  502    0  0.39559994173E+03 -0.23208035938E+03  0.41162571948E+02  0.46049601229E+03  0.12699999809E+01 0. -1.
       -4    1    3    3    0  502 -0.39559994173E+03  0.23208035938E+03 -0.71731142584E+03  0.85140936197E+03  0.12699999809E+01 0.  1.
</event>
<event>
 5   0  0.1254125E-03  0.1383443E+04  0.7818609E-02  0.8965892E-01
        3   -1    0    0  501    0  0.00000000000E+00  0.00000000000E+00  0.97890033069E+03  0.97890033590E+03  0.10100000352E+00 0. -1.
       -3   -1    0    0    0  501  0.00000000000E+00  0.00000000000E+00 -0.48879162920E+03  0.48879163964E+03  0.10100000352E+00 0.  1.
    10030    2    1    2    0    0  0.00000000000E+00  0.00000000000E+00  0.49010870149E+03  0.14676919755E+04  0.13834425163E+04 0.  0.
        1    1    3    3  502    0 -0.16195078888E+03 -0.16743953652E+03  0.93603585733E+03  0.96458653456E+03  0.50400001928E-02 0. -1.
       -1    1    3    3    0  502  0.16195078888E+03  0.16743953652E+03 -0.44592715584E+03  0.50310544099E+03  0.50400001928E-02 0.  1.
</event>
<event>
 5   0  0.3259968E-03  0.1304733E+04  0.7818609E-02  0.9025820E-01
       -2   -1    0    0    0  501  0.00000000000E+00  0.00000000000E+00  0.76417726332E+03  0.76417726333E+03  0.25500000920E-02 0.  1.
        2   -1    0    0  501    0  0.00000000000E+00  0.00000000000E+00 -0.55691560208E+03  0.55691560208E+03  0.25500000920E-02 0. -1.
    10030    2    1    2    0    0  0.00000000000E+00  0.00000000000E+00  0.20726166124E+03  0.13210928654E+04  0.13047332918E+04 0.  0.
        4    1    3    3  502    0 -0.25632691314E+03 -0.43110531865E+02  0.70947985419E+03  0.75559597720E+03  0.12699999809E+01 0.  1.
       -4    1    3    3    0  502  0.25632691314E+03  0.43110531865E+02 -0.50221819295E+03  0.56549688821E+03  0.12699999809E+01 0. -1.
</event>
<event>
 5   0  0.3294720E-03  0.1306374E+04  0.7818609E-02  0.9024525E-01
       -2   -1    0    0    0  501  0.00000000000E+00  0.00000000000E+00  0.24609125509E+03  0.24609125511E+03  0.25500000920E-02 0.  1.
        2   -1    0    0  501    0  0.00000000000E+00  0.00000000000E+00 -0.17337206529E+04  0.17337206529E+04  0.25500000920E-02 0. -1.
    10030    2    1    2    0    0  0.00000000000E+00  0.00000000000E+00 -0.14876293978E+04  0.19798119080E+04  0.13063743590E+04 0.  0.
        5    1    3    3  502    0 -0.18923421515E+03  0.23722358857E+01  0.20360531622E+03  0.27801516232E+03  0.46999998093E+01 0.  1.
       -5    1    3    3    0  502  0.18923421515E+03 -0.23722358857E+01 -0.16912347140E+04  0.17017967456E+04  0.46999998093E+01 0. -1.
</event>
<event>
 5   0  0.1803959E-03  0.1288846E+04  0.7818609E-02  0.9038458E-01
        1   -1    0    0  501    0  0.00000000000E+00  0.00000000000E+00  0.49409783135E+03  0.49409783138E+03  0.50400001928E-02 0.  1.
       -1   -1    0    0    0  501  0.00000000000E+00  0.00000000000E+00 -0.84048314499E+03  0.84048314500E+03  0.50400001928E-02 0. -1.
    10030    2    1    2    0    0  0.00000000000E+00  0.00000000000E+00 -0.34638531364E+03  0.13345809764E+04  0.12888458391E+04 0.  0.
        4    1    3    3  502    0 -0.22170643532E+03 -0.48298686417E+03 -0.55061141391E+03  0.76524806204E+03  0.12699999809E+01 0. -1.
       -4    1    3    3    0  502  0.22170643532E+03  0.48298686417E+03  0.20422610027E+03  0.56933291434E+03  0.12699999809E+01 0.  1.
</event>
<event>
 5   0  0.3259968E-03  0.1381124E+04  0.7818609E-02  0.8967596E-01
        2   -1    0    0  501    0  0.00000000000E+00  0.00000000000E+00  0.11223447690E+04  0.11223447690E+04  0.25500000920E-02 0. -1.
       -2   -1    0    0    0  501  0.00000000000E+00  0.00000000000E+00 -0.42489260291E+03  0.42489260291E+03  0.25500000920E-02 0.  1.
    10030    2    1    2    0    0  0.00000000000E+00  0.00000000000E+00  0.69745216609E+03  0.15472373719E+04  0.13811241657E+04 0.  0.
        4    1    3    3  502    0  0.26670090388E+03  0.55480856234E+03  0.69930642817E+03  0.93165068902E+03  0.12699999809E+01 0. -1.
       -4    1    3    3    0  502 -0.26670090388E+03 -0.55480856234E+03 -0.18542620811E+01  0.61558668289E+03  0.12699999809E+01 0.  1.
</event>
<event>
 5   0  0.1254125E-03  0.1318865E+04  0.7818609E-02  0.9014738E-01
        3   -1    0    0  501    0  0.00000000000E+00  0.00000000000E+00  0.62290849753E+03  0.62290850571E+03  0.10100000352E+00 0.  1.
       -3   -1    0    0    0  501  0.00000000000E+00  0.00000000000E+00 -0.69809780346E+03  0.69809781077E+03  0.10100000352E+00 0. -1.
    10030    2    1    2    0    0  0.00000000000E+00  0.00000000000E+00 -0.75189305936E+02  0.13210063165E+04  0.13188647605E+04 0.  0.
        4    1    3    3  502    0 -0.12891733740E+03  0.58282967859E+03 -0.31829842305E+03  0.67648031246E+03  0.12699999809E+01 0. -1.
       -4    1    3    3    0  502  0.12891733740E+03 -0.58282967859E+03  0.24310911712E+03  0.64452600402E+03  0.12699999809E+01 0.  1.
</event>
<event>
 5   0  0.1873488E-03  0.1286610E+04  0.7818609E-02  0.9040252E-01
       -1   -1    0    0    0  501  0.00000000000E+00  0.00000000000E+00  0.36607676693E+03  0.36607676696E+03  0.50400001928E-02 0.  1.
        1   -1    0    0  501    0  0.00000000000E+00  0.00000000000E+00 -0.11304765424E+04  0.11304765424E+04  0.50400001928E-02 0. -1.
    10030    2    1    2    0    0  0.00000000000E+00  0.00000000000E+00 -0.76439977550E+03  0.14965533094E+04  0.12866098053E+04 0.  0.
        3    1    3    3  502    0 -0.36021550103E+03  0.24350266255E+03 -0.93368803059E+03  0.10299621850E+04  0.10100000352E+00 0. -1.
       -3    1    3    3    0  502  0.36021550103E+03 -0.24350266255E+03  0.16928825509E+03  0.46659112440E+03  0.10100000352E+00 0.  1.
</event>
<event>
 5   0  0.1823154E-03  0.8322740E+03  0.7818609E-02  0.9514442E-01
       -1   -1    0    0    0  501  0.00000000000E+00  0.00000000000E+00  0.22045864156E+03  0.22045864162E+03  0.50400001928E-02 0.  1.
        1   -1    0    0  501    0  0.00000000000E+00  0.00000000000E+00 -0.78549878905E+03  0.78549878906E+03  0.50400001928E-02 0. -1.
    10030    2    1    2    0    0  0.00000000000E+00  0.00000000000E+00 -0.56504014749E+03  0.10059574307E+04  0.83227398377E+03 0.  0.
        2    1    3    3  502    0  0.56431018342E+02 -0.36469208525E+03 -0.51496891305E+03  0.63354380929E+03  0.25500000920E-02 0. -1.
       -2    1    3    3    0  502 -0.56431018342E+02  0.36469208525E+03 -0.50071234436E+02  0.37241362139E+03  0.25500000920E-02 0.  1.
</event>
<event>
 5   0  0.1823154E-03  0.1310700E+04  0.7818609E-02  0.9021122E-01
       -1   -1    0    0    0  501  0.00000000000E+00  0.00000000000E+00  0.49847579131E+03  0.49847579133E+03  0.50400001928E-02 0.  1.
        1   -1    0    0  501    0  0.00000000000E+00  0.00000000000E+00 -0.86159416538E+03  0.86159416539E+03  0.50400001928E-02 0. -1.
    10030    2    1    2    0    0  0.00000000000E+00  0.00000000000E+00 -0.36311837407E+03  0.13600699567E+04  0.13107003218E+04 0.  0.
        2    1    3    3  502    0 -0.46128960936E+03  0.40442853448E+03  0.57629809132E+02  0.61617508722E+03  0.25500000920E-02 0. -1.
       -2    1    3    3    0  502  0.46128960936E+03 -0.40442853448E+03 -0.42074818320E+03  0.74389486951E+03  0.25500000920E-02 0.  1.
</event>
<event>
 5   0  0.1857986E-03  0.1292117E+04  0.7818609E-02  0.9035840E-01
        1   -1    0    0  501    0  0.00000000000E+00  0.00000000000E+00  0.15657808727E+04  0.15657808727E+04  0.50400001928E-02 0. -1.
       -1   -1    0    0    0  501  0.00000000000E+00  0.00000000000E+00 -0.26657105137E+03  0.26657105142E+03  0.50400001928E-02 0.  1.
    10030    2    1    2    0    0  0.00000000000E+00  0.00000000000E+00  0.12992098214E+04  0.18323519242E+04  0.12921174150E+04 0.  0.
        1    1    3    3  502    0 -0.56235345582E+03  0.29092202157E+03  0.46736484983E+03  0.78696056749E+03  0.50400001928E-02 0.  1.
       -1    1    3    3    0  502  0.56235345582E+03 -0.29092202157E+03  0.83184497153E+03  0.10453913567E+04  0.50400001928E-02 0. -1.
</event>
<event>
 5   0  0.1814770E-03  0.1226682E+04  0.7818609E-02  0.9089817E-01
        1   -1    0    0  501    0  0.00000000000E+00  0.00000000000E+00  0.92352914672E+03  0.92352914673E+03  0.50400001928E-02 0. -1.
       -1   -1    0    0    0  501  0.00000000000E+00  0.00000000000E+00 -0.40733660562E+03  0.40733660566E+03  0.50400001928E-02 0.  1.
    10030    2    1    2    0    0  0.00000000000E+00  0.00000000000E+00  0.51619254109E+03  0.13308657524E+04  0.12266820743E+04 0.  0.
        5    1    3    3  502    0 -0.58796656822E+03  0.12725670548E+03  0.12851085306E+03  0.61517158889E+03  0.46999998093E+01 0.  1.
       -5    1    3    3    0  502  0.58796656822E+03 -0.12725670548E+03  0.38768168804E+03  0.71569416350E+03  0.46999998093E+01 0. -1.
</event>
<event>
 5   0  0.1823154E-03  0.1316215E+04  0.7818609E-02  0.9016805E-01
        1   -1    0    0  501    0  0.00000000000E+00  0.00000000000E+00  0.56387649261E+03  0.56387649264E+03  0.50400001928E-02 0.  1.
       -1   -1    0    0    0  501  0.00000000000E+00  0.00000000000E+00 -0.76808540138E+03  0.76808540140E+03  0.50400001928E-02 0. -1.
    10030    2    1    2    0    0  0.00000000000E+00  0.00000000000E+00 -0.20420890877E+03  0.13319618940E+04  0.13162147274E+04 0.  0.
        2    1    3    3  502    0  0.49979061263E+03 -0.26843032747E+03 -0.43965141485E+03  0.71773174917E+03  0.25500000920E-02 0. -1.
       -2    1    3    3    0  502 -0.49979061263E+03  0.26843032747E+03  0.23544250608E+03  0.61423014486E+03  0.25500000920E-02 0.  1.
</event>
<event>
 5   0  0.3259968E-03  0.1308701E+04  0.7818609E-02  0.9022694E-01
       -2   -1    0    0    0  501  0.00000000000E+00  0.00000000000E+00  0.25927912110E+03  0.25927912111E+03  0.25500000920E-02 0.  1.
        2   -1    0    0  501    0  0.00000000000E+00  0.00000000000E+00 -0.16514037011E+04  0.16514037011E+04  0.25500000920E-02 0. -1.
    10030    2    1    2    0    0  0.00000000000E+00  0.00000000000E+00 -0.13921245800E+04  0.19106828222E+04  0.13087008829E+04 0.  0.
        4    1    3    3  502    0  0.50527805673E+03 -0.40594057521E+03 -0.82729224423E+03  0.10509556296E+04  0.12699999809E+01 0. -1.
       -4    1    3    3    0  502 -0.50527805673E+03  0.40594057521E+03 -0.56483233574E+03  0.85972719255E+03  0.12699999809E+01 0.  1.
</event>
<event>
 5   0  0.3259968E-03  0.1305619E+04  0.7818609E-02  0.9025121E-01
       -2   -1    0    0    0  501  0.00000000000E+00  0.00000000000E+00  0.36709685001E+03  0.36709685002E+03  0.25500000920E-02 0. -1.
        2   -1    0    0  501    0  0.00000000000E+00  0.00000000000E+00 -0.11608930005E+04  0.11608930005E+04  0.25500000920E-02 0.  1.
    10030    2    1    2    0    0  0.00000000000E+00  0.00000000000E+00 -0.79379615053E+03  0.15279898506E+04  0.13056188781E+04 0.  0.
        4    1    3    3  502    0 -0.19194496328E+03 -0.66871798795E+02  0.32911814025E+03  0.38682692453E+03  0.12699999809E+01 0. -1.
       -4    1    3    3    0  502  0.19194496328E+03  0.66871798795E+02 -0.11229142908E+04  0.11411629260E+04  0.12699999809E+01 0.  1.
</event>
<event>
 5   0  0.3336609E-03  0.1396771E+04  0.7818609E-02  0.8956159E-01
        2   -1    0    0  501    0  0.00000000000E+00  0.00000000000E+00  0.14084033570E+04  0.14084033570E+04  0.25500000920E-02 0.  1.
       -2   -1    0    0    0  501  0.00000000000E+00  0.00000000000E+00 -0.34630876066E+03  0.34630876067E+03  0.25500000920E-02 0. -1.
    10030    2    1    2    0    0  0.00000000000E+00  0.00000000000E+00  0.10620945964E+04  0.17547121177E+04  0.13967711639E+04 0.  0.
        1    1    3    3  502    0  0.33102221614E+03 -0.48036155840E+03  0.48701985985E+02  0.58540141598E+03  0.50400001928E-02 0.  1.
       -1    1    3    3    0  502 -0.33102221614E+03  0.48036155840E+03  0.10133926104E+04  0.11693107017E+04  0.50400001928E-02 0. -1.
</event>
<event>
 5   0  0.1803959E-03  0.1291668E+04  0.7818609E-02  0.9036199E-01
        1   -1    0    0  501    0  0.00000000000E+00  0.00000000000E+00  0.67954634855E+03  0.67954634857E+03  0.50400001928E-02 0.  1.
       -1   -1    0    0    0  501  0.00000000000E+00  0.00000000000E+00 -0.61379370604E+03  0.61379370606E+03  0.50400001928E-02 0. -1.
    10030    2    1    2    0    0  0.00000000000E+00  0.00000000000E+00  0.65752642513E+02  0.12933400546E+04  0.12916675605E+04 0.  0.
        4    1    3    3  502    0 -0.64134285733E+03 -0.75894117376E+02  0.37250171359E+02  0.64689239126E+03  0.12699999809E+01 0.  1.
       -4    1    3    3    0  502  0.64134285733E+03  0.75894117376E+02  0.28502471154E+02  0.64644766336E+03  0.12699999809E+01 0. -1.
</event>
<event>
 5   0  0.1803959E-03  0.1294980E+04  0.7818609E-02  0.9033556E-01
        1   -1    0    0  501    0  0.00000000000E+00  0.00000000000E+00  0.12046927696E+04  0.12046927696E+04  0.50400001928E-02 0.  1.
       -1   -1    0    0    0  501  0.00000000000E+00  0.00000000000E+00 -0.34800823049E+03  0.34800823052E+03  0.50400001928E-02 0. -1.
    10030    2    1    2    0    0  0.00000000000E+00  0.00000000000E+00  0.85668453910E+03  0.15527010001E+04  0.12949795351E+04 0.  0.
        4    1    3    3  502    0 -0.44454838470E+03  0.38336055535E+03  0.10073917828E+03  0.59559934241E+03  0.12699999809E+01 0. -1.
       -4    1    3    3    0  502  0.44454838470E+03 -0.38336055535E+03  0.75594536082E+03  0.95710165771E+03  0.12699999809E+01 0.  1.
</event>
<event>
 5   0  0.3294720E-03  0.1150171E+04  0.7818609E-02  0.9157626E-01
        2   -1    0    0  501    0  0.00000000000E+00  0.00000000000E+00  0.11962345744E+04  0.11962345744E+04  0.25500000920E-02 0.  1.
       -2   -1    0    0    0  501  0.00000000000E+00  0.00000000000E+00 -0.27647008190E+03  0.27647008192E+03  0.25500000920E-02 0. -1.
    10030    2    1    2    0    0  0.00000000000E+00  0.00000000000E+00  0.91976449254E+03  0.14727046564E+04  0.11501705452E+04 0.  0.
        5    1    3    3  502    0  0.33466420823E+03  0.29548438241E+03  0.92400652884E+03  0.10262169887E+04  0.46999998093E+01 0.  1.
       -5    1    3    3    0  502 -0.33466420823E+03 -0.29548438241E+03 -0.42420363069E+01  0.44648766768E+03  0.46999998093E+01 0. -1.
</event>
<event>
 5   0  0.1814770E-03  0.1294072E+04  0.7818609E-02  0.9034279E-01
       -1   -1    0    0    0  501  0.00000000000E+00  0.00000000000E+00  0.69480458153E+03  0.69480458154E+03  0.50400001928E-02 0. -1.
        1   -1    0    0  501    0  0.00000000000E+00  0.00000000000E+00 -0.60255183353E+03  0.60255183355E+03  0.50400001928E-02 0.  1.
    10030    2    1    2    0    0  0.00000000000E+00  0.00000000000E+00  0.92252747997E+02  0.12973564151E+04  0.12940722925E+04 0.  0.
        5    1    3    3  502    0  0.60791270530E+02  0.52925236727E+03 -0.32199759269E+03  0.62250155544E+03  0.46999998093E+01 0.  1.
       -5    1    3    3    0  502 -0.60791270530E+02 -0.52925236727E+03  0.41425034069E+03  0.67485485965E+03  0.46999998093E+01 0. -1.
</event>
<event>
 5   0  0.1814770E-03  0.1289782E+04  0.7818609E-02  0.9037708E-01
        1   -1    0    0  501    0  0.00000000000E+00  0.00000000000E+00  0.45877327968E+03  0.45877327971E+03  0.50400001928E-02 0. -1.
       -1   -1    0    0    0  501  0.00000000000E+00  0.00000000000E+00 -0.90651354309E+03  0.90651354311E+03  0.50400001928E-02 0.  1.
    10030    2    1    2    0    0  0.00000000000E+00  0.00000000000E+00 -0.44774026341E+03  0.13652868228E+04  0.12897816734E+04 0.  0.
        5    1    3    3  502    0 -0.29514606515E+02 -0.27291605102E+03 -0.84156108537E+03  0.88521264864E+03  0.46999998093E+01 0.  1.
       -5    1    3    3    0  502  0.29514606515E+02  0.27291605102E+03  0.39382082196E+03  0.48007417417E+03  0.46999998093E+01 0. -1.
</event>
<event>
 5   0  0.3299104E-03  0.1342766E+04  0.7818609E-02  0.8996323E-01
        2   -1    0    0  501    0  0.00000000000E+00  0.00000000000E+00  0.16594565673E+04  0.16594565673E+04  0.25500000920E-02 0. -1.
       -2   -1    0    0    0  501  0.00000000000E+00  0.00000000000E+00 -0.27162803648E+03  0.27162803649E+03  0.25500000920E-02 0.  1.
    10030    2    1    2    0    0  0.00000000000E+00  0.00000000000E+00  0.13878285308E+04  0.19310846038E+04  0.13427656966E+04 0.  0.
        2    1    3    3  502    0 -0.51145644226E+03 -0.17749694150E+03  0.12287670015E+03  0.55515001578E+03  0.25500000920E-02 0. -1.
       -2    1    3    3    0  502  0.51145644226E+03  0.17749694150E+03  0.12649518307E+04  0.13759345880E+04  0.25500000920E-02 0.  1.
</event>
<event>
 5   0  0.1873488E-03  0.1273389E+04  0.7818609E-02  0.9050938E-01
        1   -1    0    0  501    0  0.00000000000E+00  0.00000000000E+00  0.44031862203E+03  0.44031862206E+03  0.50400001928E-02 0. -1.
       -1   -1    0    0    0  501  0.00000000000E+00  0.00000000000E+00 -0.92065113593E+03  0.92065113595E+03  0.50400001928E-02 0.  1.
    10030    2    1    2    0    0  0.00000000000E+00  0.00000000000E+00 -0.48033251390E+03  0.13609697580E+04  0.12733889266E+04 0.  0.
        3    1    3    3  502    0 -0.37258395820E+03  0.43384058045E+03 -0.53931593669E+03  0.78606497500E+03  0.10100000352E+00 0.  1.
       -3    1    3    3    0  502  0.37258395820E+03 -0.43384058045E+03  0.58983422786E+02  0.57490478300E+03  0.10100000352E+00 0. -1.
</event>
<event>
 5   0  0.3262927E-03  0.1294879E+04  0.7818609E-02  0.9033636E-01
        2   -1    0    0  501    0  0.00000000000E+00  0.00000000000E+00  0.55219774951E+03  0.55219774951E+03  0.25500000920E-02 0.  1.
       -2   -1    0    0    0  501  0.00000000000E+00  0.00000000000E+00 -0.75910810985E+03  0.75910810986E+03  0.25500000920E-02 0. -1.
    10030    2    1    2    0    0  0.00000000000E+00  0.00000000000E+00 -0.20691036034E+03  0.13113058594E+04  0.12948788204E+04 0.  0.
        3    1    3    3  502    0  0.40247024405E+03 -0.29765524008E+03 -0.51926964226E+03  0.72126410619E+03  0.10100000352E+00 0. -1.
       -3    1    3    3    0  502 -0.40247024405E+03  0.29765524008E+03  0.31235928192E+03  0.59004175318E+03  0.10100000352E+00 0.  1.
</event>
<event>
 5   0  0.1254125E-03  0.1295194E+04  0.7818609E-02  0.9033385E-01
        3   -1    0    0  501    0  0.00000000000E+00  0.00000000000E+00  0.76295619246E+03  0.76295619914E+03  0.10100000352E+00 0.  1.
       -3   -1    0    0    0  501  0.00000000000E+00  0.00000000000E+00 -0.54967995130E+03  0.54967996058E+03  0.10100000352E+00 0. -1.
    10030    2    1    2    0    0  0.00000000000E+00  0.00000000000E+00  0.21327624116E+03  0.13126361597E+04  0.12951937819E+04 0.  0.
        1    1    3    3  502    0 -0.57329734712E+03  0.88798488084E+02  0.39831017963E+03  0.70370876002E+03  0.50400001928E-02 0.  1.
       -1    1    3    3    0  502  0.57329734712E+03 -0.88798488084E+02 -0.18503393847E+03  0.60892739971E+03  0.50400001928E-02 0. -1.
</event>
<event>
 5   0  0.3259968E-03  0.1302454E+04  0.7818609E-02  0.9027621E-01
        2   -1    0    0  501    0  0.00000000000E+00  0.00000000000E+00  0.92875829688E+03  0.92875829689E+03  0.25500000920E-02 0.  1.
       -2   -1    0    0    0  501  0.00000000000E+00  0.00000000000E+00 -0.45662783547E+03  0.45662783548E+03  0.25500000920E-02 0. -1.
    10030    2    1    2    0    0  0.00000000000E+00  0.00000000000E+00  0.47213046141E+03  0.13853861324E+04  0.13024544380E+04 0.  0.
        4    1    3    3  502    0  0.72177481044E+02  0.36163833242E+03  0.80699474193E+03  0.88726208003E+03  0.12699999809E+01 0.  1.
       -4    1    3    3    0  502 -0.72177481044E+02 -0.36163833242E+03 -0.33486428052E+03  0.49812405234E+03  0.12699999809E+01 0. -1.
</event>
<event>
 5   0  0.3259968E-03  0.1307727E+04  0.7818609E-02  0.9023460E-01
        2   -1    0    0  501    0  0.00000000000E+00  0.00000000000E+00  0.90691640691E+03  0.90691640691E+03  0.25500000920E-02 0.  1.
       -2   -1    0    0    0  501  0.00000000000E+00  0.00000000000E+00 -0.47141864630E+03  0.47141864630E+03  0.25500000920E-02 0. -1.
    10030    2    1    2    0    0  0.00000000000E+00  0.00000000000E+00  0.43549776061E+03  0.13783350532E+04  0.13077267373E+04 0.  0.
        4    1    3    3  502    0 -0.40262656893E+03 -0.21127161738E+03 -0.27750662149E+03  0.53268695139E+03  0.12699999809E+01 0. -1.
       -4    1    3    3    0  502  0.40262656893E+03  0.21127161738E+03  0.71300438211E+03  0.84564810182E+03  0.12699999809E+01 0.  1.
</event>
<event>
 5   0  0.1823154E-03  0.1300582E+04  0.7818609E-02  0.9029104E-01
        1   -1    0    0  501    0  0.00000000000E+00  0.00000000000E+00  0.12204328992E+04  0.12204328992E+04  0.50400001928E-02 0. -1.
       -1   -1    0    0    0  501  0.00000000000E+00  0.00000000000E+00 -0.34649877657E+03  0.34649877661E+03  0.50400001928E-02 0.  1.
    10030    2    1    2    0    0  0.00000000000E+00  0.00000000000E+00  0.87393412262E+03  0.15669316758E+04  0.13005821873E+04 0.  0.
        2    1    3    3  502    0  0.31649700178E+03  0.30452737240E+03  0.10147291165E+04  0.11057045051E+04  0.25500000920E-02 0.  1.
       -2    1    3    3    0  502 -0.31649700178E+03 -0.30452737240E+03 -0.14079499391E+03  0.46122717070E+03  0.25500000920E-02 0. -1.
</event>
<event>
 5   0  0.3336609E-03  0.1305553E+04  0.7818609E-02  0.9025173E-01
        2   -1    0    0  501    0  0.00000000000E+00  0.00000000000E+00  0.81018882487E+03  0.81018882487E+03  0.25500000920E-02 0.  1.
       -2   -1    0    0    0  501  0.00000000000E+00  0.00000000000E+00 -0.52594762947E+03  0.52594762948E+03  0.25500000920E-02 0. -1.
    10030    2    1    2    0    0  0.00000000000E+00  0.00000000000E+00  0.28424119540E+03  0.13361364543E+04  0.13055525909E+04 0.  0.
        1    1    3    3  502    0  0.46829560205E+03 -0.43769656670E+03  0.15787223394E+02  0.64119286634E+03  0.50400001928E-02 0. -1.
       -1    1    3    3    0  502 -0.46829560205E+03  0.43769656670E+03  0.26845397200E+03  0.69494358801E+03  0.50400001928E-02 0.  1.
</event>
<event>
 5   0  0.1857986E-03  0.1291124E+04  0.7818609E-02  0.9036633E-01
        1   -1    0    0  501    0  0.00000000000E+00  0.00000000000E+00  0.63641694270E+03  0.63641694272E+03  0.50400001928E-02 0.  1.
       -1   -1    0    0    0  501  0.00000000000E+00  0.00000000000E+00 -0.65483874645E+03  0.65483874647E+03  0.50400001928E-02 0. -1.
    10030    2    1    2    0    0  0.00000000000E+00  0.00000000000E+00 -0.18421803750E+02  0.12912556892E+04  0.12911242744E+04 0.  0.
        1    1    3    3  502    0  0.20581585049E+02  0.61141219514E+03  0.19697021119E+03  0.64268634506E+03  0.50400001928E-02 0.  1.
       -1    1    3    3    0  502 -0.20581585049E+02 -0.61141219514E+03 -0.21539201494E+03  0.64856934412E+03  0.50400001928E-02 0. -1.
</event>
<event>
 5   0  0.1814770E-03  0.1296628E+04  0.7818609E-02  0.9032244E-01
       -1   -1    0    0    0  501  0.00000000000E+00  0.00000000000E+00  0.31608004359E+03  0.31608004363E+03  0.50400001928E-02 0. -1.
        1   -1    0    0  501    0  0.00000000000E+00  0.00000000000E+00 -0.13297609539E+04  0.13297609539E+04  0.50400001928E-02 0.  1.
    10030    2    1    2    0    0  0.00000000000E+00  0.00000000000E+00 -0.10136809103E+04  0.16458409976E+04  0.12966277806E+04 0.  0.
        5    1    3    3  502    0  0.29082700123E+03  0.28188268221E+03 -0.11493876261E+04  0.12186682060E+04  0.46999998093E+01 0.  1.
       -5    1    3    3    0  502 -0.29082700123E+03 -0.28188268221E+03  0.13570671579E+03  0.42717279159E+03  0.46999998093E+01 0. -1.
</event>
<event>
 5   0  0.3336609E-03  0.1262952E+04  0.7818609E-02  0.9059471E-01
       -2   -1    0    0    0  501  0.00000000000E+00  0.00000000000E+00  0.29359188088E+03  0.29359188089E+03  0.25500000920E-02 0. -1.
        2   -1    0    0  501    0  0.00000000000E+00  0.00000000000E+00 -0.13582194807E+04  0.13582194807E+04  0.25500000920E-02 0.  1.
    10030    2    1    2    0    0  0.00000000000E+00  0.00000000000E+00 -0.10646275998E+04  0.16518113616E+04  0.12629524330E+04 0.  0.
        1    1    3    3  502    0 -0.59015620586E+03  0.19535165235E+03 -0.38716909995E+03  0.73235683063E+03  0.50400001928E-02 0. -1.
       -1    1    3    3    0  502  0.59015620586E+03 -0.19535165235E+03 -0.67745849984E+03  0.91945453092E+03  0.50400001928E-02 0.  1.
</event>
<event>
 5   0  0.1814770E-03  0.1322024E+04  0.7818609E-02  0.9012280E-01
       -1   -1    0    0    0  501  0.00000000000E+00  0.00000000000E+00  0.80823890265E+03  0.80823890267E+03  0.50400001928E-02 0. -1.
        1   -1    0    0  501    0  0.00000000000E+00  0.00000000000E+00 -0.54060392517E+03  0.54060392520E+03  0.50400001928E-02 0.  1.
    10030    2    1    2    0    0  0.00000000000E+00  0.00000000000E+00  0.26763497748E+03  0.13488428279E+04  0.13220243920E+04 0.  0.
        5    1    3    3  502    0  0.30344016013E+03 -0.10911388434E+03  0.72252621365E+03  0.79123194447E+03  0.46999998093E+01 0. -1.
       -5    1    3    3    0  502 -0.30344016013E+03  0.10911388434E+03 -0.45489123617E+03  0.55761088340E+03  0.46999998093E+01 0.  1.
</event>
<event>
 5   0  0.1873488E-03  0.1341352E+04  0.7818609E-02  0.8997400E-01
        1   -1    0    0  501    0  0.00000000000E+00  0.00000000000E+00  0.47542275731E+03  0.47542275734E+03  0.50400001928E-02 0.  1.
       -1   -1    0    0    0  501  0.00000000000E+00  0.00000000000E+00 -0.94611866118E+03  0.94611866120E+03  0.50400001928E-02 0. -1.
    10030    2    1    2    0    0  0.00000000000E+00  0.00000000000E+00 -0.47069590387E+03  0.14215414185E+04  0.13413520681E+04 0.  0.
        3    1    3    3  502    0 -0.41516705404E+03  0.16818188758E+02  0.32258479586E+03  0.52602993732E+03  0.10100000352E+00 0.  1.
       -3    1    3    3    0  502  0.41516705404E+03 -0.16818188758E+02 -0.79328069973E+03  0.89551148122E+03  0.10100000352E+00 0. -1.
</event>
<event>
 5   0  0.1803959E-03  0.1258671E+04  0.7818609E-02  0.9062998E-01
       -1   -1    0    0    0  501  0.00000000000E+00  0.00000000000E+00  0.73917390620E+03  0.73917390622E+03  0.50400001928E-02 0.  1.
        1   -1    0    0  501    0  0.00000000000E+00  0.00000000000E+00 -0.53581826542E+03  0.53581826545E+03  0.50400001928E-02 0. -1.
    10030    2    1    2    0    0  0.00000000000E+00  0.00000000000E+00  0.20335564078E+03  0.12749921717E+04  0.12586705372E+04 0.  0.
        4    1    3    3  502    0  0.21836400259E+03 -0.52529594405E+03  0.37431963845E+03  0.68098125605E+03  0.12699999809E+01 0.  1.
       -4    1    3    3    0  502 -0.21836400259E+03  0.52529594405E+03 -0.17096399767E+03  0.59401091561E+03  0.12699999809E+01 0. -1.
</event>
<event>
 5   0  0.3294720E-03  0.1271948E+04  0.7818609E-02  0.9052112E-01
        2   -1    0    0  501    0  0.00000000000E+00  0.00000000000E+00  0.28375110442E+03  0.28375110443E+03  0.25500000920E-02 0. -1.
       -2   -1    0    0    0  501  0.00000000000E+00  0.00000000000E+00 -0.14254137340E+04  0.14254137340E+04  0.25500000920E-02 0.  1.
    10030    2    1    2    0    0  0.00000000000E+00  0.00000000000E+00 -0.11416626296E+04  0.17091648385E+04  0.12719476739E+04 0.  0.
        5    1    3    3  502    0 -0.29253260343E+02  0.62826573673E+03 -0.69736439774E+03  0.93910211501E+03  0.46999998093E+01 0.  1.
       -5    1    3    3    0  502  0.29253260343E+02 -0.62826573673E+03 -0.44429823187E+03  0.77006272344E+03  0.46999998093E+01 0. -1.
</event>
<event>
 5   0  0.3336609E-03  0.1319551E+04  0.7818609E-02  0.9014203E-01
        2   -1    0    0  501    0  0.00000000000E+00  0.00000000000E+00  0.16610834460E+04  0.16610834460E+04  0.25500000920E-02 0. -1.
       -2   -1    0    0    0  501  0.00000000000E+00  0.00000000000E+00 -0.26206012407E+03  0.26206012408E+03  0.25500000920E-02 0.  1.
    10030    2    1    2    0    0  0.00000000000E+00  0.00000000000E+00  0.13990233220E+04  0.19231435701E+04  0.13195510357E+04 0.  0.
        1    1    3    3  502    0  0.58378267803E+02 -0.49179465992E+03  0.64179478124E+02  0.49938864136E+03  0.50400001928E-02 0.  1.
       -1    1    3    3    0  502 -0.58378267803E+02  0.49179465992E+03  0.13348438439E+04  0.14237549288E+04  0.50400001928E-02 0. -1.
</event>
<event>
 5   0  0.1823154E-03  0.1278083E+04  0.7818609E-02  0.9047128E-01
       -1   -1    0    0    0  501  0.00000000000E+00  0.00000000000E+00  0.88696837082E+03  0.88696837083E+03  0.50400001928E-02 0.  1.
        1   -1    0    0  501    0  0.00000000000E+00  0.00000000000E+00 -0.46041586591E+03  0.46041586594E+03  0.50400001928E-02 0. -1.
    10030    2    1    2    0    0  0.00000000000E+00  0.00000000000E+00  0.42655250491E+03  0.13473842368E+04  0.12780834253E+04 0.  0.
        2    1    3    3  502    0 -0.39491567592E+03 -0.29822839472E+03 -0.21296837761E+03  0.53875235162E+03  0.25500000920E-02 0. -1.
       -2    1    3    3    0  502  0.39491567592E+03  0.29822839472E+03  0.63952088252E+03  0.80863188515E+03  0.25500000920E-02 0.  1.
</event>
<event>
 5   0  0.1814770E-03  0.1241716E+04  0.7818609E-02  0.9077106E-01
        1   -1    0    0  501    0  0.00000000000E+00  0.00000000000E+00  0.47896226200E+03  0.47896226203E+03  0.50400001928E-02 0. -1.
       -1   -1    0    0    0  501  0.00000000000E+00  0.00000000000E+00 -0.80479103971E+03  0.80479103973E+03  0.50400001928E-02 0.  1.
    10030    2    1    2    0    0  0.00000000000E+00  0.00000000000E+00 -0.32582877771E+03  0.12837533018E+04  0.12417158078E+04 0.  0.
        5    1    3    3  502    0 -0.35685308766E+02 -0.27112707035E+03  0.41332297577E+03  0.49562213615E+03  0.46999998093E+01 0. -1.
       -5    1    3    3    0  502  0.35685308766E+02  0.27112707035E+03 -0.73915175348E+03  0.78813116561E+03  0.46999998093E+01 0.  1.
</event>
<event>
 5   0  0.3262927E-03  0.1299216E+04  0.7818609E-02  0.9030187E-01
        2   -1    0    0  501    0  0.00000000000E+00  0.00000000000E+00  0.22757028987E+04  0.22757028987E+04  0.25500000920E-02 0. -1.
       -2   -1    0    0    0  501  0.00000000000E+00  0.00000000000E+00 -0.18543302050E+03  0.18543302052E+03  0.25500000920E-02 0.  1.
    10030    2    1    2    0    0  0.00000000000E+00  0.00000000000E+00  0.20902698782E+04  0.24611359192E+04  0.12992158593E+04 0.  0.
        3    1    3    3  502    0 -0.50961112309E+03 -0.17090463782E+02  0.18075736145E+04  0.18781155350E+04  0.10100000352E+00 0. -1.
       -3    1    3    3    0  502  0.50961112309E+03  0.17090463782E+02  0.28269626372E+03  0.58302038425E+03  0.10100000352E+00 0.  1.
</event>
<event>
 5   0  0.3336609E-03  0.1307663E+04  0.7818609E-02  0.9023510E-01
       -2   -1    0    0    0  501  0.00000000000E+00  0.00000000000E+00  0.58420280059E+03  0.58420280060E+03  0.25500000920E-02 0. -1.
        2   -1    0    0  501    0  0.00000000000E+00  0.00000000000E+00 -0.73175888874E+03  0.73175888874E+03  0.25500000920E-02 0.  1.
    10030    2    1    2    0    0  0.00000000000E+00  0.00000000000E+00 -0.14755608815E+03  0.13159616893E+04  0.13076629415E+04 0.  0.
        1    1    3    3  502    0 -0.39653362593E+03  0.43306427116E+03 -0.36320016675E+03  0.69043315433E+03  0.50400001928E-02 0.  1.
       -1    1    3    3    0  502  0.39653362593E+03 -0.43306427116E+03  0.21564407860E+03  0.62552853501E+03  0.50400001928E-02 0. -1.
</event>
<event>
 5   0  0.1254125E-03  0.1331911E+04  0.7818609E-02  0.9004635E-01
        3   -1    0    0  501    0  0.00000000000E+00  0.00000000000E+00  0.11644308871E+04  0.11644308915E+04  0.10100000352E+00 0. -1.
       -3   -1    0    0    0  501  0.00000000000E+00  0.00000000000E+00 -0.38086982386E+03  0.38086983725E+03  0.10100000352E+00 0.  1.
    10030    2    1    2    0    0  0.00000000000E+00  0.00000000000E+00  0.78356106322E+03  0.15453007287E+04  0.13319108087E+04 0.  0.
        5    1    3    3  502    0  0.46605692731E+03 -0.47564631454E+03  0.38586064936E+03  0.76964862551E+03  0.46999998093E+01 0.  1.
       -5    1    3    3    0  502 -0.46605692731E+03  0.47564631454E+03  0.39770041386E+03  0.77565210320E+03  0.46999998093E+01 0. -1.
</event>
<event>
 5   0  0.1814770E-03  0.1285278E+04  0.7818609E-02  0.9041322E-01
       -1   -1    0    0    0  501  0.00000000000E+00  0.00000000000E+00  0.10609510098E+04  0.10609510098E+04  0.50400001928E-02 0.  1.
        1   -1    0    0  501    0  0.00000000000E+00  0.00000000000E+00 -0.38925909424E+03  0.38925909427E+03  0.50400001928E-02 0. -1.
    10030    2    1    2    0    0  0.00000000000E+00  0.00000000000E+00  0.67169191554E+03  0.14502101041E+04  0.12852779141E+04 0.  0.
        5    1    3    3  502    0  0.35907711652E+02  0.29185137088E+03  0.98056859004E+03  0.10237203897E+04  0.46999998093E+01 0.  1.
       -5    1    3    3    0  502 -0.35907711652E+02 -0.29185137088E+03 -0.30887667450E+03  0.42648971440E+03  0.46999998093E+01 0. -1.
</event>
<event>
 5   0  0.1823154E-03  0.1288095E+04  0.7818609E-02  0.9039059E-01
        1   -1    0    0  501    0  0.00000000000E+00  0.00000000000E+00  0.98038992079E+03  0.98038992081E+03  0.50400001928E-02 0. -1.
       -1   -1    0    0    0  501  0.00000000000E+00  0.00000000000E+00 -0.42309435898E+03  0.42309435901E+03  0.50400001928E-02 0.  1.
    10030    2    1    2    0    0  0.00000000000E+00  0.00000000000E+00  0.55729556181E+03  0.14034842798E+04  0.12880954081E+04 0.  0.
        2    1    3    3  502    0  0.44266373555E+03  0.37435893848E+03 -0.27021244623E+02  0.58036707803E+03  0.25500000920E-02 0. -1.
       -2    1    3    3    0  502 -0.44266373555E+03 -0.37435893848E+03  0.58431680643E+03  0.82311720179E+03  0.25500000920E-02 0.  1.
</event>
<event>
 5   0  0.1814770E-03  0.1173229E+04  0.7818609E-02  0.9136617E-01
       -1   -1    0    0    0  501  0.00000000000E+00  0.00000000000E+00  0.37176656168E+03  0.37176656171E+03  0.50400001928E-02 0.  1.
        1   -1    0    0  501    0  0.00000000000E+00  0.00000000000E+00 -0.92562605399E+03  0.92562605400E+03  0.50400001928E-02 0. -1.
    10030    2    1    2    0    0  0.00000000000E+00  0.00000000000E+00 -0.55385949231E+03  0.12973926157E+04  0.11732294158E+04 0.  0.
        5    1    3    3  502    0 -0.30298566238E+03 -0.16625519331E+03  0.24720770625E+03  0.42494098524E+03  0.46999998093E+01 0.  1.
       -5    1    3    3    0  502  0.30298566238E+03  0.16625519331E+03 -0.80106719856E+03  0.87245163047E+03  0.46999998093E+01 0. -1.
</event>
<event>
 5   0  0.1823154E-03  0.1279337E+04  0.7818609E-02  0.9046114E-01
        1   -1    0    0  501    0  0.00000000000E+00  0.00000000000E+00  0.12196761194E+04  0.12196761194E+04  0.50400001928E-02 0.  1.
       -1   -1    0    0    0  501  0.00000000000E+00  0.00000000000E+00 -0.33547886783E+03  0.33547886786E+03  0.50400001928E-02 0. -1.
    10030    2    1    2    0    0  0.00000000000E+00  0.00000000000E+00  0.88419725154E+03  0.15551549872E+04  0.12793366464E+04 0.  0.
        2    1    3    3  502    0 -0.20053598533E+03 -0.52516378167E+03  0.81313170590E+03  0.98853166370E+03  0.25500000920E-02 0.  1.
       -2    1    3    3    0  502  0.20053598533E+03  0.52516378167E+03  0.71065545635E+02  0.56662332353E+03  0.25500000920E-02 0. -1.
</event>
<event>
 5   0  0.1814770E-03  0.1294046E+04  0.7818609E-02  0.9034300E-01
        1   -1    0    0  501    0  0.00000000000E+00  0.00000000000E+00  0.15119263429E+04  0.15119263429E+04  0.50400001928E-02 0.  1.
       -1   -1    0    0    0  501  0.00000000000E+00  0.00000000000E+00 -0.27689115792E+03  0.27689115797E+03  0.50400001928E-02 0. -1.
    10030    2    1    2    0    0  0.00000000000E+00  0.00000000000E+00  0.12350351850E+04  0.17888175008E+04  0.12940464224E+04 0.  0.
        5    1    3    3  502    0 -0.15600341384E+03  0.62763473623E+03  0.64354528527E+03  0.91237878726E+03  0.46999998093E+01 0. -1.
       -5    1    3    3    0  502  0.15600341384E+03 -0.62763473623E+03  0.59148989968E+03  0.87643871359E+03  0.46999998093E+01 0.  1.
</event>
<event>
 5   0  0.1254125E-03  0.1076336E+04  0.7818609E-02  0.9228568E-01
       -4   -1    0    0    0  501  0.00000000000E+00  0.00000000000E+00  0.17252876510E+03  0.17253343933E+03  0.12699999809E+01 0.  1.
        4   -1    0    0  501    0  0.00000000000E+00  0.00000000000E+00 -0.16786780556E+04  0.16786785360E+04  0.12699999809E+01 0. -1.
    10030    2    1    2    0    0  0.00000000000E+00  0.00000000000E+00 -0.15061492905E+04  0.18512119754E+04  0.10763364216E+04 0.  0.
        5    1    3    3  502    0 -0.38450878422E+03  0.24174121521E+03 -0.12495243088E+04  0.13295182994E+04  0.46999998093E+01 0. -1.
       -5    1    3    3    0  502  0.38450878422E+03 -0.24174121521E+03 -0.25662498175E+03  0.52169367595E+03  0.46999998093E+01 0.  1.
</event>
<event>
 5   0  0.3262927E-03  0.1302051E+04  0.7818609E-02  0.9027940E-01
       -2   -1    0    0    0  501  0.00000000000E+00  0.00000000000E+00  0.68397606812E+03  0.68397606813E+03  0.25500000920E-02 0. -1.
        2   -1    0    0  501    0  0.00000000000E+00  0.00000000000E+00 -0.61966220097E+03  0.61966220097E+03  0.25500000920E-02 0.  1.
    10030    2    1    2    0    0  0.00000000000E+00  0.00000000000E+00  0.64313867156E+02  0.13036382691E+04  0.13020508681E+04 0.  0.
        3    1    3    3  502    0  0.11216455711E+03  0.30158459486E+03  0.59879739815E+03  0.67977385207E+03  0.10100000352E+00 0. -1.
       -3    1    3    3    0  502 -0.11216455711E+03 -0.30158459486E+03 -0.53448353100E+03  0.62386441703E+03  0.10100000352E+00 0.  1.
</event>
<event>
 5   0  0.3299104E-03  0.1252899E+04  0.7818609E-02  0.9067774E-01
        2   -1    0    0  501    0  0.00000000000E+00  0.00000000000E+00  0.61634616493E+03  0.61634616494E+03  0.25500000920E-02 0. -1.
       -2   -1    0    0    0  501  0.00000000000E+00  0.00000000000E+00 -0.63671869160E+03  0.63671869160E+03  0.25500000920E-02 0.  1.
    10030    2    1    2    0    0  0.00000000000E+00  0.00000000000E+00 -0.20372526664E+02  0.12530648565E+04  0.12528992357E+04 0.  0.
        2    1    3    3  502    0 -0.41014021111E+03  0.16262999009E+03  0.43459223060E+03  0.61930114916E+03  0.25500000920E-02 0. -1.
       -2    1    3    3    0  502  0.41014021111E+03 -0.16262999009E+03 -0.45496475726E+03  0.63376370739E+03  0.25500000920E-02 0.  1.
</event>
<event>
 5   0  0.3336609E-03  0.1307041E+04  0.7818609E-02  0.9024000E-01
       -2   -1    0    0    0  501  0.00000000000E+00  0.00000000000E+00  0.80901412256E+03  0.80901412256E+03  0.25500000920E-02 0.  1.
        2   -1    0    0  501    0  0.00000000000E+00  0.00000000000E+00 -0.52791331709E+03  0.52791331710E+03  0.25500000920E-02 0. -1.
    10030    2    1    2    0    0  0.00000000000E+00  0.00000000000E+00  0.28110080546E+03  0.13369274397E+04  0.13070414363E+04 0.  0.
        1    1    3    3  502    0  0.60122211669E+03  0.64955322566E+02 -0.11290998714E+03  0.61517143363E+03  0.50400001928E-02 0. -1.
       -1    1    3    3    0  502 -0.60122211669E+03 -0.64955322566E+02  0.39401079261E+03  0.72175600603E+03  0.50400001928E-02 0.  1.
</event>
<event>
 5   0  0.1823154E-03  0.1314604E+04  0.7818609E-02  0.9018063E-01
        1   -1    0    0  501    0  0.00000000000E+00  0.00000000000E+00  0.14636704993E+04  0.14636704993E+04  0.50400001928E-02 0. -1.
       -1   -1    0    0    0  501  0.00000000000E+00  0.00000000000E+00 -0.29517988994E+03  0.29517988999E+03  0.50400001928E-02 0.  1.
    10030    2    1    2    0    0  0.00000000000E+00  0.00000000000E+00  0.11684906093E+04  0.17588503893E+04  0.13146042704E+04 0.  0.
        2    1    3    3  502    0  0.12535249366E+03  0.18835008079E+03  0.14099312392E+04  0.14279688722E+04  0.25500000920E-02 0. -1.
       -2    1    3    3    0  502 -0.12535249366E+03 -0.18835008079E+03 -0.24144062987E+03  0.33088151710E+03  0.25500000920E-02 0.  1.
</event>
<event>
 5   0  0.3259968E-03  0.1273319E+04  0.7818609E-02  0.9050995E-01
        2   -1    0    0  501    0  0.00000000000E+00  0.00000000000E+00  0.42141813763E+03  0.42141813764E+03  0.25500000920E-02 0.  1.
       -2   -1    0    0    0  501  0.00000000000E+00  0.00000000000E+00 -0.96183602327E+03  0.96183602327E+03  0.25500000920E-02 0. -1.
    10030    2    1    2    0    0  0.00000000000E+00  0.00000000000E+00 -0.54041788563E+03  0.13832541609E+04  0.12733187278E+04 0.  0.
        4    1    3    3  502    0  0.17373979396E+03 -0.15606557590E+03  0.37320345054E+03  0.44025493567E+03  0.12699999809E+01 0.  1.
       -4    1    3    3    0  502 -0.17373979396E+03  0.15606557590E+03 -0.91362133617E+03  0.94299922524E+03  0.12699999809E+01 0. -1.
</event>
<event>
 5   0  0.1803959E-03  0.1088407E+04  0.7818609E-02  0.9216565E-01
        1   -1    0    0  501    0  0.00000000000E+00  0.00000000000E+00  0.14405660188E+04  0.14405660188E+04  0.50400001928E-02 0.  1.
       -1   -1    0    0    0  501  0.00000000000E+00  0.00000000000E+00 -0.20558407084E+03  0.20558407090E+03  0.50400001928E-02 0. -1.
    10030    2    1    2    0    0  0.00000000000E+00  0.00000000000E+00  0.12349819479E+04  0.16461500897E+04  0.10884069579E+04 0.  0.
        4    1    3    3  502    0 -0.82489161217E+02  0.31387122565E+02 -0.19468529957E+03  0.21376059494E+03  0.12699999809E+01 0. -1.
       -4    1    3    3    0  502  0.82489161217E+02 -0.31387122565E+02  0.14296672475E+04  0.14323894947E+04  0.12699999809E+01 0.  1.
</event>
<event>
 5   0  0.1823154E-03  0.1298842E+04  0.7818609E-02  0.9030484E-01
       -1   -1    0    0    0  501  0.00000000000E+00  0.00000000000E+00  0.57501231228E+03  0.57501231230E+03  0.50400001928E-02 0.  1.
        1   -1    0    0  501    0  0.00000000000E+00  0.00000000000E+00 -0.73345788344E+03  0.73345788346E+03  0.50400001928E-02 0. -1.
    10030    2    1    2    0    0  0.00000000000E+00  0.00000000000E+00 -0.15844557117E+03  0.13084701958E+04  0.12988415046E+04 0.  0.
        2    1    3    3  502    0 -0.20755327669E+03 -0.18584954498E+03 -0.67019661381E+03  0.72579743538E+03  0.25500000920E-02 0. -1.
       -2    1    3    3    0  502  0.20755327669E+03  0.18584954498E+03  0.51175104265E+03  0.58267276038E+03  0.25500000920E-02 0.  1.
</event>
<event>
 5   0  0.3262927E-03  0.1323380E+04  0.7818609E-02  0.9011228E-01
        2   -1    0    0  501    0  0.00000000000E+00  0.00000000000E+00  0.48006761945E+03  0.48006761946E+03  0.25500000920E-02 0.  1.
       -2   -1    0    0    0  501  0.00000000000E+00  0.00000000000E+00 -0.91202440773E+03  0.91202440773E+03  0.25500000920E-02 0. -1.
    10030    2    1    2    0    0  0.00000000000E+00  0.00000000000E+00 -0.43195678827E+03  0.13920920272E+04  0.13233795923E+04 0.  0.
        3    1    3    3  502    0  0.53105603539E+03  0.22271670218E+03  0.12684187484E+03  0.58967119106E+03  0.10100000352E+00 0. -1.
       -3    1    3    3    0  502 -0.53105603539E+03 -0.22271670218E+03 -0.55879866311E+03  0.80242083613E+03  0.10100000352E+00 0.  1.
</event>
<event>
 5   0  0.1814770E-03  0.1325302E+04  0.7818609E-02  0.9009738E-01
        1   -1    0    0  501    0  0.00000000000E+00  0.00000000000E+00  0.62600049565E+03  0.62600049567E+03  0.50400001928E-02 0.  1.
       -1   -1    0    0    0  501  0.00000000000E+00  0.00000000000E+00 -0.70144686358E+03  0.70144686360E+03  0.50400001928E-02 0. -1.
    10030    2    1    2    0    0  0.00000000000E+00  0.00000000000E+00 -0.75446367940E+02  0.13274473593E+04  0.13253016024E+04 0.  0.
        5    1    3    3  502    0  0.61004604035E+03 -0.14941926145E+03 -0.24925628023E+03  0.67574630614E+03  0.46999998093E+01 0. -1.
       -5    1    3    3    0  502 -0.61004604035E+03  0.14941926145E+03  0.17380991229E+03  0.65170105312E+03  0.46999998093E+01 0.  1.
</event>
<event>
 5   0  0.3262927E-03  0.1285260E+04  0.7818609E-02  0.9041336E-01
        2   -1    0    0  501    0  0.00000000000E+00  0.00000000000E+00  0.18012013681E+04  0.18012013681E+04  0.25500000920E-02 0. -1.
       -2   -1    0    0    0  501  0.00000000000E+00  0.00000000000E+00 -0.22927664497E+03  0.22927664498E+03  0.25500000920E-02 0.  1.
    10030    2    1    2    0    0  0.00000000000E+00  0.00000000000E+00  0.15719247231E+04  0.20304780131E+04  0.12852601396E+04 0.  0.
        3    1    3    3  502    0 -0.30248224258E+03  0.44422631069E+02  0.16789506333E+04  0.17065591453E+04  0.10100000352E+00 0. -1.
       -3    1    3    3    0  502  0.30248224258E+03 -0.44422631069E+02 -0.10702591018E+03  0.32391886775E+03  0.10100000352E+00 0.  1.
</event>
<event>
 5   0  0.1803959E-03  0.1085556E+04  0.7818609E-02  0.9219386E-01
       -1   -1    0    0    0  501  0.00000000000E+00  0.00000000000E+00  0.44953251442E+03  0.44953251445E+03  0.50400001928E-02 0.  1.
        1   -1    0    0  501    0  0.00000000000E+00  0.00000000000E+00 -0.65536461213E+03  0.65536461215E+03  0.50400001928E-02 0. -1.
    10030    2    1    2    0    0  0.00000000000E+00  0.00000000000E+00 -0.20583209771E+03  0.11048971266E+04  0.10855555296E+04 0.  0.
        4    1    3    3  502    0  0.83709291141E+02  0.33323934564E+02 -0.64769872678E+03  0.65393652874E+03  0.12699999809E+01 0. -1.
       -4    1    3    3    0  502 -0.83709291141E+02 -0.33323934564E+02  0.44186662907E+03  0.45096059786E+03  0.12699999809E+01 0.  1.
</event>
<event>
 5   0  0.1814770E-03  0.1300285E+04  0.7818609E-02  0.9029339E-01
       -1   -1    0    0    0  501  0.00000000000E+00  0.00000000000E+00  0.22034057415E+03  0.22034057421E+03  0.50400001928E-02 0. -1.
        1   -1    0    0  501    0  0.00000000000E+00  0.00000000000E+00 -0.19183260297E+04  0.19183260297E+04  0.50400001928E-02 0.  1.
    10030    2    1    2    0    0  0.00000000000E+00  0.00000000000E+00 -0.16979854556E+04  0.21386666039E+04  0.13002846748E+04 0.  0.
        5    1    3    3  502    0  0.47117237824E+03 -0.36509178542E+03 -0.12758965184E+04  0.14082717911E+04  0.46999998093E+01 0.  1.
       -5    1    3    3    0  502 -0.47117237824E+03  0.36509178542E+03 -0.42208893714E+03  0.73039481286E+03  0.46999998093E+01 0. -1.
</event>
<event>
 5   0  0.3294720E-03  0.1258298E+04  0.7818609E-02  0.9063305E-01
        2   -1    0    0  501    0  0.00000000000E+00  0.00000000000E+00  0.19155937582E+04  0.19155937582E+04  0.25500000920E-02 0.  1.
       -2   -1    0    0    0  501  0.00000000000E+00  0.00000000000E+00 -0.20663488049E+03  0.20663488050E+03  0.25500000920E-02 0. -1.
    10030    2    1    2    0    0  0.00000000000E+00  0.00000000000E+00  0.17089588777E+04  0.21222286387E+04  0.12582980367E+04 0.  0.
        5    1    3    3  502    0  0.31028365293E+03  0.54263491833E+03  0.97466335136E+03  0.11578943554E+04  0.46999998093E+01 0.  1.
       -5    1    3    3    0  502 -0.31028365293E+03 -0.54263491833E+03  0.73429552636E+03  0.96433428328E+03  0.46999998093E+01 0. -1.
</event>
<event>
 5   0  0.1857986E-03  0.1292116E+04  0.7818609E-02  0.9035840E-01
       -1   -1    0    0    0  501  0.00000000000E+00  0.00000000000E+00  0.10004552993E+04  0.10004552993E+04  0.50400001928E-02 0. -1.
        1   -1    0    0  501    0  0.00000000000E+00  0.00000000000E+00 -0.41720128473E+03  0.41720128476E+03  0.50400001928E-02 0.  1.
    10030    2    1    2    0    0  0.00000000000E+00  0.00000000000E+00  0.58325401455E+03  0.14176565841E+04  0.12921164595E+04 0.  0.
        1    1    3    3  502    0  0.47376832099E+03 -0.22662396253E+03  0.70445087982E+03  0.87867279716E+03  0.50400001928E-02 0.  1.
       -1    1    3    3    0  502 -0.47376832099E+03  0.22662396253E+03 -0.12119686527E+03  0.53898378690E+03  0.50400001928E-02 0. -1.
</event>
<event>
 5   0  0.3294720E-03  0.1291005E+04  0.7818609E-02  0.9036729E-01
        2   -1    0    0  501    0  0.00000000000E+00  0.00000000000E+00  0.10735417209E+04  0.10735417209E+04  0.25500000920E-02 0.  1.
       -2   -1    0    0    0  501  0.00000000000E+00  0.00000000000E+00 -0.38812997879E+03  0.38812997879E+03  0.25500000920E-02 0. -1.
    10030    2    1    2    0    0  0.00000000000E+00  0.00000000000E+00  0.68541174212E+03  0.14616716997E+04  0.12910053840E+04 0.  0.
        5    1    3    3  502    0  0.65590434127E+02 -0.15808600172E+03 -0.36195189720E+03  0.40040548807E+03  0.46999998093E+01 0. -1.
       -5    1    3    3    0  502 -0.65590434127E+02  0.15808600172E+03  0.10473636393E+04  0.10612662116E+04  0.46999998093E+01 0.  1.
</event>
<event>
 5   0  0.1823154E-03  0.9111974E+03  0.7818609E-02  0.9411691E-01
       -1   -1    0    0    0  501  0.00000000000E+00  0.00000000000E+00  0.21076619798E+03  0.21076619804E+03  0.50400001928E-02 0. -1.
        1   -1    0    0  501    0  0.00000000000E+00  0.00000000000E+00 -0.98483613161E+03  0.98483613162E+03  0.50400001928E-02 0.  1.
    10030    2    1    2    0    0  0.00000000000E+00  0.00000000000E+00 -0.77406993363E+03  0.11956023297E+04  0.91119738177E+03 0.  0.
        2    1    3    3  502    0 -0.60246996264E+02 -0.29968458684E+03 -0.83031019855E+03  0.88479126237E+03  0.25500000920E-02 0.  1.
       -2    1    3    3    0  502  0.60246996264E+02  0.29968458684E+03  0.56240264921E+02  0.31081106729E+03  0.25500000920E-02 0. -1.
</event>
<event>
 5   0  0.1873488E-03  0.1302639E+04  0.7818609E-02  0.9027475E-01
        1   -1    0    0  501    0  0.00000000000E+00  0.00000000000E+00  0.70879487066E+03  0.70879487067E+03  0.50400001928E-02 0. -1.
       -1   -1    0    0    0  501  0.00000000000E+00  0.00000000000E+00 -0.59850478326E+03  0.59850478328E+03  0.50400001928E-02 0.  1.
    10030    2    1    2    0    0  0.00000000000E+00  0.00000000000E+00  0.11029008740E+03  0.13072996540E+04  0.13026390451E+04 0.  0.
        3    1    3    3  502    0  0.47805097429E+03 -0.12705166780E+03  0.48038531480E+03  0.68952514181E+03  0.10100000352E+00 0. -1.
       -3    1    3    3    0  502 -0.47805097429E+03  0.12705166780E+03 -0.37009522740E+03  0.61777451215E+03  0.10100000352E+00 0.  1.
</event>
<event>
 5   0  0.1814770E-03  0.1177505E+04  0.7818609E-02  0.9132778E-01
       -1   -1    0    0    0  501  0.00000000000E+00  0.00000000000E+00  0.33984984831E+03  0.33984984835E+03  0.50400001928E-02 0.  1.
        1   -1    0    0  501    0  0.00000000000E+00  0.00000000000E+00 -0.10199485348E+04  0.10199485348E+04  0.50400001928E-02 0. -1.
    10030    2    1    2    0    0  0.00000000000E+00  0.00000000000E+00 -0.68009868651E+03  0.13597983832E+04  0.11775047429E+04 0.  0.
        5    1    3    3  502    0  0.17736174422E+03 -0.30231574106E+03 -0.88630819952E+03  0.95310876092E+03  0.46999998093E+01 0. -1.
       -5    1    3    3    0  502 -0.17736174422E+03  0.30231574106E+03  0.20620951301E+03  0.40668962226E+03  0.46999998093E+01 0.  1.
</event>
<event>
 5   0  0.3299104E-03  0.1280300E+04  0.7818609E-02  0.9045335E-01
        2   -1    0    0  501    0  0.00000000000E+00  0.00000000000E+00  0.12520018472E+04  0.12520018472E+04  0.25500000920E-02 0.  1.
       -2   -1    0    0    0  501  0.00000000000E+00  0.00000000000E+00 -0.32730929379E+03  0.32730929380E+03  0.25500000920E-02 0. -1.
    10030    2    1    2    0    0  0.00000000000E+00  0.00000000000E+00  0.92469255343E+03  0.15793111410E+04  0.12802997156E+04 0.  0.
        2    1    3    3  502    0  0.35374836507E+03  0.21333635648E+03 -0.14088458896E+03  0.43646165261E+03  0.25500000920E-02 0. -1.
       -2    1    3    3    0  502 -0.35374836507E+03 -0.21333635648E+03  0.10655771424E+04  0.11428494884E+04  0.25500000920E-02 0.  1.
</event>
<event>
 5   0  0.3336609E-03  0.1303670E+04  0.7818609E-02  0.9026660E-01
        2   -1    0    0  501    0  0.00000000000E+00  0.00000000000E+00  0.68096915724E+03  0.68096915724E+03  0.25500000920E-02 0.  1.
       -2   -1    0    0    0  501  0.00000000000E+00  0.00000000000E+00 -0.62394694099E+03  0.62394694099E+03  0.25500000920E-02 0. -1.
    10030    2    1    2    0    0  0.00000000000E+00  0.00000000000E+00  0.57022216249E+02  0.13049160982E+04  0.13036696247E+04 0.  0.
        1    1    3    3  502    0 -0.15938737101E+03 -0.34154293647E+03 -0.50381756622E+03  0.62919635373E+03  0.50400001928E-02 0. -1.
       -1    1    3    3    0  502  0.15938737101E+03  0.34154293647E+03  0.56083978247E+03  0.67571974451E+03  0.50400001928E-02 0.  1.
</event>
<event>
 5   0  0.1857986E-03  0.1205092E+04  0.7818609E-02  0.9108412E-01
       -1   -1    0    0    0  501  0.00000000000E+00  0.00000000000E+00  0.37898656133E+03  0.37898656137E+03  0.50400001928E-02 0. -1.
        1   -1    0    0  501    0  0.00000000000E+00  0.00000000000E+00 -0.95797965450E+03  0.95797965451E+03  0.50400001928E-02 0.  1.
    10030    2    1    2    0    0  0.00000000000E+00  0.00000000000E+00 -0.57899309317E+03  0.13369662159E+04  0.12050915569E+04 0.  0.
        1    1    3    3  502    0  0.58959570260E+03 -0.37007882013E+02 -0.42108808962E+03  0.72547078170E+03  0.50400001928E-02 0.  1.
       -1    1    3    3    0  502 -0.58959570260E+03  0.37007882013E+02 -0.15790500354E+03  0.61149543418E+03  0.50400001928E-02 0. -1.
</event>
<event>
 5   0  0.1873488E-03  0.1302059E+04  0.7818609E-02  0.9027934E-01
       -1   -1    0    0    0  501  0.00000000000E+00  0.00000000000E+00  0.53682902726E+03  0.53682902728E+03  0.50400001928E-02 0. -1.
        1   -1    0    0  501    0  0.00000000000E+00  0.00000000000E+00 -0.78952378227E+03  0.78952378228E+03  0.50400001928E-02 0.  1.
    10030    2    1    2    0    0  0.00000000000E+00  0.00000000000E+00 -0.25269475501E+03  0.13263528096E+04  0.13020588067E+04 0.  0.
        3    1    3    3  502    0  0.63784643655E+03 -0.24932155846E+02 -0.25667824767E+03  0.68800684738E+03  0.10100000352E+00 0. -1.
       -3    1    3    3    0  502 -0.63784643655E+03  0.24932155846E+02  0.39834926604E+01  0.63834596218E+03  0.10100000352E+00 0.  1.
</event>
<event>
 5   0  0.1873488E-03  0.1329720E+04  0.7818609E-02  0.9006323E-01
        1   -1    0    0  501    0  0.00000000000E+00  0.00000000000E+00  0.62193865162E+03  0.62193865164E+03  0.50400001928E-02 0.  1.
       -1   -1    0    0    0  501  0.00000000000E+00  0.00000000000E+00 -0.71074330197E+03  0.71074330198E+03  0.50400001928E-02 0. -1.
    10030    2    1    2    0    0  0.00000000000E+00  0.00000000000E+00 -0.88804650346E+02  0.13326819536E+04  0.13297198666E+04 0.  0.
        3    1    3    3  502    0  0.39400664999E+02 -0.36292908671E+03  0.51250515961E+03  0.62923086639E+03  0.10100000352E+00 0.  1.
       -3    1    3    3    0  502 -0.39400664999E+02  0.36292908671E+03 -0.60130980996E+03  0.70345108724E+03  0.10100000352E+00 0. -1.
</event>
<event>
 5   0  0.1823154E-03  0.1323975E+04  0.7818609E-02  0.9010766E-01
       -1   -1    0    0    0  501  0.00000000000E+00  0.00000000000E+00  0.43231106084E+03  0.43231106087E+03  0.50400001928E-02 0.  1.
        1   -1    0    0  501    0  0.00000000000E+00  0.00000000000E+00 -0.10136855356E+04  0.10136855356E+04  0.50400001928E-02 0. -1.
    10030    2    1    2    0    0  0.00000000000E+00  0.00000000000E+00 -0.58137447475E+03  0.14459965965E+04  0.13239750289E+04 0.  0.
        2    1    3    3  502    0  0.48019408668E+03 -0.34921374712E+02 -0.78689671259E+03  0.92250327890E+03  0.25500000920E-02 0. -1.
       -2    1    3    3    0  502 -0.48019408668E+03  0.34921374712E+02  0.20552223784E+03  0.52349331758E+03  0.25500000920E-02 0.  1.
</event>
<event>
 5   0  0.3336609E-03  0.1306574E+04  0.7818609E-02  0.9024368E-01
        2   -1    0    0  501    0  0.00000000000E+00  0.00000000000E+00  0.16796750462E+04  0.16796750462E+04  0.25500000920E-02 0. -1.
       -2   -1    0    0    0  501  0.00000000000E+00  0.00000000000E+00 -0.25408710994E+03  0.25408710995E+03  0.25500000920E-02 0.  1.
    10030    2    1    2    0    0  0.00000000000E+00  0.00000000000E+00  0.14255879363E+04  0.19337621562E+04  0.13065738068E+04 0.  0.
        1    1    3    3  502    0 -0.23253461837E+03 -0.44000078510E+03  0.86425450002E+02  0.50511622233E+03  0.50400001928E-02 0.  1.
       -1    1    3    3    0  502  0.23253461837E+03  0.44000078510E+03  0.13391624863E+04  0.14286459339E+04  0.50400001928E-02 0. -1.
</event>
<event>
 5   0  0.3262927E-03  0.1312850E+04  0.7818609E-02  0.9019437E-01
       -2   -1    0    0    0  501  0.00000000000E+00  0.00000000000E+00  0.18598953430E+03  0.18598953432E+03  0.25500000920E-02 0.  1.
        2   -1    0    0  501    0  0.00000000000E+00  0.00000000000E+00 -0.23167626823E+04  0.23167626823E+04  0.25500000920E-02 0. -1.
    10030    2    1    2    0    0  0.00000000000E+00  0.00000000000E+00 -0.21307731480E+04  0.25027522166E+04  0.13128497437E+04 0.  0.
        3    1    3    3  502    0  0.26401626575E+03  0.11693818145E+03  0.58414080383E+02  0.29460370305E+03  0.10100000352E+00 0.  1.
       -3    1    3    3    0  502 -0.26401626575E+03 -0.11693818145E+03 -0.21891872284E+04  0.22081485136E+04  0.10100000352E+00 0. -1.
</event>
<event>
 5   0  0.1873488E-03  0.1228316E+04  0.7818609E-02  0.9088426E-01
        1   -1    0    0  501    0  0.00000000000E+00  0.00000000000E+00  0.84282556614E+03  0.84282556616E+03  0.50400001928E-02 0.  1.
       -1   -1    0    0    0  501  0.00000000000E+00  0.00000000000E+00 -0.44753068968E+03  0.44753068971E+03  0.50400001928E-02 0. -1.
    10030    2    1    2    0    0  0.00000000000E+00  0.00000000000E+00  0.39529487647E+03  0.12903562559E+04  0.12283164200E+04 0.  0.
        3    1    3    3  502    0 -0.26371426102E+03  0.38124496136E+03 -0.22556176965E+03  0.51552987708E+03  0.10100000352E+00 0. -1.
       -3    1    3    3    0  502  0.26371426102E+03 -0.38124496136E+03  0.62085664612E+03  0.77482637879E+03  0.10100000352E+00 0.  1.
</event>
<event>
 5   0  0.3259968E-03  0.1264668E+04  0.7818609E-02  0.9058063E-01
        2   -1    0    0  501    0  0.00000000000E+00  0.00000000000E+00  0.19439554127E+04  0.19439554127E+04  0.25500000920E-02 0. -1.
       -2   -1    0    0    0  501  0.00000000000E+00  0.00000000000E+00 -0.20568703015E+03  0.20568703017E+03  0.25500000920E-02 0.  1.
    10030    2    1    2    0    0  0.00000000000E+00  0.00000000000E+00  0.17382683825E+04  0.21496424428E+04  0.12646682025E+04 0.  0.
        4    1    3    3  502    0 -0.10879143056E+03 -0.49735153317E+03  0.15066053590E+04  0.15903004256E+04  0.12699999809E+01 0. -1.
       -4    1    3    3    0  502  0.10879143056E+03  0.49735153317E+03  0.23166302353E+03  0.55934201727E+03  0.12699999809E+01 0.  1.
</event>
<event>
 5   0  0.1873488E-03  0.1206401E+04  0.7818609E-02  0.9107272E-01
        1   -1    0    0  501    0  0.00000000000E+00  0.00000000000E+00  0.55612728223E+03  0.55612728225E+03  0.50400001928E-02 0. -1.
       -1   -1    0    0    0  501  0.00000000000E+00  0.00000000000E+00 -0.65425849357E+03  0.65425849359E+03  0.50400001928E-02 0.  1.
    10030    2    1    2    0    0  0.00000000000E+00  0.00000000000E+00 -0.98131211338E+02  0.12103857758E+04  0.12064012565E+04 0.  0.
        3    1    3    3  502    0 -0.13655396463E+03  0.15901654124E+03  0.51841522196E+03  0.55918476213E+03  0.10100000352E+00 0. -1.
       -3    1    3    3    0  502  0.13655396463E+03 -0.15901654124E+03 -0.61654643330E+03  0.65120101371E+03  0.10100000352E+00 0.  1.
</event>
<event>
 5   0  0.1873488E-03  0.1075742E+04  0.7818609E-02  0.9229164E-01
        1   -1    0    0  501    0  0.00000000000E+00  0.00000000000E+00  0.58854438772E+03  0.58854438774E+03  0.50400001928E-02 0. -1.
       -1   -1    0    0    0  501  0.00000000000E+00  0.00000000000E+00 -0.49156019503E+03  0.49156019506E+03  0.50400001928E-02 0.  1.
    10030    2    1    2    0    0  0.00000000000E+00  0.00000000000E+00  0.96984192685E+02  0.10801045828E+04  0.10757415936E+04 0.  0.
        3    1    3    3  502    0  0.50074797100E+03 -0.13461098478E+03  0.19202760961E+03  0.55294055805E+03  0.10100000352E+00 0.  1.
       -3    1    3    3    0  502 -0.50074797100E+03  0.13461098478E+03 -0.95043416923E+02  0.52716402475E+03  0.10100000352E+00 0. -1.
</event>
<event>
 5   0  0.3262927E-03  0.1414032E+04  0.7818609E-02  0.8943724E-01
        2   -1    0    0  501    0  0.00000000000E+00  0.00000000000E+00  0.10838740593E+04  0.10838740593E+04  0.25500000920E-02 0.  1.
       -2   -1    0    0    0  501  0.00000000000E+00  0.00000000000E+00 -0.46118958256E+03  0.46118958257E+03  0.25500000920E-02 0. -1.
    10030    2    1    2    0    0  0.00000000000E+00  0.00000000000E+00  0.62268447676E+03  0.15450636419E+04  0.14140317181E+04 0.  0.
        3    1    3    3  502    0 -0.10376579406E+03 -0.24937911267E+03 -0.40259081274E+03  0.48480579056E+03  0.10100000352E+00 0. -1.
       -3    1    3    3    0  502  0.10376579406E+03  0.24937911267E+03  0.10252752895E+04  0.10602578513E+04  0.10100000352E+00 0.  1.
</event>
<event>
 5   0  0.1803959E-03  0.1323881E+04  0.7818609E-02  0.9010839E-01
       -1   -1    0    0    0  501  0.00000000000E+00  0.00000000000E+00  0.66775581151E+03  0.66775581153E+03  0.50400001928E-02 0.  1.
        1   -1    0    0  501    0  0.00000000000E+00  0.00000000000E+00 -0.65617608033E+03  0.65617608035E+03  0.50400001928E-02 0. -1.
    10030    2    1    2    0    0  0.00000000000E+00  0.00000000000E+00  0.11579731180E+02  0.13239318919E+04  0.13238812500E+04 0.  0.
        4    1    3    3  502    0  0.20597195822E+02  0.34024585089E+03  0.57323759677E+03  0.66692911075E+03  0.12699999809E+01 0.  1.
       -4    1    3    3    0  502 -0.20597195822E+02 -0.34024585089E+03 -0.56165786559E+03  0.65700278112E+03  0.12699999809E+01 0. -1.
</event>
<event>
 5   0  0.1873488E-03  0.1308834E+04  0.7818609E-02  0.9022589E-01
        1   -1    0    0  501    0  0.00000000000E+00  0.00000000000E+00  0.12184476301E+04  0.12184476301E+04  0.50400001928E-02 0.  1.
       -1   -1    0    0    0  501  0.00000000000E+00  0.00000000000E+00 -0.35148135140E+03  0.35148135144E+03  0.50400001928E-02 0. -1.
    10030    2    1    2    0    0  0.00000000000E+00  0.00000000000E+00  0.86696627872E+03  0.15699289816E+04  0.13088340150E+04 0.  0.
        3    1    3    3  502    0  0.19974550610E+03  0.54212128541E+03  0.80215285064E+03  0.98855599806E+03  0.10100000352E+00 0.  1.
       -3    1    3    3    0  502 -0.19974550610E+03 -0.54212128541E+03  0.64813428076E+02  0.58137298351E+03  0.10100000352E+00 0. -1.
</event>
<event>
 5   0  0.3299104E-03  0.1338918E+04  0.7818609E-02  0.8999260E-01
        2   -1    0    0  501    0  0.00000000000E+00  0.00000000000E+00  0.63877223290E+03  0.63877223290E+03  0.25500000920E-02 0.  1.
       -2   -1    0    0    0  501  0.00000000000E+00  0.00000000000E+00 -0.70161974975E+03  0.70161974976E+03  0.25500000920E-02 0. -1.
    10030    2    1    2    0    0  0.00000000000E+00  0.00000000000E+00 -0.62847516858E+02  0.13403919827E+04  0.13389177931E+04 0.  0.
        2    1    3    3  502    0 -0.35889763499E+03 -0.55380586124E+03  0.81246904134E+02  0.66491315507E+03  0.25500000920E-02 0.  1.
       -2    1    3    3    0  502  0.35889763499E+03  0.55380586124E+03 -0.14409442099E+03  0.67547882759E+03  0.25500000920E-02 0. -1.
</event>
<event>
 5   0  0.1803959E-03  0.1265464E+04  0.7818609E-02  0.9057410E-01
       -1   -1    0    0    0  501  0.00000000000E+00  0.00000000000E+00  0.54345187584E+03  0.54345187586E+03  0.50400001928E-02 0.  1.
        1   -1    0    0  501    0  0.00000000000E+00  0.00000000000E+00 -0.73667993755E+03  0.73667993756E+03  0.50400001928E-02 0. -1.
    10030    2    1    2    0    0  0.00000000000E+00  0.00000000000E+00 -0.19322806171E+03  0.12801318134E+04  0.12654644902E+04 0.  0.
        4    1    3    3  502    0 -0.19850394277E+03  0.60028985346E+03 -0.71902268793E+02  0.63633581749E+03  0.12699999809E+01 0. -1.
       -4    1    3    3    0  502  0.19850394277E+03 -0.60028985346E+03 -0.12132579291E+03  0.64379599594E+03  0.12699999809E+01 0.  1.
</event>
<event>
 5   0  0.3336609E-03  0.1244433E+04  0.7818609E-02  0.9074830E-01
        2   -1    0    0  501    0  0.00000000000E+00  0.00000000000E+00  0.79083014010E+03  0.79083014010E+03  0.25500000920E-02 0. -1.
       -2   -1    0    0    0  501  0.00000000000E+00  0.00000000000E+00 -0.48955294009E+03  0.48955294009E+03  0.25500000920E-02 0.  1.
    10030    2    1    2    0    0  0.00000000000E+00  0.00000000000E+00  0.30127720001E+03  0.12803830802E+04  0.12444327546E+04 0.  0.
        1    1    3    3  502    0  0.43508438659E+03  0.33368453351E+03 -0.15198320348E+03  0.56898390621E+03  0.50400001928E-02 0.  1.
       -1    1    3    3    0  502 -0.43508438659E+03 -0.33368453351E+03  0.45326040349E+03  0.71139917399E+03  0.50400001928E-02 0. -1.
</event>
<event>
 5   0  0.1254125E-03  0.1312487E+04  0.7818609E-02  0.9019721E-01
        4   -1    0    0  501    0  0.00000000000E+00  0.00000000000E+00  0.53454366962E+03  0.53454517829E+03  0.12699999809E+01 0.  1.
       -4   -1    0    0    0  501  0.00000000000E+00  0.00000000000E+00 -0.80564798368E+03  0.80564898468E+03  0.12699999809E+01 0. -1.
    10030    2    1    2    0    0  0.00000000000E+00  0.00000000000E+00 -0.27110431406E+03  0.13401941630E+04  0.13124872744E+04 0.  0.
        5    1    3    3  502    0 -0.22648386054E+03 -0.18801209463E+03 -0.73444016169E+03  0.79124454368E+03  0.46999998093E+01 0. -1.
       -5    1    3    3    0  502  0.22648386054E+03  0.18801209463E+03  0.46333584762E+03  0.54894961928E+03  0.46999998093E+01 0.  1.
</event>
<event>
 5   0  0.1803959E-03  0.1312270E+04  0.7818609E-02  0.9019891E-01
       -1   -1    0    0    0  501  0.00000000000E+00  0.00000000000E+00  0.23729114700E+03  0.23729114705E+03  0.50400001928E-02 0.  1.
        1   -1    0    0  501    0  0.00000000000E+00  0.00000000000E+00 -0.18142831103E+04  0.18142831103E+04  0.50400001928E-02 0. -1.
    10030    2    1    2    0    0  0.00000000000E+00  0.00000000000E+00 -0.15769919633E+04  0.20515742573E+04  0.13122702775E+04 0.  0.
        4    1    3    3  502    0  0.14081189357E+02 -0.43814352157E+03 -0.15517441500E+04  0.16124762155E+04  0.12699999809E+01 0. -1.
       -4    1    3    3    0  502 -0.14081189357E+02  0.43814352157E+03 -0.25247813231E+02  0.43909804186E+03  0.12699999809E+01 0.  1.
</event>
<event>
 5   0  0.3262927E-03  0.1427619E+04  0.7818609E-02  0.8934065E-01
       -2   -1    0    0    0  501  0.00000000000E+00  0.00000000000E+00  0.23122088943E+03  0.23122088945E+03  0.25500000920E-02 0.  1.
        2   -1    0    0  501    0  0.00000000000E+00  0.00000000000E+00 -0.22036255049E+04  0.22036255050E+04  0.25500000920E-02 0. -1.
    10030    2    1    2    0    0  0.00000000000E+00  0.00000000000E+00 -0.19724046155E+04  0.24348463944E+04  0.14276193460E+04 0.  0.
        3    1    3    3  502    0 -0.22155354582E+02 -0.14815861472E+03  0.20410846548E+03  0.25318394644E+03  0.10100000352E+00 0.  1.
       -3    1    3    3    0  502  0.22155354582E+02  0.14815861472E+03 -0.21765130810E+04  0.21816624480E+04  0.10100000352E+00 0. -1.
</event>
<event>
 5   0  0.1873488E-03  0.1294509E+04  0.7818609E-02  0.9033931E-01
        1   -1    0    0  501    0  0.00000000000E+00  0.00000000000E+00  0.54080201033E+03  0.54080201035E+03  0.50400001928E-02 0. -1.
       -1   -1    0    0    0  501  0.00000000000E+00  0.00000000000E+00 -0.77466156155E+03  0.77466156157E+03  0.50400001928E-02 0.  1.
    10030    2    1    2    0    0  0.00000000000E+00  0.00000000000E+00 -0.23385955123E+03  0.13154635719E+04  0.12945092195E+04 0.  0.
        3    1    3    3  502    0  0.54366438396E+03 -0.12400633865E+03 -0.45086745056E+03  0.71709832143E+03  0.10100000352E+00 0.  1.
       -3    1    3    3    0  502 -0.54366438396E+03  0.12400633865E+03  0.21700789934E+03  0.59836525049E+03  0.10100000352E+00 0. -1.
</event>
<event>
 5   0  0.3299104E-03  0.1291548E+04  0.7818609E-02  0.9036295E-01
        2   -1    0    0  501    0  0.00000000000E+00  0.00000000000E+00  0.35386432259E+03  0.35386432260E+03  0.25500000920E-02 0.  1.
       -2   -1    0    0    0  501  0.00000000000E+00  0.00000000000E+00 -0.11784851454E+04  0.11784851454E+04  0.25500000920E-02 0. -1.
    10030    2    1    2    0    0  0.00000000000E+00  0.00000000000E+00 -0.82462082285E+03  0.15323494680E+04  0.12915476726E+04 0.  0.
        2    1    3    3  502    0  0.55162650561E+02 -0.82259339637E+02  0.34479945777E+03  0.35874250244E+03  0.25500000920E-02 0.  1.
       -2    1    3    3    0  502 -0.55162650561E+02  0.82259339637E+02 -0.11694202806E+04  0.11736069656E+04  0.25500000920E-02 0. -1.
</event>
<event>
 5   0  0.3262927E-03  0.1305829E+04  0.7818609E-02  0.9024955E-01
       -2   -1    0    0    0  501  0.00000000000E+00  0.00000000000E+00  0.40546905147E+03  0.40546905147E+03  0.25500000920E-02 0.  1.
        2   -1    0    0  501    0  0.00000000000E+00  0.00000000000E+00 -0.10513686495E+04  0.10513686495E+04  0.25500000920E-02 0. -1.
    10030    2    1    2    0    0  0.00000000000E+00  0.00000000000E+00 -0.64589959807E+03  0.14568377010E+04  0.13058291605E+04 0.  0.
        3    1    3    3  502    0 -0.41741811050E+03  0.28348717562E+03  0.13932807104E+03  0.52346459221E+03  0.10100000352E+00 0.  1.
       -3    1    3    3    0  502  0.41741811050E+03 -0.28348717562E+03 -0.78522766910E+03  0.93337310880E+03  0.10100000352E+00 0. -1.
</event>
<event>
 5   0  0.3299104E-03  0.1312041E+04  0.7818609E-02  0.9020071E-01
       -2   -1    0    0    0  501  0.00000000000E+00  0.00000000000E+00  0.70079078790E+03  0.70079078790E+03  0.25500000920E-02 0. -1.
        2   -1    0    0  501    0  0.00000000000E+00  0.00000000000E+00 -0.61411044612E+03  0.61411044613E+03  0.25500000920E-02 0.  1.
    10030    2    1    2    0    0  0.00000000000E+00  0.00000000000E+00  0.86680341772E+02  0.13149012340E+04  0.13120410716E+04 0.  0.
        2    1    3    3  502    0  0.31183780591E+03 -0.99890297960E+01 -0.53499697345E+03  0.61932572974E+03  0.25500000920E-02 0.  1.
       -2    1    3    3    0  502 -0.31183780591E+03  0.99890297960E+01  0.62167731522E+03  0.69557550429E+03  0.25500000920E-02 0. -1.
</event>
<event>
 5   0  0.3299104E-03  0.1290626E+04  0.7818609E-02  0.9037032E-01
       -2   -1    0    0    0  501  0.00000000000E+00  0.00000000000E+00  0.49920117443E+03  0.49920117443E+03  0.25500000920E-02 0.  1.
        2   -1    0    0  501    0  0.00000000000E+00  0.00000000000E+00 -0.83419001306E+03  0.83419001306E+03  0.25500000920E-02 0. -1.
    10030    2    1    2    0    0  0.00000000000E+00  0.00000000000E+00 -0.33498883863E+03  0.13333911875E+04  0.12906256378E+04 0.  0.
        2    1    3    3  502    0  0.23228316963E+03  0.29110779895E+03  0.37696840349E+03  0.52990980245E+03  0.25500000920E-02 0.  1.
       -2    1    3    3    0  502 -0.23228316963E+03 -0.29110779895E+03 -0.71195724212E+03  0.80348138504E+03  0.25500000920E-02 0. -1.
</event>
<event>
 5   0  0.1814770E-03  0.1275205E+04  0.7818609E-02  0.9049462E-01
        1   -1    0    0  501    0  0.00000000000E+00  0.00000000000E+00  0.81101105338E+03  0.81101105340E+03  0.50400001928E-02 0.  1.
       -1   -1    0    0    0  501  0.00000000000E+00  0.00000000000E+00 -0.50127202261E+03  0.50127202263E+03  0.50400001928E-02 0. -1.
    10030    2    1    2    0    0  0.00000000000E+00  0.00000000000E+00  0.30973903077E+03  0.13122830760E+04  0.12752053185E+04 0.  0.
        5    1    3    3  502    0  0.63561073857E+03 -0.29471852786E+02  0.11312580200E+03  0.64628874210E+03  0.46999998093E+01 0. -1.
       -5    1    3    3    0  502 -0.63561073857E+03  0.29471852786E+02  0.19661322877E+03  0.66599433393E+03  0.46999998093E+01 0.  1.
</event>
<event>
 5   0  0.1803959E-03  0.1095383E+04  0.7818609E-02  0.9209703E-01
        1   -1    0    0  501    0  0.00000000000E+00  0.00000000000E+00  0.75609665597E+03  0.75609665598E+03  0.50400001928E-02 0.  1.
       -1   -1    0    0    0  501  0.00000000000E+00  0.00000000000E+00 -0.39672997717E+03  0.39672997720E+03  0.50400001928E-02 0. -1.
    10030    2    1    2    0    0  0.00000000000E+00  0.00000000000E+00  0.35936667880E+03  0.11528266332E+04  0.10953834198E+04 0.  0.
        4    1    3    3  502    0 -0.53473560100E+03 -0.10414474250E+03  0.12036909624E+03  0.55792349171E+03  0.12699999809E+01 0. -1.
       -4    1    3    3    0  502  0.53473560100E+03  0.10414474250E+03  0.23899758256E+03  0.59490314148E+03  0.12699999809E+01 0.  1.
</event>
<event>
 5   0  0.3299104E-03  0.1297204E+04  0.7818609E-02  0.9031786E-01
       -2   -1    0    0    0  501  0.00000000000E+00  0.00000000000E+00  0.89285238007E+03  0.89285238008E+03  0.25500000920E-02 0. -1.
        2   -1    0    0  501    0  0.00000000000E+00  0.00000000000E+00 -0.47116890951E+03  0.47116890952E+03  0.25500000920E-02 0.  1.
    10030    2    1    2    0    0  0.00000000000E+00  0.00000000000E+00  0.42168347056E+03  0.13640212896E+04  0.12972035804E+04 0.  0.
        2    1    3    3  502    0 -0.62396508537E+03 -0.23870048078E+02  0.26356353910E+02  0.62497749108E+03  0.25500000920E-02 0.  1.
       -2    1    3    3    0  502  0.62396508537E+03  0.23870048078E+02  0.39532711665E+03  0.73904379851E+03  0.25500000920E-02 0. -1.
</event>
<event>
 5   0  0.3299104E-03  0.1237411E+04  0.7818609E-02  0.9080727E-01
        2   -1    0    0  501    0  0.00000000000E+00  0.00000000000E+00  0.13036128225E+04  0.13036128225E+04  0.25500000920E-02 0.  1.
       -2   -1    0    0    0  501  0.00000000000E+00  0.00000000000E+00 -0.29364279468E+03  0.29364279469E+03  0.25500000920E-02 0. -1.
    10030    2    1    2    0    0  0.00000000000E+00  0.00000000000E+00  0.10099700278E+04  0.15972556172E+04  0.12374110269E+04 0.  0.
        2    1    3    3  502    0 -0.35474803326E+03  0.29222693246E+03 -0.29653904405E+02  0.46056715168E+03  0.25500000920E-02 0. -1.
       -2    1    3    3    0  502  0.35474803326E+03 -0.29222693246E+03  0.10396239322E+04  0.11366884655E+04  0.25500000920E-02 0.  1.
</event>
<event>
 5   0  0.1254125E-03  0.1292886E+04  0.7818609E-02  0.9035226E-01
        3   -1    0    0  501    0  0.00000000000E+00  0.00000000000E+00  0.14652480584E+04  0.14652480619E+04  0.10100000352E+00 0. -1.
       -3   -1    0    0    0  501  0.00000000000E+00  0.00000000000E+00 -0.28519987326E+03  0.28519989114E+03  0.10100000352E+00 0.  1.
    10030    2    1    2    0    0  0.00000000000E+00  0.00000000000E+00  0.11800481852E+04  0.17504479531E+04  0.12928860418E+04 0.  0.
        4    1    3    3  502    0 -0.47570258573E+02 -0.26452942284E+03  0.13860113560E+04  0.14118313769E+04  0.12699999809E+01 0. -1.
       -4    1    3    3    0  502  0.47570258573E+02  0.26452942284E+03 -0.20596317077E+03  0.33861657617E+03  0.12699999809E+01 0.  1.
</event>
<event>
 5   0  0.3262927E-03  0.1308163E+04  0.7818609E-02  0.9023117E-01
       -2   -1    0    0    0  501  0.00000000000E+00  0.00000000000E+00  0.32551711728E+03  0.32551711729E+03  0.25500000920E-02 0.  1.
        2   -1    0    0  501    0  0.00000000000E+00  0.00000000000E+00 -0.13142852795E+04  0.13142852795E+04  0.25500000920E-02 0. -1.
    10030    2    1    2    0    0  0.00000000000E+00  0.00000000000E+00 -0.98876816224E+03  0.16398023968E+04  0.13081626130E+04 0.  0.
        3    1    3    3  502    0  0.39406693245E+03  0.52204463623E+03 -0.49655371868E+03  0.82120944662E+03  0.10100000352E+00 0.  1.
       -3    1    3    3    0  502 -0.39406693245E+03 -0.52204463623E+03 -0.49221444356E+03  0.81859295021E+03  0.10100000352E+00 0. -1.
</event>
<event>
 5   0  0.1254125E-03  0.1300833E+04  0.7818609E-02  0.9028905E-01
       -4   -1    0    0    0  501  0.00000000000E+00  0.00000000000E+00  0.77544912774E+03  0.77545016772E+03  0.12699999809E+01 0. -1.
        4   -1    0    0  501    0  0.00000000000E+00  0.00000000000E+00 -0.54554189779E+03  0.54554337604E+03  0.12699999809E+01 0.  1.
    10030    2    1    2    0    0  0.00000000000E+00  0.00000000000E+00  0.22990722995E+03  0.13209935438E+04  0.13008330440E+04 0.  0.
        1    1    3    3  502    0  0.28306821404E+03 -0.56002417715E+03 -0.58832980809E+02  0.63025075363E+03  0.50400001928E-02 0.  1.
       -1    1    3    3    0  502 -0.28306821404E+03  0.56002417715E+03  0.28874021076E+03  0.69074279014E+03  0.50400001928E-02 0. -1.
</event>
<event>
 5   0  0.1857986E-03  0.1311284E+04  0.7818609E-02  0.9020664E-01
       -1   -1    0    0    0  501  0.00000000000E+00  0.00000000000E+00  0.40841957542E+03  0.40841957545E+03  0.50400001928E-02 0.  1.
        1   -1    0    0  501    0  0.00000000000E+00  0.00000000000E+00 -0.10525117894E+04  0.10525117894E+04  0.50400001928E-02 0. -1.
    10030    2    1    2    0    0  0.00000000000E+00  0.00000000000E+00 -0.64409221395E+03  0.14609313648E+04  0.13112839787E+04 0.  0.
        1    1    3    3  502    0 -0.27753536496E+03 -0.10360621976E+03  0.32960267532E+03  0.44316819739E+03  0.50400001928E-02 0.  1.
       -1    1    3    3    0  502  0.27753536496E+03  0.10360621976E+03 -0.97369488927E+03  0.10177631674E+04  0.50400001928E-02 0. -1.
</event>
<event>
 5   0  0.3299104E-03  0.1306076E+04  0.7818609E-02  0.9024760E-01
        2   -1    0    0  501    0  0.00000000000E+00  0.00000000000E+00  0.65690886056E+03  0.65690886056E+03  0.25500000920E-02 0.  1.
       -2   -1    0    0    0  501  0.00000000000E+00  0.00000000000E+00 -0.64919017628E+03  0.64919017629E+03  0.25500000920E-02 0. -1.
    10030    2    1    2    0    0  0.00000000000E+00  0.00000000000E+00  0.77186842751E+01  0.13060990369E+04  0.13060762290E+04 0.  0.
        2    1    3    3  502    0  0.29162480717E+03  0.19405601380E+03  0.55500961505E+03  0.65630666419E+03  0.25500000920E-02 0.  1.
       -2    1    3    3    0  502 -0.29162480717E+03 -0.19405601380E+03 -0.54729093078E+03  0.64979237266E+03  0.25500000920E-02 0. -1.
</event>
<event>
 5   0  0.3294720E-03  0.1280733E+04  0.7818609E-02  0.9044985E-01
        2   -1    0    0  501    0  0.00000000000E+00  0.00000000000E+00  0.77401791598E+03  0.77401791598E+03  0.25500000920E-02 0.  1.
       -2   -1    0    0    0  501  0.00000000000E+00  0.00000000000E+00 -0.52979297207E+03  0.52979297208E+03  0.25500000920E-02 0. -1.
    10030    2    1    2    0    0  0.00000000000E+00  0.00000000000E+00  0.24422494390E+03  0.13038108881E+04  0.12807329966E+04 0.  0.
        5    1    3    3  502    0  0.31456398413E+03  0.91176797504E+02 -0.43806040119E+03  0.54697597169E+03  0.46999998093E+01 0. -1.
       -5    1    3    3    0  502 -0.31456398413E+03 -0.91176797504E+02  0.68228534509E+03  0.75683491637E+03  0.46999998093E+01 0.  1.
</event>
<event>
 5   0  0.1254125E-03  0.1303172E+04  0.7818609E-02  0.9027053E-01
       -4   -1    0    0    0  501  0.00000000000E+00  0.00000000000E+00  0.11212647912E+04  0.11212655104E+04  0.12699999809E+01 0. -1.
        4   -1    0    0  501    0  0.00000000000E+00  0.00000000000E+00 -0.37864588082E+03  0.37864801064E+03  0.12699999809E+01 0.  1.
    10030    2    1    2    0    0  0.00000000000E+00  0.00000000000E+00  0.74261891039E+03  0.14999135211E+04  0.13031721777E+04 0.  0.
        1    1    3    3  502    0  0.77352535369E+02  0.28956901401E+03 -0.29459552076E+03  0.42026200100E+03  0.50400001928E-02 0.  1.
       -1    1    3    3    0  502 -0.77352535369E+02 -0.28956901401E+03  0.10372144312E+04  0.10796515201E+04  0.50400001928E-02 0. -1.
</event>
<event>
 5   0  0.1814770E-03  0.1291750E+04  0.7818609E-02  0.9036133E-01
       -1   -1    0    0    0  501  0.00000000000E+00  0.00000000000E+00  0.96516811038E+03  0.96516811040E+03  0.50400001928E-02 0.  1.
        1   -1    0    0  501    0  0.00000000000E+00  0.00000000000E+00 -0.43220908130E+03  0.43220908133E+03  0.50400001928E-02 0. -1.
    10030    2    1    2    0    0  0.00000000000E+00  0.00000000000E+00  0.53295902908E+03  0.13973771917E+04  0.12917498555E+04 0.  0.
        5    1    3    3  502    0  0.69355806996E+01 -0.42920967612E+03  0.78849782608E+03  0.89778614385E+03  0.46999998093E+01 0.  1.
       -5    1    3    3    0  502 -0.69355806996E+01  0.42920967612E+03 -0.25553879700E+03  0.49959104788E+03  0.46999998093E+01 0. -1.
</event>
<event>
 5   0  0.3259968E-03  0.1418044E+04  0.7818609E-02  0.8940860E-01
        2   -1    0    0  501    0  0.00000000000E+00  0.00000000000E+00  0.20062406328E+04  0.20062406328E+04  0.25500000920E-02 0.  1.
       -2   -1    0    0    0  501  0.00000000000E+00  0.00000000000E+00 -0.25057412388E+03  0.25057412389E+03  0.25500000920E-02 0. -1.
    10030    2    1    2    0    0  0.00000000000E+00  0.00000000000E+00  0.17556665089E+04  0.22568147567E+04  0.14180437072E+04 0.  0.
        4    1    3    3  502    0 -0.30137641592E+03 -0.40854207573E+03  0.90120152192E+02  0.51561383462E+03  0.12699999809E+01 0. -1.
       -4    1    3    3    0  502  0.30137641592E+03  0.40854207573E+03  0.16655463567E+04  0.17412009220E+04  0.12699999809E+01 0.  1.
</event>
<event>
 5   0  0.1873488E-03  0.1305819E+04  0.7818609E-02  0.9024963E-01
        1   -1    0    0  501    0  0.00000000000E+00  0.00000000000E+00  0.87905687876E+03  0.87905687877E+03  0.50400001928E-02 0. -1.
       -1   -1    0    0    0  501  0.00000000000E+00  0.00000000000E+00 -0.48494102366E+03  0.48494102368E+03  0.50400001928E-02 0.  1.
    10030    2    1    2    0    0  0.00000000000E+00  0.00000000000E+00  0.39411585510E+03  0.13639979025E+04  0.13058188889E+04 0.  0.
        3    1    3    3  502    0 -0.57387373797E+03  0.18657985597E+03 -0.63343293367E+02  0.60675818314E+03  0.10100000352E+00 0.  1.
       -3    1    3    3    0  502  0.57387373797E+03 -0.18657985597E+03  0.45745914847E+03  0.75723971932E+03  0.10100000352E+00 0. -1.
</event>
<event>
 5   0  0.1823154E-03  0.1249781E+04  0.7818609E-02  0.9070365E-01
        1   -1    0    0  501    0  0.00000000000E+00  0.00000000000E+00  0.59813464577E+03  0.59813464579E+03  0.50400001928E-02 0. -1.
       -1   -1    0    0    0  501  0.00000000000E+00  0.00000000000E+00 -0.65284352960E+03  0.65284352962E+03  0.50400001928E-02 0.  1.
    10030    2    1    2    0    0  0.00000000000E+00  0.00000000000E+00 -0.54708883833E+02  0.12509781754E+04  0.12497813142E+04 0.  0.
        2    1    3    3  502    0  0.34687582199E+03 -0.32120090839E+03  0.38168770220E+03  0.60760049493E+03  0.25500000920E-02 0. -1.
       -2    1    3    3    0  502 -0.34687582199E+03  0.32120090839E+03 -0.43639658603E+03  0.64337768047E+03  0.25500000920E-02 0.  1.
</event>
<event>
 5   0  0.3299104E-03  0.1307383E+04  0.7818609E-02  0.9023731E-01
        2   -1    0    0  501    0  0.00000000000E+00  0.00000000000E+00  0.98276140413E+03  0.98276140413E+03  0.25500000920E-02 0. -1.
       -2   -1    0    0    0  501  0.00000000000E+00  0.00000000000E+00 -0.43480795500E+03  0.43480795500E+03  0.25500000920E-02 0.  1.
    10030    2    1    2    0    0  0.00000000000E+00  0.00000000000E+00  0.54795344913E+03  0.14175693591E+04  0.13073828458E+04 0.  0.
        2    1    3    3  502    0 -0.29870952504E+03  0.54309523260E+03  0.49916443121E+03  0.79582971886E+03  0.25500000920E-02 0. -1.
       -2    1    3    3    0  502  0.29870952504E+03 -0.54309523260E+03  0.48789017916E+02  0.62173964028E+03  0.25500000920E-02 0.  1.
</event>
<event>
 5   0  0.3262927E-03  0.1304908E+04  0.7818609E-02  0.9025682E-01
        2   -1    0    0  501    0  0.00000000000E+00  0.00000000000E+00  0.68563513085E+03  0.68563513086E+03  0.25500000920E-02 0.  1.
       -2   -1    0    0    0  501  0.00000000000E+00  0.00000000000E+00 -0.62087908414E+03  0.62087908415E+03  0.25500000920E-02 0. -1.
    10030    2    1    2    0    0  0.00000000000E+00  0.00000000000E+00  0.64756046707E+02  0.13065142150E+04  0.13049084445E+04 0.  0.
        3    1    3    3  502    0 -0.28856999435E+03  0.13725027896E+02  0.61810687357E+03  0.68228816154E+03  0.10100000352E+00 0.  1.
       -3    1    3    3    0  502  0.28856999435E+03 -0.13725027896E+02 -0.55335082686E+03  0.62422605346E+03  0.10100000352E+00 0. -1.
</event>
<event>
 5   0  0.1803959E-03  0.1289032E+04  0.7818609E-02  0.9038309E-01
       -1   -1    0    0    0  501  0.00000000000E+00  0.00000000000E+00  0.59030469768E+03  0.59030469770E+03  0.50400001928E-02 0. -1.
        1   -1    0    0  501    0  0.00000000000E+00  0.00000000000E+00 -0.70370566991E+03  0.70370566993E+03  0.50400001928E-02 0.  1.
    10030    2    1    2    0    0  0.00000000000E+00  0.00000000000E+00 -0.11340097223E+03  0.12940103676E+04  0.12890318270E+04 0.  0.
        4    1    3    3  502    0 -0.36570332475E+03 -0.16043363438E+03  0.45113999039E+03  0.60250043701E+03  0.12699999809E+01 0. -1.
       -4    1    3    3    0  502  0.36570332475E+03  0.16043363438E+03 -0.56454096262E+03  0.69150993062E+03  0.12699999809E+01 0.  1.
</event>
<event>
 5   0  0.3294720E-03  0.1292027E+04  0.7818609E-02  0.9035912E-01
        2   -1    0    0  501    0  0.00000000000E+00  0.00000000000E+00  0.12608741387E+04  0.12608741387E+04  0.25500000920E-02 0. -1.
       -2   -1    0    0    0  501  0.00000000000E+00  0.00000000000E+00 -0.33098752131E+03  0.33098752132E+03  0.25500000920E-02 0.  1.
    10030    2    1    2    0    0  0.00000000000E+00  0.00000000000E+00  0.92988661744E+03  0.15918616601E+04  0.12920272534E+04 0.  0.
        5    1    3    3  502    0 -0.26475783305E+03  0.11622360088E+03  0.11766748767E+04  0.12116891065E+04  0.46999998093E+01 0. -1.
       -5    1    3    3    0  502  0.26475783305E+03 -0.11622360088E+03 -0.24678825922E+03  0.38017255352E+03  0.46999998093E+01 0.  1.
</event>
<event>
 5   0  0.1873488E-03  0.1333930E+04  0.7818609E-02  0.9003083E-01
       -1   -1    0    0    0  501  0.00000000000E+00  0.00000000000E+00  0.42508658608E+03  0.42508658611E+03  0.50400001928E-02 0. -1.
        1   -1    0    0  501    0  0.00000000000E+00  0.00000000000E+00 -0.10464745951E+04  0.10464745951E+04  0.50400001928E-02 0.  1.
    10030    2    1    2    0    0  0.00000000000E+00  0.00000000000E+00 -0.62138800904E+03  0.14715611812E+04  0.13339300028E+04 0.  0.
        3    1    3    3  502    0 -0.35209015757E+03 -0.55804918409E+03 -0.20341926924E+03  0.69048228089E+03  0.10100000352E+00 0. -1.
       -3    1    3    3    0  502  0.35209015757E+03  0.55804918409E+03 -0.41796873980E+03  0.78107890035E+03  0.10100000352E+00 0.  1.
</event>
<event>
 5   0  0.3299104E-03  0.1303353E+04  0.7818609E-02  0.9026910E-01
       -2   -1    0    0    0  501  0.00000000000E+00  0.00000000000E+00  0.37248102311E+03  0.37248102312E+03  0.25500000920E-02 0. -1.
        2   -1    0    0  501    0  0.00000000000E+00  0.00000000000E+00 -0.11401454271E+04  0.11401454271E+04  0.25500000920E-02 0.  1.
    10030    2    1    2    0    0  0.00000000000E+00  0.00000000000E+00 -0.76766440400E+03  0.15126264502E+04  0.13033534213E+04 0.  0.
        2    1    3    3  502    0  0.19658711444E+03 -0.54959895249E+03 -0.47514476412E+02  0.58563053850E+03  0.25500000920E-02 0. -1.
       -2    1    3    3    0  502 -0.19658711444E+03  0.54959895249E+03 -0.72014992758E+03  0.92699591172E+03  0.25500000920E-02 0.  1.
</event>
<event>
 5   0  0.3262927E-03  0.1265258E+04  0.7818609E-02  0.9057579E-01
       -2   -1    0    0    0  501  0.00000000000E+00  0.00000000000E+00  0.26231434601E+03  0.26231434603E+03  0.25500000920E-02 0.  1.
        2   -1    0    0  501    0  0.00000000000E+00  0.00000000000E+00 -0.15257253391E+04  0.15257253391E+04  0.25500000920E-02 0. -1.
    10030    2    1    2    0    0  0.00000000000E+00  0.00000000000E+00 -0.12634109931E+04  0.17880396852E+04  0.12652583049E+04 0.  0.
        3    1    3    3  502    0 -0.31682121746E+03  0.53718150257E+03 -0.48161534538E+03  0.78796763997E+03  0.10100000352E+00 0.  1.
       -3    1    3    3    0  502  0.31682121746E+03 -0.53718150257E+03 -0.78179564774E+03  0.10000720452E+04  0.10100000352E+00 0. -1.
</event>
<event>
 5   0  0.3336609E-03  0.1210551E+04  0.7818609E-02  0.9103671E-01
       -2   -1    0    0    0  501  0.00000000000E+00  0.00000000000E+00  0.25129900602E+03  0.25129900604E+03  0.25500000920E-02 0. -1.
        2   -1    0    0  501    0  0.00000000000E+00  0.00000000000E+00 -0.14578598255E+04  0.14578598255E+04  0.25500000920E-02 0.  1.
    10030    2    1    2    0    0  0.00000000000E+00  0.00000000000E+00 -0.12065608195E+04  0.17091588316E+04  0.12105514860E+04 0.  0.
        1    1    3    3  502    0 -0.39428822009E+03  0.28413111819E+03 -0.93895208760E+02  0.49498485137E+03  0.50400001928E-02 0. -1.
       -1    1    3    3    0  502  0.39428822009E+03 -0.28413111819E+03 -0.11126656107E+04  0.12141739802E+04  0.50400001928E-02 0.  1.
</event>
<event>
 5   0  0.1857986E-03  0.1310442E+04  0.7818609E-02  0.9021325E-01
        1   -1    0    0  501    0  0.00000000000E+00  0.00000000000E+00  0.87431044435E+03  0.87431044437E+03  0.50400001928E-02 0.  1.
       -1   -1    0    0    0  501  0.00000000000E+00  0.00000000000E+00 -0.49103215362E+03  0.49103215365E+03  0.50400001928E-02 0. -1.
    10030    2    1    2    0    0  0.00000000000E+00  0.00000000000E+00  0.38327829073E+03  0.13653425980E+04  0.13104419719E+04 0.  0.
        1    1    3    3  502    0  0.19615850692E+03 -0.51648096476E+03  0.55865208561E+03  0.78569898790E+03  0.50400001928E-02 0.  1.
       -1    1    3    3    0  502 -0.19615850692E+03  0.51648096476E+03 -0.17537379488E+03  0.57964361012E+03  0.50400001928E-02 0. -1.
</event>
<event>
 5   0  0.3262927E-03  0.1371837E+04  0.7818609E-02  0.8974460E-01
       -2   -1    0    0    0  501  0.00000000000E+00  0.00000000000E+00  0.57989168460E+03  0.57989168461E+03  0.25500000920E-02 0.  1.
        2   -1    0    0  501    0  0.00000000000E+00  0.00000000000E+00 -0.81133117551E+03  0.81133117552E+03  0.25500000920E-02 0. -1.
    10030    2    1    2    0    0  0.00000000000E+00  0.00000000000E+00 -0.23143949091E+03  0.13912228601E+04  0.13718370197E+04 0.  0.
        3    1    3    3  502    0  0.21666624921E+03 -0.92031119654E+02  0.53764389858E+03  0.58691989437E+03  0.10100000352E+00 0.  1.
       -3    1    3    3    0  502 -0.21666624921E+03  0.92031119654E+02 -0.76908338949E+03  0.80430296575E+03  0.10100000352E+00 0. -1.
</event>
<event>
 5   0  0.1803959E-03  0.1519504E+04  0.7818609E-02  0.8871586E-01
       -1   -1    0    0    0  501  0.00000000000E+00  0.00000000000E+00  0.46632155923E+03  0.46632155926E+03  0.50400001928E-02 0.  1.
        1   -1    0    0  501    0  0.00000000000E+00  0.00000000000E+00 -0.12378214606E+04  0.12378214606E+04  0.50400001928E-02 0. -1.
    10030    2    1    2    0    0  0.00000000000E+00  0.00000000000E+00 -0.77149990134E+03  0.17041430198E+04  0.15195036474E+04 0.  0.
        4    1    3    3  502    0  0.54012417888E+03  0.13566736768E+03 -0.96534699468E+03  0.11144667767E+04  0.12699999809E+01 0. -1.
       -4    1    3    3    0  502 -0.54012417888E+03 -0.13566736768E+03  0.19384709334E+03  0.58967624317E+03  0.12699999809E+01 0.  1.
</event>
<event>
 5   0  0.3294720E-03  0.1211062E+04  0.7818609E-02  0.9103229E-01
        2   -1    0    0  501    0  0.00000000000E+00  0.00000000000E+00  0.14293473727E+04  0.14293473727E+04  0.25500000920E-02 0. -1.
       -2   -1    0    0    0  501  0.00000000000E+00  0.00000000000E+00 -0.25652797203E+03  0.25652797204E+03  0.25500000920E-02 0.  1.
    10030    2    1    2    0    0  0.00000000000E+00  0.00000000000E+00  0.11728194007E+04  0.16858753447E+04  0.12110616547E+04 0.  0.
        5    1    3    3  502    0  0.17750831987E+03 -0.51082500107E+02 -0.21632599715E+03  0.28449543490E+03  0.46999998093E+01 0.  1.
       -5    1    3    3    0  502 -0.17750831987E+03  0.51082500107E+02  0.13891453978E+04  0.14013799098E+04  0.46999998093E+01 0. -1.
</event>
<event>
 5   0  0.1803959E-03  0.1280288E+04  0.7818609E-02  0.9045344E-01
        1   -1    0    0  501    0  0.00000000000E+00  0.00000000000E+00  0.64885765228E+03  0.64885765229E+03  0.50400001928E-02 0. -1.
       -1   -1    0    0    0  501  0.00000000000E+00  0.00000000000E+00 -0.63154776773E+03  0.63154776775E+03  0.50400001928E-02 0.  1.
    10030    2    1    2    0    0  0.00000000000E+00  0.00000000000E+00  0.17309884543E+02  0.12804054200E+04  0.12802884080E+04 0.  0.
        4    1    3    3  502    0  0.39491513799E+03  0.36099172881E+03 -0.34281706509E+03  0.63545113699E+03  0.12699999809E+01 0.  1.
       -4    1    3    3    0  502 -0.39491513799E+03 -0.36099172881E+03  0.36012694963E+03  0.64495428306E+03  0.12699999809E+01 0. -1.
</event>
<event>
 5   0  0.1873488E-03  0.1273145E+04  0.7818609E-02  0.9051136E-01
       -1   -1    0    0    0  501  0.00000000000E+00  0.00000000000E+00  0.62048892114E+03  0.62048892116E+03  0.50400001928E-02 0. -1.
        1   -1    0    0  501    0  0.00000000000E+00  0.00000000000E+00 -0.65307335873E+03  0.65307335875E+03  0.50400001928E-02 0.  1.
    10030    2    1    2    0    0  0.00000000000E+00  0.00000000000E+00 -0.32584437590E+02  0.12735622799E+04  0.12731453708E+04 0.  0.
        3    1    3    3  502    0 -0.43063375479E+03  0.35780924898E+03  0.28671270670E+03  0.62902867646E+03  0.10100000352E+00 0. -1.
       -3    1    3    3    0  502  0.43063375479E+03 -0.35780924898E+03 -0.31929714430E+03  0.64453360345E+03  0.10100000352E+00 0.  1.
</event>
<event>
 5   0  0.3336609E-03  0.1272788E+04  0.7818609E-02  0.9051427E-01
       -2   -1    0    0    0  501  0.00000000000E+00  0.00000000000E+00  0.49831425549E+03  0.49831425549E+03  0.25500000920E-02 0. -1.
        2   -1    0    0  501    0  0.00000000000E+00  0.00000000000E+00 -0.81273467283E+03  0.81273467284E+03  0.25500000920E-02 0.  1.
    10030    2    1    2    0    0  0.00000000000E+00  0.00000000000E+00 -0.31442041735E+03  0.13110489283E+04  0.12727879217E+04 0.  0.
        1    1    3    3  502    0  0.21705951970E+02  0.41180571465E+03  0.34206884927E+03  0.53578558457E+03  0.50400001928E-02 0. -1.
       -1    1    3    3    0  502 -0.21705951970E+02 -0.41180571465E+03 -0.65648926662E+03  0.77526334376E+03  0.50400001928E-02 0.  1.
</event>
<event>
 5   0  0.3259968E-03  0.1295869E+04  0.7818609E-02  0.9032847E-01
        2   -1    0    0  501    0  0.00000000000E+00  0.00000000000E+00  0.46717933020E+03  0.46717933020E+03  0.25500000920E-02 0. -1.
       -2   -1    0    0    0  501  0.00000000000E+00  0.00000000000E+00 -0.89862544677E+03  0.89862544678E+03  0.25500000920E-02 0.  1.
    10030    2    1    2    0    0  0.00000000000E+00  0.00000000000E+00 -0.43144611658E+03  0.13658047770E+04  0.12958691822E+04 0.  0.
        4    1    3    3  502    0  0.35111015646E+03  0.54406366837E+03 -0.24007871298E+03  0.69059613273E+03  0.12699999809E+01 0.  1.
       -4    1    3    3    0  502 -0.35111015646E+03 -0.54406366837E+03 -0.19136740359E+03  0.67520864425E+03  0.12699999809E+01 0. -1.
</event>
<event>
 5   0  0.3262927E-03  0.1234583E+04  0.7818609E-02  0.9083113E-01
       -2   -1    0    0    0  501  0.00000000000E+00  0.00000000000E+00  0.33679872618E+03  0.33679872619E+03  0.25500000920E-02 0.  1.
        2   -1    0    0  501    0  0.00000000000E+00  0.00000000000E+00 -0.11313843286E+04  0.11313843286E+04  0.25500000920E-02 0. -1.
    10030    2    1    2    0    0  0.00000000000E+00  0.00000000000E+00 -0.79458560243E+03  0.14681830548E+04  0.12345830077E+04 0.  0.
        3    1    3    3  502    0  0.38428845105E+03  0.99142252174E+02 -0.95955575422E+03  0.10383901268E+04  0.10100000352E+00 0. -1.
       -3    1    3    3    0  502 -0.38428845105E+03 -0.99142252174E+02  0.16497015179E+03  0.42979292800E+03  0.10100000352E+00 0.  1.
</event>
<event>
 5   0  0.1823154E-03  0.1296833E+04  0.7818609E-02  0.9032080E-01
       -1   -1    0    0    0  501  0.00000000000E+00  0.00000000000E+00  0.34135310484E+03  0.34135310487E+03  0.50400001928E-02 0.  1.
        1   -1    0    0  501    0  0.00000000000E+00  0.00000000000E+00 -0.12316988725E+04  0.12316988725E+04  0.50400001928E-02 0. -1.
    10030    2    1    2    0    0  0.00000000000E+00  0.00000000000E+00 -0.89034576763E+03  0.15730519774E+04  0.12968334271E+04 0.  0.
        2    1    3    3  502    0  0.27364960068E+03 -0.37757602250E+03  0.10134342667E+03  0.47719833073E+03  0.25500000920E-02 0.  1.
       -2    1    3    3    0  502 -0.27364960068E+03  0.37757602250E+03 -0.99168919430E+03  0.10958536466E+04  0.25500000920E-02 0. -1.
</event>
<event>
 5   0  0.1823154E-03  0.1354486E+04  0.7818609E-02  0.8987439E-01
       -1   -1    0    0    0  501  0.00000000000E+00  0.00000000000E+00  0.71583863257E+03  0.71583863259E+03  0.50400001928E-02 0. -1.
        1   -1    0    0  501    0  0.00000000000E+00  0.00000000000E+00 -0.64072813632E+03  0.64072813634E+03  0.50400001928E-02 0.  1.
    10030    2    1    2    0    0  0.00000000000E+00  0.00000000000E+00  0.75110496255E+02  0.13565667689E+04  0.13544858109E+04 0.  0.
        2    1    3    3  502    0 -0.24734246130E+03  0.19054602867E+03 -0.56434382376E+03  0.64495738900E+03  0.25500000920E-02 0.  1.
       -2    1    3    3    0  502  0.24734246130E+03 -0.19054602867E+03  0.63945432001E+03  0.71160937992E+03  0.25500000920E-02 0. -1.
</event>
<event>
 5   0  0.3294720E-03  0.1306000E+04  0.7818609E-02  0.9024821E-01
        2   -1    0    0  501    0  0.00000000000E+00  0.00000000000E+00  0.72994827718E+03  0.72994827718E+03  0.25500000920E-02 0.  1.
       -2   -1    0    0    0  501  0.00000000000E+00  0.00000000000E+00 -0.58416290655E+03  0.58416290655E+03  0.25500000920E-02 0. -1.
    10030    2    1    2    0    0  0.00000000000E+00  0.00000000000E+00  0.14578537063E+03  0.13141111837E+04  0.13059995517E+04 0.  0.
        5    1    3    3  502    0 -0.50740806627E+03 -0.16582307443E+03 -0.30551007464E+03  0.61507620132E+03  0.46999998093E+01 0. -1.
       -5    1    3    3    0  502  0.50740806627E+03  0.16582307443E+03  0.45129544527E+03  0.69903498242E+03  0.46999998093E+01 0.  1.
</event>
<event>
 5   0  0.1857986E-03  0.1337693E+04  0.7818609E-02  0.9000197E-01
       -1   -1    0    0    0  501  0.00000000000E+00  0.00000000000E+00  0.25604352294E+03  0.25604352299E+03  0.50400001928E-02 0.  1.
        1   -1    0    0  501    0  0.00000000000E+00  0.00000000000E+00 -0.17471856168E+04  0.17471856168E+04  0.50400001928E-02 0. -1.
    10030    2    1    2    0    0  0.00000000000E+00  0.00000000000E+00 -0.14911420939E+04  0.20032291398E+04  0.13376928805E+04 0.  0.
        1    1    3    3  502    0  0.15889672969E+03 -0.64541325889E+03 -0.85712528667E+03  0.10846521113E+04  0.50400001928E-02 0.  1.
       -1    1    3    3    0  502 -0.15889672969E+03  0.64541325889E+03 -0.63401680719E+03  0.91857702850E+03  0.50400001928E-02 0. -1.
</event>
<event>
 5   0  0.3262927E-03  0.1209696E+04  0.7818609E-02  0.9104412E-01
        2   -1    0    0  501    0  0.00000000000E+00  0.00000000000E+00  0.14631917245E+04  0.14631917245E+04  0.25500000920E-02 0. -1.
       -2   -1    0    0    0  501  0.00000000000E+00  0.00000000000E+00 -0.25002960999E+03  0.25002961000E+03  0.25500000920E-02 0.  1.
    10030    2    1    2    0    0  0.00000000000E+00  0.00000000000E+00  0.12131621145E+04  0.17132213345E+04  0.12096962532E+04 0.  0.
        3    1    3    3  502    0 -0.39463644800E+03 -0.11551866474E+02 -0.42375511330E+02  0.39707312408E+03  0.10100000352E+00 0.  1.
       -3    1    3    3    0  502  0.39463644800E+03  0.11551866474E+02  0.12555376259E+04  0.13161482104E+04  0.10100000352E+00 0. -1.
</event>
<event>
 5   0  0.1823154E-03  0.1306030E+04  0.7818609E-02  0.9024797E-01
       -1   -1    0    0    0  501  0.00000000000E+00  0.00000000000E+00  0.25375010170E+03  0.25375010175E+03  0.50400001928E-02 0. -1.
        1   -1    0    0  501    0  0.00000000000E+00  0.00000000000E+00 -0.16805048913E+04  0.16805048913E+04  0.50400001928E-02 0.  1.
    10030    2    1    2    0    0  0.00000000000E+00  0.00000000000E+00 -0.14267547896E+04  0.19342549930E+04  0.13060295359E+04 0.  0.
        2    1    3    3  502    0 -0.33543380025E+03 -0.36567754101E+03 -0.13420563885E+04  0.14308568231E+04  0.25500000920E-02 0.  1.
       -2    1    3    3    0  502  0.33543380025E+03  0.36567754101E+03 -0.84698401105E+02  0.50339816994E+03  0.25500000920E-02 0. -1.
</event>
<event>
 5   0  0.1803959E-03  0.1297096E+04  0.7818609E-02  0.9031871E-01
        1   -1    0    0  501    0  0.00000000000E+00  0.00000000000E+00  0.81880879271E+03  0.81880879272E+03  0.50400001928E-02 0. -1.
       -1   -1    0    0    0  501  0.00000000000E+00  0.00000000000E+00 -0.51369065471E+03  0.51369065473E+03  0.50400001928E-02 0.  1.
    10030    2    1    2    0    0  0.00000000000E+00  0.00000000000E+00  0.30511813800E+03  0.13324994475E+04  0.12970958713E+04 0.  0.
        4    1    3    3  502    0 -0.77378760218E+02 -0.18976586607E+03  0.78467020522E+03  0.81099167710E+03  0.12699999809E+01 0. -1.
       -4    1    3    3    0  502  0.77378760218E+02  0.18976586607E+03 -0.47955206723E+03  0.52150777036E+03  0.12699999809E+01 0.  1.
</event>
<event>
 5   0  0.1814770E-03  0.1292005E+04  0.7818609E-02  0.9035930E-01
        1   -1    0    0  501    0  0.00000000000E+00  0.00000000000E+00  0.11835203176E+04  0.11835203176E+04  0.50400001928E-02 0. -1.
       -1   -1    0    0    0  501  0.00000000000E+00  0.00000000000E+00 -0.35260818160E+03  0.35260818164E+03  0.50400001928E-02 0.  1.
    10030    2    1    2    0    0  0.00000000000E+00  0.00000000000E+00  0.83091213602E+03  0.15361284993E+04  0.12920045621E+04 0.  0.
        5    1    3    3  502    0  0.10355246584E+03 -0.36992019381E+02 -0.34137870290E+03  0.35868235456E+03  0.46999998093E+01 0.  1.
       -5    1    3    3    0  502 -0.10355246584E+03  0.36992019381E+02  0.11722908389E+04  0.11774461447E+04  0.46999998093E+01 0. -1.
</event>
<event>
 5   0  0.3259968E-03  0.1305406E+04  0.7818609E-02  0.9025289E-01
       -2   -1    0    0    0  501  0.00000000000E+00  0.00000000000E+00  0.49017920287E+03  0.49017920288E+03  0.25500000920E-02 0. -1.
        2   -1    0    0  501    0  0.00000000000E+00  0.00000000000E+00 -0.86911304844E+03  0.86911304845E+03  0.25500000920E-02 0.  1.
    10030    2    1    2    0    0  0.00000000000E+00  0.00000000000E+00 -0.37893384557E+03  0.13592922513E+04  0.13054059006E+04 0.  0.
        4    1    3    3  502    0  0.11102242780E+03 -0.48468023824E+03 -0.62974296594E+03  0.80238315589E+03  0.12699999809E+01 0.  1.
       -4    1    3    3    0  502 -0.11102242780E+03  0.48468023824E+03  0.25080912036E+03  0.55690909543E+03  0.12699999809E+01 0. -1.
</event>
<event>
 5   0  0.1814770E-03  0.1147945E+04  0.7818609E-02  0.9159682E-01
       -1   -1    0    0    0  501  0.00000000000E+00  0.00000000000E+00  0.36935815618E+03  0.36935815622E+03  0.50400001928E-02 0. -1.
        1   -1    0    0  501    0  0.00000000000E+00  0.00000000000E+00 -0.89193739437E+03  0.89193739439E+03  0.50400001928E-02 0.  1.
    10030    2    1    2    0    0  0.00000000000E+00  0.00000000000E+00 -0.52257923819E+03  0.12612955506E+04  0.11479448618E+04 0.  0.
        5    1    3    3  502    0  0.46278963524E+03 -0.13228694220E+02  0.11143028380E+03  0.47622268213E+03  0.46999998093E+01 0. -1.
       -5    1    3    3    0  502 -0.46278963524E+03  0.13228694220E+02 -0.63400952199E+03  0.78507286847E+03  0.46999998093E+01 0.  1.
</event>
<event>
 5   0  0.3299104E-03  0.1450529E+04  0.7818609E-02  0.8918034E-01
       -2   -1    0    0    0  501  0.00000000000E+00  0.00000000000E+00  0.37427626179E+03  0.37427626180E+03  0.25500000920E-02 0.  1.
        2   -1    0    0  501    0  0.00000000000E+00  0.00000000000E+00 -0.14054010250E+04  0.14054010250E+04  0.25500000920E-02 0. -1.
    10030    2    1    2    0    0  0.00000000000E+00  0.00000000000E+00 -0.10311247632E+04  0.17796772868E+04  0.14505285133E+04 0.  0.
        2    1    3    3  502    0  0.27892661957E+02 -0.66046749941E+02 -0.14010425816E+04  0.14028757925E+04  0.25500000920E-02 0. -1.
       -2    1    3    3    0  502 -0.27892661957E+02  0.66046749941E+02  0.36991781836E+03  0.37680149431E+03  0.25500000920E-02 0.  1.
</event>
<event>
 5   0  0.1823154E-03  0.1285949E+04  0.7818609E-02  0.9040783E-01
        1   -1    0    0  501    0  0.00000000000E+00  0.00000000000E+00  0.46238032570E+03  0.46238032572E+03  0.50400001928E-02 0.  1.
       -1   -1    0    0    0  501  0.00000000000E+00  0.00000000000E+00 -0.89410400766E+03  0.89410400768E+03  0.50400001928E-02 0. -1.
    10030    2    1    2    0    0  0.00000000000E+00  0.00000000000E+00 -0.43172368197E+03  0.13564843334E+04  0.12859488362E+04 0.  0.
        2    1    3    3  502    0  0.12698401268E+03  0.58166904422E+03  0.40256934692E+02  0.59672811001E+03  0.25500000920E-02 0.  1.
       -2    1    3    3    0  502 -0.12698401268E+03 -0.58166904422E+03 -0.47198061666E+03  0.75975622339E+03  0.25500000920E-02 0. -1.
</event>
<event>
 5   0  0.1857986E-03  0.1259238E+04  0.7818609E-02  0.9062529E-01
       -1   -1    0    0    0  501  0.00000000000E+00  0.00000000000E+00  0.41676660211E+03  0.41676660214E+03  0.50400001928E-02 0.  1.
        1   -1    0    0  501    0  0.00000000000E+00  0.00000000000E+00 -0.95118036061E+03  0.95118036063E+03  0.50400001928E-02 0. -1.
    10030    2    1    2    0    0  0.00000000000E+00  0.00000000000E+00 -0.53441375850E+03  0.13679469628E+04  0.12592381934E+04 0.  0.
        1    1    3    3  502    0  0.56373746990E+03 -0.83489801732E+02  0.23575868184E+02  0.57037382789E+03  0.50400001928E-02 0. -1.
       -1    1    3    3    0  502 -0.56373746990E+03  0.83489801732E+02 -0.55798962669E+03  0.79757313488E+03  0.50400001928E-02 0.  1.
</event>
<event>
 5   0  0.3299104E-03  0.8000784E+03  0.7818609E-02  0.9559904E-01
       -2   -1    0    0    0  501  0.00000000000E+00  0.00000000000E+00  0.29702137798E+03  0.29702137799E+03  0.25500000920E-02 0. -1.
        2   -1    0    0  501    0  0.00000000000E+00  0.00000000000E+00 -0.53878731462E+03  0.53878731463E+03  0.25500000920E-02 0.  1.
    10030    2    1    2    0    0  0.00000000000E+00  0.00000000000E+00 -0.24176593664E+03  0.83580869262E+03  0.80007837274E+03 0.  0.
        2    1    3    3  502    0 -0.16364793279E+03 -0.34776727013E+03 -0.23678184341E+03  0.45142924302E+03  0.25500000920E-02 0.  1.
       -2    1    3    3    0  502  0.16364793279E+03  0.34776727013E+03 -0.49840932323E+01  0.38437944960E+03  0.25500000920E-02 0. -1.
</event>
<event>
 5   0  0.3259968E-03  0.1300546E+04  0.7818609E-02  0.9029132E-01
       -2   -1    0    0    0  501  0.00000000000E+00  0.00000000000E+00  0.41080216553E+03  0.41080216554E+03  0.25500000920E-02 0.  1.
        2   -1    0    0  501    0  0.00000000000E+00  0.00000000000E+00 -0.10293403382E+04  0.10293403382E+04  0.25500000920E-02 0. -1.
    10030    2    1    2    0    0  0.00000000000E+00  0.00000000000E+00 -0.61853817266E+03  0.14401425037E+04  0.13005464082E+04 0.  0.
        4    1    3    3  502    0 -0.53726403274E+03 -0.56084242721E+02 -0.71014255393E+03  0.89224556203E+03  0.12699999809E+01 0. -1.
       -4    1    3    3    0  502  0.53726403274E+03  0.56084242721E+02  0.91604381272E+02  0.54789694170E+03  0.12699999809E+01 0.  1.
</event>
<event>
 5   0  0.1823154E-03  0.1308356E+04  0.7818609E-02  0.9022965E-01
       -1   -1    0    0    0  501  0.00000000000E+00  0.00000000000E+00  0.46227580736E+03  0.46227580739E+03  0.50400001928E-02 0.  1.
        1   -1    0    0  501    0  0.00000000000E+00  0.00000000000E+00 -0.92574369490E+03  0.92574369491E+03  0.50400001928E-02 0. -1.
    10030    2    1    2    0    0  0.00000000000E+00  0.00000000000E+00 -0.46346788754E+03  0.13880195023E+04  0.13083560891E+04 0.  0.
        2    1    3    3  502    0  0.23180690727E+03  0.61172887077E+03 -0.23013893874E+03  0.69347716958E+03  0.25500000920E-02 0. -1.
       -2    1    3    3    0  502 -0.23180690727E+03 -0.61172887077E+03 -0.23332894880E+03  0.69454233273E+03  0.25500000920E-02 0.  1.
</event>
<event>
 5   0  0.1857986E-03  0.1170067E+04  0.7818609E-02  0.9139468E-01
       -1   -1    0    0    0  501  0.00000000000E+00  0.00000000000E+00  0.46811383819E+03  0.46811383822E+03  0.50400001928E-02 0.  1.
        1   -1    0    0  501    0  0.00000000000E+00  0.00000000000E+00 -0.73115561952E+03  0.73115561954E+03  0.50400001928E-02 0. -1.
    10030    2    1    2    0    0  0.00000000000E+00  0.00000000000E+00 -0.26304178134E+03  0.11992694578E+04  0.11700667731E+04 0.  0.
        1    1    3    3  502    0  0.26957484096E+03 -0.18013530387E+03 -0.63064997341E+03  0.70911121241E+03  0.50400001928E-02 0. -1.
       -1    1    3    3    0  502 -0.26957484096E+03  0.18013530387E+03  0.36760819207E+03  0.49015824535E+03  0.50400001928E-02 0.  1.
</event>
<event>
 5   0  0.1803959E-03  0.1266696E+04  0.7818609E-02  0.9056401E-01
       -1   -1    0    0    0  501  0.00000000000E+00  0.00000000000E+00  0.14884955935E+03  0.14884955943E+03  0.50400001928E-02 0. -1.
        1   -1    0    0  501    0  0.00000000000E+00  0.00000000000E+00 -0.26948650846E+04  0.26948650846E+04  0.50400001928E-02 0.  1.
    10030    2    1    2    0    0  0.00000000000E+00  0.00000000000E+00 -0.25460155252E+04  0.28437146440E+04  0.12666956706E+04 0.  0.
        4    1    3    3  502    0  0.36558612245E+03  0.97847504849E+02 -0.13291592203E+03  0.40111794071E+03  0.12699999809E+01 0. -1.
       -4    1    3    3    0  502 -0.36558612245E+03 -0.97847504849E+02 -0.24130996032E+04  0.24425967033E+04  0.12699999809E+01 0.  1.
</event>
<event>
 5   0  0.3259968E-03  0.1288164E+04  0.7818609E-02  0.9039004E-01
        2   -1    0    0  501    0  0.00000000000E+00  0.00000000000E+00  0.65354072500E+03  0.65354072500E+03  0.25500000920E-02 0. -1.
       -2   -1    0    0    0  501  0.00000000000E+00  0.00000000000E+00 -0.63476015957E+03  0.63476015958E+03  0.25500000920E-02 0.  1.
    10030    2    1    2    0    0  0.00000000000E+00  0.00000000000E+00  0.18780565424E+02  0.12883008846E+04  0.12881639878E+04 0.  0.
        4    1    3    3  502    0  0.56006885853E+03 -0.80189405988E+02 -0.29842893519E+03  0.63966312180E+03  0.12699999809E+01 0. -1.
       -4    1    3    3    0  502 -0.56006885853E+03  0.80189405988E+02  0.31720950062E+03  0.64863776278E+03  0.12699999809E+01 0.  1.
</event>
<event>
 5   0  0.1873488E-03  0.1413175E+04  0.7818609E-02  0.8944336E-01
       -1   -1    0    0    0  501  0.00000000000E+00  0.00000000000E+00  0.93034484157E+03  0.93034484159E+03  0.50400001928E-02 0.  1.
        1   -1    0    0  501    0  0.00000000000E+00  0.00000000000E+00 -0.53664638399E+03  0.53664638401E+03  0.50400001928E-02 0. -1.
    10030    2    1    2    0    0  0.00000000000E+00  0.00000000000E+00  0.39369845759E+03  0.14669912256E+04  0.14131754245E+04 0.  0.
        3    1    3    3  502    0 -0.55710951385E+03  0.24415141176E+03 -0.17640604348E+03  0.63332458081E+03  0.10100000352E+00 0. -1.
       -3    1    3    3    0  502  0.55710951385E+03 -0.24415141176E+03  0.57010450107E+03  0.83366664478E+03  0.10100000352E+00 0.  1.
</event>
<event>
 5   0  0.1857986E-03  0.1304618E+04  0.7818609E-02  0.9025911E-01
        1   -1    0    0  501    0  0.00000000000E+00  0.00000000000E+00  0.74770985705E+03  0.74770985707E+03  0.50400001928E-02 0.  1.
       -1   -1    0    0    0  501  0.00000000000E+00  0.00000000000E+00 -0.56908083779E+03  0.56908083781E+03  0.50400001928E-02 0. -1.
    10030    2    1    2    0    0  0.00000000000E+00  0.00000000000E+00  0.17862901926E+03  0.13167906949E+04  0.13046184912E+04 0.  0.
        1    1    3    3  502    0 -0.44995092680E+03 -0.47207432763E+03  0.75135503817E+02  0.65647189680E+03  0.50400001928E-02 0.  1.
       -1    1    3    3    0  502  0.44995092680E+03  0.47207432763E+03  0.10349351544E+03  0.66031879808E+03  0.50400001928E-02 0. -1.
</event>
<event>
 5   0  0.1857986E-03  0.1297198E+04  0.7818609E-02  0.9031790E-01
        1   -1    0    0  501    0  0.00000000000E+00  0.00000000000E+00  0.93731417680E+03  0.93731417681E+03  0.50400001928E-02 0.  1.
       -1   -1    0    0    0  501  0.00000000000E+00  0.00000000000E+00 -0.44881474260E+03  0.44881474263E+03  0.50400001928E-02 0. -1.
    10030    2    1    2    0    0  0.00000000000E+00  0.00000000000E+00  0.48849943420E+03  0.13861289194E+04  0.12971976272E+04 0.  0.
        1    1    3    3  502    0  0.42964640792E+03  0.70159796720E+02  0.75800427677E+03  0.87412179731E+03  0.50400001928E-02 0.  1.
       -1    1    3    3    0  502 -0.42964640792E+03 -0.70159796720E+02 -0.26950484257E+03  0.51200712213E+03  0.50400001928E-02 0. -1.
</event>
<event>
 5   0  0.3259968E-03  0.1334838E+04  0.7818609E-02  0.9002386E-01
       -2   -1    0    0    0  501  0.00000000000E+00  0.00000000000E+00  0.11171278712E+04  0.11171278712E+04  0.25500000920E-02 0. -1.
        2   -1    0    0  501    0  0.00000000000E+00  0.00000000000E+00 -0.39874407153E+03  0.39874407153E+03  0.25500000920E-02 0.  1.
    10030    2    1    2    0    0  0.00000000000E+00  0.00000000000E+00  0.71838379966E+03  0.15158719427E+04  0.13348379913E+04 0.  0.
        4    1    3    3  502    0 -0.27977673123E+03  0.10071252962E+03  0.10377474080E+04  0.10795088368E+04  0.12699999809E+01 0. -1.
       -4    1    3    3    0  502  0.27977673123E+03 -0.10071252962E+03 -0.31936360837E+03  0.43636310592E+03  0.12699999809E+01 0.  1.
</event>
<event>
 5   0  0.3262927E-03  0.1298590E+04  0.7818609E-02  0.9030684E-01
       -2   -1    0    0    0  501  0.00000000000E+00  0.00000000000E+00  0.42776227695E+03  0.42776227696E+03  0.25500000920E-02 0.  1.
        2   -1    0    0  501    0  0.00000000000E+00  0.00000000000E+00 -0.98555666147E+03  0.98555666148E+03  0.25500000920E-02 0. -1.
    10030    2    1    2    0    0  0.00000000000E+00  0.00000000000E+00 -0.55779438452E+03  0.14133189384E+04  0.12985899454E+04 0.  0.
        3    1    3    3  502    0  0.46772821928E+03  0.42115686971E+03 -0.45249193065E+03  0.77517207994E+03  0.10100000352E+00 0. -1.
       -3    1    3    3    0  502 -0.46772821928E+03 -0.42115686971E+03 -0.10530245388E+03  0.63814685850E+03  0.10100000352E+00 0.  1.
</event>
<event>
 5   0  0.3294720E-03  0.1224330E+04  0.7818609E-02  0.9091823E-01
       -2   -1    0    0    0  501  0.00000000000E+00  0.00000000000E+00  0.57211796100E+03  0.57211796100E+03  0.25500000920E-02 0.  1.
        2   -1    0    0  501    0  0.00000000000E+00  0.00000000000E+00 -0.65501489653E+03  0.65501489654E+03  0.25500000920E-02 0. -1.
    10030    2    1    2    0    0  0.00000000000E+00  0.00000000000E+00 -0.82896935536E+02  0.12271328575E+04  0.12243296730E+04 0.  0.
        5    1    3    3  502    0  0.68260335732E+02 -0.15104217952E+03  0.54918035839E+03  0.57366747290E+03  0.46999998093E+01 0.  1.
       -5    1    3    3    0  502 -0.68260335732E+02  0.15104217952E+03 -0.63207729393E+03  0.65346538464E+03  0.46999998093E+01 0. -1.
</event>
<event>
 5   0  0.3262927E-03  0.1292257E+04  0.7818609E-02  0.9035728E-01
       -2   -1    0    0    0  501  0.00000000000E+00  0.00000000000E+00  0.64638512590E+03  0.64638512591E+03  0.25500000920E-02 0. -1.
        2   -1    0    0  501    0  0.00000000000E+00  0.00000000000E+00 -0.64587209336E+03  0.64587209337E+03  0.25500000920E-02 0.  1.
    10030    2    1    2    0    0  0.00000000000E+00  0.00000000000E+00  0.51303254425E+00  0.12922572193E+04  0.12922571174E+04 0.  0.
        3    1    3    3  502    0 -0.43634822693E+03 -0.46880460742E+03  0.85723294980E+02  0.64616254037E+03  0.10100000352E+00 0. -1.
       -3    1    3    3    0  502  0.43634822693E+03  0.46880460742E+03 -0.85210262436E+02  0.64609467890E+03  0.10100000352E+00 0.  1.
</event>
<event>
 5   0  0.1814770E-03  0.1294513E+04  0.7818609E-02  0.9033928E-01
        1   -1    0    0  501    0  0.00000000000E+00  0.00000000000E+00  0.11119841100E+04  0.11119841100E+04  0.50400001928E-02 0.  1.
       -1   -1    0    0    0  501  0.00000000000E+00  0.00000000000E+00 -0.37675082474E+03  0.37675082478E+03  0.50400001928E-02 0. -1.
    10030    2    1    2    0    0  0.00000000000E+00  0.00000000000E+00  0.73523328522E+03  0.14887349348E+04  0.12945129286E+04 0.  0.
        5    1    3    3  502    0 -0.43333072221E+03  0.15897888511E+03 -0.15418627969E+03  0.48666754522E+03  0.46999998093E+01 0. -1.
       -5    1    3    3    0  502  0.43333072221E+03 -0.15897888511E+03  0.88941956491E+03  0.10020673895E+04  0.46999998093E+01 0.  1.
</event>
<event>
 5   0  0.3294720E-03  0.1296532E+04  0.7818609E-02  0.9032320E-01
       -2   -1    0    0    0  501  0.00000000000E+00  0.00000000000E+00  0.31458764553E+03  0.31458764554E+03  0.25500000920E-02 0.  1.
        2   -1    0    0  501    0  0.00000000000E+00  0.00000000000E+00 -0.13358722981E+04  0.13358722981E+04  0.25500000920E-02 0. -1.
    10030    2    1    2    0    0  0.00000000000E+00  0.00000000000E+00 -0.10212846526E+04  0.16504599437E+04  0.12965321762E+04 0.  0.
        5    1    3    3  502    0  0.23093019882E+03  0.29768606997E+03  0.16088474936E+03  0.40969713881E+03  0.46999998093E+01 0.  1.
       -5    1    3    3    0  502 -0.23093019882E+03 -0.29768606997E+03 -0.11821694019E+04  0.12407628048E+04  0.46999998093E+01 0. -1.
</event>
<event>
 5   0  0.3299104E-03  0.1325375E+04  0.7818609E-02  0.9009681E-01
        2   -1    0    0  501    0  0.00000000000E+00  0.00000000000E+00  0.81145156922E+03  0.81145156923E+03  0.25500000920E-02 0. -1.
       -2   -1    0    0    0  501  0.00000000000E+00  0.00000000000E+00 -0.54119612797E+03  0.54119612798E+03  0.25500000920E-02 0.  1.
    10030    2    1    2    0    0  0.00000000000E+00  0.00000000000E+00  0.27025544125E+03  0.13526476972E+04  0.13253745845E+04 0.  0.
        2    1    3    3  502    0 -0.18448527080E+03 -0.89718827556E+02  0.77822946403E+03  0.80481388026E+03  0.25500000920E-02 0. -1.
       -2    1    3    3    0  502  0.18448527080E+03  0.89718827556E+02 -0.50797402278E+03  0.54783381694E+03  0.25500000920E-02 0.  1.
</event>
<event>
 5   0  0.3294720E-03  0.1277994E+04  0.7818609E-02  0.9047201E-01
       -2   -1    0    0    0  501  0.00000000000E+00  0.00000000000E+00  0.28637030029E+03  0.28637030030E+03  0.25500000920E-02 0. -1.
        2   -1    0    0  501    0  0.00000000000E+00  0.00000000000E+00 -0.14258351760E+04  0.14258351760E+04  0.25500000920E-02 0.  1.
    10030    2    1    2    0    0  0.00000000000E+00  0.00000000000E+00 -0.11394648757E+04  0.17122054763E+04  0.12779935016E+04 0.  0.
        5    1    3    3  502    0  0.44911616298E+03  0.16677492777E+03 -0.11362081597E+04  0.12330897277E+04  0.46999998093E+01 0.  1.
       -5    1    3    3    0  502 -0.44911616298E+03 -0.16677492777E+03 -0.32567160416E+01  0.47911574863E+03  0.46999998093E+01 0. -1.
</event>
<event>
 5   0  0.1857986E-03  0.1261597E+04  0.7818609E-02  0.9060586E-01
        1   -1    0    0  501    0  0.00000000000E+00  0.00000000000E+00  0.17753777271E+04  0.17753777271E+04  0.50400001928E-02 0.  1.
       -1   -1    0    0    0  501  0.00000000000E+00  0.00000000000E+00 -0.22412514126E+03  0.22412514131E+03  0.50400001928E-02 0. -1.
    10030    2    1    2    0    0  0.00000000000E+00  0.00000000000E+00  0.15512525859E+04  0.19995028684E+04  0.12615970576E+04 0.  0.
        1    1    3    3  502    0  0.17791509991E+03 -0.10379985706E+02 -0.18339460391E+03  0.25572467157E+03  0.50400001928E-02 0. -1.
       -1    1    3    3    0  502 -0.17791509991E+03  0.10379985706E+02  0.17346471898E+04  0.17437781969E+04  0.50400001928E-02 0.  1.
</event>
<event>
 5   0  0.3299104E-03  0.1199716E+04  0.7818609E-02  0.9113106E-01
       -2   -1    0    0    0  501  0.00000000000E+00  0.00000000000E+00  0.28261288470E+03  0.28261288471E+03  0.25500000920E-02 0. -1.
        2   -1    0    0  501    0  0.00000000000E+00  0.00000000000E+00 -0.12732235125E+04  0.12732235125E+04  0.25500000920E-02 0.  1.
    10030    2    1    2    0    0  0.00000000000E+00  0.00000000000E+00 -0.99061062782E+03  0.15558363972E+04  0.11997155825E+04 0.  0.
        2    1    3    3  502    0 -0.17662502945E+03  0.35532333609E+03 -0.10787068850E+04  0.11493735764E+04  0.25500000920E-02 0.  1.
       -2    1    3    3    0  502  0.17662502945E+03 -0.35532333609E+03  0.88096257227E+02  0.40646282086E+03  0.25500000920E-02 0. -1.
</event>
<event>
 5   0  0.1814770E-03  0.1242457E+04  0.7818609E-02  0.9076485E-01
       -1   -1    0    0    0  501  0.00000000000E+00  0.00000000000E+00  0.51552789861E+03  0.51552789863E+03  0.50400001928E-02 0.  1.
        1   -1    0    0  501    0  0.00000000000E+00  0.00000000000E+00 -0.74860098809E+03  0.74860098811E+03  0.50400001928E-02 0. -1.
    10030    2    1    2    0    0  0.00000000000E+00  0.00000000000E+00 -0.23307308948E+03  0.12641288867E+04  0.12424567507E+04 0.  0.
        5    1    3    3  502    0  0.29067652056E+02  0.61586290594E+03 -0.39247321419E+02  0.61781428403E+03  0.46999998093E+01 0.  1.
       -5    1    3    3    0  502 -0.29067652056E+02 -0.61586290594E+03 -0.19382576806E+03  0.64631460271E+03  0.46999998093E+01 0. -1.
</event>
<event>
 5   0  0.1873488E-03  0.1354381E+04  0.7818609E-02  0.8987518E-01
       -1   -1    0    0    0  501  0.00000000000E+00  0.00000000000E+00  0.27812071358E+03  0.27812071362E+03  0.50400001928E-02 0.  1.
        1   -1    0    0  501    0  0.00000000000E+00  0.00000000000E+00 -0.16488774270E+04  0.16488774270E+04  0.50400001928E-02 0. -1.
    10030    2    1    2    0    0  0.00000000000E+00  0.00000000000E+00 -0.13707567135E+04  0.19269981407E+04  0.13543809902E+04 0.  0.
        3    1    3    3  502    0 -0.83976505398E+02 -0.65942780481E+03 -0.86918743837E+03  0.10942503811E+04  0.10100000352E+00 0. -1.
       -3    1    3    3    0  502  0.83976505398E+02  0.65942780481E+03 -0.50156927509E+03  0.83274775961E+03  0.10100000352E+00 0.  1.
</event>
<event>
 5   0  0.3259968E-03  0.1267685E+04  0.7818609E-02  0.9055591E-01
       -2   -1    0    0    0  501  0.00000000000E+00  0.00000000000E+00  0.34246334868E+03  0.34246334869E+03  0.25500000920E-02 0. -1.
        2   -1    0    0  501    0  0.00000000000E+00  0.00000000000E+00 -0.11731361261E+04  0.11731361261E+04  0.25500000920E-02 0.  1.
    10030    2    1    2    0    0  0.00000000000E+00  0.00000000000E+00 -0.83067277747E+03  0.15155994748E+04  0.12676847025E+04 0.  0.
        4    1    3    3  502    0 -0.10216882609E+03  0.11877873387E+03 -0.11496193426E+04  0.11602470006E+04  0.12699999809E+01 0.  1.
       -4    1    3    3    0  502  0.10216882609E+03 -0.11877873387E+03  0.31894656512E+03  0.35535247424E+03  0.12699999809E+01 0. -1.
</event>
<event>
 5   0  0.1873488E-03  0.1290795E+04  0.7818609E-02  0.9036897E-01
        1   -1    0    0  501    0  0.00000000000E+00  0.00000000000E+00  0.13036569868E+04  0.13036569868E+04  0.50400001928E-02 0.  1.
       -1   -1    0    0    0  501  0.00000000000E+00  0.00000000000E+00 -0.31951506678E+03  0.31951506682E+03  0.50400001928E-02 0. -1.
    10030    2    1    2    0    0  0.00000000000E+00  0.00000000000E+00  0.98414192006E+03  0.16231720537E+04  0.12907951801E+04 0.  0.
        3    1    3    3  502    0 -0.28603134211E+03 -0.18414503516E+03  0.11817654576E+04  0.12297531987E+04  0.10100000352E+00 0.  1.
       -3    1    3    3    0  502  0.28603134211E+03  0.18414503516E+03 -0.19762353757E+03  0.39341885497E+03  0.10100000352E+00 0. -1.
</event>
<event>
 5   0  0.1803959E-03  0.1306266E+04  0.7818609E-02  0.9024611E-01
       -1   -1    0    0    0  501  0.00000000000E+00  0.00000000000E+00  0.56430206423E+03  0.56430206425E+03  0.50400001928E-02 0.  1.
        1   -1    0    0  501    0  0.00000000000E+00  0.00000000000E+00 -0.75594756079E+03  0.75594756081E+03  0.50400001928E-02 0. -1.
    10030    2    1    2    0    0  0.00000000000E+00  0.00000000000E+00 -0.19164549656E+03  0.13202496251E+04  0.13062660817E+04 0.  0.
        4    1    3    3  502    0  0.12233409194E+03 -0.50554854690E+03 -0.49506553221E+03  0.71807830869E+03  0.12699999809E+01 0. -1.
       -4    1    3    3    0  502 -0.12233409194E+03  0.50554854690E+03  0.30342003565E+03  0.60217131637E+03  0.12699999809E+01 0.  1.
</event>
<event>
 5   0  0.1873488E-03  0.1527098E+04  0.7818609E-02  0.8866630E-01
        1   -1    0    0  501    0  0.00000000000E+00  0.00000000000E+00  0.21520625453E+04  0.21520625453E+04  0.50400001928E-02 0. -1.
       -1   -1    0    0    0  501  0.00000000000E+00  0.00000000000E+00 -0.27090635013E+03  0.27090635017E+03  0.50400001928E-02 0.  1.
    10030    2    1    2    0    0  0.00000000000E+00  0.00000000000E+00  0.18811561952E+04  0.24229688955E+04  0.15270984375E+04 0.  0.
        3    1    3    3  502    0 -0.21429314730E+02  0.42707809447E+03 -0.63097962300E+02  0.43224562155E+03  0.10100000352E+00 0.  1.
       -3    1    3    3    0  502  0.21429314730E+02 -0.42707809447E+03  0.19442541575E+04  0.19907232740E+04  0.10100000352E+00 0. -1.
</event>
<event>
 5   0  0.3294720E-03  0.1253250E+04  0.7818609E-02  0.9067483E-01
        2   -1    0    0  501    0  0.00000000000E+00  0.00000000000E+00  0.53365423722E+03  0.53365423723E+03  0.25500000920E-02 0.  1.
       -2   -1    0    0    0  501  0.00000000000E+00  0.00000000000E+00 -0.73579274124E+03  0.73579274124E+03  0.25500000920E-02 0. -1.
    10030    2    1    2    0    0  0.00000000000E+00  0.00000000000E+00 -0.20213850401E+03  0.12694469785E+04  0.12532500374E+04 0.  0.
        5    1    3    3  502    0 -0.58245447296E+03  0.86785544299E+02  0.11582868188E+03  0.60018606891E+03  0.46999998093E+01 0.  1.
       -5    1    3    3    0  502  0.58245447296E+03 -0.86785544299E+02 -0.31796718589E+03  0.66926090956E+03  0.46999998093E+01 0. -1.
</event>
<event>
 5   0  0.1803959E-03  0.1304622E+04  0.7818609E-02  0.9025908E-01
       -1   -1    0    0    0  501  0.00000000000E+00  0.00000000000E+00  0.10633640491E+04  0.10633640491E+04  0.50400001928E-02 0.  1.
        1   -1    0    0  501    0  0.00000000000E+00  0.00000000000E+00 -0.40015417307E+03  0.40015417310E+03  0.50400001928E-02 0. -1.
    10030    2    1    2    0    0  0.00000000000E+00  0.00000000000E+00  0.66320987605E+03  0.14635182222E+04  0.13046218790E+04 0.  0.
        4    1    3    3  502    0  0.23960842025E+02  0.17530176182E+03 -0.37272071222E+03  0.41258595694E+03  0.12699999809E+01 0. -1.
       -4    1    3    3    0  502 -0.23960842025E+02 -0.17530176182E+03  0.10359305883E+04  0.10509322653E+04  0.12699999809E+01 0.  1.
</event>
<event>
 5   0  0.1814770E-03  0.1304873E+04  0.7818609E-02  0.9025709E-01
        1   -1    0    0  501    0  0.00000000000E+00  0.00000000000E+00  0.91295959852E+03  0.91295959853E+03  0.50400001928E-02 0. -1.
       -1   -1    0    0    0  501  0.00000000000E+00  0.00000000000E+00 -0.46625679016E+03  0.46625679019E+03  0.50400001928E-02 0.  1.
    10030    2    1    2    0    0  0.00000000000E+00  0.00000000000E+00  0.44670280836E+03  0.13792163887E+04  0.13048733456E+04 0.  0.
        5    1    3    3  502    0  0.24378426601E+03  0.42439311476E+03 -0.23263337686E+03  0.54192311469E+03  0.46999998093E+01 0.  1.
       -5    1    3    3    0  502 -0.24378426601E+03 -0.42439311476E+03  0.67933618522E+03  0.83729327404E+03  0.46999998093E+01 0. -1.
</event>
<event>
 5   0  0.3294720E-03  0.1283421E+04  0.7818609E-02  0.9042816E-01
        2   -1    0    0  501    0  0.00000000000E+00  0.00000000000E+00  0.67577075842E+03  0.67577075843E+03  0.25500000920E-02 0.  1.
       -2   -1    0    0    0  501  0.00000000000E+00  0.00000000000E+00 -0.60936726162E+03  0.60936726163E+03  0.25500000920E-02 0. -1.
    10030    2    1    2    0    0  0.00000000000E+00  0.00000000000E+00  0.66403496802E+02  0.12851380201E+04  0.12834213284E+04 0.  0.
        5    1    3    3  502    0 -0.26909575877E+03  0.52062800951E+03 -0.22849900389E+03  0.62904684758E+03  0.46999998093E+01 0.  1.
       -5    1    3    3    0  502  0.26909575877E+03 -0.52062800951E+03  0.29490250070E+03  0.65609117247E+03  0.46999998093E+01 0. -1.
</event>
<event>
 5   0  0.1814770E-03  0.1314346E+04  0.7818609E-02  0.9018265E-01
        1   -1    0    0  501    0  0.00000000000E+00  0.00000000000E+00  0.67036763555E+03  0.67036763557E+03  0.50400001928E-02 0.  1.
       -1   -1    0    0    0  501  0.00000000000E+00  0.00000000000E+00 -0.64423795472E+03  0.64423795474E+03  0.50400001928E-02 0. -1.
    10030    2    1    2    0    0  0.00000000000E+00  0.00000000000E+00  0.26129680829E+02  0.13146055903E+04  0.13143458821E+04 0.  0.
        5    1    3    3  502    0  0.51274126212E+03  0.13542286060E+03  0.40122815314E+03  0.66501810045E+03  0.46999998093E+01 0.  1.
       -5    1    3    3    0  502 -0.51274126212E+03 -0.13542286060E+03 -0.37509847231E+03  0.64958748986E+03  0.46999998093E+01 0. -1.
</event>
<event>
 5   0  0.3259968E-03  0.1291678E+04  0.7818609E-02  0.9036191E-01
       -2   -1    0    0    0  501  0.00000000000E+00  0.00000000000E+00  0.27464096384E+03  0.27464096385E+03  0.25500000920E-02 0. -1.
        2   -1    0    0  501    0  0.00000000000E+00  0.00000000000E+00 -0.15187390049E+04  0.15187390049E+04  0.25500000920E-02 0.  1.
    10030    2    1    2    0    0  0.00000000000E+00  0.00000000000E+00 -0.12440980411E+04  0.17933799688E+04  0.12916778920E+04 0.  0.
        4    1    3    3  502    0  0.42363959388E+03 -0.14022549513E+03 -0.12702640206E+04  0.13463677023E+04  0.12699999809E+01 0.  1.
       -4    1    3    3    0  502 -0.42363959388E+03  0.14022549513E+03  0.26165979487E+02  0.44701226646E+03  0.12699999809E+01 0. -1.
</event>
<event>
 5   0  0.1823154E-03  0.1335283E+04  0.7818609E-02  0.9002044E-01
       -1   -1    0    0    0  501  0.00000000000E+00  0.00000000000E+00  0.39696085381E+03  0.39696085384E+03  0.50400001928E-02 0.  1.
        1   -1    0    0  501    0  0.00000000000E+00  0.00000000000E+00 -0.11228945536E+04  0.11228945536E+04  0.50400001928E-02 0. -1.
    10030    2    1    2    0    0  0.00000000000E+00  0.00000000000E+00 -0.72593369982E+03  0.15198554075E+04  0.13352830124E+04 0.  0.
        2    1    3    3  502    0 -0.25327612218E+03 -0.47230119656E+03  0.90224793788E+02  0.54346823988E+03  0.25500000920E-02 0.  1.
       -2    1    3    3    0  502  0.25327612218E+03  0.47230119656E+03 -0.81615849360E+03  0.97638716759E+03  0.25500000920E-02 0. -1.
</event>
<event>
 5   0  0.1823154E-03  0.1292526E+04  0.7818609E-02  0.9035513E-01
       -1   -1    0    0    0  501  0.00000000000E+00  0.00000000000E+00  0.24387186095E+03  0.24387186101E+03  0.50400001928E-02 0. -1.
        1   -1    0    0  501    0  0.00000000000E+00  0.00000000000E+00 -0.17126031828E+04  0.17126031828E+04  0.50400001928E-02 0.  1.
    10030    2    1    2    0    0  0.00000000000E+00  0.00000000000E+00 -0.14687313218E+04  0.19564750438E+04  0.12925257836E+04 0.  0.
        2    1    3    3  502    0 -0.49193594534E+03  0.38488944691E+03 -0.48328180608E+03  0.78974816540E+03  0.25500000920E-02 0. -1.
       -2    1    3    3    0  502  0.49193594534E+03 -0.38488944691E+03 -0.98544951575E+03  0.11667268784E+04  0.25500000920E-02 0.  1.
</event>
<event>
 5   0  0.1857986E-03  0.1302025E+04  0.7818609E-02  0.9027961E-01
       -1   -1    0    0    0  501  0.00000000000E+00  0.00000000000E+00  0.33452138512E+03  0.33452138516E+03  0.50400001928E-02 0. -1.
        1   -1    0    0  501    0  0.00000000000E+00  0.00000000000E+00 -0.12669362627E+04  0.12669362627E+04  0.50400001928E-02 0.  1.
    10030    2    1    2    0    0  0.00000000000E+00  0.00000000000E+00 -0.93241487758E+03  0.16014576479E+04  0.13020249974E+04 0.  0.
        1    1    3    3  502    0  0.18363309894E+03  0.47173203560E+03  0.37279083256E+02  0.50758443486E+03  0.50400001928E-02 0. -1.
       -1    1    3    3    0  502 -0.18363309894E+03 -0.47173203560E+03 -0.96969396083E+03  0.10938732130E+04  0.50400001928E-02 0.  1.
</event>
<event>
 5   0  0.3262927E-03  0.1281261E+04  0.7818609E-02  0.9044559E-01
        2   -1    0    0  501    0  0.00000000000E+00  0.00000000000E+00  0.11475181042E+04  0.11475181042E+04  0.25500000920E-02 0.  1.
       -2   -1    0    0    0  501  0.00000000000E+00  0.00000000000E+00 -0.35764779424E+03  0.35764779425E+03  0.25500000920E-02 0. -1.
    10030    2    1    2    0    0  0.00000000000E+00  0.00000000000E+00  0.78987030997E+03  0.15051658985E+04  0.12812608147E+04 0.  0.
        3    1    3    3  502    0 -0.82315305632E+02  0.32434626764E+02 -0.35043611828E+03  0.36143228653E+03  0.10100000352E+00 0. -1.
       -3    1    3    3    0  502  0.82315305632E+02 -0.32434626764E+02  0.11403064282E+04  0.11437336119E+04  0.10100000352E+00 0.  1.
</event>
<event>
 5   0  0.1823154E-03  0.1323954E+04  0.7818609E-02  0.9010782E-01
       -1   -1    0    0    0  501  0.00000000000E+00  0.00000000000E+00  0.23994820245E+03  0.23994820250E+03  0.50400001928E-02 0. -1.
        1   -1    0    0  501    0  0.00000000000E+00  0.00000000000E+00 -0.18262848280E+04  0.18262848280E+04  0.50400001928E-02 0.  1.
    10030    2    1    2    0    0  0.00000000000E+00  0.00000000000E+00 -0.15863366255E+04  0.20662330305E+04  0.13239543220E+04 0.  0.
        2    1    3    3  502    0  0.58094725313E+03  0.31292129830E+03 -0.71067025320E+03  0.96977918035E+03  0.25500000920E-02 0. -1.
       -2    1    3    3    0  502 -0.58094725313E+03 -0.31292129830E+03 -0.87566637235E+03  0.10964538502E+04  0.25500000920E-02 0.  1.
</event>
<event>
 5   0  0.1254125E-03  0.1155057E+04  0.7818609E-02  0.9153130E-01
        3   -1    0    0  501    0  0.00000000000E+00  0.00000000000E+00  0.40944539437E+03  0.40944540683E+03  0.10100000352E+00 0.  1.
       -3   -1    0    0    0  501  0.00000000000E+00  0.00000000000E+00 -0.81461271856E+03  0.81461272482E+03  0.10100000352E+00 0. -1.
    10030    2    1    2    0    0  0.00000000000E+00  0.00000000000E+00 -0.40516732418E+03  0.12240581317E+04  0.11550574657E+04 0.  0.
        5    1    3    3  502    0 -0.56780105209E+03  0.74700756473E+02 -0.12371246598E+03  0.58592243685E+03  0.46999998093E+01 0.  1.
       -5    1    3    3    0  502  0.56780105209E+03 -0.74700756473E+02 -0.28145485820E+03  0.63813569480E+03  0.46999998093E+01 0. -1.
</event>
<event>
 5   0  0.1823154E-03  0.1217108E+04  0.7818609E-02  0.9098012E-01
        1   -1    0    0  501    0  0.00000000000E+00  0.00000000000E+00  0.12329737671E+04  0.12329737672E+04  0.50400001928E-02 0. -1.
       -1   -1    0    0    0  501  0.00000000000E+00  0.00000000000E+00 -0.30036182332E+03  0.30036182336E+03  0.50400001928E-02 0.  1.
    10030    2    1    2    0    0  0.00000000000E+00  0.00000000000E+00  0.93261194382E+03  0.15333355905E+04  0.12171084567E+04 0.  0.
        2    1    3    3  502    0 -0.35322309438E+03 -0.23950289426E+02  0.10898818042E+04  0.11459417602E+04  0.25500000920E-02 0. -1.
       -2    1    3    3    0  502  0.35322309438E+03  0.23950289426E+02 -0.15726986035E+03  0.38739383029E+03  0.25500000920E-02 0.  1.
</event>
<event>
 5   0  0.3294720E-03  0.1325181E+04  0.7818609E-02  0.9009831E-01
       -2   -1    0    0    0  501  0.00000000000E+00  0.00000000000E+00  0.19350591343E+03  0.19350591344E+03  0.25500000920E-02 0. -1.
        2   -1    0    0  501    0  0.00000000000E+00  0.00000000000E+00 -0.22688011768E+04  0.22688011768E+04  0.25500000920E-02 0.  1.
    10030    2    1    2    0    0  0.00000000000E+00  0.00000000000E+00 -0.20752952634E+04  0.24623070903E+04  0.13251814127E+04 0.  0.
        5    1    3    3  502    0 -0.47769400182E+03 -0.65757431248E+02 -0.19331206703E+03  0.51952598048E+03  0.46999998093E+01 0. -1.
       -5    1    3    3    0  502  0.47769400182E+03  0.65757431248E+02 -0.18819831964E+04  0.19427811098E+04  0.46999998093E+01 0.  1.
</event>
<event>
 5   0  0.3259968E-03  0.1307312E+04  0.7818609E-02  0.9023787E-01
       -2   -1    0    0    0  501  0.00000000000E+00  0.00000000000E+00  0.11918606320E+04  0.11918606320E+04  0.25500000920E-02 0. -1.
        2   -1    0    0  501    0  0.00000000000E+00  0.00000000000E+00 -0.35848646854E+03  0.35848646855E+03  0.25500000920E-02 0.  1.
    10030    2    1    2    0    0  0.00000000000E+00  0.00000000000E+00  0.83337416350E+03  0.15503471006E+04  0.13073116063E+04 0.  0.
        4    1    3    3  502    0 -0.12111972643E+03  0.24620364952E+03  0.11202575919E+04  0.11533711069E+04  0.12699999809E+01 0. -1.
       -4    1    3    3    0  502  0.12111972643E+03 -0.24620364952E+03 -0.28688342840E+03  0.39697599368E+03  0.12699999809E+01 0.  1.
</event>
<event>
 5   0  0.1823154E-03  0.1293032E+04  0.7818609E-02  0.9035109E-01
       -1   -1    0    0    0  501  0.00000000000E+00  0.00000000000E+00  0.38176720007E+03  0.38176720010E+03  0.50400001928E-02 0. -1.
        1   -1    0    0  501    0  0.00000000000E+00  0.00000000000E+00 -0.10948628214E+04  0.10948628215E+04  0.50400001928E-02 0.  1.
    10030    2    1    2    0    0  0.00000000000E+00  0.00000000000E+00 -0.71309562138E+03  0.14766300216E+04  0.12930316529E+04 0.  0.
        2    1    3    3  502    0 -0.21980261021E+03  0.39213443829E+03  0.17407872929E+03  0.48206432055E+03  0.25500000920E-02 0.  1.
       -2    1    3    3    0  502  0.21980261021E+03 -0.39213443829E+03 -0.88717435067E+03  0.99456570102E+03  0.25500000920E-02 0. -1.
</event>
<event>
 5   0  0.1857986E-03  0.1353457E+04  0.7818609E-02  0.8988215E-01
        1   -1    0    0  501    0  0.00000000000E+00  0.00000000000E+00  0.15850522869E+04  0.15850522869E+04  0.50400001928E-02 0. -1.
       -1   -1    0    0    0  501  0.00000000000E+00  0.00000000000E+00 -0.28892507357E+03  0.28892507362E+03  0.50400001928E-02 0.  1.
    10030    2    1    2    0    0  0.00000000000E+00  0.00000000000E+00  0.12961272133E+04  0.18739773605E+04  0.13534568315E+04 0.  0.
        1    1    3    3  502    0 -0.48267262935E+03  0.40039488881E+03  0.29595270687E+03  0.69345291033E+03  0.50400001928E-02 0. -1.
       -1    1    3    3    0  502  0.48267262935E+03 -0.40039488881E+03  0.10001745065E+04  0.11805244502E+04  0.50400001928E-02 0.  1.
</event>
<event>
 5   0  0.1873488E-03  0.1297127E+04  0.7818609E-02  0.9031847E-01
       -1   -1    0    0    0  501  0.00000000000E+00  0.00000000000E+00  0.23949495931E+03  0.23949495937E+03  0.50400001928E-02 0. -1.
        1   -1    0    0  501    0  0.00000000000E+00  0.00000000000E+00 -0.17563402827E+04  0.17563402827E+04  0.50400001928E-02 0.  1.
    10030    2    1    2    0    0  0.00000000000E+00  0.00000000000E+00 -0.15168453234E+04  0.19958352421E+04  0.12971270479E+04 0.  0.
        3    1    3    3  502    0 -0.21838254479E+03 -0.38888566542E+03 -0.14829193700E+04  0.15485389452E+04  0.10100000352E+00 0.  1.
       -3    1    3    3    0  502  0.21838254479E+03  0.38888566542E+03 -0.33925953320E+02  0.44729629682E+03  0.10100000352E+00 0. -1.
</event>
<event>
 5   0  0.3299104E-03  0.1331207E+04  0.7818609E-02  0.9005177E-01
       -2   -1    0    0    0  501  0.00000000000E+00  0.00000000000E+00  0.51833838231E+03  0.51833838231E+03  0.25500000920E-02 0. -1.
        2   -1    0    0  501    0  0.00000000000E+00  0.00000000000E+00 -0.85470806637E+03  0.85470806637E+03  0.25500000920E-02 0.  1.
    10030    2    1    2    0    0  0.00000000000E+00  0.00000000000E+00 -0.33636968406E+03  0.13730464487E+04  0.13312069658E+04 0.  0.
        2    1    3    3  502    0 -0.64482829686E+03  0.16152892007E+03 -0.13346881059E+03  0.67801847162E+03  0.25500000920E-02 0.  1.
       -2    1    3    3    0  502  0.64482829686E+03 -0.16152892007E+03 -0.20290087346E+03  0.69502797707E+03  0.25500000920E-02 0. -1.
</event>
<event>
 5   0  0.1857986E-03  0.1275072E+04  0.7818609E-02  0.9049571E-01
        1   -1    0    0  501    0  0.00000000000E+00  0.00000000000E+00  0.81234956105E+03  0.81234956106E+03  0.50400001928E-02 0.  1.
       -1   -1    0    0    0  501  0.00000000000E+00  0.00000000000E+00 -0.50034118405E+03  0.50034118407E+03  0.50400001928E-02 0. -1.
    10030    2    1    2    0    0  0.00000000000E+00  0.00000000000E+00  0.31200837700E+03  0.13126907451E+04  0.12750716706E+04 0.  0.
        1    1    3    3  502    0  0.58406929877E+03  0.17631026414E+03 -0.34466997348E+02  0.61107301441E+03  0.50400001928E-02 0.  1.
       -1    1    3    3    0  502 -0.58406929877E+03 -0.17631026414E+03  0.34647537435E+03  0.70161773072E+03  0.50400001928E-02 0. -1.
</event>
<event>
 5   0  0.3294720E-03  0.1283615E+04  0.7818609E-02  0.9042660E-01
        2   -1    0    0  501    0  0.00000000000E+00  0.00000000000E+00  0.12812133475E+04  0.12812133475E+04  0.25500000920E-02 0. -1.
       -2   -1    0    0    0  501  0.00000000000E+00  0.00000000000E+00 -0.32150547460E+03  0.32150547461E+03  0.25500000920E-02 0.  1.
    10030    2    1    2    0    0  0.00000000000E+00  0.00000000000E+00  0.95970787294E+03  0.16027188222E+04  0.12836153713E+04 0.  0.
        5    1    3    3  502    0  0.28780137545E+02 -0.75052720333E+02 -0.31517403459E+03  0.32529674026E+03  0.46999998093E+01 0.  1.
       -5    1    3    3    0  502 -0.28780137545E+02  0.75052720333E+02  0.12748819075E+04  0.12774220819E+04  0.46999998093E+01 0. -1.
</event>
<event>
 5   0  0.1873488E-03  0.1322022E+04  0.7818609E-02  0.9012282E-01
        1   -1    0    0  501    0  0.00000000000E+00  0.00000000000E+00  0.43766115450E+03  0.43766115453E+03  0.50400001928E-02 0. -1.
       -1   -1    0    0    0  501  0.00000000000E+00  0.00000000000E+00 -0.99834172602E+03  0.99834172604E+03  0.50400001928E-02 0.  1.
    10030    2    1    2    0    0  0.00000000000E+00  0.00000000000E+00 -0.56068057152E+03  0.14360028806E+04  0.13220217735E+04 0.  0.
        3    1    3    3  502    0  0.31418150493E+02  0.39982344812E+03 -0.85108466372E+03  0.94084589857E+03  0.10100000352E+00 0.  1.
       -3    1    3    3    0  502 -0.31418150493E+02 -0.39982344812E+03  0.29040409219E+03  0.49515698199E+03  0.10100000352E+00 0. -1.
</event>
<event>
 5   0  0.3299104E-03  0.1290616E+04  0.7818609E-02  0.9037040E-01
       -2   -1    0    0    0  501  0.00000000000E+00  0.00000000000E+00  0.40007279491E+03  0.40007279492E+03  0.25500000920E-02 0.  1.
        2   -1    0    0  501    0  0.00000000000E+00  0.00000000000E+00 -0.10408667583E+04  0.10408667583E+04  0.25500000920E-02 0. -1.
    10030    2    1    2    0    0  0.00000000000E+00  0.00000000000E+00 -0.64079396336E+03  0.14409395532E+04  0.12906160903E+04 0.  0.
        2    1    3    3  502    0  0.39406974918E+03 -0.41301817832E+03 -0.65635645843E+03  0.86987285472E+03  0.25500000920E-02 0. -1.
       -2    1    3    3    0  502 -0.39406974918E+03  0.41301817832E+03  0.15562495071E+02  0.57106669847E+03  0.25500000920E-02 0.  1.
</event>
<event>
 5   0  0.1254125E-03  0.1276331E+04  0.7818609E-02  0.9048548E-01
        3   -1    0    0  501    0  0.00000000000E+00  0.00000000000E+00  0.33594418840E+03  0.33594420358E+03  0.10100000352E+00 0. -1.
       -3   -1    0    0    0  501  0.00000000000E+00  0.00000000000E+00 -0.12122706706E+04  0.12122706748E+04  0.10100000352E+00 0.  1.
    10030    2    1    2    0    0  0.00000000000E+00  0.00000000000E+00 -0.87632648220E+03  0.15482148784E+04  0.12763311507E+04 0.  0.
        4    1    3    3  502    0 -0.20433132733E+03 -0.50492032521E+03 -0.84149524546E+03  0.10024029565E+04  0.12699999809E+01 0.  1.
       -4    1    3    3    0  502  0.20433132733E+03  0.50492032521E+03 -0.34831236734E+02  0.54581192190E+03  0.12699999809E+01 0. -1.
</event>
<event>
 5   0  0.3294720E-03  0.1301499E+04  0.7818609E-02  0.9028377E-01
       -2   -1    0    0    0  501  0.00000000000E+00  0.00000000000E+00  0.21145237170E+03  0.21145237172E+03  0.25500000920E-02 0. -1.
        2   -1    0    0  501    0  0.00000000000E+00  0.00000000000E+00 -0.20026966316E+04  0.20026966316E+04  0.25500000920E-02 0.  1.
    10030    2    1    2    0    0  0.00000000000E+00  0.00000000000E+00 -0.17912442599E+04  0.22141490033E+04  0.13014990627E+04 0.  0.
        5    1    3    3  502    0  0.10246619027E+03 -0.34769351779E+03 -0.18150148841E+04  0.18508622914E+04  0.46999998093E+01 0.  1.
       -5    1    3    3    0  502 -0.10246619027E+03  0.34769351779E+03  0.23770624178E+02  0.36328671188E+03  0.46999998093E+01 0. -1.
</event>
<event>
 5   0  0.1857986E-03  0.1292300E+04  0.7818609E-02  0.9035694E-01
       -1   -1    0    0    0  501  0.00000000000E+00  0.00000000000E+00  0.48357340846E+03  0.48357340848E+03  0.50400001928E-02 0.  1.
        1   -1    0    0  501    0  0.00000000000E+00  0.00000000000E+00 -0.86338456761E+03  0.86338456762E+03  0.50400001928E-02 0. -1.
    10030    2    1    2    0    0  0.00000000000E+00  0.00000000000E+00 -0.37981115915E+03  0.13469579761E+04  0.12922999933E+04 0.  0.
        1    1    3    3  502    0  0.30556694842E+03 -0.40212816695E+03 -0.60997973164E+03  0.79193023409E+03  0.50400001928E-02 0. -1.
       -1    1    3    3    0  502 -0.30556694842E+03  0.40212816695E+03  0.23016857249E+03  0.55502774202E+03  0.50400001928E-02 0.  1.
</event>
<event>
 5   0  0.1823154E-03  0.1379545E+04  0.7818609E-02  0.8968760E-01
       -1   -1    0    0    0  501  0.00000000000E+00  0.00000000000E+00  0.10262776694E+04  0.10262776695E+04  0.50400001928E-02 0. -1.
        1   -1    0    0  501    0  0.00000000000E+00  0.00000000000E+00 -0.46360347865E+03  0.46360347868E+03  0.50400001928E-02 0.  1.
    10030    2    1    2    0    0  0.00000000000E+00  0.00000000000E+00  0.56267419079E+03  0.14898811481E+04  0.13795447041E+04 0.  0.
        2    1    3    3  502    0  0.24434329766E+03 -0.47623325477E+03  0.75120194510E+03  0.92239152337E+03  0.25500000920E-02 0. -1.
       -2    1    3    3    0  502 -0.24434329766E+03  0.47623325477E+03 -0.18852775431E+03  0.56748962476E+03  0.25500000920E-02 0.  1.
</event>
<event>
 5   0  0.3262927E-03  0.1283079E+04  0.7818609E-02  0.9043093E-01
        2   -1    0    0  501    0  0.00000000000E+00  0.00000000000E+00  0.96664573092E+03  0.96664573093E+03  0.25500000920E-02 0. -1.
       -2   -1    0    0    0  501  0.00000000000E+00  0.00000000000E+00 -0.42577406145E+03  0.42577406146E+03  0.25500000920E-02 0.  1.
    10030    2    1    2    0    0  0.00000000000E+00  0.00000000000E+00  0.54087166947E+03  0.13924197924E+04  0.12830786084E+04 0.  0.
        3    1    3    3  502    0  0.43922897820E+03 -0.46026684411E+03  0.35995812124E+03  0.73098394122E+03  0.10100000352E+00 0.  1.
       -3    1    3    3    0  502 -0.43922897820E+03  0.46026684411E+03  0.18091354823E+03  0.66143585116E+03  0.10100000352E+00 0. -1.
</event>
<event>
 5   0  0.1814770E-03  0.1268930E+04  0.7818609E-02  0.9054574E-01
        1   -1    0    0  501    0  0.00000000000E+00  0.00000000000E+00  0.20004910283E+04  0.20004910283E+04  0.50400001928E-02 0.  1.
       -1   -1    0    0    0  501  0.00000000000E+00  0.00000000000E+00 -0.20122345399E+03  0.20122345405E+03  0.50400001928E-02 0. -1.
    10030    2    1    2    0    0  0.00000000000E+00  0.00000000000E+00  0.17992675743E+04  0.22017144823E+04  0.12689298081E+04 0.  0.
        5    1    3    3  502    0  0.98322357371E+02 -0.59296072511E+03  0.12520500933E+04  0.13888560881E+04  0.46999998093E+01 0. -1.
       -5    1    3    3    0  502 -0.98322357371E+02  0.59296072511E+03  0.54721748098E+03  0.81285839417E+03  0.46999998093E+01 0.  1.
</event>
<event>
 5   0  0.3336609E-03  0.1320871E+04  0.7818609E-02  0.9013176E-01
        2   -1    0    0  501    0  0.00000000000E+00  0.00000000000E+00  0.14667017988E+04  0.14667017988E+04  0.25500000920E-02 0. -1.
       -2   -1    0    0    0  501  0.00000000000E+00  0.00000000000E+00 -0.29738488544E+03  0.29738488546E+03  0.25500000920E-02 0.  1.
    10030    2    1    2    0    0  0.00000000000E+00  0.00000000000E+00  0.11693169134E+04  0.17640866843E+04  0.13208708437E+04 0.  0.
        1    1    3    3  502    0  0.38887123891E+03  0.38286357942E+03  0.87860400453E+02  0.55274298810E+03  0.50400001928E-02 0.  1.
       -1    1    3    3    0  502 -0.38887123891E+03 -0.38286357942E+03  0.10814565129E+04  0.12113436962E+04  0.50400001928E-02 0. -1.
</event>
<event>
 5   0  0.1857986E-03  0.1313708E+04  0.7818609E-02  0.9018764E-01
       -1   -1    0    0    0  501  0.00000000000E+00  0.00000000000E+00  0.66024419953E+03  0.66024419954E+03  0.50400001928E-02 0. -1.
        1   -1    0    0  501    0  0.00000000000E+00  0.00000000000E+00 -0.65348160850E+03  0.65348160852E+03  0.50400001928E-02 0.  1.
    10030    2    1    2    0    0  0.00000000000E+00  0.00000000000E+00  0.67625910213E+01  0.13137258081E+04  0.13137084023E+04 0.  0.
        1    1    3    3  502    0  0.35205034747E+03 -0.55423971315E+03  0.21720969338E+02  0.65695731012E+03  0.50400001928E-02 0. -1.
       -1    1    3    3    0  502 -0.35205034747E+03  0.55423971315E+03 -0.14958378317E+02  0.65676849795E+03  0.50400001928E-02 0.  1.
</event>
<event>
 5   0  0.3299104E-03  0.1303531E+04  0.7818609E-02  0.9026770E-01
        2   -1    0    0  501    0  0.00000000000E+00  0.00000000000E+00  0.18455878974E+04  0.18455878974E+04  0.25500000920E-02 0. -1.
       -2   -1    0    0    0  501  0.00000000000E+00  0.00000000000E+00 -0.23016964247E+03  0.23016964248E+03  0.25500000920E-02 0.  1.
    10030    2    1    2    0    0  0.00000000000E+00  0.00000000000E+00  0.16154182550E+04  0.20757575399E+04  0.13035310606E+04 0.  0.
        2    1    3    3  502    0 -0.23381291550E+03 -0.83734318366E+02 -0.15186684043E+03  0.29110728736E+03  0.25500000920E-02 0.  1.
       -2    1    3    3    0  502  0.23381291550E+03  0.83734318366E+02  0.17672850954E+04  0.17846502526E+04  0.25500000920E-02 0. -1.
</event>
<event>
 5   0  0.1873488E-03  0.1300487E+04  0.7818609E-02  0.9029179E-01
        1   -1    0    0  501    0  0.00000000000E+00  0.00000000000E+00  0.46252675277E+03  0.46252675280E+03  0.50400001928E-02 0. -1.
       -1   -1    0    0    0  501  0.00000000000E+00  0.00000000000E+00 -0.91414541067E+03  0.91414541068E+03  0.50400001928E-02 0.  1.
    10030    2    1    2    0    0  0.00000000000E+00  0.00000000000E+00 -0.45161865789E+03  0.13766721635E+04  0.13004871524E+04 0.  0.
        3    1    3    3  502    0 -0.38119064484E+03  0.45360296053E+03 -0.50937246880E+03  0.78135924880E+03  0.10100000352E+00 0.  1.
       -3    1    3    3    0  502  0.38119064484E+03 -0.45360296053E+03  0.57753810906E+02  0.59531291468E+03  0.10100000352E+00 0. -1.
</event>
<event>
 5   0  0.3259968E-03  0.1300082E+04  0.7818609E-02  0.9029500E-01
       -2   -1    0    0    0  501  0.00000000000E+00  0.00000000000E+00  0.30243698027E+03  0.30243698028E+03  0.25500000920E-02 0. -1.
        2   -1    0    0  501    0  0.00000000000E+00  0.00000000000E+00 -0.13971615348E+04  0.13971615348E+04  0.25500000920E-02 0.  1.
    10030    2    1    2    0    0  0.00000000000E+00  0.00000000000E+00 -0.10947245545E+04  0.16995985151E+04  0.13000820213E+04 0.  0.
        4    1    3    3  502    0  0.39472736894E+03 -0.97119431231E+02  0.11577550635E+03  0.42266707996E+03  0.12699999809E+01 0. -1.
       -4    1    3    3    0  502 -0.39472736894E+03  0.97119431231E+02 -0.12105000609E+04  0.12769314351E+04  0.12699999809E+01 0.  1.
</event>
<event>
 5   0  0.3336609E-03  0.1308269E+04  0.7818609E-02  0.9023033E-01
        2   -1    0    0  501    0  0.00000000000E+00  0.00000000000E+00  0.22100965978E+04  0.22100965978E+04  0.25500000920E-02 0.  1.
       -2   -1    0    0    0  501  0.00000000000E+00  0.00000000000E+00 -0.19360779486E+03  0.19360779488E+03  0.25500000920E-02 0. -1.
    10030    2    1    2    0    0  0.00000000000E+00  0.00000000000E+00  0.20164888030E+04  0.24037043927E+04  0.13082689766E+04 0.  0.
        1    1    3    3  502    0 -0.28327755120E+02  0.63227535666E+03  0.13119153327E+04  0.14566044173E+04  0.50400001928E-02 0.  1.
       -1    1    3    3    0  502  0.28327755120E+02 -0.63227535666E+03  0.70457347029E+03  0.94709997540E+03  0.50400001928E-02 0. -1.
</event>
<event>
 5   0  0.1873488E-03  0.1601268E+04  0.7818609E-02  0.8819769E-01
       -1   -1    0    0    0  501  0.00000000000E+00  0.00000000000E+00  0.55353761114E+03  0.55353761116E+03  0.50400001928E-02 0. -1.
        1   -1    0    0  501    0  0.00000000000E+00  0.00000000000E+00 -0.11580336574E+04  0.11580336575E+04  0.50400001928E-02 0.  1.
    10030    2    1    2    0    0  0.00000000000E+00  0.00000000000E+00 -0.60449604631E+03  0.17115712686E+04  0.16012684777E+04 0.  0.
        3    1    3    3  502    0 -0.35937507575E+03 -0.15465982516E+03 -0.10488966993E+04  0.11194884558E+04  0.10100000352E+00 0.  1.
       -3    1    3    3    0  502  0.35937507575E+03  0.15465982516E+03  0.44440065304E+03  0.59208281280E+03  0.10100000352E+00 0. -1.
</event>
<event>
 5   0  0.1814770E-03  0.1101908E+04  0.7818609E-02  0.9203334E-01
       -1   -1    0    0    0  501  0.00000000000E+00  0.00000000000E+00  0.38887444429E+03  0.38887444432E+03  0.50400001928E-02 0. -1.
        1   -1    0    0  501    0  0.00000000000E+00  0.00000000000E+00 -0.78058696370E+03  0.78058696372E+03  0.50400001928E-02 0.  1.
    10030    2    1    2    0    0  0.00000000000E+00  0.00000000000E+00 -0.39171251942E+03  0.11694614080E+04  0.11019080211E+04 0.  0.
        5    1    3    3  502    0 -0.43901172294E+03 -0.23601629711E+03 -0.44496543980E+03  0.66817012654E+03  0.46999998093E+01 0.  1.
       -5    1    3    3    0  502  0.43901172294E+03  0.23601629711E+03  0.53252920388E+02  0.50129128150E+03  0.46999998093E+01 0. -1.
</event>
<event>
 5   0  0.1873488E-03  0.1304822E+04  0.7818609E-02  0.9025750E-01
        1   -1    0    0  501    0  0.00000000000E+00  0.00000000000E+00  0.45495598475E+03  0.45495598478E+03  0.50400001928E-02 0.  1.
       -1   -1    0    0    0  501  0.00000000000E+00  0.00000000000E+00 -0.93556287068E+03  0.93556287069E+03  0.50400001928E-02 0. -1.
    10030    2    1    2    0    0  0.00000000000E+00  0.00000000000E+00 -0.48060688592E+03  0.13905188555E+04  0.13048217153E+04 0.  0.
        3    1    3    3  502    0  0.61726369114E+03 -0.20570512108E+03 -0.18907488615E+03  0.67755323334E+03  0.10100000352E+00 0. -1.
       -3    1    3    3    0  502 -0.61726369114E+03  0.20570512108E+03 -0.29153199977E+03  0.71296562213E+03  0.10100000352E+00 0.  1.
</event>
<event>
 5   0  0.1814770E-03  0.1282976E+04  0.7818609E-02  0.9043175E-01
       -1   -1    0    0    0  501  0.00000000000E+00  0.00000000000E+00  0.48350439555E+03  0.48350439558E+03  0.50400001928E-02 0.  1.
        1   -1    0    0  501    0  0.00000000000E+00  0.00000000000E+00 -0.85109275253E+03  0.85109275255E+03  0.50400001928E-02 0. -1.
    10030    2    1    2    0    0  0.00000000000E+00  0.00000000000E+00 -0.36758835698E+03  0.13345971481E+04  0.12829763628E+04 0.  0.
        5    1    3    3  502    0 -0.49271650696E+03 -0.19229158459E+03  0.19376875939E+03  0.56330633926E+03  0.46999998093E+01 0.  1.
       -5    1    3    3    0  502  0.49271650696E+03  0.19229158459E+03 -0.56135711637E+03  0.77129080886E+03  0.46999998093E+01 0. -1.
</event>
<event>
 5   0  0.3299104E-03  0.1318637E+04  0.7818609E-02  0.9014915E-01
       -2   -1    0    0    0  501  0.00000000000E+00  0.00000000000E+00  0.10177175537E+04  0.10177175537E+04  0.25500000920E-02 0. -1.
        2   -1    0    0  501    0  0.00000000000E+00  0.00000000000E+00 -0.42713304203E+03  0.42713304204E+03  0.25500000920E-02 0.  1.
    10030    2    1    2    0    0  0.00000000000E+00  0.00000000000E+00  0.59058451165E+03  0.14448505957E+04  0.13186368638E+04 0.  0.
        2    1    3    3  502    0 -0.57818074952E+03 -0.26760308748E+02 -0.50668814950E+02  0.58101327185E+03  0.25500000920E-02 0.  1.
       -2    1    3    3    0  502  0.57818074952E+03  0.26760308748E+02  0.64125332660E+03  0.86383732388E+03  0.25500000920E-02 0. -1.
</event>
<event>
 5   0  0.1873488E-03  0.1122114E+04  0.7818609E-02  0.9183902E-01
        1   -1    0    0  501    0  0.00000000000E+00  0.00000000000E+00  0.44464948604E+03  0.44464948607E+03  0.50400001928E-02 0.  1.
       -1   -1    0    0    0  501  0.00000000000E+00  0.00000000000E+00 -0.70794013294E+03  0.70794013295E+03  0.50400001928E-02 0. -1.
    10030    2    1    2    0    0  0.00000000000E+00  0.00000000000E+00 -0.26329064690E+03  0.11525896190E+04  0.11221144617E+04 0.  0.
        3    1    3    3  502    0  0.51468180592E+03  0.36889116021E+02  0.94625957431E+02  0.52460675773E+03  0.10100000352E+00 0.  1.
       -3    1    3    3    0  502 -0.51468180592E+03 -0.36889116021E+02 -0.35791660433E+03  0.62798286130E+03  0.10100000352E+00 0. -1.
</event>
<event>
 5   0  0.3336609E-03  0.1283067E+04  0.7818609E-02  0.9043102E-01
       -2   -1    0    0    0  501  0.00000000000E+00  0.00000000000E+00  0.44636942795E+03  0.44636942796E+03  0.25500000920E-02 0.  1.
        2   -1    0    0  501    0  0.00000000000E+00  0.00000000000E+00 -0.92202822963E+03  0.92202822964E+03  0.25500000920E-02 0. -1.
    10030    2    1    2    0    0  0.00000000000E+00  0.00000000000E+00 -0.47565880168E+03  0.13683976576E+04  0.12830669716E+04 0.  0.
        1    1    3    3  502    0  0.42195180966E+03  0.30610869831E+03  0.16096277922E+03  0.54557756660E+03  0.50400001928E-02 0.  1.
       -1    1    3    3    0  502 -0.42195180966E+03 -0.30610869831E+03 -0.63662158091E+03  0.82282009100E+03  0.50400001928E-02 0. -1.
</event>
<event>
 5   0  0.3259968E-03  0.1332018E+04  0.7818609E-02  0.9004553E-01
       -2   -1    0    0    0  501  0.00000000000E+00  0.00000000000E+00  0.19637898326E+03  0.19637898327E+03  0.25500000920E-02 0.  1.
        2   -1    0    0  501    0  0.00000000000E+00  0.00000000000E+00 -0.22587350090E+04  0.22587350090E+04  0.25500000920E-02 0. -1.
    10030    2    1    2    0    0  0.00000000000E+00  0.00000000000E+00 -0.20623560257E+04  0.24551139922E+04  0.13320181448E+04 0.  0.
        4    1    3    3  502    0 -0.48639108580E+02 -0.30561551250E+01 -0.22554418585E+04  0.22559686817E+04  0.12699999809E+01 0. -1.
       -4    1    3    3    0  502  0.48639108580E+02  0.30561551250E+01  0.19308583280E+03  0.19914531050E+03  0.12699999809E+01 0.  1.
</event>
<event>
 5   0  0.1873488E-03  0.1318131E+04  0.7818609E-02  0.9015309E-01
       -1   -1    0    0    0  501  0.00000000000E+00  0.00000000000E+00  0.48111084719E+03  0.48111084722E+03  0.50400001928E-02 0. -1.
        1   -1    0    0  501    0  0.00000000000E+00  0.00000000000E+00 -0.90284312815E+03  0.90284312816E+03  0.50400001928E-02 0.  1.
    10030    2    1    2    0    0  0.00000000000E+00  0.00000000000E+00 -0.42173228096E+03  0.13839539754E+04  0.13181314385E+04 0.  0.
        3    1    3    3  502    0  0.11086087406E+03 -0.15520299809E+03  0.45150094112E+03  0.49013387360E+03  0.10100000352E+00 0. -1.
       -3    1    3    3    0  502 -0.11086087406E+03  0.15520299809E+03 -0.87323322208E+03  0.89382010179E+03  0.10100000352E+00 0.  1.
</event>
<event>
 5   0  0.3262927E-03  0.1289184E+04  0.7818609E-02  0.9038187E-01
       -2   -1    0    0    0  501  0.00000000000E+00  0.00000000000E+00  0.62607759894E+03  0.62607759895E+03  0.25500000920E-02 0. -1.
        2   -1    0    0  501    0  0.00000000000E+00  0.00000000000E+00 -0.66365363961E+03  0.66365363961E+03  0.25500000920E-02 0.  1.
    10030    2    1    2    0    0  0.00000000000E+00  0.00000000000E+00 -0.37576040661E+02  0.12897312386E+04  0.12891837374E+04 0.  0.
        3    1    3    3  502    0 -0.68960678753E+02  0.12136415189E+03 -0.64835157603E+03  0.66320781730E+03  0.10100000352E+00 0.  1.
       -3    1    3    3    0  502  0.68960678753E+02 -0.12136415189E+03  0.61077553537E+03  0.62652342126E+03  0.10100000352E+00 0. -1.
</event>
<event>
 5   0  0.3262927E-03  0.1287515E+04  0.7818609E-02  0.9039525E-01
       -2   -1    0    0    0  501  0.00000000000E+00  0.00000000000E+00  0.79584834952E+03  0.79584834953E+03  0.25500000920E-02 0. -1.
        2   -1    0    0  501    0  0.00000000000E+00  0.00000000000E+00 -0.52073226068E+03  0.52073226069E+03  0.25500000920E-02 0.  1.
    10030    2    1    2    0    0  0.00000000000E+00  0.00000000000E+00  0.27511608885E+03  0.13165806102E+04  0.12875152973E+04 0.  0.
        3    1    3    3  502    0 -0.11280705358E+03 -0.52186162269E+03  0.50534239001E+03  0.73514347301E+03  0.10100000352E+00 0. -1.
       -3    1    3    3    0  502  0.11280705358E+03  0.52186162269E+03 -0.23022630116E+03  0.58143713720E+03  0.10100000352E+00 0.  1.
</event>
<event>
 5   0  0.1823154E-03  0.1299151E+04  0.7818609E-02  0.9030238E-01
       -1   -1    0    0    0  501  0.00000000000E+00  0.00000000000E+00  0.17339157922E+03  0.17339157930E+03  0.50400001928E-02 0.  1.
        1   -1    0    0  501    0  0.00000000000E+00  0.00000000000E+00 -0.24335008105E+04  0.24335008105E+04  0.50400001928E-02 0. -1.
    10030    2    1    2    0    0  0.00000000000E+00  0.00000000000E+00 -0.22601092313E+04  0.26068923898E+04  0.12991513363E+04 0.  0.
        2    1    3    3  502    0  0.29391766696E+03 -0.86250556588E+02  0.19371073942E+02  0.30692343015E+03  0.25500000920E-02 0.  1.
       -2    1    3    3    0  502 -0.29391766696E+03  0.86250556588E+02 -0.22794803053E+04  0.22999689597E+04  0.25500000920E-02 0. -1.
</event>
<event>
 5   0  0.1814770E-03  0.1255750E+04  0.7818609E-02  0.9065411E-01
       -1   -1    0    0    0  501  0.00000000000E+00  0.00000000000E+00  0.22947993896E+03  0.22947993901E+03  0.50400001928E-02 0. -1.
        1   -1    0    0  501    0  0.00000000000E+00  0.00000000000E+00 -0.17179152444E+04  0.17179152444E+04  0.50400001928E-02 0.  1.
    10030    2    1    2    0    0  0.00000000000E+00  0.00000000000E+00 -0.14884353055E+04  0.19473951835E+04  0.12557501113E+04 0.  0.
        5    1    3    3  502    0  0.12765537469E+03 -0.61328294122E+03 -0.67854911625E+03  0.92350574110E+03  0.46999998093E+01 0. -1.
       -5    1    3    3    0  502 -0.12765537469E+03  0.61328294122E+03 -0.80988618922E+03  0.10238894424E+04  0.46999998093E+01 0.  1.
</event>
<event>
 5   0  0.1857986E-03  0.1296780E+04  0.7818609E-02  0.9032123E-01
       -1   -1    0    0    0  501  0.00000000000E+00  0.00000000000E+00  0.66405657047E+03  0.66405657049E+03  0.50400001928E-02 0. -1.
        1   -1    0    0  501    0  0.00000000000E+00  0.00000000000E+00 -0.63309292277E+03  0.63309292279E+03  0.50400001928E-02 0.  1.
    10030    2    1    2    0    0  0.00000000000E+00  0.00000000000E+00  0.30963647704E+02  0.12971494933E+04  0.12967798813E+04 0.  0.
        1    1    3    3  502    0  0.49388482622E+03 -0.25496504497E+03 -0.31849972832E+03  0.64060242951E+03  0.50400001928E-02 0.  1.
       -1    1    3    3    0  502 -0.49388482622E+03  0.25496504497E+03  0.34946337603E+03  0.65654706377E+03  0.50400001928E-02 0. -1.
</event>
<event>
 5   0  0.3294720E-03  0.1280612E+04  0.7818609E-02  0.9045082E-01
        2   -1    0    0  501    0  0.00000000000E+00  0.00000000000E+00  0.58120003246E+03  0.58120003247E+03  0.25500000920E-02 0. -1.
       -2   -1    0    0    0  501  0.00000000000E+00  0.00000000000E+00 -0.70542336150E+03  0.70542336151E+03  0.25500000920E-02 0.  1.
    10030    2    1    2    0    0  0.00000000000E+00  0.00000000000E+00 -0.12422332904E+03  0.12866233940E+04  0.12806124794E+04 0.  0.
        5    1    3    3  502    0 -0.12663468128E+03  0.26347631666E+03  0.51022339678E+03  0.58805281784E+03  0.46999998093E+01 0. -1.
       -5    1    3    3    0  502  0.12663468128E+03 -0.26347631666E+03 -0.63444672582E+03  0.69857057614E+03  0.46999998093E+01 0.  1.
</event>
<event>
 5   0  0.3262927E-03  0.1205541E+04  0.7818609E-02  0.9108021E-01
        2   -1    0    0  501    0  0.00000000000E+00  0.00000000000E+00  0.46465259560E+03  0.46465259561E+03  0.25500000920E-02 0.  1.
       -2   -1    0    0    0  501  0.00000000000E+00  0.00000000000E+00 -0.78194340433E+03  0.78194340433E+03  0.25500000920E-02 0. -1.
    10030    2    1    2    0    0  0.00000000000E+00  0.00000000000E+00 -0.31729080872E+03  0.12465959999E+04  0.12055405965E+04 0.  0.
        3    1    3    3  502    0 -0.94415181019E+02 -0.50029160099E+03  0.17502962769E+03  0.53836910498E+03  0.10100000352E+00 0.  1.
       -3    1    3    3    0  502  0.94415181019E+02  0.50029160099E+03 -0.49232043642E+03  0.70822689496E+03  0.10100000352E+00 0. -1.
</event>
<event>
 5   0  0.3259968E-03  0.1291412E+04  0.7818609E-02  0.9036404E-01
        2   -1    0    0  501    0  0.00000000000E+00  0.00000000000E+00  0.58464642069E+03  0.58464642069E+03  0.25500000920E-02 0. -1.
       -2   -1    0    0    0  501  0.00000000000E+00  0.00000000000E+00 -0.71314207082E+03  0.71314207082E+03  0.25500000920E-02 0.  1.
    10030    2    1    2    0    0  0.00000000000E+00  0.00000000000E+00 -0.12849565013E+03  0.12977884915E+04  0.12914115675E+04 0.  0.
        4    1    3    3  502    0  0.44276169674E+03 -0.17667156509E+03 -0.50192522335E+03  0.69222922847E+03  0.12699999809E+01 0.  1.
       -4    1    3    3    0  502 -0.44276169674E+03  0.17667156509E+03  0.37342957321E+03  0.60555926305E+03  0.12699999809E+01 0. -1.
</event>
<event>
 5   0  0.3262927E-03  0.1307203E+04  0.7818609E-02  0.9023873E-01
        2   -1    0    0  501    0  0.00000000000E+00  0.00000000000E+00  0.94366629828E+03  0.94366629828E+03  0.25500000920E-02 0. -1.
       -2   -1    0    0    0  501  0.00000000000E+00  0.00000000000E+00 -0.45269689123E+03  0.45269689124E+03  0.25500000920E-02 0.  1.
    10030    2    1    2    0    0  0.00000000000E+00  0.00000000000E+00  0.49096940704E+03  0.13963631895E+04  0.13072028146E+04 0.  0.
        3    1    3    3  502    0 -0.17453874350E+03 -0.37370534195E+03 -0.29612398347E+03  0.50774883493E+03  0.10100000352E+00 0.  1.
       -3    1    3    3    0  502  0.17453874350E+03  0.37370534195E+03  0.78709339051E+03  0.88861435459E+03  0.10100000352E+00 0. -1.
</event>
<event>
 5   0  0.1814770E-03  0.1346494E+04  0.7818609E-02  0.8993487E-01
       -1   -1    0    0    0  501  0.00000000000E+00  0.00000000000E+00  0.46087258400E+03  0.46087258403E+03  0.50400001928E-02 0.  1.
        1   -1    0    0  501    0  0.00000000000E+00  0.00000000000E+00 -0.98348486001E+03  0.98348486002E+03  0.50400001928E-02 0. -1.
    10030    2    1    2    0    0  0.00000000000E+00  0.00000000000E+00 -0.52261227601E+03  0.14443574441E+04  0.13464935333E+04 0.  0.
        5    1    3    3  502    0  0.23483090750E+03 -0.62991520241E+03 -0.22262411901E+03  0.70818239579E+03  0.46999998093E+01 0.  1.
       -5    1    3    3    0  502 -0.23483090750E+03  0.62991520241E+03 -0.29998815700E+03  0.73617504826E+03  0.46999998093E+01 0. -1.
</event>
<event>
 5   0  0.1803959E-03  0.1343969E+04  0.7818609E-02  0.8995406E-01
        1   -1    0    0  501    0  0.00000000000E+00  0.00000000000E+00  0.42289694933E+03  0.42289694936E+03  0.50400001928E-02 0.  1.
       -1   -1    0    0    0  501  0.00000000000E+00  0.00000000000E+00 -0.10677852069E+04  0.10677852069E+04  0.50400001928E-02 0. -1.
    10030    2    1    2    0    0  0.00000000000E+00  0.00000000000E+00 -0.64488825756E+03  0.14906821563E+04  0.13439689082E+04 0.  0.
        4    1    3    3  502    0  0.20272376518E+03 -0.56131606878E+03 -0.66501041072E+03  0.89353965402E+03  0.12699999809E+01 0. -1.
       -4    1    3    3    0  502 -0.20272376518E+03  0.56131606878E+03  0.20122153160E+02  0.59714250224E+03  0.12699999809E+01 0.  1.
</event>
<event>
 5   0  0.1814770E-03  0.1321070E+04  0.7818609E-02  0.9013021E-01
        1   -1    0    0  501    0  0.00000000000E+00  0.00000000000E+00  0.57552793763E+03  0.57552793766E+03  0.50400001928E-02 0.  1.
       -1   -1    0    0    0  501  0.00000000000E+00  0.00000000000E+00 -0.75809806927E+03  0.75809806929E+03  0.50400001928E-02 0. -1.
    10030    2    1    2    0    0  0.00000000000E+00  0.00000000000E+00 -0.18257013164E+03  0.13336260069E+04  0.13210702000E+04 0.  0.
        5    1    3    3  502    0 -0.26196528610E+03  0.97803995180E+02 -0.69538130743E+03  0.74951229831E+03  0.46999998093E+01 0. -1.
       -5    1    3    3    0  502  0.26196528610E+03 -0.97803995180E+02  0.51281117579E+03  0.58411370863E+03  0.46999998093E+01 0.  1.
</event>
<event>
 5   0  0.1803959E-03  0.1338161E+04  0.7818609E-02  0.8999839E-01
        1   -1    0    0  501    0  0.00000000000E+00  0.00000000000E+00  0.88832790762E+03  0.88832790763E+03  0.50400001928E-02 0.  1.
       -1   -1    0    0    0  501  0.00000000000E+00  0.00000000000E+00 -0.50394511881E+03  0.50394511883E+03  0.50400001928E-02 0. -1.
    10030    2    1    2    0    0  0.00000000000E+00  0.00000000000E+00  0.38438278881E+03  0.13922730265E+04  0.13381606973E+04 0.  0.
        4    1    3    3  502    0 -0.35914272909E+02  0.21410510386E+03 -0.46628006383E+03  0.51434379682E+03  0.12699999809E+01 0. -1.
       -4    1    3    3    0  502  0.35914272909E+02 -0.21410510386E+03  0.85066285265E+03  0.87792922965E+03  0.12699999809E+01 0.  1.
</event>
<event>
 5   0  0.3262927E-03  0.1302107E+04  0.7818609E-02  0.9027896E-01
        2   -1    0    0  501    0  0.00000000000E+00  0.00000000000E+00  0.80616031375E+03  0.80616031376E+03  0.25500000920E-02 0. -1.
       -2   -1    0    0    0  501  0.00000000000E+00  0.00000000000E+00 -0.52578985068E+03  0.52578985068E+03  0.25500000920E-02 0.  1.
    10030    2    1    2    0    0  0.00000000000E+00  0.00000000000E+00  0.28037046308E+03  0.13319501644E+04  0.13021073857E+04 0.  0.
        3    1    3    3  502    0  0.61259736270E+03 -0.21692379545E+03  0.10005031057E+03  0.65752683342E+03  0.10100000352E+00 0. -1.
       -3    1    3    3    0  502 -0.61259736270E+03  0.21692379545E+03  0.18032015251E+03  0.67442333102E+03  0.10100000352E+00 0.  1.
</event>
<event>
 5   0  0.1873488E-03  0.1322193E+04  0.7818609E-02  0.9012149E-01
       -1   -1    0    0    0  501  0.00000000000E+00  0.00000000000E+00  0.13292821776E+04  0.13292821776E+04  0.50400001928E-02 0.  1.
        1   -1    0    0  501    0  0.00000000000E+00  0.00000000000E+00 -0.32878520343E+03  0.32878520347E+03  0.50400001928E-02 0. -1.
    10030    2    1    2    0    0  0.00000000000E+00  0.00000000000E+00  0.10004969742E+04  0.16580673811E+04  0.13221925900E+04 0.  0.
        3    1    3    3  502    0 -0.26131793207E+03 -0.17264961175E+03 -0.22984323202E+03  0.38848792976E+03  0.10100000352E+00 0. -1.
       -3    1    3    3    0  502  0.26131793207E+03  0.17264961175E+03  0.12303402062E+04  0.12695794514E+04  0.10100000352E+00 0.  1.
</event>
<event>
 5   0  0.3294720E-03  0.1444861E+04  0.7818609E-02  0.8921971E-01
       -2   -1    0    0    0  501  0.00000000000E+00  0.00000000000E+00  0.46124708472E+03  0.46124708473E+03  0.25500000920E-02 0.  1.
        2   -1    0    0  501    0  0.00000000000E+00  0.00000000000E+00 -0.11315102471E+04  0.11315102471E+04  0.25500000920E-02 0. -1.
    10030    2    1    2    0    0  0.00000000000E+00  0.00000000000E+00 -0.67026316241E+03  0.15927573319E+04  0.14448609661E+04 0.  0.
        5    1    3    3  502    0  0.35714816351E+03  0.37152446028E+03  0.22294855854E+03  0.56152772420E+03  0.46999998093E+01 0.  1.
       -5    1    3    3    0  502 -0.35714816351E+03 -0.37152446028E+03 -0.89321172095E+03  0.10312296077E+04  0.46999998093E+01 0. -1.
</event>
<event>
 5   0  0.3262927E-03  0.1292708E+04  0.7818609E-02  0.9035368E-01
       -2   -1    0    0    0  501  0.00000000000E+00  0.00000000000E+00  0.17251640714E+03  0.17251640716E+03  0.25500000920E-02 0.  1.
        2   -1    0    0  501    0  0.00000000000E+00  0.00000000000E+00 -0.24216460321E+04  0.24216460321E+04  0.25500000920E-02 0. -1.
    10030    2    1    2    0    0  0.00000000000E+00  0.00000000000E+00 -0.22491296250E+04  0.25941624393E+04  0.12927082778E+04 0.  0.
        3    1    3    3  502    0 -0.54577816577E+03  0.22915418011E+03 -0.60362371133E+03  0.84542713440E+03  0.10100000352E+00 0.  1.
       -3    1    3    3    0  502  0.54577816577E+03 -0.22915418011E+03 -0.16455059137E+04  0.17487353049E+04  0.10100000352E+00 0. -1.
</event>
<event>
 5   0  0.1873488E-03  0.1262572E+04  0.7818609E-02  0.9059784E-01
       -1   -1    0    0    0  501  0.00000000000E+00  0.00000000000E+00  0.58897878342E+03  0.58897878345E+03  0.50400001928E-02 0.  1.
        1   -1    0    0  501    0  0.00000000000E+00  0.00000000000E+00 -0.67663228641E+03  0.67663228643E+03  0.50400001928E-02 0. -1.
    10030    2    1    2    0    0  0.00000000000E+00  0.00000000000E+00 -0.87653502984E+02  0.12656110699E+04  0.12625720746E+04 0.  0.
        3    1    3    3  502    0 -0.11550564566E+03  0.18297392333E+03 -0.63829807759E+03  0.67397734150E+03  0.10100000352E+00 0. -1.
       -3    1    3    3    0  502  0.11550564566E+03 -0.18297392333E+03  0.55064457461E+03  0.59163372837E+03  0.10100000352E+00 0.  1.
</event>
<event>
 5   0  0.3259968E-03  0.1347196E+04  0.7818609E-02  0.8992953E-01
        2   -1    0    0  501    0  0.00000000000E+00  0.00000000000E+00  0.22880242818E+04  0.22880242818E+04  0.25500000920E-02 0.  1.
       -2   -1    0    0    0  501  0.00000000000E+00  0.00000000000E+00 -0.19830845021E+03  0.19830845023E+03  0.25500000920E-02 0. -1.
    10030    2    1    2    0    0  0.00000000000E+00  0.00000000000E+00  0.20897158315E+04  0.24863327320E+04  0.13471964213E+04 0.  0.
        4    1    3    3  502    0 -0.81093693010E+02  0.81016854074E+02 -0.18017323588E+03  0.21355075630E+03  0.12699999809E+01 0. -1.
       -4    1    3    3    0  502  0.81093693010E+02 -0.81016854074E+02  0.22698890674E+04  0.22727819757E+04  0.12699999809E+01 0.  1.
</event>
<event>
 5   0  0.1254125E-03  0.1209273E+04  0.7818609E-02  0.9104778E-01
        4   -1    0    0  501    0  0.00000000000E+00  0.00000000000E+00  0.57695335955E+03  0.57695475732E+03  0.12699999809E+01 0.  1.
       -4   -1    0    0    0  501  0.00000000000E+00  0.00000000000E+00 -0.63364560609E+03  0.63364687880E+03  0.12699999809E+01 0. -1.
    10030    2    1    2    0    0  0.00000000000E+00  0.00000000000E+00 -0.56692246536E+02  0.12106016361E+04  0.12092734639E+04 0.  0.
        2    1    3    3  502    0  0.89197064350E+02  0.19808489851E+03 -0.59322806864E+03  0.63175413314E+03  0.25500000920E-02 0. -1.
       -2    1    3    3    0  502 -0.89197064350E+02 -0.19808489851E+03  0.53653582210E+03  0.57884750299E+03  0.25500000920E-02 0.  1.
</event>
<event>
 5   0  0.1823154E-03  0.1255759E+04  0.7818609E-02  0.9065403E-01
       -1   -1    0    0    0  501  0.00000000000E+00  0.00000000000E+00  0.33699914038E+03  0.33699914042E+03  0.50400001928E-02 0. -1.
        1   -1    0    0  501    0  0.00000000000E+00  0.00000000000E+00 -0.11698331687E+04  0.11698331687E+04  0.50400001928E-02 0.  1.
    10030    2    1    2    0    0  0.00000000000E+00  0.00000000000E+00 -0.83283402834E+03  0.15068323092E+04  0.12557591685E+04 0.  0.
        2    1    3    3  502    0 -0.49002482223E+03  0.15242356748E+03  0.17680947087E+02  0.51348796113E+03  0.25500000920E-02 0. -1.
       -2    1    3    3    0  502  0.49002482223E+03 -0.15242356748E+03 -0.85051497543E+03  0.99334434803E+03  0.25500000920E-02 0.  1.
</event>
<event>
 5   0  0.1803959E-03  0.1297079E+04  0.7818609E-02  0.9031884E-01
        1   -1    0    0  501    0  0.00000000000E+00  0.00000000000E+00  0.11123069805E+04  0.11123069805E+04  0.50400001928E-02 0.  1.
       -1   -1    0    0    0  501  0.00000000000E+00  0.00000000000E+00 -0.37813637975E+03  0.37813637978E+03  0.50400001928E-02 0. -1.
    10030    2    1    2    0    0  0.00000000000E+00  0.00000000000E+00  0.73417060074E+03  0.14904433603E+04  0.12970793882E+04 0.  0.
        4    1    3    3  502    0 -0.43249685835E+02  0.64053820700E+03  0.47266530443E+03  0.79722884598E+03  0.12699999809E+01 0. -1.
       -4    1    3    3    0  502  0.43249685835E+02 -0.64053820700E+03  0.26150529630E+03  0.69321451430E+03  0.12699999809E+01 0.  1.
</event>
<event>
 5   0  0.1873488E-03  0.1293038E+04  0.7818609E-02  0.9035104E-01
        1   -1    0    0  501    0  0.00000000000E+00  0.00000000000E+00  0.12685384752E+04  0.12685384752E+04  0.50400001928E-02 0. -1.
       -1   -1    0    0    0  501  0.00000000000E+00  0.00000000000E+00 -0.32950289622E+03  0.32950289626E+03  0.50400001928E-02 0.  1.
    10030    2    1    2    0    0  0.00000000000E+00  0.00000000000E+00  0.93903557896E+03  0.15980413714E+04  0.12930384396E+04 0.  0.
        3    1    3    3  502    0  0.38825672045E+02 -0.34976089483E+03 -0.20076609201E+03  0.40515077473E+03  0.10100000352E+00 0.  1.
       -3    1    3    3    0  502 -0.38825672045E+02  0.34976089483E+03  0.11398016710E+04  0.11928905967E+04  0.10100000352E+00 0. -1.
</event>
<event>
 5   0  0.1814770E-03  0.1317048E+04  0.7818609E-02  0.9016154E-01
       -1   -1    0    0    0  501  0.00000000000E+00  0.00000000000E+00  0.71369929070E+03  0.71369929072E+03  0.50400001928E-02 0.  1.
        1   -1    0    0  501    0  0.00000000000E+00  0.00000000000E+00 -0.60761450338E+03  0.60761450340E+03  0.50400001928E-02 0. -1.
    10030    2    1    2    0    0  0.00000000000E+00  0.00000000000E+00  0.10608478732E+03  0.13213137941E+04  0.13170482757E+04 0.  0.
        5    1    3    3  502    0 -0.47381649698E+03 -0.36868975700E+03  0.32446943462E+03  0.68244905577E+03  0.46999998093E+01 0.  1.
       -5    1    3    3    0  502  0.47381649698E+03  0.36868975700E+03 -0.21838464730E+03  0.63886473835E+03  0.46999998093E+01 0. -1.
</event>
<event>
 5   0  0.3262927E-03  0.1308176E+04  0.7818609E-02  0.9023106E-01
        2   -1    0    0  501    0  0.00000000000E+00  0.00000000000E+00  0.14222039807E+04  0.14222039807E+04  0.25500000920E-02 0.  1.
       -2   -1    0    0    0  501  0.00000000000E+00  0.00000000000E+00 -0.30082264225E+03  0.30082264227E+03  0.25500000920E-02 0. -1.
    10030    2    1    2    0    0  0.00000000000E+00  0.00000000000E+00  0.11213813385E+04  0.17230266230E+04  0.13081760727E+04 0.  0.
        3    1    3    3  502    0 -0.48434807359E+03  0.34051764127E+03  0.19452660444E+03  0.62320617009E+03  0.10100000352E+00 0. -1.
       -3    1    3    3    0  502  0.48434807359E+03 -0.34051764127E+03  0.92685473404E+03  0.10998204529E+04  0.10100000352E+00 0.  1.
</event>
<event>
 5   0  0.1857986E-03  0.1563368E+04  0.7818609E-02  0.8843374E-01
       -1   -1    0    0    0  501  0.00000000000E+00  0.00000000000E+00  0.44857762606E+03  0.44857762609E+03  0.50400001928E-02 0.  1.
        1   -1    0    0  501    0  0.00000000000E+00  0.00000000000E+00 -0.13621491255E+04  0.13621491255E+04  0.50400001928E-02 0. -1.
    10030    2    1    2    0    0  0.00000000000E+00  0.00000000000E+00 -0.91357149939E+03  0.18107267516E+04  0.15633676741E+04 0.  0.
        1    1    3    3  502    0  0.60765692681E+03 -0.28944417295E+03 -0.91717678995E+03  0.11376458737E+04  0.50400001928E-02 0. -1.
       -1    1    3    3    0  502 -0.60765692681E+03  0.28944417295E+03  0.36052905525E+01  0.67308087783E+03  0.50400001928E-02 0.  1.
</event>
<event>
 5   0  0.3336609E-03  0.1080743E+04  0.7818609E-02  0.9224167E-01
        2   -1    0    0  501    0  0.00000000000E+00  0.00000000000E+00  0.10207210635E+04  0.10207210635E+04  0.25500000920E-02 0. -1.
       -2   -1    0    0    0  501  0.00000000000E+00  0.00000000000E+00 -0.28607370419E+03  0.28607370421E+03  0.25500000920E-02 0.  1.
    10030    2    1    2    0    0  0.00000000000E+00  0.00000000000E+00  0.73464735927E+03  0.13067947677E+04  0.10807431806E+04 0.  0.
        1    1    3    3  502    0 -0.72310814522E+02 -0.35182837690E+03 -0.12083898034E+03  0.37896453645E+03  0.50400001928E-02 0.  1.
       -1    1    3    3    0  502  0.72310814522E+02  0.35182837690E+03  0.85548633961E+03  0.92783023123E+03  0.50400001928E-02 0. -1.
</event>
<event>
 5   0  0.1873488E-03  0.1308633E+04  0.7818609E-02  0.9022747E-01
       -1   -1    0    0    0  501  0.00000000000E+00  0.00000000000E+00  0.55946595644E+03  0.55946595646E+03  0.50400001928E-02 0.  1.
        1   -1    0    0  501    0  0.00000000000E+00  0.00000000000E+00 -0.76524830823E+03  0.76524830824E+03  0.50400001928E-02 0. -1.
    10030    2    1    2    0    0  0.00000000000E+00  0.00000000000E+00 -0.20578235179E+03  0.13247142647E+04  0.13086334501E+04 0.  0.
        3    1    3    3  502    0 -0.42340665108E+03 -0.47604577688E+03  0.48064025123E+02  0.63890761036E+03  0.10100000352E+00 0.  1.
       -3    1    3    3    0  502  0.42340665108E+03  0.47604577688E+03 -0.25384637691E+03  0.68580665434E+03  0.10100000352E+00 0. -1.
</event>
<event>
 5   0  0.1823154E-03  0.1248205E+04  0.7818609E-02  0.9071678E-01
        1   -1    0    0  501    0  0.00000000000E+00  0.00000000000E+00  0.12514633063E+04  0.12514633063E+04  0.50400001928E-02 0. -1.
       -1   -1    0    0    0  501  0.00000000000E+00  0.00000000000E+00 -0.31123901497E+03  0.31123901501E+03  0.50400001928E-02 0.  1.
    10030    2    1    2    0    0  0.00000000000E+00  0.00000000000E+00  0.94022429132E+03  0.15627023213E+04  0.12482054426E+04 0.  0.
        2    1    3    3  502    0  0.10835310602E+03  0.13378979150E+03 -0.28092159586E+03  0.32947996437E+03  0.25500000920E-02 0.  1.
       -2    1    3    3    0  502 -0.10835310602E+03 -0.13378979150E+03  0.12211458872E+04  0.12332223569E+04  0.25500000920E-02 0. -1.
</event>
<event>
 5   0  0.1814770E-03  0.1678429E+04  0.7818609E-02  0.8773764E-01
        1   -1    0    0  501    0  0.00000000000E+00  0.00000000000E+00  0.11488412240E+04  0.11488412240E+04  0.50400001928E-02 0. -1.
       -1   -1    0    0    0  501  0.00000000000E+00  0.00000000000E+00 -0.61303595500E+03  0.61303595502E+03  0.50400001928E-02 0.  1.
    10030    2    1    2    0    0  0.00000000000E+00  0.00000000000E+00  0.53580526901E+03  0.17618771790E+04  0.16784289999E+04 0.  0.
        5    1    3    3  502    0  0.62315669057E+02  0.22133556435E+03 -0.57930904949E+03  0.62329265957E+03  0.46999998093E+01 0.  1.
       -5    1    3    3    0  502 -0.62315669057E+02 -0.22133556435E+03  0.11151143185E+04  0.11385845195E+04  0.46999998093E+01 0. -1.
</event>
<event>
 5   0  0.3294720E-03  0.1205858E+04  0.7818609E-02  0.9107744E-01
       -2   -1    0    0    0  501  0.00000000000E+00  0.00000000000E+00  0.19243015835E+03  0.19243015836E+03  0.25500000920E-02 0.  1.
        2   -1    0    0  501    0  0.00000000000E+00  0.00000000000E+00 -0.18891189804E+04  0.18891189804E+04  0.25500000920E-02 0. -1.
    10030    2    1    2    0    0  0.00000000000E+00  0.00000000000E+00 -0.16966888220E+04  0.20815491388E+04  0.12058581418E+04 0.  0.
        5    1    3    3  502    0  0.54071462954E+03 -0.60412344161E+02 -0.12967552424E+04  0.14062781413E+04  0.46999998093E+01 0. -1.
       -5    1    3    3    0  502 -0.54071462954E+03  0.60412344161E+02 -0.39993357964E+03  0.67527099748E+03  0.46999998093E+01 0.  1.
</event>
<event>
 5   0  0.3294720E-03  0.1148943E+04  0.7818609E-02  0.9158759E-01
        2   -1    0    0  501    0  0.00000000000E+00  0.00000000000E+00  0.82626667235E+03  0.82626667236E+03  0.25500000920E-02 0.  1.
       -2   -1    0    0    0  501  0.00000000000E+00  0.00000000000E+00 -0.39940805950E+03  0.39940805950E+03  0.25500000920E-02 0. -1.
    10030    2    1    2    0    0  0.00000000000E+00  0.00000000000E+00  0.42685861286E+03  0.12256747319E+04  0.11489431113E+04 0.  0.
        5    1    3    3  502    0 -0.40792786854E+03  0.75799808771E+02 -0.21040073697E+03  0.46523254084E+03  0.46999998093E+01 0. -1.
       -5    1    3    3    0  502  0.40792786854E+03 -0.75799808771E+02  0.63725934983E+03  0.76044219102E+03  0.46999998093E+01 0.  1.
</event>
<event>
 5   0  0.3294720E-03  0.1309866E+04  0.7818609E-02  0.9021778E-01
       -2   -1    0    0    0  501  0.00000000000E+00  0.00000000000E+00  0.46293831447E+03  0.46293831447E+03  0.25500000920E-02 0.  1.
        2   -1    0    0  501    0  0.00000000000E+00  0.00000000000E+00 -0.92655392779E+03  0.92655392780E+03  0.25500000920E-02 0. -1.
    10030    2    1    2    0    0  0.00000000000E+00  0.00000000000E+00 -0.46361561333E+03  0.13894922423E+04  0.13098661208E+04 0.  0.
        5    1    3    3  502    0  0.56157255046E+03  0.62969641408E+02  0.11935408955E+03  0.57757804136E+03  0.46999998093E+01 0.  1.
       -5    1    3    3    0  502 -0.56157255046E+03 -0.62969641408E+02 -0.58296970287E+03  0.81191420091E+03  0.46999998093E+01 0. -1.
</event>
<event>
 5   0  0.1803959E-03  0.1300996E+04  0.7818609E-02  0.9028776E-01
        1   -1    0    0  501    0  0.00000000000E+00  0.00000000000E+00  0.10004084874E+04  0.10004084874E+04  0.50400001928E-02 0.  1.
       -1   -1    0    0    0  501  0.00000000000E+00  0.00000000000E+00 -0.42297470165E+03  0.42297470168E+03  0.50400001928E-02 0. -1.
    10030    2    1    2    0    0  0.00000000000E+00  0.00000000000E+00  0.57743378577E+03  0.14233831891E+04  0.13009957441E+04 0.  0.
        4    1    3    3  502    0 -0.16188392485E+03 -0.17747052906E+03 -0.37267090939E+03  0.44338179193E+03  0.12699999809E+01 0. -1.
       -4    1    3    3    0  502  0.16188392485E+03  0.17747052906E+03  0.95010469516E+03  0.98000139717E+03  0.12699999809E+01 0.  1.
</event>
<event>
 5   0  0.3299104E-03  0.1309487E+04  0.7818609E-02  0.9022076E-01
       -2   -1    0    0    0  501  0.00000000000E+00  0.00000000000E+00  0.17900882086E+03  0.17900882088E+03  0.25500000920E-02 0. -1.
        2   -1    0    0  501    0  0.00000000000E+00  0.00000000000E+00 -0.23947925868E+04  0.23947925868E+04  0.25500000920E-02 0.  1.
    10030    2    1    2    0    0  0.00000000000E+00  0.00000000000E+00 -0.22157837660E+04  0.25738014077E+04  0.13094869181E+04 0.  0.
        2    1    3    3  502    0 -0.64850345079E+02  0.26825597508E+03  0.59097976459E+02  0.28223997989E+03  0.25500000920E-02 0. -1.
       -2    1    3    3    0  502  0.64850345079E+02 -0.26825597508E+03 -0.22748817424E+04  0.22915614278E+04  0.25500000920E-02 0.  1.
</event>
<event>
 5   0  0.3262927E-03  0.1107086E+04  0.7818609E-02  0.9198312E-01
       -2   -1    0    0    0  501  0.00000000000E+00  0.00000000000E+00  0.24241963393E+03  0.24241963394E+03  0.25500000920E-02 0.  1.
        2   -1    0    0  501    0  0.00000000000E+00  0.00000000000E+00 -0.12639657443E+04  0.12639657443E+04  0.25500000920E-02 0. -1.
    10030    2    1    2    0    0  0.00000000000E+00  0.00000000000E+00 -0.10215461103E+04  0.15063853782E+04  0.11070864700E+04 0.  0.
        3    1    3    3  502    0 -0.22887962503E+03  0.23701575678E+03 -0.11160025820E+04  0.11636254229E+04  0.10100000352E+00 0. -1.
       -3    1    3    3    0  502  0.22887962503E+03 -0.23701575678E+03  0.94456471626E+02  0.34275995528E+03  0.10100000352E+00 0.  1.
</event>
<event>
 5   0  0.1857986E-03  0.1313490E+04  0.7818609E-02  0.9018935E-01
        1   -1    0    0  501    0  0.00000000000E+00  0.00000000000E+00  0.79274038672E+03  0.79274038673E+03  0.50400001928E-02 0.  1.
       -1   -1    0    0    0  501  0.00000000000E+00  0.00000000000E+00 -0.54407971320E+03  0.54407971322E+03  0.50400001928E-02 0. -1.
    10030    2    1    2    0    0  0.00000000000E+00  0.00000000000E+00  0.24866067352E+03  0.13368201000E+04  0.13134899501E+04 0.  0.
        1    1    3    3  502    0  0.33125001831E+03  0.47258114289E+03 -0.19469290902E+03  0.60906883034E+03  0.50400001928E-02 0. -1.
       -1    1    3    3    0  502 -0.33125001831E+03 -0.47258114289E+03  0.44335358254E+03  0.72775126961E+03  0.50400001928E-02 0.  1.
</event>
<event>
 5   0  0.3262927E-03  0.1313375E+04  0.7818609E-02  0.9019026E-01
        2   -1    0    0  501    0  0.00000000000E+00  0.00000000000E+00  0.52141159298E+03  0.52141159298E+03  0.25500000920E-02 0.  1.
       -2   -1    0    0    0  501  0.00000000000E+00  0.00000000000E+00 -0.82705939332E+03  0.82705939332E+03  0.25500000920E-02 0. -1.
    10030    2    1    2    0    0  0.00000000000E+00  0.00000000000E+00 -0.30564780034E+03  0.13484709863E+04  0.13133748220E+04 0.  0.
        3    1    3    3  502    0 -0.14351715327E+03 -0.54977887476E+03  0.18519130061E+03  0.59762012386E+03  0.10100000352E+00 0.  1.
       -3    1    3    3    0  502  0.14351715327E+03  0.54977887476E+03 -0.49083910095E+03  0.75085086245E+03  0.10100000352E+00 0. -1.
</event>
<event>
 5   0  0.1803959E-03  0.1229853E+04  0.7818609E-02  0.9087120E-01
       -1   -1    0    0    0  501  0.00000000000E+00  0.00000000000E+00  0.54679027107E+03  0.54679027110E+03  0.50400001928E-02 0.  1.
        1   -1    0    0  501    0  0.00000000000E+00  0.00000000000E+00 -0.69155365659E+03  0.69155365661E+03  0.50400001928E-02 0. -1.
    10030    2    1    2    0    0  0.00000000000E+00  0.00000000000E+00 -0.14476338552E+03  0.12383439277E+04  0.12298533431E+04 0.  0.
        4    1    3    3  502    0 -0.53542341935E+02 -0.38407877341E+03  0.40814449596E+03  0.56299807197E+03  0.12699999809E+01 0.  1.
       -4    1    3    3    0  502  0.53542341935E+02  0.38407877341E+03 -0.55290788147E+03  0.67534585574E+03  0.12699999809E+01 0. -1.
</event>
<event>
 5   0  0.3294720E-03  0.1305289E+04  0.7818609E-02  0.9025382E-01
        2   -1    0    0  501    0  0.00000000000E+00  0.00000000000E+00  0.69596551400E+03  0.69596551401E+03  0.25500000920E-02 0. -1.
       -2   -1    0    0    0  501  0.00000000000E+00  0.00000000000E+00 -0.61201972733E+03  0.61201972733E+03  0.25500000920E-02 0.  1.
    10030    2    1    2    0    0  0.00000000000E+00  0.00000000000E+00  0.83945786675E+02  0.13079852413E+04  0.13052886640E+04 0.  0.
        5    1    3    3  502    0  0.53338201272E+03  0.18077675554E+03  0.37242062707E+03  0.67520057783E+03  0.46999998093E+01 0. -1.
       -5    1    3    3    0  502 -0.53338201272E+03 -0.18077675554E+03 -0.28847484040E+03  0.63278466351E+03  0.46999998093E+01 0.  1.
</event>
<event>
 5   0  0.1873488E-03  0.1276274E+04  0.7818609E-02  0.9048594E-01
       -1   -1    0    0    0  501  0.00000000000E+00  0.00000000000E+00  0.12257392494E+04  0.12257392494E+04  0.50400001928E-02 0. -1.
        1   -1    0    0  501    0  0.00000000000E+00  0.00000000000E+00 -0.33222312149E+03  0.33222312153E+03  0.50400001928E-02 0.  1.
    10030    2    1    2    0    0  0.00000000000E+00  0.00000000000E+00  0.89351612790E+03  0.15579623709E+04  0.12762741392E+04 0.  0.
        3    1    3    3  502    0  0.51092119808E+03 -0.20626236802E+03  0.83973286252E+03  0.10043584647E+04  0.10100000352E+00 0. -1.
       -3    1    3    3    0  502 -0.51092119808E+03  0.20626236802E+03  0.53783265377E+02  0.55360390619E+03  0.10100000352E+00 0.  1.
</event>
<event>
 5   0  0.3299104E-03  0.1149351E+04  0.7818609E-02  0.9158383E-01
       -2   -1    0    0    0  501  0.00000000000E+00  0.00000000000E+00  0.17052918597E+03  0.17052918599E+03  0.25500000920E-02 0.  1.
        2   -1    0    0  501    0  0.00000000000E+00  0.00000000000E+00 -0.19366293728E+04  0.19366293728E+04  0.25500000920E-02 0. -1.
    10030    2    1    2    0    0  0.00000000000E+00  0.00000000000E+00 -0.17661001868E+04  0.21071585588E+04  0.11493508263E+04 0.  0.
        2    1    3    3  502    0 -0.11190573346E+03 -0.46721909380E+03 -0.14611658437E+04  0.15381229462E+04  0.25500000920E-02 0. -1.
       -2    1    3    3    0  502  0.11190573346E+03  0.46721909380E+03 -0.30493434315E+03  0.56903561262E+03  0.25500000920E-02 0.  1.
</event>
<event>
 5   0  0.1814770E-03  0.1322817E+04  0.7818609E-02  0.9011664E-01
        1   -1    0    0  501    0  0.00000000000E+00  0.00000000000E+00  0.87055013896E+03  0.87055013897E+03  0.50400001928E-02 0.  1.
       -1   -1    0    0    0  501  0.00000000000E+00  0.00000000000E+00 -0.50251133734E+03  0.50251133737E+03  0.50400001928E-02 0. -1.
    10030    2    1    2    0    0  0.00000000000E+00  0.00000000000E+00  0.36803880161E+03  0.13730614763E+04  0.13228171674E+04 0.  0.
        5    1    3    3  502    0 -0.35956582484E+03  0.37864405837E+03  0.60536923745E+03  0.79947039281E+03  0.46999998093E+01 0.  1.
       -5    1    3    3    0  502  0.35956582484E+03 -0.37864405837E+03 -0.23733043583E+03  0.57359108353E+03  0.46999998093E+01 0. -1.
</event>
<event>
 5   0  0.1823154E-03  0.1333028E+04  0.7818609E-02  0.9003776E-01
        1   -1    0    0  501    0  0.00000000000E+00  0.00000000000E+00  0.29231733407E+03  0.29231733412E+03  0.50400001928E-02 0.  1.
       -1   -1    0    0    0  501  0.00000000000E+00  0.00000000000E+00 -0.15197208783E+04  0.15197208784E+04  0.50400001928E-02 0. -1.
    10030    2    1    2    0    0  0.00000000000E+00  0.00000000000E+00 -0.12274035443E+04  0.18120382125E+04  0.13330277653E+04 0.  0.
        2    1    3    3  502    0 -0.22043618291E+03  0.18411383659E+03  0.20388314465E+03  0.35221918210E+03  0.25500000920E-02 0.  1.
       -2    1    3    3    0  502  0.22043618291E+03 -0.18411383659E+03 -0.14312866889E+04  0.14598190304E+04  0.25500000920E-02 0. -1.
</event>
<event>
 5   0  0.1814770E-03  0.1306502E+04  0.7818609E-02  0.9024425E-01
       -1   -1    0    0    0  501  0.00000000000E+00  0.00000000000E+00  0.22078898408E+03  0.22078898414E+03  0.50400001928E-02 0. -1.
        1   -1    0    0  501    0  0.00000000000E+00  0.00000000000E+00 -0.19327803256E+04  0.19327803256E+04  0.50400001928E-02 0.  1.
    10030    2    1    2    0    0  0.00000000000E+00  0.00000000000E+00 -0.17119913415E+04  0.21535693098E+04  0.13065015953E+04 0.  0.
        5    1    3    3  502    0  0.53613781577E+03 -0.15245690472E+03 -0.29452166343E+03  0.63043791568E+03  0.46999998093E+01 0. -1.
       -5    1    3    3    0  502 -0.53613781577E+03  0.15245690472E+03 -0.14174696781E+04  0.15231313941E+04  0.46999998093E+01 0.  1.
</event>
<event>
 5   0  0.3294720E-03  0.1295732E+04  0.7818609E-02  0.9032957E-01
       -2   -1    0    0    0  501  0.00000000000E+00  0.00000000000E+00  0.16079460186E+03  0.16079460188E+03  0.25500000920E-02 0. -1.
        2   -1    0    0  501    0  0.00000000000E+00  0.00000000000E+00 -0.26103502870E+04  0.26103502870E+04  0.25500000920E-02 0.  1.
    10030    2    1    2    0    0  0.00000000000E+00  0.00000000000E+00 -0.24495556851E+04  0.27711448889E+04  0.12957318166E+04 0.  0.
        5    1    3    3  502    0 -0.13588417376E+03 -0.40274449493E+03 -0.17914344331E+03  0.46128310196E+03  0.46999998093E+01 0. -1.
       -5    1    3    3    0  502  0.13588417376E+03  0.40274449493E+03 -0.22704122418E+04  0.23098617869E+04  0.46999998093E+01 0.  1.
</event>
<event>
 5   0  0.1814770E-03  0.1304418E+04  0.7818609E-02  0.9026069E-01
        1   -1    0    0  501    0  0.00000000000E+00  0.00000000000E+00  0.97921269320E+03  0.97921269321E+03  0.50400001928E-02 0.  1.
       -1   -1    0    0    0  501  0.00000000000E+00  0.00000000000E+00 -0.43440695430E+03  0.43440695433E+03  0.50400001928E-02 0. -1.
    10030    2    1    2    0    0  0.00000000000E+00  0.00000000000E+00  0.54480573890E+03  0.14136196475E+04  0.13044183435E+04 0.  0.
        5    1    3    3  502    0  0.37412638200E+03  0.52337680109E+03  0.15638502009E+03  0.66209681327E+03  0.46999998093E+01 0.  1.
       -5    1    3    3    0  502 -0.37412638200E+03 -0.52337680109E+03  0.38842071881E+03  0.75152283427E+03  0.46999998093E+01 0. -1.
</event>
<event>
 5   0  0.3336609E-03  0.1318249E+04  0.7818609E-02  0.9015217E-01
       -2   -1    0    0    0  501  0.00000000000E+00  0.00000000000E+00  0.11290137425E+04  0.11290137425E+04  0.25500000920E-02 0.  1.
        2   -1    0    0  501    0  0.00000000000E+00  0.00000000000E+00 -0.38480062880E+03  0.38480062881E+03  0.25500000920E-02 0. -1.
    10030    2    1    2    0    0  0.00000000000E+00  0.00000000000E+00  0.74421311368E+03  0.15138143713E+04  0.13182491389E+04 0.  0.
        1    1    3    3  502    0 -0.41109480548E+03  0.46325019284E+03  0.11316517302E+03  0.62960784356E+03  0.50400001928E-02 0.  1.
       -1    1    3    3    0  502  0.41109480548E+03 -0.46325019284E+03  0.63104794066E+03  0.88420652774E+03  0.50400001928E-02 0. -1.
</event>
<event>
 5   0  0.3294720E-03  0.1295095E+04  0.7818609E-02  0.9033464E-01
        2   -1    0    0  501    0  0.00000000000E+00  0.00000000000E+00  0.94701194638E+03  0.94701194638E+03  0.25500000920E-02 0. -1.
       -2   -1    0    0    0  501  0.00000000000E+00  0.00000000000E+00 -0.44278001727E+03  0.44278001728E+03  0.25500000920E-02 0.  1.
    10030    2    1    2    0    0  0.00000000000E+00  0.00000000000E+00  0.50423192911E+03  0.13897919637E+04  0.12950953107E+04 0.  0.
        5    1    3    3  502    0  0.53766739987E+03 -0.33468439589E+03  0.10736015304E+03  0.64237696891E+03  0.46999998093E+01 0.  1.
       -5    1    3    3    0  502 -0.53766739987E+03  0.33468439589E+03  0.39687177607E+03  0.74741499475E+03  0.46999998093E+01 0. -1.
</event>
<event>
 5   0  0.3294720E-03  0.1239039E+04  0.7818609E-02  0.9079356E-01
        2   -1    0    0  501    0  0.00000000000E+00  0.00000000000E+00  0.72114746272E+03  0.72114746273E+03  0.25500000920E-02 0.  1.
       -2   -1    0    0    0  501  0.00000000000E+00  0.00000000000E+00 -0.53221351085E+03  0.53221351085E+03  0.25500000920E-02 0. -1.
    10030    2    1    2    0    0  0.00000000000E+00  0.00000000000E+00  0.18893395187E+03  0.12533609736E+04  0.12390390195E+04 0.  0.
        5    1    3    3  502    0 -0.32965004878E+02  0.17008817661E+03 -0.50719008435E+03  0.53598558846E+03  0.46999998093E+01 0. -1.
       -5    1    3    3    0  502  0.32965004878E+02 -0.17008817661E+03  0.69612403623E+03  0.71737538512E+03  0.46999998093E+01 0.  1.
</event>
<event>
 5   0  0.1814770E-03  0.1305886E+04  0.7818609E-02  0.9024911E-01
        1   -1    0    0  501    0  0.00000000000E+00  0.00000000000E+00  0.57364161128E+03  0.57364161130E+03  0.50400001928E-02 0. -1.
       -1   -1    0    0    0  501  0.00000000000E+00  0.00000000000E+00 -0.74320664805E+03  0.74320664807E+03  0.50400001928E-02 0.  1.
    10030    2    1    2    0    0  0.00000000000E+00  0.00000000000E+00 -0.16956503677E+03  0.13168482594E+04  0.13058855373E+04 0.  0.
        5    1    3    3  502    0  0.10851654298E+03  0.63916729798E+03 -0.16290217364E+03  0.66848327061E+03  0.46999998093E+01 0. -1.
       -5    1    3    3    0  502 -0.10851654298E+03 -0.63916729798E+03 -0.66628631343E+01  0.64836498876E+03  0.46999998093E+01 0.  1.
</event>
<event>
 5   0  0.1814770E-03  0.1284703E+04  0.7818609E-02  0.9041785E-01
       -1   -1    0    0    0  501  0.00000000000E+00  0.00000000000E+00  0.85358049669E+03  0.85358049671E+03  0.50400001928E-02 0.  1.
        1   -1    0    0  501    0  0.00000000000E+00  0.00000000000E+00 -0.48339370135E+03  0.48339370137E+03  0.50400001928E-02 0. -1.
    10030    2    1    2    0    0  0.00000000000E+00  0.00000000000E+00  0.37018679535E+03  0.13369741981E+04  0.12847029785E+04 0.  0.
        5    1    3    3  502    0 -0.15661552787E+03  0.20326525129E+03  0.79790556201E+03  0.83816499678E+03  0.46999998093E+01 0.  1.
       -5    1    3    3    0  502  0.15661552787E+03 -0.20326525129E+03 -0.42771876666E+03  0.49880920130E+03  0.46999998093E+01 0. -1.
</event>
<event>
 5   0  0.3294720E-03  0.1302780E+04  0.7818609E-02  0.9027363E-01
       -2   -1    0    0    0  501  0.00000000000E+00  0.00000000000E+00  0.29662510912E+03  0.29662510913E+03  0.25500000920E-02 0.  1.
        2   -1    0    0  501    0  0.00000000000E+00  0.00000000000E+00 -0.14304552668E+04  0.14304552668E+04  0.25500000920E-02 0. -1.
    10030    2    1    2    0    0  0.00000000000E+00  0.00000000000E+00 -0.11338301577E+04  0.17270803760E+04  0.13027800269E+04 0.  0.
        5    1    3    3  502    0  0.37164094931E+03  0.31366158867E+03 -0.11413930477E+04  0.12406856035E+04  0.46999998093E+01 0. -1.
       -5    1    3    3    0  502 -0.37164094931E+03 -0.31366158867E+03  0.75628899359E+01  0.48639477250E+03  0.46999998093E+01 0.  1.
</event>
<event>
 5   0  0.1803959E-03  0.1345313E+04  0.7818609E-02  0.8994384E-01
        1   -1    0    0  501    0  0.00000000000E+00  0.00000000000E+00  0.78635536719E+03  0.78635536720E+03  0.50400001928E-02 0.  1.
       -1   -1    0    0    0  501  0.00000000000E+00  0.00000000000E+00 -0.57539743548E+03  0.57539743550E+03  0.50400001928E-02 0. -1.
    10030    2    1    2    0    0  0.00000000000E+00  0.00000000000E+00  0.21095793171E+03  0.13617528027E+04  0.13453131408E+04 0.  0.
        4    1    3    3  502    0 -0.19493835067E+03  0.52920823061E+03 -0.26561105255E+03  0.62338844715E+03  0.12699999809E+01 0. -1.
       -4    1    3    3    0  502  0.19493835067E+03 -0.52920823061E+03  0.47656898425E+03  0.73836435556E+03  0.12699999809E+01 0.  1.
</event>
<event>
 5   0  0.3336609E-03  0.1292733E+04  0.7818609E-02  0.9035348E-01
        2   -1    0    0  501    0  0.00000000000E+00  0.00000000000E+00  0.77988455715E+03  0.77988455716E+03  0.25500000920E-02 0. -1.
       -2   -1    0    0    0  501  0.00000000000E+00  0.00000000000E+00 -0.53570701264E+03  0.53570701265E+03  0.25500000920E-02 0.  1.
    10030    2    1    2    0    0  0.00000000000E+00  0.00000000000E+00  0.24417754451E+03  0.13155915698E+04  0.12927329598E+04 0.  0.
        1    1    3    3  502    0  0.49163782954E+03  0.37287593259E+01  0.54911292055E+03  0.73705268375E+03  0.50400001928E-02 0. -1.
       -1    1    3    3    0  502 -0.49163782954E+03 -0.37287593259E+01 -0.30493537604E+03  0.57853888605E+03  0.50400001928E-02 0.  1.
</event>
<event>
 5   0  0.1814770E-03  0.1249179E+04  0.7818609E-02  0.9070867E-01
       -1   -1    0    0    0  501  0.00000000000E+00  0.00000000000E+00  0.38669062804E+03  0.38669062808E+03  0.50400001928E-02 0. -1.
        1   -1    0    0  501    0  0.00000000000E+00  0.00000000000E+00 -0.10088481210E+04  0.10088481210E+04  0.50400001928E-02 0.  1.
    10030    2    1    2    0    0  0.00000000000E+00  0.00000000000E+00 -0.62215749299E+03  0.13955387491E+04  0.12491791121E+04 0.  0.
        5    1    3    3  502    0 -0.20815473916E+03 -0.58863764500E+03 -0.32934536270E+03  0.70591297656E+03  0.46999998093E+01 0. -1.
       -5    1    3    3    0  502  0.20815473916E+03  0.58863764500E+03 -0.29281213029E+03  0.68962577257E+03  0.46999998093E+01 0.  1.
</event>
<event>
 5   0  0.1857986E-03  0.1230606E+04  0.7818609E-02  0.9086481E-01
       -1   -1    0    0    0  501  0.00000000000E+00  0.00000000000E+00  0.21628065409E+03  0.21628065415E+03  0.50400001928E-02 0.  1.
        1   -1    0    0  501    0  0.00000000000E+00  0.00000000000E+00 -0.17504932874E+04  0.17504932874E+04  0.50400001928E-02 0. -1.
    10030    2    1    2    0    0  0.00000000000E+00  0.00000000000E+00 -0.15342126333E+04  0.19667739415E+04  0.12306060836E+04 0.  0.
        1    1    3    3  502    0 -0.32515232084E+03  0.52073078423E+03 -0.70095385808E+03  0.93178371556E+03  0.50400001928E-02 0.  1.
       -1    1    3    3    0  502  0.32515232084E+03 -0.52073078423E+03 -0.83325877522E+03  0.10349902260E+04  0.50400001928E-02 0. -1.
</event>
<event>
 5   0  0.1857986E-03  0.1284720E+04  0.7818609E-02  0.9041771E-01
        1   -1    0    0  501    0  0.00000000000E+00  0.00000000000E+00  0.12132432751E+04  0.12132432752E+04  0.50400001928E-02 0.  1.
       -1   -1    0    0    0  501  0.00000000000E+00  0.00000000000E+00 -0.34010181544E+03  0.34010181548E+03  0.50400001928E-02 0. -1.
    10030    2    1    2    0    0  0.00000000000E+00  0.00000000000E+00  0.87314145971E+03  0.15533450906E+04  0.12847197990E+04 0.  0.
        1    1    3    3  502    0 -0.22276916443E+03  0.11872942905E+03 -0.27761665009E+03  0.37522497569E+03  0.50400001928E-02 0. -1.
       -1    1    3    3    0  502  0.22276916443E+03 -0.11872942905E+03  0.11507581098E+04  0.11781201150E+04  0.50400001928E-02 0.  1.
</event>
<event>
 5   0  0.1803959E-03  0.1251229E+04  0.7818609E-02  0.9069161E-01
       -1   -1    0    0    0  501  0.00000000000E+00  0.00000000000E+00  0.44763296415E+03  0.44763296418E+03  0.50400001928E-02 0.  1.
        1   -1    0    0  501    0  0.00000000000E+00  0.00000000000E+00 -0.87436228423E+03  0.87436228424E+03  0.50400001928E-02 0. -1.
    10030    2    1    2    0    0  0.00000000000E+00  0.00000000000E+00 -0.42672932008E+03  0.13219952484E+04  0.12512288057E+04 0.  0.
        4    1    3    3  502    0  0.50545142339E+03 -0.36833856056E+03 -0.19708778968E+03  0.65574358277E+03  0.12699999809E+01 0. -1.
       -4    1    3    3    0  502 -0.50545142339E+03  0.36833856056E+03 -0.22964153040E+03  0.66625166565E+03  0.12699999809E+01 0.  1.
</event>
<event>
 5   0  0.3259968E-03  0.1330843E+04  0.7818609E-02  0.9005458E-01
        2   -1    0    0  501    0  0.00000000000E+00  0.00000000000E+00  0.17170580307E+04  0.17170580307E+04  0.25500000920E-02 0. -1.
       -2   -1    0    0    0  501  0.00000000000E+00  0.00000000000E+00 -0.25787455227E+03  0.25787455229E+03  0.25500000920E-02 0.  1.
    10030    2    1    2    0    0  0.00000000000E+00  0.00000000000E+00  0.14591834784E+04  0.19749325830E+04  0.13308426968E+04 0.  0.
        4    1    3    3  502    0 -0.59988090144E+01 -0.66312120391E+03  0.81111893828E+03  0.10477028499E+04  0.12699999809E+01 0.  1.
       -4    1    3    3    0  502  0.59988090144E+01  0.66312120391E+03  0.64806454013E+03  0.92722973306E+03  0.12699999809E+01 0. -1.
</event>
<event>
 5   0  0.3262927E-03  0.1370911E+04  0.7818609E-02  0.8975148E-01
       -2   -1    0    0    0  501  0.00000000000E+00  0.00000000000E+00  0.58983085150E+03  0.58983085150E+03  0.25500000920E-02 0. -1.
        2   -1    0    0  501    0  0.00000000000E+00  0.00000000000E+00 -0.79658320253E+03  0.79658320253E+03  0.25500000920E-02 0.  1.
    10030    2    1    2    0    0  0.00000000000E+00  0.00000000000E+00 -0.20675235103E+03  0.13864140540E+04  0.13709111549E+04 0.  0.
        3    1    3    3  502    0 -0.24788604420E+03 -0.62698281767E+03 -0.22844520421E+03  0.71185824860E+03  0.10100000352E+00 0.  1.
       -3    1    3    3    0  502  0.24788604420E+03  0.62698281767E+03  0.21692853178E+02  0.67455580544E+03  0.10100000352E+00 0. -1.
</event>
<event>
 5   0  0.1803959E-03  0.1043844E+04  0.7818609E-02  0.9261723E-01
        1   -1    0    0  501    0  0.00000000000E+00  0.00000000000E+00  0.55500996121E+03  0.55500996124E+03  0.50400001928E-02 0. -1.
       -1   -1    0    0    0  501  0.00000000000E+00  0.00000000000E+00 -0.49080687842E+03  0.49080687844E+03  0.50400001928E-02 0.  1.
    10030    2    1    2    0    0  0.00000000000E+00  0.00000000000E+00  0.64203082798E+02  0.10458168397E+04  0.10438442539E+04 0.  0.
        4    1    3    3  502    0  0.17404461747E+03 -0.32702105872E+03  0.40044666850E+03  0.54552126350E+03  0.12699999809E+01 0. -1.
       -4    1    3    3    0  502 -0.17404461747E+03  0.32702105872E+03 -0.33624358570E+03  0.50029557618E+03  0.12699999809E+01 0.  1.
</event>
<event>
 5   0  0.3294720E-03  0.1306486E+04  0.7818609E-02  0.9024437E-01
        2   -1    0    0  501    0  0.00000000000E+00  0.00000000000E+00  0.85691273051E+03  0.85691273052E+03  0.25500000920E-02 0.  1.
       -2   -1    0    0    0  501  0.00000000000E+00  0.00000000000E+00 -0.49798144017E+03  0.49798144018E+03  0.25500000920E-02 0. -1.
    10030    2    1    2    0    0  0.00000000000E+00  0.00000000000E+00  0.35893129034E+03  0.13548941707E+04  0.13064863346E+04 0.  0.
        5    1    3    3  502    0  0.53563962530E+03 -0.28257209044E+03 -0.74448532322E+02  0.61018150451E+03  0.46999998093E+01 0. -1.
       -5    1    3    3    0  502 -0.53563962530E+03  0.28257209044E+03  0.43337982267E+03  0.74471266618E+03  0.46999998093E+01 0.  1.
</event>
<event>
 5   0  0.3262927E-03  0.1321164E+04  0.7818609E-02  0.9012948E-01
       -2   -1    0    0    0  501  0.00000000000E+00  0.00000000000E+00  0.37742271515E+03  0.37742271516E+03  0.25500000920E-02 0.  1.
        2   -1    0    0  501    0  0.00000000000E+00  0.00000000000E+00 -0.11561801955E+04  0.11561801955E+04  0.25500000920E-02 0. -1.
    10030    2    1    2    0    0  0.00000000000E+00  0.00000000000E+00 -0.77875748032E+03  0.15336029106E+04  0.13211641360E+04 0.  0.
        3    1    3    3  502    0 -0.27060564083E+03  0.21226625990E+03 -0.10440559935E+04  0.10992439701E+04  0.10100000352E+00 0. -1.
       -3    1    3    3    0  502  0.27060564083E+03 -0.21226625990E+03  0.26529851320E+03  0.43435894056E+03  0.10100000352E+00 0.  1.
</event>
<event>
 5   0  0.3259968E-03  0.1326809E+04  0.7818609E-02  0.9008572E-01
        2   -1    0    0  501    0  0.00000000000E+00  0.00000000000E+00  0.18019029268E+04  0.18019029268E+04  0.25500000920E-02 0.  1.
       -2   -1    0    0    0  501  0.00000000000E+00  0.00000000000E+00 -0.24424474627E+03  0.24424474628E+03  0.25500000920E-02 0. -1.
    10030    2    1    2    0    0  0.00000000000E+00  0.00000000000E+00  0.15576581805E+04  0.20461476731E+04  0.13268086873E+04 0.  0.
        4    1    3    3  502    0 -0.38585350673E+02  0.98573250926E+02 -0.23113463845E+03  0.25422499695E+03  0.12699999809E+01 0. -1.
       -4    1    3    3    0  502  0.38585350673E+02 -0.98573250926E+02  0.17887928190E+04  0.17919226761E+04  0.12699999809E+01 0.  1.
</event>
<event>
 5   0  0.3299104E-03  0.1328595E+04  0.7818609E-02  0.9007192E-01
        2   -1    0    0  501    0  0.00000000000E+00  0.00000000000E+00  0.80633679664E+03  0.80633679665E+03  0.25500000920E-02 0. -1.
       -2   -1    0    0    0  501  0.00000000000E+00  0.00000000000E+00 -0.54727885619E+03  0.54727885619E+03  0.25500000920E-02 0.  1.
    10030    2    1    2    0    0  0.00000000000E+00  0.00000000000E+00  0.25905794046E+03  0.13536156528E+04  0.13285948664E+04 0.  0.
        2    1    3    3  502    0  0.64362234848E+03 -0.38461513962E+02 -0.33363406013E+02  0.64563312523E+03  0.25500000920E-02 0. -1.
       -2    1    3    3    0  502 -0.64362234848E+03  0.38461513962E+02  0.29242134647E+03  0.70798252761E+03  0.25500000920E-02 0.  1.
</event>
<event>
 5   0  0.3299104E-03  0.1319098E+04  0.7818609E-02  0.9014556E-01
       -2   -1    0    0    0  501  0.00000000000E+00  0.00000000000E+00  0.21343688522E+03  0.21343688523E+03  0.25500000920E-02 0.  1.
        2   -1    0    0  501    0  0.00000000000E+00  0.00000000000E+00 -0.20380960809E+04  0.20380960809E+04  0.25500000920E-02 0. -1.
    10030    2    1    2    0    0  0.00000000000E+00  0.00000000000E+00 -0.18246591957E+04  0.22515329661E+04  0.13190979938E+04 0.  0.
        2    1    3    3  502    0 -0.43762049425E+03  0.26750854930E+03 -0.20457930051E+03  0.55220033605E+03  0.25500000920E-02 0.  1.
       -2    1    3    3    0  502  0.43762049425E+03 -0.26750854930E+03 -0.16200798952E+04  0.16993326301E+04  0.25500000920E-02 0. -1.
</event>
<event>
 5   0  0.3299104E-03  0.1286979E+04  0.7818609E-02  0.9039955E-01
       -2   -1    0    0    0  501  0.00000000000E+00  0.00000000000E+00  0.44495334243E+03  0.44495334244E+03  0.25500000920E-02 0.  1.
        2   -1    0    0  501    0  0.00000000000E+00  0.00000000000E+00 -0.93061165893E+03  0.93061165893E+03  0.25500000920E-02 0. -1.
    10030    2    1    2    0    0  0.00000000000E+00  0.00000000000E+00 -0.48565831650E+03  0.13755650014E+04  0.12869790490E+04 0.  0.
        2    1    3    3  502    0 -0.13971441747E+01  0.24155182024E+03  0.39465530172E+03  0.46271161759E+03  0.25500000920E-02 0.  1.
       -2    1    3    3    0  502  0.13971441747E+01 -0.24155182024E+03 -0.88031361821E+03  0.91285338379E+03  0.25500000920E-02 0. -1.
</event>
<event>
 5   0  0.3262927E-03  0.1287350E+04  0.7818609E-02  0.9039657E-01
       -2   -1    0    0    0  501  0.00000000000E+00  0.00000000000E+00  0.15421109558E+03  0.15421109560E+03  0.25500000920E-02 0.  1.
        2   -1    0    0  501    0  0.00000000000E+00  0.00000000000E+00 -0.26866912783E+04  0.26866912783E+04  0.25500000920E-02 0. -1.
    10030    2    1    2    0    0  0.00000000000E+00  0.00000000000E+00 -0.25324801827E+04  0.28409023739E+04  0.12873501552E+04 0.  0.
        3    1    3    3  502    0 -0.13759001918E+03 -0.62128708135E+03 -0.14800697811E+04  0.16110664847E+04  0.10100000352E+00 0.  1.
       -3    1    3    3    0  502  0.13759001918E+03  0.62128708135E+03 -0.10524104015E+04  0.12298358892E+04  0.10100000352E+00 0. -1.
</event>
<event>
 5   0  0.3259968E-03  0.1298869E+04  0.7818609E-02  0.9030463E-01
        2   -1    0    0  501    0  0.00000000000E+00  0.00000000000E+00  0.17274712160E+04  0.17274712160E+04  0.25500000920E-02 0.  1.
       -2   -1    0    0    0  501  0.00000000000E+00  0.00000000000E+00 -0.24415163991E+03  0.24415163993E+03  0.25500000920E-02 0. -1.
    10030    2    1    2    0    0  0.00000000000E+00  0.00000000000E+00  0.14833195761E+04  0.19716228560E+04  0.12988686312E+04 0.  0.
        4    1    3    3  502    0 -0.25115884828E+03 -0.48786525934E+03  0.12689604814E+04  0.13825178460E+04  0.12699999809E+01 0.  1.
       -4    1    3    3    0  502  0.25115884828E+03  0.48786525934E+03  0.21435909474E+03  0.58910500995E+03  0.12699999809E+01 0. -1.
</event>
<event>
 5   0  0.3336609E-03  0.1259655E+04  0.7818609E-02  0.9062186E-01
        2   -1    0    0  501    0  0.00000000000E+00  0.00000000000E+00  0.16014662566E+04  0.16014662566E+04  0.25500000920E-02 0. -1.
       -2   -1    0    0    0  501  0.00000000000E+00  0.00000000000E+00 -0.24769956384E+03  0.24769956386E+03  0.25500000920E-02 0.  1.
    10030    2    1    2    0    0  0.00000000000E+00  0.00000000000E+00  0.13537666927E+04  0.18491658204E+04  0.12596547039E+04 0.  0.
        1    1    3    3  502    0 -0.17017257777E+03  0.59982966766E+03  0.80759384181E+03  0.10202755264E+04  0.50400001928E-02 0.  1.
       -1    1    3    3    0  502  0.17017257777E+03 -0.59982966766E+03  0.54617285092E+03  0.82889029403E+03  0.50400001928E-02 0. -1.
</event>
<event>
 5   0  0.1857986E-03  0.1289356E+04  0.7818609E-02  0.9038049E-01
       -1   -1    0    0    0  501  0.00000000000E+00  0.00000000000E+00  0.60246475104E+03  0.60246475106E+03  0.50400001928E-02 0.  1.
        1   -1    0    0  501    0  0.00000000000E+00  0.00000000000E+00 -0.68984927859E+03  0.68984927861E+03  0.50400001928E-02 0. -1.
    10030    2    1    2    0    0  0.00000000000E+00  0.00000000000E+00 -0.87384527546E+02  0.12923140297E+04  0.12893562330E+04 0.  0.
        1    1    3    3  502    0  0.44216713197E+03  0.56544912153E+02 -0.51048671630E+03  0.67772102463E+03  0.50400001928E-02 0. -1.
       -1    1    3    3    0  502 -0.44216713197E+03 -0.56544912153E+02  0.42310218875E+03  0.61459300504E+03  0.50400001928E-02 0.  1.
</event>
<event>
 5   0  0.1873488E-03  0.1337611E+04  0.7818609E-02  0.9000260E-01
        1   -1    0    0  501    0  0.00000000000E+00  0.00000000000E+00  0.39573131573E+03  0.39573131576E+03  0.50400001928E-02 0.  1.
       -1   -1    0    0    0  501  0.00000000000E+00  0.00000000000E+00 -0.11303141394E+04  0.11303141394E+04  0.50400001928E-02 0. -1.
    10030    2    1    2    0    0  0.00000000000E+00  0.00000000000E+00 -0.73458282363E+03  0.15260454551E+04  0.13376108576E+04 0.  0.
        3    1    3    3  502    0 -0.36096090912E+03  0.39947911763E+03  0.85370169422E+02  0.54512789267E+03  0.10100000352E+00 0.  1.
       -3    1    3    3    0  502  0.36096090912E+03 -0.39947911763E+03 -0.81995299305E+03  0.98091756246E+03  0.10100000352E+00 0. -1.
</event>
<event>
 5   0  0.1857986E-03  0.1264861E+04  0.7818609E-02  0.9057904E-01
       -1   -1    0    0    0  501  0.00000000000E+00  0.00000000000E+00  0.19102940290E+03  0.19102940297E+03  0.50400001928E-02 0.  1.
        1   -1    0    0  501    0  0.00000000000E+00  0.00000000000E+00 -0.20937534318E+04  0.20937534318E+04  0.50400001928E-02 0. -1.
    10030    2    1    2    0    0  0.00000000000E+00  0.00000000000E+00 -0.19027240289E+04  0.22847828347E+04  0.12648612066E+04 0.  0.
        1    1    3    3  502    0 -0.30293081086E+03 -0.44032756412E+03 -0.15620929498E+04  0.16509966153E+04  0.50400001928E-02 0. -1.
       -1    1    3    3    0  502  0.30293081086E+03  0.44032756412E+03 -0.34063107905E+03  0.63378621943E+03  0.50400001928E-02 0.  1.
</event>
<event>
 5   0  0.3259968E-03  0.1310843E+04  0.7818609E-02  0.9021011E-01
        2   -1    0    0  501    0  0.00000000000E+00  0.00000000000E+00  0.59115139890E+03  0.59115139890E+03  0.25500000920E-02 0. -1.
       -2   -1    0    0    0  501  0.00000000000E+00  0.00000000000E+00 -0.72667873723E+03  0.72667873724E+03  0.25500000920E-02 0.  1.
    10030    2    1    2    0    0  0.00000000000E+00  0.00000000000E+00 -0.13552733834E+03  0.13178301361E+04  0.13108427092E+04 0.  0.
        4    1    3    3  502    0 -0.52894116109E+03 -0.38508181778E+03 -0.10681375029E+03  0.66293102841E+03  0.12699999809E+01 0.  1.
       -4    1    3    3    0  502  0.52894116109E+03  0.38508181778E+03 -0.28713588048E+02  0.65489910773E+03  0.12699999809E+01 0. -1.
</event>
<event>
 5   0  0.3299104E-03  0.1300609E+04  0.7818609E-02  0.9029082E-01
       -2   -1    0    0    0  501  0.00000000000E+00  0.00000000000E+00  0.10691213508E+04  0.10691213508E+04  0.25500000920E-02 0. -1.
        2   -1    0    0  501    0  0.00000000000E+00  0.00000000000E+00 -0.39555490453E+03  0.39555490453E+03  0.25500000920E-02 0.  1.
    10030    2    1    2    0    0  0.00000000000E+00  0.00000000000E+00  0.67356644628E+03  0.14646762553E+04  0.13006093862E+04 0.  0.
        2    1    3    3  502    0 -0.17942980990E+03 -0.34035776363E+03 -0.25362002047E+03  0.46082705946E+03  0.25500000920E-02 0.  1.
       -2    1    3    3    0  502  0.17942980990E+03  0.34035776363E+03  0.92718646675E+03  0.10038491959E+04  0.25500000920E-02 0. -1.
</event>
<event>
 5   0  0.3299104E-03  0.1312086E+04  0.7818609E-02  0.9020035E-01
       -2   -1    0    0    0  501  0.00000000000E+00  0.00000000000E+00  0.68427858119E+03  0.68427858120E+03  0.25500000920E-02 0. -1.
        2   -1    0    0  501    0  0.00000000000E+00  0.00000000000E+00 -0.62897292771E+03  0.62897292771E+03  0.25500000920E-02 0.  1.
    10030    2    1    2    0    0  0.00000000000E+00  0.00000000000E+00  0.55305653484E+02  0.13132515089E+04  0.13120864340E+04 0.  0.
        2    1    3    3  502    0  0.39636360544E+03 -0.13914494491E+03 -0.47670660048E+03  0.63538539986E+03  0.25500000920E-02 0.  1.
       -2    1    3    3    0  502 -0.39636360544E+03  0.13914494491E+03  0.53201225397E+03  0.67786610904E+03  0.25500000920E-02 0. -1.
</event>
<event>
 5   0  0.3336609E-03  0.1298550E+04  0.7818609E-02  0.9030716E-01
       -2   -1    0    0    0  501  0.00000000000E+00  0.00000000000E+00  0.54243908796E+03  0.54243908797E+03  0.25500000920E-02 0.  1.
        2   -1    0    0  501    0  0.00000000000E+00  0.00000000000E+00 -0.77715249139E+03  0.77715249139E+03  0.25500000920E-02 0. -1.
    10030    2    1    2    0    0  0.00000000000E+00  0.00000000000E+00 -0.23471340343E+03  0.13195915794E+04  0.12985497890E+04 0.  0.
        1    1    3    3  502    0  0.49830432849E+02  0.19908721129E+03  0.50861106388E+03  0.54845601835E+03  0.50400001928E-02 0.  1.
       -1    1    3    3    0  502 -0.49830432849E+02 -0.19908721129E+03 -0.74332446731E+03  0.77113556101E+03  0.50400001928E-02 0. -1.
</event>
<event>
 5   0  0.3294720E-03  0.1346578E+04  0.7818609E-02  0.8993422E-01
       -2   -1    0    0    0  501  0.00000000000E+00  0.00000000000E+00  0.20198684505E+03  0.20198684507E+03  0.25500000920E-02 0. -1.
        2   -1    0    0  501    0  0.00000000000E+00  0.00000000000E+00 -0.22442965921E+04  0.22442965921E+04  0.25500000920E-02 0.  1.
    10030    2    1    2    0    0  0.00000000000E+00  0.00000000000E+00 -0.20423097470E+04  0.24462834372E+04  0.13465784612E+04 0.  0.
        5    1    3    3  502    0 -0.19107199590E+03  0.61487038937E+03 -0.13786376262E+04  0.15215905815E+04  0.46999998093E+01 0. -1.
       -5    1    3    3    0  502  0.19107199590E+03 -0.61487038937E+03 -0.66367212087E+03  0.92469285569E+03  0.46999998093E+01 0.  1.
</event>
<event>
 5   0  0.1823154E-03  0.1285064E+04  0.7818609E-02  0.9041494E-01
       -1   -1    0    0    0  501  0.00000000000E+00  0.00000000000E+00  0.72801376489E+03  0.72801376490E+03  0.50400001928E-02 0. -1.
        1   -1    0    0  501    0  0.00000000000E+00  0.00000000000E+00 -0.56708727608E+03  0.56708727610E+03  0.50400001928E-02 0.  1.
    10030    2    1    2    0    0  0.00000000000E+00  0.00000000000E+00  0.16092648880E+03  0.12951010410E+04  0.12850639562E+04 0.  0.
        2    1    3    3  502    0  0.24179810280E+03 -0.47435683945E+03 -0.28202172871E+03  0.60250891207E+03  0.25500000920E-02 0.  1.
       -2    1    3    3    0  502 -0.24179810280E+03  0.47435683945E+03  0.44294821751E+03  0.69259212893E+03  0.25500000920E-02 0. -1.
</event>
<event>
 5   0  0.1873488E-03  0.1316523E+04  0.7818609E-02  0.9016564E-01
       -1   -1    0    0    0  501  0.00000000000E+00  0.00000000000E+00  0.27640882798E+03  0.27640882803E+03  0.50400001928E-02 0.  1.
        1   -1    0    0  501    0  0.00000000000E+00  0.00000000000E+00 -0.15676340932E+04  0.15676340932E+04  0.50400001928E-02 0. -1.
    10030    2    1    2    0    0  0.00000000000E+00  0.00000000000E+00 -0.12912252652E+04  0.18440429212E+04  0.13165225444E+04 0.  0.
        3    1    3    3  502    0  0.14615258105E+03 -0.72812322859E+02 -0.15388169361E+04  0.15474559070E+04  0.10100000352E+00 0. -1.
       -3    1    3    3    0  502 -0.14615258105E+03  0.72812322859E+02  0.24759167086E+03  0.29658701419E+03  0.10100000352E+00 0.  1.
</event>
<event>
 5   0  0.1857986E-03  0.1337103E+04  0.7818609E-02  0.9000648E-01
       -1   -1    0    0    0  501  0.00000000000E+00  0.00000000000E+00  0.50568002358E+03  0.50568002360E+03  0.50400001928E-02 0.  1.
        1   -1    0    0  501    0  0.00000000000E+00  0.00000000000E+00 -0.88388188874E+03  0.88388188875E+03  0.50400001928E-02 0. -1.
    10030    2    1    2    0    0  0.00000000000E+00  0.00000000000E+00 -0.37820186516E+03  0.13895619124E+04  0.13371034580E+04 0.  0.
        1    1    3    3  502    0 -0.41818818335E+03 -0.28980096616E+03  0.26161410041E+03  0.57210828890E+03  0.50400001928E-02 0.  1.
       -1    1    3    3    0  502  0.41818818335E+03  0.28980096616E+03 -0.63981596556E+03  0.81745362345E+03  0.50400001928E-02 0. -1.
</event>
<event>
 5   0  0.1823154E-03  0.1304535E+04  0.7818609E-02  0.9025976E-01
       -1   -1    0    0    0  501  0.00000000000E+00  0.00000000000E+00  0.88922775347E+03  0.88922775348E+03  0.50400001928E-02 0.  1.
        1   -1    0    0  501    0  0.00000000000E+00  0.00000000000E+00 -0.47845230109E+03  0.47845230112E+03  0.50400001928E-02 0. -1.
    10030    2    1    2    0    0  0.00000000000E+00  0.00000000000E+00  0.41077545238E+03  0.13676800546E+04  0.13045352657E+04 0.  0.
        2    1    3    3  502    0 -0.11731990715E+02  0.43204740685E+03  0.71755264836E+03  0.83766604596E+03  0.25500000920E-02 0.  1.
       -2    1    3    3    0  502  0.11731990715E+02 -0.43204740685E+03 -0.30677719598E+03  0.53001400864E+03  0.25500000920E-02 0. -1.
</event>
<event>
 5   0  0.3262927E-03  0.1170520E+04  0.7818609E-02  0.9139059E-01
        2   -1    0    0  501    0  0.00000000000E+00  0.00000000000E+00  0.34487473679E+03  0.34487473680E+03  0.25500000920E-02 0.  1.
       -2   -1    0    0    0  501  0.00000000000E+00  0.00000000000E+00 -0.99319989120E+03  0.99319989120E+03  0.25500000920E-02 0. -1.
    10030    2    1    2    0    0  0.00000000000E+00  0.00000000000E+00 -0.64832515440E+03  0.13380746280E+04  0.11705204843E+04 0.  0.
        3    1    3    3  502    0 -0.25293323726E+03  0.22432603919E+02 -0.92694922484E+03  0.96110005716E+03  0.10100000352E+00 0. -1.
       -3    1    3    3    0  502  0.25293323726E+03 -0.22432603919E+02  0.27862407044E+03  0.37697457084E+03  0.10100000352E+00 0.  1.
</event>
<event>
 5   0  0.1823154E-03  0.1337473E+04  0.7818609E-02  0.9000365E-01
       -1   -1    0    0    0  501  0.00000000000E+00  0.00000000000E+00  0.37178506877E+03  0.37178506881E+03  0.50400001928E-02 0. -1.
        1   -1    0    0  501    0  0.00000000000E+00  0.00000000000E+00 -0.12028684821E+04  0.12028684821E+04  0.50400001928E-02 0.  1.
    10030    2    1    2    0    0  0.00000000000E+00  0.00000000000E+00 -0.83108341335E+03  0.15746535509E+04  0.13374730523E+04 0.  0.
        2    1    3    3  502    0  0.33751501641E+03  0.29390755379E+03  0.16947700910E+03  0.47856085621E+03  0.25500000920E-02 0. -1.
       -2    1    3    3    0  502 -0.33751501641E+03 -0.29390755379E+03 -0.10005604224E+04  0.10960926947E+04  0.25500000920E-02 0.  1.
</event>
<event>
 5   0  0.3294720E-03  0.1287747E+04  0.7818609E-02  0.9039339E-01
        2   -1    0    0  501    0  0.00000000000E+00  0.00000000000E+00  0.10597907740E+04  0.10597907740E+04  0.25500000920E-02 0.  1.
       -2   -1    0    0    0  501  0.00000000000E+00  0.00000000000E+00 -0.39118401610E+03  0.39118401610E+03  0.25500000920E-02 0. -1.
    10030    2    1    2    0    0  0.00000000000E+00  0.00000000000E+00  0.66860675795E+03  0.14509747902E+04  0.12877471976E+04 0.  0.
        5    1    3    3  502    0  0.37711234343E+03 -0.26190812425E+03 -0.17428805537E+03  0.49112931226E+03  0.46999998093E+01 0. -1.
       -5    1    3    3    0  502 -0.37711234343E+03  0.26190812425E+03  0.84289481332E+03  0.95984547789E+03  0.46999998093E+01 0.  1.
</event>
<event>
 5   0  0.3336609E-03  0.1275353E+04  0.7818609E-02  0.9049342E-01
        2   -1    0    0  501    0  0.00000000000E+00  0.00000000000E+00  0.79515091687E+03  0.79515091688E+03  0.25500000920E-02 0. -1.
       -2   -1    0    0    0  501  0.00000000000E+00  0.00000000000E+00 -0.51138893241E+03  0.51138893241E+03  0.25500000920E-02 0.  1.
    10030    2    1    2    0    0  0.00000000000E+00  0.00000000000E+00  0.28376198447E+03  0.13065398493E+04  0.12753530938E+04 0.  0.
        1    1    3    3  502    0  0.53064684517E+03 -0.30198914778E+03  0.33035775785E+03  0.69420441361E+03  0.50400001928E-02 0.  1.
       -1    1    3    3    0  502 -0.53064684517E+03  0.30198914778E+03 -0.46595773387E+02  0.61233543568E+03  0.50400001928E-02 0. -1.
</event>
<event>
 5   0  0.1814770E-03  0.1278782E+04  0.7818609E-02  0.9046562E-01
        1   -1    0    0  501    0  0.00000000000E+00  0.00000000000E+00  0.10323289246E+04  0.10323289246E+04  0.50400001928E-02 0. -1.
       -1   -1    0    0    0  501  0.00000000000E+00  0.00000000000E+00 -0.39601828426E+03  0.39601828429E+03  0.50400001928E-02 0.  1.
    10030    2    1    2    0    0  0.00000000000E+00  0.00000000000E+00  0.63631064032E+03  0.14283472089E+04  0.12787824358E+04 0.  0.
        5    1    3    3  502    0 -0.35277087195E+03  0.52783278303E+03  0.40281095261E+03  0.75188661943E+03  0.46999998093E+01 0.  1.
       -5    1    3    3    0  502  0.35277087195E+03 -0.52783278303E+03  0.23349968771E+03  0.67646058946E+03  0.46999998093E+01 0. -1.
</event>
<event>
 5   0  0.1873488E-03  0.1300762E+04  0.7818609E-02  0.9028961E-01
       -1   -1    0    0    0  501  0.00000000000E+00  0.00000000000E+00  0.30648427927E+03  0.30648427931E+03  0.50400001928E-02 0.  1.
        1   -1    0    0  501    0  0.00000000000E+00  0.00000000000E+00 -0.13801531163E+04  0.13801531163E+04  0.50400001928E-02 0. -1.
    10030    2    1    2    0    0  0.00000000000E+00  0.00000000000E+00 -0.10736688370E+04  0.16866373956E+04  0.13007616741E+04 0.  0.
        3    1    3    3  502    0 -0.49919720705E+03  0.21362262552E+03 -0.10010341594E+04  0.11388159975E+04  0.10100000352E+00 0.  1.
       -3    1    3    3    0  502  0.49919720705E+03 -0.21362262552E+03 -0.72634677639E+02  0.54782139814E+03  0.10100000352E+00 0. -1.
</event>
<event>
 5   0  0.1803959E-03  0.1300108E+04  0.7818609E-02  0.9029479E-01
       -1   -1    0    0    0  501  0.00000000000E+00  0.00000000000E+00  0.19020742844E+03  0.19020742851E+03  0.50400001928E-02 0. -1.
        1   -1    0    0  501    0  0.00000000000E+00  0.00000000000E+00 -0.22216290968E+04  0.22216290968E+04  0.50400001928E-02 0.  1.
    10030    2    1    2    0    0  0.00000000000E+00  0.00000000000E+00 -0.20314216684E+04  0.24118365253E+04  0.13001082379E+04 0.  0.
        4    1    3    3  502    0 -0.42036693070E+03  0.48933480710E+03 -0.11642563409E+04  0.13310339403E+04  0.12699999809E+01 0.  1.
       -4    1    3    3    0  502  0.42036693070E+03 -0.48933480710E+03 -0.86716532745E+03  0.10808025851E+04  0.12699999809E+01 0. -1.
</event>
<event>
 5   0  0.1814770E-03  0.1315076E+04  0.7818609E-02  0.9017695E-01
       -1   -1    0    0    0  501  0.00000000000E+00  0.00000000000E+00  0.66877031357E+03  0.66877031359E+03  0.50400001928E-02 0.  1.
        1   -1    0    0  501    0  0.00000000000E+00  0.00000000000E+00 -0.64649424596E+03  0.64649424598E+03  0.50400001928E-02 0. -1.
    10030    2    1    2    0    0  0.00000000000E+00  0.00000000000E+00  0.22276067607E+02  0.13152645596E+04  0.13150759060E+04 0.  0.
        5    1    3    3  502    0 -0.28299960594E+03 -0.59079349405E+03  0.67788370149E+02  0.65859174206E+03  0.46999998093E+01 0. -1.
       -5    1    3    3    0  502  0.28299960594E+03  0.59079349405E+03 -0.45512302541E+02  0.65667281751E+03  0.46999998093E+01 0.  1.
</event>
<event>
 5   0  0.3299104E-03  0.1353160E+04  0.7818609E-02  0.8988440E-01
       -2   -1    0    0    0  501  0.00000000000E+00  0.00000000000E+00  0.57208366912E+03  0.57208366913E+03  0.25500000920E-02 0.  1.
        2   -1    0    0  501    0  0.00000000000E+00  0.00000000000E+00 -0.80016299204E+03  0.80016299204E+03  0.25500000920E-02 0. -1.
    10030    2    1    2    0    0  0.00000000000E+00  0.00000000000E+00 -0.22807932291E+03  0.13722466612E+04  0.13531595329E+04 0.  0.
        2    1    3    3  502    0  0.38890277498E+03  0.47660707954E+03  0.17164399068E+03  0.63864022438E+03  0.25500000920E-02 0. -1.
       -2    1    3    3    0  502 -0.38890277498E+03 -0.47660707954E+03 -0.39972331359E+03  0.73360643679E+03  0.25500000920E-02 0.  1.
</event>
<event>
 5   0  0.1823154E-03  0.1301763E+04  0.7818609E-02  0.9028168E-01
       -1   -1    0    0    0  501  0.00000000000E+00  0.00000000000E+00  0.42109109340E+03  0.42109109344E+03  0.50400001928E-02 0. -1.
        1   -1    0    0  501    0  0.00000000000E+00  0.00000000000E+00 -0.10060694892E+04  0.10060694893E+04  0.50400001928E-02 0.  1.
    10030    2    1    2    0    0  0.00000000000E+00  0.00000000000E+00 -0.58497839584E+03  0.14271605827E+04  0.13017632677E+04 0.  0.
        2    1    3    3  502    0 -0.28626402888E+03 -0.34428249840E+03  0.22542536353E+03  0.50129245702E+03  0.25500000920E-02 0. -1.
       -2    1    3    3    0  502  0.28626402888E+03  0.34428249840E+03 -0.81040375937E+03  0.92586812567E+03  0.25500000920E-02 0.  1.
</event>
<event>
 5   0  0.3294720E-03  0.1039139E+04  0.7818609E-02  0.9266630E-01
       -2   -1    0    0    0  501  0.00000000000E+00  0.00000000000E+00  0.18611923690E+03  0.18611923691E+03  0.25500000920E-02 0.  1.
        2   -1    0    0  501    0  0.00000000000E+00  0.00000000000E+00 -0.14504273043E+04  0.14504273043E+04  0.25500000920E-02 0. -1.
    10030    2    1    2    0    0  0.00000000000E+00  0.00000000000E+00 -0.12643080674E+04  0.16365465413E+04  0.10391389187E+04 0.  0.
        5    1    3    3  502    0  0.26011424973E+03  0.29012269369E+03 -0.11733807264E+04  0.12363959800E+04  0.46999998093E+01 0. -1.
       -5    1    3    3    0  502 -0.26011424973E+03 -0.29012269369E+03 -0.90927341028E+02  0.40015056123E+03  0.46999998093E+01 0.  1.
</event>
<event>
 5   0  0.1857986E-03  0.1062003E+04  0.7818609E-02  0.9243038E-01
        1   -1    0    0  501    0  0.00000000000E+00  0.00000000000E+00  0.93208525199E+03  0.93208525200E+03  0.50400001928E-02 0. -1.
       -1   -1    0    0    0  501  0.00000000000E+00  0.00000000000E+00 -0.30250757065E+03  0.30250757069E+03  0.50400001928E-02 0.  1.
    10030    2    1    2    0    0  0.00000000000E+00  0.00000000000E+00  0.62957768134E+03  0.12345928227E+04  0.10620034750E+04 0.  0.
        1    1    3    3  502    0  0.15814377731E+03  0.40482420366E+03  0.66944248642E+03  0.79815119672E+03  0.50400001928E-02 0. -1.
       -1    1    3    3    0  502 -0.15814377731E+03 -0.40482420366E+03 -0.39864805084E+02  0.43644162597E+03  0.50400001928E-02 0.  1.
</event>
<event>
 5   0  0.3262927E-03  0.1289438E+04  0.7818609E-02  0.9037983E-01
        2   -1    0    0  501    0  0.00000000000E+00  0.00000000000E+00  0.57583216051E+03  0.57583216052E+03  0.25500000920E-02 0.  1.
       -2   -1    0    0    0  501  0.00000000000E+00  0.00000000000E+00 -0.72184695477E+03  0.72184695477E+03  0.25500000920E-02 0. -1.
    10030    2    1    2    0    0  0.00000000000E+00  0.00000000000E+00 -0.14601479426E+03  0.12976791153E+04  0.12894381591E+04 0.  0.
        3    1    3    3  502    0  0.14205798894E+03  0.53887822343E+03  0.25324416164E+03  0.61212974729E+03  0.10100000352E+00 0.  1.
       -3    1    3    3    0  502 -0.14205798894E+03 -0.53887822343E+03 -0.39925895589E+03  0.68554936800E+03  0.10100000352E+00 0. -1.
</event>
<event>
 5   0  0.3294720E-03  0.1292442E+04  0.7818609E-02  0.9035580E-01
       -2   -1    0    0    0  501  0.00000000000E+00  0.00000000000E+00  0.76929173712E+03  0.76929173712E+03  0.25500000920E-02 0. -1.
        2   -1    0    0  501    0  0.00000000000E+00  0.00000000000E+00 -0.54283943760E+03  0.54283943761E+03  0.25500000920E-02 0.  1.
    10030    2    1    2    0    0  0.00000000000E+00  0.00000000000E+00  0.22645229952E+03  0.13121311747E+04  0.12924424845E+04 0.  0.
        5    1    3    3  502    0 -0.49301583460E+03 -0.25006708776E+03 -0.22650818849E+03  0.59743301800E+03  0.46999998093E+01 0.  1.
       -5    1    3    3    0  502  0.49301583460E+03  0.25006708776E+03  0.45296048800E+03  0.71469815673E+03  0.46999998093E+01 0. -1.
</event>
<event>
 5   0  0.3294720E-03  0.1304923E+04  0.7818609E-02  0.9025670E-01
       -2   -1    0    0    0  501  0.00000000000E+00  0.00000000000E+00  0.42946338085E+03  0.42946338086E+03  0.25500000920E-02 0. -1.
        2   -1    0    0  501    0  0.00000000000E+00  0.00000000000E+00 -0.99125124315E+03  0.99125124315E+03  0.25500000920E-02 0.  1.
    10030    2    1    2    0    0  0.00000000000E+00  0.00000000000E+00 -0.56178786229E+03  0.14207146240E+04  0.13049231551E+04 0.  0.
        5    1    3    3  502    0  0.36487546759E+03 -0.38025094116E+03  0.13789269613E+03  0.54475808461E+03  0.46999998093E+01 0. -1.
       -5    1    3    3    0  502 -0.36487546759E+03  0.38025094116E+03 -0.69968055842E+03  0.87595653941E+03  0.46999998093E+01 0.  1.
</event>
<event>
 5   0  0.3262927E-03  0.1288268E+04  0.7818609E-02  0.9038921E-01
        2   -1    0    0  501    0  0.00000000000E+00  0.00000000000E+00  0.10374741376E+04  0.10374741376E+04  0.25500000920E-02 0. -1.
       -2   -1    0    0    0  501  0.00000000000E+00  0.00000000000E+00 -0.39992191306E+03  0.39992191307E+03  0.25500000920E-02 0.  1.
    10030    2    1    2    0    0  0.00000000000E+00  0.00000000000E+00  0.63755222457E+03  0.14373960507E+04  0.12882680496E+04 0.  0.
        3    1    3    3  502    0  0.32141294110E+03 -0.50516097009E+03  0.58378871953E+03  0.83624348347E+03  0.10100000352E+00 0. -1.
       -3    1    3    3    0  502 -0.32141294110E+03  0.50516097009E+03  0.53763505047E+02  0.60115256723E+03  0.10100000352E+00 0.  1.
</event>
<event>
 5   0  0.1857986E-03  0.1301677E+04  0.7818609E-02  0.9028236E-01
        1   -1    0    0  501    0  0.00000000000E+00  0.00000000000E+00  0.71873461494E+03  0.71873461496E+03  0.50400001928E-02 0.  1.
       -1   -1    0    0    0  501  0.00000000000E+00  0.00000000000E+00 -0.58935638548E+03  0.58935638551E+03  0.50400001928E-02 0. -1.
    10030    2    1    2    0    0  0.00000000000E+00  0.00000000000E+00  0.12937822945E+03  0.13080910005E+04  0.13016771256E+04 0.  0.
        1    1    3    3  502    0  0.10091168088E+03 -0.15865982771E+03  0.69084414567E+03  0.71597607634E+03  0.50400001928E-02 0.  1.
       -1    1    3    3    0  502 -0.10091168088E+03  0.15865982771E+03 -0.56146591622E+03  0.59211492412E+03  0.50400001928E-02 0. -1.
</event>
<event>
 5   0  0.1823154E-03  0.1276515E+04  0.7818609E-02  0.9048399E-01
       -1   -1    0    0    0  501  0.00000000000E+00  0.00000000000E+00  0.33513071821E+03  0.33513071824E+03  0.50400001928E-02 0.  1.
        1   -1    0    0  501    0  0.00000000000E+00  0.00000000000E+00 -0.12155641211E+04  0.12155641211E+04  0.50400001928E-02 0. -1.
    10030    2    1    2    0    0  0.00000000000E+00  0.00000000000E+00 -0.88043340289E+03  0.15506948394E+04  0.12765153771E+04 0.  0.
        2    1    3    3  502    0 -0.55162622694E+03 -0.72996285397E+02 -0.60407771434E+02  0.55970443163E+03  0.25500000920E-02 0.  1.
       -2    1    3    3    0  502  0.55162622694E+03  0.72996285397E+02 -0.82002563146E+03  0.99099040772E+03  0.25500000920E-02 0. -1.
</event>
<event>
 5   0  0.1814770E-03  0.1297636E+04  0.7818609E-02  0.9031442E-01
       -1   -1    0    0    0  501  0.00000000000E+00  0.00000000000E+00  0.14623403089E+03  0.14623403097E+03  0.50400001928E-02 0.  1.
        1   -1    0    0  501    0  0.00000000000E+00  0.00000000000E+00 -0.28787062197E+04  0.28787062198E+04  0.50400001928E-02 0. -1.
    10030    2    1    2    0    0  0.00000000000E+00  0.00000000000E+00 -0.27324721889E+04  0.30249402507E+04  0.12976360266E+04 0.  0.
        5    1    3    3  502    0 -0.55102985536E+02  0.20128999618E+03 -0.27982867008E+04  0.28060621076E+04  0.46999998093E+01 0. -1.
       -5    1    3    3    0  502  0.55102985536E+02 -0.20128999618E+03  0.65814511945E+02  0.21887814317E+03  0.46999998093E+01 0.  1.
</event>
<event>
 5   0  0.3299104E-03  0.1302768E+04  0.7818609E-02  0.9027373E-01
       -2   -1    0    0    0  501  0.00000000000E+00  0.00000000000E+00  0.80646590908E+03  0.80646590908E+03  0.25500000920E-02 0.  1.
        2   -1    0    0  501    0  0.00000000000E+00  0.00000000000E+00 -0.52612381440E+03  0.52612381440E+03  0.25500000920E-02 0. -1.
    10030    2    1    2    0    0  0.00000000000E+00  0.00000000000E+00  0.28034209468E+03  0.13325897235E+04  0.13027677004E+04 0.  0.
        2    1    3    3  502    0 -0.11102106155E+03 -0.35719563664E+03 -0.40531542104E+03  0.55153874703E+03  0.25500000920E-02 0. -1.
       -2    1    3    3    0  502  0.11102106155E+03  0.35719563664E+03  0.68565751572E+03  0.78105097645E+03  0.25500000920E-02 0.  1.
</event>
<event>
 5   0  0.1873488E-03  0.1296889E+04  0.7818609E-02  0.9032035E-01
       -1   -1    0    0    0  501  0.00000000000E+00  0.00000000000E+00  0.45327501030E+03  0.45327501033E+03  0.50400001928E-02 0.  1.
        1   -1    0    0  501    0  0.00000000000E+00  0.00000000000E+00 -0.92765001636E+03  0.92765001638E+03  0.50400001928E-02 0. -1.
    10030    2    1    2    0    0  0.00000000000E+00  0.00000000000E+00 -0.47437500606E+03  0.13809250267E+04  0.12968894645E+04 0.  0.
        3    1    3    3  502    0 -0.40251465877E+03 -0.50434370689E+03 -0.30536729043E+03  0.71388361619E+03  0.10100000352E+00 0.  1.
       -3    1    3    3    0  502  0.40251465877E+03  0.50434370689E+03 -0.16900771562E+03  0.66704141052E+03  0.10100000352E+00 0. -1.
</event>
<event>
 5   0  0.1803959E-03  0.1296656E+04  0.7818609E-02  0.9032222E-01
        1   -1    0    0  501    0  0.00000000000E+00  0.00000000000E+00  0.21638523195E+03  0.21638523201E+03  0.50400001928E-02 0. -1.
       -1   -1    0    0    0  501  0.00000000000E+00  0.00000000000E+00 -0.19425028911E+04  0.19425028911E+04  0.50400001928E-02 0.  1.
    10030    2    1    2    0    0  0.00000000000E+00  0.00000000000E+00 -0.17261176592E+04  0.21588881231E+04  0.12966556038E+04 0.  0.
        4    1    3    3  502    0  0.51583095101E+03  0.36495121400E+03 -0.11046589903E+04  0.12726130819E+04  0.12699999809E+01 0.  1.
       -4    1    3    3    0  502 -0.51583095101E+03 -0.36495121400E+03 -0.62145866891E+03  0.88627504122E+03  0.12699999809E+01 0. -1.
</event>
<event>
 5   0  0.3259968E-03  0.1295596E+04  0.7818609E-02  0.9033065E-01
       -2   -1    0    0    0  501  0.00000000000E+00  0.00000000000E+00  0.29859831500E+03  0.29859831501E+03  0.25500000920E-02 0.  1.
        2   -1    0    0  501    0  0.00000000000E+00  0.00000000000E+00 -0.14053737547E+04  0.14053737547E+04  0.25500000920E-02 0. -1.
    10030    2    1    2    0    0  0.00000000000E+00  0.00000000000E+00 -0.11067754397E+04  0.17039720697E+04  0.12955959789E+04 0.  0.
        4    1    3    3  502    0  0.44249255636E+03 -0.46894048775E+03 -0.63589802962E+03  0.90557868817E+03  0.12699999809E+01 0.  1.
       -4    1    3    3    0  502 -0.44249255636E+03  0.46894048775E+03 -0.47087741010E+03  0.79839338157E+03  0.12699999809E+01 0. -1.
</event>
<event>
 5   0  0.1254125E-03  0.1294948E+04  0.7818609E-02  0.9033581E-01
       -3   -1    0    0    0  501  0.00000000000E+00  0.00000000000E+00  0.42528674830E+03  0.42528676029E+03  0.10100000352E+00 0.  1.
        3   -1    0    0  501    0  0.00000000000E+00  0.00000000000E+00 -0.98574106065E+03  0.98574106583E+03  0.10100000352E+00 0. -1.
    10030    2    1    2    0    0  0.00000000000E+00  0.00000000000E+00 -0.56045431236E+03  0.14110278261E+04  0.12949480645E+04 0.  0.
        5    1    3    3  502    0  0.27308178751E+03 -0.52078826520E+03  0.14995950521E+02  0.58825253792E+03  0.46999998093E+01 0. -1.
       -5    1    3    3    0  502 -0.27308178751E+03  0.52078826520E+03 -0.57545026288E+03  0.82277528820E+03  0.46999998093E+01 0.  1.
</event>
<event>
 5   0  0.1803959E-03  0.1181923E+04  0.7818609E-02  0.9128828E-01
        1   -1    0    0  501    0  0.00000000000E+00  0.00000000000E+00  0.10044927485E+04  0.10044927485E+04  0.50400001928E-02 0.  1.
       -1   -1    0    0    0  501  0.00000000000E+00  0.00000000000E+00 -0.34767354981E+03  0.34767354985E+03  0.50400001928E-02 0. -1.
    10030    2    1    2    0    0  0.00000000000E+00  0.00000000000E+00  0.65681919865E+03  0.13521662983E+04  0.11819231103E+04 0.  0.
        4    1    3    3  502    0  0.52857220893E+03  0.10404071358E+03  0.60634494733E+03  0.81109115282E+03  0.12699999809E+01 0.  1.
       -4    1    3    3    0  502 -0.52857220893E+03 -0.10404071358E+03  0.50474251319E+02  0.54107514550E+03  0.12699999809E+01 0. -1.
</event>
<event>
 5   0  0.1803959E-03  0.1303837E+04  0.7818609E-02  0.9026528E-01
        1   -1    0    0  501    0  0.00000000000E+00  0.00000000000E+00  0.12979796114E+04  0.12979796114E+04  0.50400001928E-02 0.  1.
       -1   -1    0    0    0  501  0.00000000000E+00  0.00000000000E+00 -0.32743028243E+03  0.32743028247E+03  0.50400001928E-02 0. -1.
    10030    2    1    2    0    0  0.00000000000E+00  0.00000000000E+00  0.97054932892E+03  0.16254098938E+04  0.13038371536E+04 0.  0.
        4    1    3    3  502    0  0.50206920764E+03  0.24687956797E+03  0.68120478294E+02  0.56361779851E+03  0.12699999809E+01 0. -1.
       -4    1    3    3    0  502 -0.50206920764E+03 -0.24687956797E+03  0.90242885063E+03  0.10617920953E+04  0.12699999809E+01 0.  1.
</event>
<event>
 5   0  0.1857986E-03  0.1287080E+04  0.7818609E-02  0.9039874E-01
        1   -1    0    0  501    0  0.00000000000E+00  0.00000000000E+00  0.51172438932E+03  0.51172438934E+03  0.50400001928E-02 0. -1.
       -1   -1    0    0    0  501  0.00000000000E+00  0.00000000000E+00 -0.80930978315E+03  0.80930978317E+03  0.50400001928E-02 0.  1.
    10030    2    1    2    0    0  0.00000000000E+00  0.00000000000E+00 -0.29758539384E+03  0.13210341725E+04  0.12870797249E+04 0.  0.
        1    1    3    3  502    0  0.58061650408E+03 -0.30901955112E+02  0.13429706103E+03  0.59674630813E+03  0.50400001928E-02 0.  1.
       -1    1    3    3    0  502 -0.58061650408E+03  0.30901955112E+02 -0.43188245486E+03  0.72428786438E+03  0.50400001928E-02 0. -1.
</event>
<event>
 5   0  0.3336609E-03  0.1289470E+04  0.7818609E-02  0.9037957E-01
       -2   -1    0    0    0  501  0.00000000000E+00  0.00000000000E+00  0.14422286466E+04  0.14422286466E+04  0.25500000920E-02 0. -1.
        2   -1    0    0  501    0  0.00000000000E+00  0.00000000000E+00 -0.28822283079E+03  0.28822283080E+03  0.25500000920E-02 0.  1.
    10030    2    1    2    0    0  0.00000000000E+00  0.00000000000E+00  0.11540058158E+04  0.17304514774E+04  0.12894700046E+04 0.  0.
        1    1    3    3  502    0 -0.30196700075E+03  0.22963992401E+03  0.12765946452E+04  0.13317704203E+04  0.50400001928E-02 0. -1.
       -1    1    3    3    0  502  0.30196700075E+03 -0.22963992401E+03 -0.12258882931E+03  0.39868105716E+03  0.50400001928E-02 0.  1.
</event>
<event>
 5   0  0.1873488E-03  0.1280401E+04  0.7818609E-02  0.9045254E-01
       -1   -1    0    0    0  501  0.00000000000E+00  0.00000000000E+00  0.13032308323E+04  0.13032308323E+04  0.50400001928E-02 0. -1.
        1   -1    0    0  501    0  0.00000000000E+00  0.00000000000E+00 -0.31449267579E+03  0.31449267583E+03  0.50400001928E-02 0.  1.
    10030    2    1    2    0    0  0.00000000000E+00  0.00000000000E+00  0.98873815654E+03  0.16177235082E+04  0.12804007992E+04 0.  0.
        3    1    3    3  502    0 -0.28552192292E+03 -0.19978954959E+03 -0.18416157462E+03  0.39414988058E+03  0.10100000352E+00 0.  1.
       -3    1    3    3    0  502  0.28552192292E+03  0.19978954959E+03  0.11728997312E+04  0.12235736276E+04  0.10100000352E+00 0. -1.
</event>
<event>
 5   0  0.3299104E-03  0.1309373E+04  0.7818609E-02  0.9022165E-01
        2   -1    0    0  501    0  0.00000000000E+00  0.00000000000E+00  0.78078856671E+03  0.78078856672E+03  0.25500000920E-02 0. -1.
       -2   -1    0    0    0  501  0.00000000000E+00  0.00000000000E+00 -0.54895098483E+03  0.54895098483E+03  0.25500000920E-02 0.  1.
    10030    2    1    2    0    0  0.00000000000E+00  0.00000000000E+00  0.23183758188E+03  0.13297395515E+04  0.13093733656E+04 0.  0.
        2    1    3    3  502    0 -0.18080741580E+03  0.48823128464E+03  0.51902285057E+03  0.73515020800E+03  0.25500000920E-02 0. -1.
       -2    1    3    3    0  502  0.18080741580E+03 -0.48823128464E+03 -0.28718526868E+03  0.59458934355E+03  0.25500000920E-02 0.  1.
</event>
<event>
 5   0  0.3262927E-03  0.1324236E+04  0.7818609E-02  0.9010563E-01
        2   -1    0    0  501    0  0.00000000000E+00  0.00000000000E+00  0.17214523658E+04  0.17214523658E+04  0.25500000920E-02 0.  1.
       -2   -1    0    0    0  501  0.00000000000E+00  0.00000000000E+00 -0.25466886096E+03  0.25466886098E+03  0.25500000920E-02 0. -1.
    10030    2    1    2    0    0  0.00000000000E+00  0.00000000000E+00  0.14667835049E+04  0.19761212268E+04  0.13242361016E+04 0.  0.
        3    1    3    3  502    0 -0.96184370522E+02 -0.25966734708E+03 -0.16411032925E+03  0.32188627595E+03  0.10100000352E+00 0. -1.
       -3    1    3    3    0  502  0.96184370522E+02  0.25966734708E+03  0.16308938341E+04  0.16542349509E+04  0.10100000352E+00 0.  1.
</event>
<event>
 5   0  0.1254125E-03  0.1314193E+04  0.7818609E-02  0.9018385E-01
       -3   -1    0    0    0  501  0.00000000000E+00  0.00000000000E+00  0.67306693327E+03  0.67306694084E+03  0.10100000352E+00 0.  1.
        3   -1    0    0  501    0  0.00000000000E+00  0.00000000000E+00 -0.64150493760E+03  0.64150494555E+03  0.10100000352E+00 0. -1.
    10030    2    1    2    0    0  0.00000000000E+00  0.00000000000E+00  0.31561995664E+02  0.13145718864E+04  0.13141929405E+04 0.  0.
        4    1    3    3  502    0 -0.41871330271E+03  0.36904778092E+03  0.36266199445E+03  0.66561432495E+03  0.12699999809E+01 0.  1.
       -4    1    3    3    0  502  0.41871330271E+03 -0.36904778092E+03 -0.33109999878E+03  0.64895756145E+03  0.12699999809E+01 0. -1.
</event>
<event>
 5   0  0.1814770E-03  0.1351647E+04  0.7818609E-02  0.8989582E-01
       -1   -1    0    0    0  501  0.00000000000E+00  0.00000000000E+00  0.42243150034E+03  0.42243150037E+03  0.50400001928E-02 0.  1.
        1   -1    0    0  501    0  0.00000000000E+00  0.00000000000E+00 -0.10812104347E+04  0.10812104347E+04  0.50400001928E-02 0. -1.
    10030    2    1    2    0    0  0.00000000000E+00  0.00000000000E+00 -0.65877893436E+03  0.15036419351E+04  0.13516469157E+04 0.  0.
        5    1    3    3  502    0  0.42074759020E+02  0.45676363466E+03  0.22271837416E+03  0.50993025747E+03  0.46999998093E+01 0.  1.
       -5    1    3    3    0  502 -0.42074759020E+02 -0.45676363466E+03 -0.88149730852E+03  0.99371167761E+03  0.46999998093E+01 0. -1.
</event>
<event>
 5   0  0.3259968E-03  0.1289826E+04  0.7818609E-02  0.9037672E-01
        2   -1    0    0  501    0  0.00000000000E+00  0.00000000000E+00  0.14954474223E+04  0.14954474223E+04  0.25500000920E-02 0. -1.
       -2   -1    0    0    0  501  0.00000000000E+00  0.00000000000E+00 -0.27811923197E+03  0.27811923199E+03  0.25500000920E-02 0.  1.
    10030    2    1    2    0    0  0.00000000000E+00  0.00000000000E+00  0.12173281904E+04  0.17735666543E+04  0.12898258620E+04 0.  0.
        4    1    3    3  502    0 -0.80015520257E+02  0.46460674071E+03  0.35681361234E+01  0.47146182400E+03  0.12699999809E+01 0.  1.
       -4    1    3    3    0  502  0.80015520257E+02 -0.46460674071E+03  0.12137600542E+04  0.13021048303E+04  0.12699999809E+01 0. -1.
</event>
<event>
 5   0  0.3259968E-03  0.1328500E+04  0.7818609E-02  0.9007265E-01
        2   -1    0    0  501    0  0.00000000000E+00  0.00000000000E+00  0.13878047048E+04  0.13878047048E+04  0.25500000920E-02 0. -1.
       -2   -1    0    0    0  501  0.00000000000E+00  0.00000000000E+00 -0.31793246923E+03  0.31793246924E+03  0.25500000920E-02 0.  1.
    10030    2    1    2    0    0  0.00000000000E+00  0.00000000000E+00  0.10698722356E+04  0.17057371741E+04  0.13285001718E+04 0.  0.
        4    1    3    3  502    0  0.37195106551E+03 -0.23492183244E+03  0.11739427281E+04  0.12536662252E+04  0.12699999809E+01 0. -1.
       -4    1    3    3    0  502 -0.37195106551E+03  0.23492183244E+03 -0.10407049250E+03  0.45207094886E+03  0.12699999809E+01 0.  1.
</event>
<event>
 5   0  0.3299104E-03  0.1303655E+04  0.7818609E-02  0.9026672E-01
        2   -1    0    0  501    0  0.00000000000E+00  0.00000000000E+00  0.15975560545E+04  0.15975560545E+04  0.25500000920E-02 0. -1.
       -2   -1    0    0    0  501  0.00000000000E+00  0.00000000000E+00 -0.26595573029E+03  0.26595573030E+03  0.25500000920E-02 0.  1.
    10030    2    1    2    0    0  0.00000000000E+00  0.00000000000E+00  0.13316003242E+04  0.18635117848E+04  0.13036551495E+04 0.  0.
        2    1    3    3  502    0 -0.46702735243E+02  0.63334221237E+03  0.45583284321E+03  0.78172059229E+03  0.25500000920E-02 0.  1.
       -2    1    3    3    0  502  0.46702735243E+02 -0.63334221237E+03  0.87576748101E+03  0.10817911925E+04  0.25500000920E-02 0. -1.
</event>
<event>
 5   0  0.1814770E-03  0.1308246E+04  0.7818609E-02  0.9023052E-01
        1   -1    0    0  501    0  0.00000000000E+00  0.00000000000E+00  0.73029216786E+03  0.73029216787E+03  0.50400001928E-02 0.  1.
       -1   -1    0    0    0  501  0.00000000000E+00  0.00000000000E+00 -0.58589793110E+03  0.58589793112E+03  0.50400001928E-02 0. -1.
    10030    2    1    2    0    0  0.00000000000E+00  0.00000000000E+00  0.14439423676E+03  0.13161900990E+04  0.13082456501E+04 0.  0.
        5    1    3    3  502    0  0.39974606043E+03 -0.26535398902E+03 -0.37507534049E+03  0.60902648001E+03  0.46999998093E+01 0. -1.
       -5    1    3    3    0  502 -0.39974606043E+03  0.26535398902E+03  0.51946957725E+03  0.70716361898E+03  0.46999998093E+01 0.  1.
</event>
<event>
 5   0  0.3262927E-03  0.1311366E+04  0.7818609E-02  0.9020600E-01
       -2   -1    0    0    0  501  0.00000000000E+00  0.00000000000E+00  0.27329523205E+03  0.27329523206E+03  0.25500000920E-02 0.  1.
        2   -1    0    0  501    0  0.00000000000E+00  0.00000000000E+00 -0.15730990833E+04  0.15730990833E+04  0.25500000920E-02 0. -1.
    10030    2    1    2    0    0  0.00000000000E+00  0.00000000000E+00 -0.12998038513E+04  0.18463943154E+04  0.13113664309E+04 0.  0.
        3    1    3    3  502    0  0.31928791537E+02 -0.13083482860E+03 -0.15534156223E+04  0.15592425424E+04  0.10100000352E+00 0. -1.
       -3    1    3    3    0  502 -0.31928791537E+02  0.13083482860E+03  0.25361177107E+03  0.28715177298E+03  0.10100000352E+00 0.  1.
</event>
<event>
 5   0  0.1814770E-03  0.1307020E+04  0.7818609E-02  0.9024017E-01
        1   -1    0    0  501    0  0.00000000000E+00  0.00000000000E+00  0.43708873051E+03  0.43708873054E+03  0.50400001928E-02 0. -1.
       -1   -1    0    0    0  501  0.00000000000E+00  0.00000000000E+00 -0.97709021025E+03  0.97709021027E+03  0.50400001928E-02 0.  1.
    10030    2    1    2    0    0  0.00000000000E+00  0.00000000000E+00 -0.54000147974E+03  0.14141789408E+04  0.13070196932E+04 0.  0.
        5    1    3    3  502    0  0.39729893443E+03 -0.50112815077E+03 -0.41547540610E+03  0.76263868893E+03  0.46999998093E+01 0.  1.
       -5    1    3    3    0  502 -0.39729893443E+03  0.50112815077E+03 -0.12452607365E+03  0.65154025187E+03  0.46999998093E+01 0. -1.
</event>
<event>
 5   0  0.1873488E-03  0.1324534E+04  0.7818609E-02  0.9010332E-01
       -1   -1    0    0    0  501  0.00000000000E+00  0.00000000000E+00  0.39587744768E+03  0.39587744772E+03  0.50400001928E-02 0.  1.
        1   -1    0    0  501    0  0.00000000000E+00  0.00000000000E+00 -0.11079133355E+04  0.11079133355E+04  0.50400001928E-02 0. -1.
    10030    2    1    2    0    0  0.00000000000E+00  0.00000000000E+00 -0.71203588778E+03  0.15037907832E+04  0.13245344896E+04 0.  0.
        3    1    3    3  502    0 -0.37662907612E+03  0.17480036439E+02 -0.97416906285E+03  0.10445862271E+04  0.10100000352E+00 0. -1.
       -3    1    3    3    0  502  0.37662907612E+03 -0.17480036439E+02  0.26213317507E+03  0.45920455608E+03  0.10100000352E+00 0.  1.
</event>
<event>
 5   0  0.1254125E-03  0.1295558E+04  0.7818609E-02  0.9033095E-01
       -3   -1    0    0    0  501  0.00000000000E+00  0.00000000000E+00  0.16185512997E+04  0.16185513029E+04  0.10100000352E+00 0.  1.
        3   -1    0    0  501    0  0.00000000000E+00  0.00000000000E+00 -0.25925518461E+03  0.25925520428E+03  0.10100000352E+00 0. -1.
    10030    2    1    2    0    0  0.00000000000E+00  0.00000000000E+00  0.13592961151E+04  0.18778065071E+04  0.12955583158E+04 0.  0.
        2    1    3    3  502    0 -0.51924537460E+03 -0.15891248387E+03  0.16771610484E+03  0.56832880308E+03  0.25500000920E-02 0. -1.
       -2    1    3    3    0  502  0.51924537460E+03  0.15891248387E+03  0.11915800103E+04  0.13094777041E+04  0.25500000920E-02 0.  1.
</event>
<event>
 5   0  0.3259968E-03  0.1055240E+04  0.7818609E-02  0.9249950E-01
        2   -1    0    0  501    0  0.00000000000E+00  0.00000000000E+00  0.82852823228E+03  0.82852823229E+03  0.25500000920E-02 0. -1.
       -2   -1    0    0    0  501  0.00000000000E+00  0.00000000000E+00 -0.33599709426E+03  0.33599709427E+03  0.25500000920E-02 0.  1.
    10030    2    1    2    0    0  0.00000000000E+00  0.00000000000E+00  0.49253113802E+03  0.11645253266E+04  0.10552404059E+04 0.  0.
        4    1    3    3  502    0  0.62790652711E+02  0.31483925685E+03 -0.21580373207E+03  0.38683237635E+03  0.12699999809E+01 0.  1.
       -4    1    3    3    0  502 -0.62790652711E+02 -0.31483925685E+03  0.70833487009E+03  0.77769295021E+03  0.12699999809E+01 0. -1.
</event>
<event>
 5   0  0.1803959E-03  0.1249878E+04  0.7818609E-02  0.9070285E-01
        1   -1    0    0  501    0  0.00000000000E+00  0.00000000000E+00  0.48587825632E+03  0.48587825634E+03  0.50400001928E-02 0. -1.
       -1   -1    0    0    0  501  0.00000000000E+00  0.00000000000E+00 -0.80379907322E+03  0.80379907323E+03  0.50400001928E-02 0.  1.
    10030    2    1    2    0    0  0.00000000000E+00  0.00000000000E+00 -0.31792081690E+03  0.12896773296E+04  0.12498775814E+04 0.  0.
        4    1    3    3  502    0  0.45128168053E+03  0.92607620423E+02  0.27676029828E+03  0.53742832280E+03  0.12699999809E+01 0. -1.
       -4    1    3    3    0  502 -0.45128168053E+03 -0.92607620423E+02 -0.59468111518E+03  0.75224900678E+03  0.12699999809E+01 0.  1.
</event>
<event>
 5   0  0.1873488E-03  0.9842741E+03  0.7818609E-02  0.9325963E-01
       -1   -1    0    0    0  501  0.00000000000E+00  0.00000000000E+00  0.93785398872E+03  0.93785398873E+03  0.50400001928E-02 0.  1.
        1   -1    0    0  501    0  0.00000000000E+00  0.00000000000E+00 -0.25824797941E+03  0.25824797946E+03  0.50400001928E-02 0. -1.
    10030    2    1    2    0    0  0.00000000000E+00  0.00000000000E+00  0.67960600931E+03  0.11961019682E+04  0.98427414394E+03 0.  0.
        3    1    3    3  502    0  0.42580523490E+03 -0.22692693214E+03  0.45757805291E+03  0.66496888296E+03  0.10100000352E+00 0. -1.
       -3    1    3    3    0  502 -0.42580523490E+03  0.22692693214E+03  0.22202795641E+03  0.53113308523E+03  0.10100000352E+00 0.  1.
</event>
<event>
 5   0  0.3299104E-03  0.1315575E+04  0.7818609E-02  0.9017305E-01
        2   -1    0    0  501    0  0.00000000000E+00  0.00000000000E+00  0.23967445757E+04  0.23967445757E+04  0.25500000920E-02 0.  1.
       -2   -1    0    0    0  501  0.00000000000E+00  0.00000000000E+00 -0.18053000391E+03  0.18053000393E+03  0.25500000920E-02 0. -1.
    10030    2    1    2    0    0  0.00000000000E+00  0.00000000000E+00  0.22162145718E+04  0.25772745797E+04  0.13155748670E+04 0.  0.
        2    1    3    3  502    0  0.11238111222E+03 -0.60747755044E+03  0.15506346330E+04  0.16691693305E+04  0.25500000920E-02 0.  1.
       -2    1    3    3    0  502 -0.11238111222E+03  0.60747755044E+03  0.66557993880E+03  0.90810524919E+03  0.25500000920E-02 0. -1.
</event>
<event>
 5   0  0.1873488E-03  0.1291765E+04  0.7818609E-02  0.9036121E-01
        1   -1    0    0  501    0  0.00000000000E+00  0.00000000000E+00  0.38645657680E+03  0.38645657684E+03  0.50400001928E-02 0. -1.
       -1   -1    0    0    0  501  0.00000000000E+00  0.00000000000E+00 -0.10794596119E+04  0.10794596119E+04  0.50400001928E-02 0.  1.
    10030    2    1    2    0    0  0.00000000000E+00  0.00000000000E+00 -0.69300303509E+03  0.14659161887E+04  0.12917650970E+04 0.  0.
        3    1    3    3  502    0 -0.60627875650E+03  0.82416931357E+02 -0.58126805309E+03  0.84394255782E+03  0.10100000352E+00 0.  1.
       -3    1    3    3    0  502  0.60627875650E+03 -0.82416931357E+02 -0.11173498201E+03  0.62197363093E+03  0.10100000352E+00 0. -1.
</event>
<event>
 5   0  0.3259968E-03  0.1299880E+04  0.7818609E-02  0.9029660E-01
       -2   -1    0    0    0  501  0.00000000000E+00  0.00000000000E+00  0.31129453539E+03  0.31129453540E+03  0.25500000920E-02 0.  1.
        2   -1    0    0  501    0  0.00000000000E+00  0.00000000000E+00 -0.13569853384E+04  0.13569853384E+04  0.25500000920E-02 0. -1.
    10030    2    1    2    0    0  0.00000000000E+00  0.00000000000E+00 -0.10456908030E+04  0.16682798738E+04  0.12998801798E+04 0.  0.
        4    1    3    3  502    0 -0.24936410870E+03 -0.59600791791E+03 -0.43198020409E+03  0.77718492429E+03  0.12699999809E+01 0.  1.
       -4    1    3    3    0  502  0.24936410870E+03  0.59600791791E+03 -0.61371059889E+03  0.89109494949E+03  0.12699999809E+01 0. -1.
</event>
<event>
 5   0  0.3336609E-03  0.1323097E+04  0.7818609E-02  0.9011447E-01
        2   -1    0    0  501    0  0.00000000000E+00  0.00000000000E+00  0.28939484305E+03  0.28939484306E+03  0.25500000920E-02 0.  1.
       -2   -1    0    0    0  501  0.00000000000E+00  0.00000000000E+00 -0.15122805207E+04  0.15122805207E+04  0.25500000920E-02 0. -1.
    10030    2    1    2    0    0  0.00000000000E+00  0.00000000000E+00 -0.12228856776E+04  0.18016753637E+04  0.13230966464E+04 0.  0.
        1    1    3    3  502    0 -0.17611883667E+03 -0.86688479456E+02  0.24882393899E+03  0.31693231097E+03  0.50400001928E-02 0.  1.
       -1    1    3    3    0  502  0.17611883667E+03  0.86688479456E+02 -0.14717096166E+04  0.14847430528E+04  0.50400001928E-02 0. -1.
</event>
<event>
 5   0  0.3336609E-03  0.1308341E+04  0.7818609E-02  0.9022977E-01
       -2   -1    0    0    0  501  0.00000000000E+00  0.00000000000E+00  0.43545547006E+03  0.43545547006E+03  0.25500000920E-02 0.  1.
        2   -1    0    0  501    0  0.00000000000E+00  0.00000000000E+00 -0.98273848477E+03  0.98273848477E+03  0.25500000920E-02 0. -1.
    10030    2    1    2    0    0  0.00000000000E+00  0.00000000000E+00 -0.54728301471E+03  0.14181939548E+04  0.13083407031E+04 0.  0.
        1    1    3    3  502    0 -0.40913745818E+03 -0.48752831391E+03 -0.10974585071E+03  0.64584941613E+03  0.50400001928E-02 0.  1.
       -1    1    3    3    0  502  0.40913745818E+03  0.48752831391E+03 -0.43753716400E+03  0.77234453870E+03  0.50400001928E-02 0. -1.
</event>
<event>
 5   0  0.3262927E-03  0.1259191E+04  0.7818609E-02  0.9062568E-01
        2   -1    0    0  501    0  0.00000000000E+00  0.00000000000E+00  0.15782061781E+04  0.15782061781E+04  0.25500000920E-02 0.  1.
       -2   -1    0    0    0  501  0.00000000000E+00  0.00000000000E+00 -0.25116507172E+03  0.25116507174E+03  0.25500000920E-02 0. -1.
    10030    2    1    2    0    0  0.00000000000E+00  0.00000000000E+00  0.13270411063E+04  0.18293712498E+04  0.12591906415E+04 0.  0.
        3    1    3    3  502    0  0.24717154164E+03  0.54647572346E+03  0.38534999901E+03  0.71289839337E+03  0.10100000352E+00 0.  1.
       -3    1    3    3    0  502 -0.24717154164E+03 -0.54647572346E+03  0.94169110734E+03  0.11164728564E+04  0.10100000352E+00 0. -1.
</event>
<event>
 5   0  0.3294720E-03  0.1294002E+04  0.7818609E-02  0.9034335E-01
        2   -1    0    0  501    0  0.00000000000E+00  0.00000000000E+00  0.71662758952E+03  0.71662758952E+03  0.25500000920E-02 0. -1.
       -2   -1    0    0    0  501  0.00000000000E+00  0.00000000000E+00 -0.58413911203E+03  0.58413911203E+03  0.25500000920E-02 0.  1.
    10030    2    1    2    0    0  0.00000000000E+00  0.00000000000E+00  0.13248847749E+03  0.13007667016E+04  0.12940018606E+04 0.  0.
        5    1    3    3  502    0  0.14395098048E+03  0.52399860983E+02 -0.56562801064E+03  0.58602454440E+03  0.46999998093E+01 0.  1.
       -5    1    3    3    0  502 -0.14395098048E+03 -0.52399860983E+02  0.69811648814E+03  0.71474215716E+03  0.46999998093E+01 0. -1.
</event>
<event>
 5   0  0.1873488E-03  0.1336141E+04  0.7818609E-02  0.9001386E-01
       -1   -1    0    0    0  501  0.00000000000E+00  0.00000000000E+00  0.24194007360E+03  0.24194007366E+03  0.50400001928E-02 0.  1.
        1   -1    0    0  501    0  0.00000000000E+00  0.00000000000E+00 -0.18447471224E+04  0.18447471224E+04  0.50400001928E-02 0. -1.
    10030    2    1    2    0    0  0.00000000000E+00  0.00000000000E+00 -0.16028070488E+04  0.20866871961E+04  0.13361410923E+04 0.  0.
        3    1    3    3  502    0  0.26077738854E+03 -0.46674047978E+03 -0.17580239827E+03  0.56281259339E+03  0.10100000352E+00 0.  1.
       -3    1    3    3    0  502 -0.26077738854E+03  0.46674047978E+03 -0.14270046505E+04  0.15238746027E+04  0.10100000352E+00 0. -1.
</event>
<event>
 5   0  0.1803959E-03  0.1302689E+04  0.7818609E-02  0.9027435E-01
       -1   -1    0    0    0  501  0.00000000000E+00  0.00000000000E+00  0.10766864585E+04  0.10766864585E+04  0.50400001928E-02 0. -1.
        1   -1    0    0  501    0  0.00000000000E+00  0.00000000000E+00 -0.39403285903E+03  0.39403285907E+03  0.50400001928E-02 0.  1.
    10030    2    1    2    0    0  0.00000000000E+00  0.00000000000E+00  0.68265359947E+03  0.14707193176E+04  0.13026892854E+04 0.  0.
        4    1    3    3  502    0  0.55139473073E+03  0.11475326491E+03 -0.28050033272E+02  0.56390857251E+03  0.12699999809E+01 0.  1.
       -4    1    3    3    0  502 -0.55139473073E+03 -0.11475326491E+03  0.71070363274E+03  0.90681074507E+03  0.12699999809E+01 0. -1.
</event>
<event>
 5   0  0.3259968E-03  0.1357249E+04  0.7818609E-02  0.8985359E-01
       -2   -1    0    0    0  501  0.00000000000E+00  0.00000000000E+00  0.40613871382E+03  0.40613871383E+03  0.25500000920E-02 0.  1.
        2   -1    0    0  501    0  0.00000000000E+00  0.00000000000E+00 -0.11339262338E+04  0.11339262338E+04  0.25500000920E-02 0. -1.
    10030    2    1    2    0    0  0.00000000000E+00  0.00000000000E+00 -0.72778751995E+03  0.15400649476E+04  0.13572491918E+04 0.  0.
        4    1    3    3  502    0 -0.46936635043E+03 -0.58965382713E+02 -0.91599998327E+03  0.10309409632E+04  0.12699999809E+01 0. -1.
       -4    1    3    3    0  502  0.46936635043E+03  0.58965382713E+02  0.18821246332E+03  0.50912398443E+03  0.12699999809E+01 0.  1.
</event>
<event>
 5   0  0.1873488E-03  0.1212514E+04  0.7818609E-02  0.9101973E-01
       -1   -1    0    0    0  501  0.00000000000E+00  0.00000000000E+00  0.36295678530E+03  0.36295678533E+03  0.50400001928E-02 0. -1.
        1   -1    0    0  501    0  0.00000000000E+00  0.00000000000E+00 -0.10126479883E+04  0.10126479883E+04  0.50400001928E-02 0.  1.
    10030    2    1    2    0    0  0.00000000000E+00  0.00000000000E+00 -0.64969120301E+03  0.13756047737E+04  0.12125138490E+04 0.  0.
        3    1    3    3  502    0  0.36522088867E+03  0.48377091318E+03 -0.31206769681E+03  0.68176744682E+03  0.10100000352E+00 0. -1.
       -3    1    3    3    0  502 -0.36522088867E+03 -0.48377091318E+03 -0.33762350621E+03  0.69383732683E+03  0.10100000352E+00 0.  1.
</event>
<event>
 5   0  0.1823154E-03  0.1311326E+04  0.7818609E-02  0.9020631E-01
       -1   -1    0    0    0  501  0.00000000000E+00  0.00000000000E+00  0.14575573721E+04  0.14575573721E+04  0.50400001928E-02 0.  1.
        1   -1    0    0  501    0  0.00000000000E+00  0.00000000000E+00 -0.29494155807E+03  0.29494155811E+03  0.50400001928E-02 0. -1.
    10030    2    1    2    0    0  0.00000000000E+00  0.00000000000E+00  0.11626158140E+04  0.17524989302E+04  0.13113264160E+04 0.  0.
        2    1    3    3  502    0  0.60676601950E+03 -0.22049516843E+03  0.42828133210E+03  0.77473093469E+03  0.25500000920E-02 0.  1.
       -2    1    3    3    0  502 -0.60676601950E+03  0.22049516843E+03  0.73433448192E+03  0.97776799553E+03  0.25500000920E-02 0. -1.
</event>
<event>
 5   0  0.1873488E-03  0.1234304E+04  0.7818609E-02  0.9083349E-01
        1   -1    0    0  501    0  0.00000000000E+00  0.00000000000E+00  0.17178602896E+04  0.17178602896E+04  0.50400001928E-02 0. -1.
       -1   -1    0    0    0  501  0.00000000000E+00  0.00000000000E+00 -0.22171559920E+03  0.22171559926E+03  0.50400001928E-02 0.  1.
    10030    2    1    2    0    0  0.00000000000E+00  0.00000000000E+00  0.14961446904E+04  0.19395758889E+04  0.12343037285E+04 0.  0.
        3    1    3    3  502    0 -0.27096064560E+03  0.33621424597E+03  0.14409420057E+04  0.15042518288E+04  0.10100000352E+00 0. -1.
       -3    1    3    3    0  502  0.27096064560E+03 -0.33621424597E+03  0.55202684752E+02  0.43532406006E+03  0.10100000352E+00 0.  1.
</event>
<event>
 5   0  0.1873488E-03  0.1297283E+04  0.7818609E-02  0.9031723E-01
        1   -1    0    0  501    0  0.00000000000E+00  0.00000000000E+00  0.92199473159E+03  0.92199473160E+03  0.50400001928E-02 0. -1.
       -1   -1    0    0    0  501  0.00000000000E+00  0.00000000000E+00 -0.45633212800E+03  0.45633212802E+03  0.50400001928E-02 0.  1.
    10030    2    1    2    0    0  0.00000000000E+00  0.00000000000E+00  0.46566260359E+03  0.13783268596E+04  0.12972830345E+04 0.  0.
        3    1    3    3  502    0 -0.14375629618E+03  0.15999395870E+03  0.88300153086E+03  0.90882102375E+03  0.10100000352E+00 0. -1.
       -3    1    3    3    0  502  0.14375629618E+03 -0.15999395870E+03 -0.41733892727E+03  0.46950583588E+03  0.10100000352E+00 0.  1.
</event>
<event>
 5   0  0.1814770E-03  0.1291419E+04  0.7818609E-02  0.9036397E-01
       -1   -1    0    0    0  501  0.00000000000E+00  0.00000000000E+00  0.44541455864E+03  0.44541455866E+03  0.50400001928E-02 0.  1.
        1   -1    0    0  501    0  0.00000000000E+00  0.00000000000E+00 -0.93607407710E+03  0.93607407712E+03  0.50400001928E-02 0. -1.
    10030    2    1    2    0    0  0.00000000000E+00  0.00000000000E+00 -0.49065951847E+03  0.13814886358E+04  0.12914194081E+04 0.  0.
        5    1    3    3  502    0  0.44883516508E+02  0.41409573525E+03 -0.77312597962E+03  0.87820024958E+03  0.46999998093E+01 0.  1.
       -5    1    3    3    0  502 -0.44883516508E+02 -0.41409573525E+03  0.28246646115E+03  0.50328838620E+03  0.46999998093E+01 0. -1.
</event>
<event>
 5   0  0.1823154E-03  0.1277606E+04  0.7818609E-02  0.9047514E-01
        1   -1    0    0  501    0  0.00000000000E+00  0.00000000000E+00  0.96543394608E+03  0.96543394610E+03  0.50400001928E-02 0. -1.
       -1   -1    0    0    0  501  0.00000000000E+00  0.00000000000E+00 -0.42267991504E+03  0.42267991507E+03  0.50400001928E-02 0.  1.
    10030    2    1    2    0    0  0.00000000000E+00  0.00000000000E+00  0.54275403105E+03  0.13881138612E+04  0.12776064157E+04 0.  0.
        2    1    3    3  502    0  0.53023141857E+03  0.34016615988E+03  0.15633582312E+03  0.64907569910E+03  0.25500000920E-02 0.  1.
       -2    1    3    3    0  502 -0.53023141857E+03 -0.34016615988E+03  0.38641820793E+03  0.73903816207E+03  0.25500000920E-02 0. -1.
</event>
<event>
 5   0  0.1254125E-03  0.1376145E+04  0.7818609E-02  0.8971269E-01
       -3   -1    0    0    0  501  0.00000000000E+00  0.00000000000E+00  0.15649404939E+04  0.15649404972E+04  0.10100000352E+00 0. -1.
        3   -1    0    0  501    0  0.00000000000E+00  0.00000000000E+00 -0.30253136900E+03  0.30253138586E+03  0.10100000352E+00 0.  1.
    10030    2    1    2    0    0  0.00000000000E+00  0.00000000000E+00  0.12624091249E+04  0.18674718831E+04  0.13761447727E+04 0.  0.
        1    1    3    3  502    0  0.61973193089E+03  0.19319558495E+03  0.94080829675E+03  0.11430277562E+04  0.50400001928E-02 0. -1.
       -1    1    3    3    0  502 -0.61973193089E+03 -0.19319558495E+03  0.32160082820E+03  0.72444412685E+03  0.50400001928E-02 0.  1.
</event>
<event>
 5   0  0.1254125E-03  0.1301753E+04  0.7818609E-02  0.9028176E-01
       -4   -1    0    0    0  501  0.00000000000E+00  0.00000000000E+00  0.11598459692E+04  0.11598466645E+04  0.12699999809E+01 0. -1.
        4   -1    0    0  501    0  0.00000000000E+00  0.00000000000E+00 -0.36525350612E+03  0.36525571403E+03  0.12699999809E+01 0.  1.
    10030    2    1    2    0    0  0.00000000000E+00  0.00000000000E+00  0.79459246303E+03  0.15251023785E+04  0.13017526964E+04 0.  0.
        5    1    3    3  502    0 -0.24810344405E+03  0.48731670952E+03 -0.16230371677E+02  0.54709999935E+03  0.46999998093E+01 0.  1.
       -5    1    3    3    0  502  0.24810344405E+03 -0.48731670952E+03  0.81082283471E+03  0.97800237914E+03  0.46999998093E+01 0. -1.
</event>
<event>
 5   0  0.3294720E-03  0.1301296E+04  0.7818609E-02  0.9028538E-01
       -2   -1    0    0    0  501  0.00000000000E+00  0.00000000000E+00  0.49219659336E+03  0.49219659336E+03  0.25500000920E-02 0.  1.
        2   -1    0    0  501    0  0.00000000000E+00  0.00000000000E+00 -0.86010958059E+03  0.86010958060E+03  0.25500000920E-02 0. -1.
    10030    2    1    2    0    0  0.00000000000E+00  0.00000000000E+00 -0.36791298724E+03  0.13523061740E+04  0.13012962852E+04 0.  0.
        5    1    3    3  502    0 -0.39934678026E+03  0.83238452649E+02 -0.71069259512E+03  0.81945869064E+03  0.46999998093E+01 0. -1.
       -5    1    3    3    0  502  0.39934678026E+03 -0.83238452649E+02  0.34277960789E+03  0.53284748332E+03  0.46999998093E+01 0.  1.
</event>
<event>
 5   0  0.1857986E-03  0.1316312E+04  0.7818609E-02  0.9016728E-01
       -1   -1    0    0    0  501  0.00000000000E+00  0.00000000000E+00  0.86464921128E+03  0.86464921130E+03  0.50400001928E-02 0. -1.
        1   -1    0    0  501    0  0.00000000000E+00  0.00000000000E+00 -0.50097724598E+03  0.50097724601E+03  0.50400001928E-02 0.  1.
    10030    2    1    2    0    0  0.00000000000E+00  0.00000000000E+00  0.36367196530E+03  0.13656264573E+04  0.13163123955E+04 0.  0.
        1    1    3    3  502    0  0.52566830478E+03 -0.25438571487E+03  0.49673713195E+03  0.76667270518E+03  0.50400001928E-02 0. -1.
       -1    1    3    3    0  502 -0.52566830478E+03  0.25438571487E+03 -0.13306516665E+03  0.59895375212E+03  0.50400001928E-02 0.  1.
</event>
<event>
 5   0  0.3294720E-03  0.1303938E+04  0.7818609E-02  0.9026448E-01
        2   -1    0    0  501    0  0.00000000000E+00  0.00000000000E+00  0.15504128312E+04  0.15504128312E+04  0.25500000920E-02 0.  1.
       -2   -1    0    0    0  501  0.00000000000E+00  0.00000000000E+00 -0.27416142772E+03  0.27416142773E+03  0.25500000920E-02 0. -1.
    10030    2    1    2    0    0  0.00000000000E+00  0.00000000000E+00  0.12762514035E+04  0.18245742590E+04  0.13039377215E+04 0.  0.
        5    1    3    3  502    0  0.81533063780E+01  0.54674791610E+03  0.11349027856E+04  0.12597722742E+04  0.46999998093E+01 0. -1.
       -5    1    3    3    0  502 -0.81533063780E+01 -0.54674791610E+03  0.14134861792E+03  0.56480198473E+03  0.46999998093E+01 0.  1.
</event>
<event>
 5   0  0.1873488E-03  0.1329681E+04  0.7818609E-02  0.9006354E-01
        1   -1    0    0  501    0  0.00000000000E+00  0.00000000000E+00  0.12407056384E+04  0.12407056384E+04  0.50400001928E-02 0. -1.
       -1   -1    0    0    0  501  0.00000000000E+00  0.00000000000E+00 -0.35625900759E+03  0.35625900762E+03  0.50400001928E-02 0.  1.
    10030    2    1    2    0    0  0.00000000000E+00  0.00000000000E+00  0.88444663085E+03  0.15969646461E+04  0.13296805022E+04 0.  0.
        3    1    3    3  502    0  0.52839614649E+03  0.10687461323E+03  0.90952091809E+03  0.10572856668E+04  0.10100000352E+00 0. -1.
       -3    1    3    3    0  502 -0.52839614649E+03 -0.10687461323E+03 -0.25074287245E+02  0.53967897926E+03  0.10100000352E+00 0.  1.
</event>
<event>
 5   0  0.3259968E-03  0.1298629E+04  0.7818609E-02  0.9030653E-01
        2   -1    0    0  501    0  0.00000000000E+00  0.00000000000E+00  0.99889787165E+03  0.99889787165E+03  0.25500000920E-02 0.  1.
       -2   -1    0    0    0  501  0.00000000000E+00  0.00000000000E+00 -0.42207468431E+03  0.42207468431E+03  0.25500000920E-02 0. -1.
    10030    2    1    2    0    0  0.00000000000E+00  0.00000000000E+00  0.57682318734E+03  0.14209725560E+04  0.12986292833E+04 0.  0.
        4    1    3    3  502    0 -0.61488471380E+03 -0.24012762519E+02  0.51517465377E+03  0.80253745135E+03  0.12699999809E+01 0. -1.
       -4    1    3    3    0  502  0.61488471380E+03  0.24012762519E+02  0.61648533572E+02  0.61843510462E+03  0.12699999809E+01 0.  1.
</event>
<event>
 5   0  0.1803959E-03  0.1293079E+04  0.7818609E-02  0.9035071E-01
       -1   -1    0    0    0  501  0.00000000000E+00  0.00000000000E+00  0.36108607712E+03  0.36108607716E+03  0.50400001928E-02 0.  1.
        1   -1    0    0  501    0  0.00000000000E+00  0.00000000000E+00 -0.11576560850E+04  0.11576560851E+04  0.50400001928E-02 0. -1.
    10030    2    1    2    0    0  0.00000000000E+00  0.00000000000E+00 -0.79657000791E+03  0.15187421622E+04  0.12930792620E+04 0.  0.
        4    1    3    3  502    0  0.32238111087E+03  0.15383190042E+03 -0.10312368976E+04  0.10913500750E+04  0.12699999809E+01 0. -1.
       -4    1    3    3    0  502 -0.32238111087E+03 -0.15383190042E+03  0.23466688969E+03  0.42739208726E+03  0.12699999809E+01 0.  1.
</event>
<event>
 5   0  0.3259968E-03  0.1319452E+04  0.7818609E-02  0.9014280E-01
       -2   -1    0    0    0  501  0.00000000000E+00  0.00000000000E+00  0.22717474883E+03  0.22717474884E+03  0.25500000920E-02 0. -1.
        2   -1    0    0  501    0  0.00000000000E+00  0.00000000000E+00 -0.19158745443E+04  0.19158745443E+04  0.25500000920E-02 0.  1.
    10030    2    1    2    0    0  0.00000000000E+00  0.00000000000E+00 -0.16886997955E+04  0.21430492932E+04  0.13194518838E+04 0.  0.
        4    1    3    3  502    0  0.27811674678E+03  0.21399770518E+03 -0.17517116152E+04  0.17865159217E+04  0.12699999809E+01 0.  1.
       -4    1    3    3    0  502 -0.27811674678E+03 -0.21399770518E+03  0.63011819719E+02  0.35653337149E+03  0.12699999809E+01 0. -1.
</event>
<event>
 5   0  0.3299104E-03  0.1297212E+04  0.7818609E-02  0.9031779E-01
        2   -1    0    0  501    0  0.00000000000E+00  0.00000000000E+00  0.90169972803E+03  0.90169972804E+03  0.25500000920E-02 0.  1.
       -2   -1    0    0    0  501  0.00000000000E+00  0.00000000000E+00 -0.46655171847E+03  0.46655171848E+03  0.25500000920E-02 0. -1.
    10030    2    1    2    0    0  0.00000000000E+00  0.00000000000E+00  0.43514800956E+03  0.13682514465E+04  0.12972117139E+04 0.  0.
        2    1    3    3  502    0 -0.35744870679E+03  0.35999950612E+03 -0.20868658904E+03  0.54856113136E+03  0.25500000920E-02 0. -1.
       -2    1    3    3    0  502  0.35744870679E+03 -0.35999950612E+03  0.64383459860E+03  0.81969031515E+03  0.25500000920E-02 0.  1.
</event>
<event>
 5   0  0.1857986E-03  0.1307824E+04  0.7818609E-02  0.9023384E-01
       -1   -1    0    0    0  501  0.00000000000E+00  0.00000000000E+00  0.16951821112E+04  0.16951821112E+04  0.50400001928E-02 0.  1.
        1   -1    0    0  501    0  0.00000000000E+00  0.00000000000E+00 -0.25224462561E+03  0.25224462566E+03  0.50400001928E-02 0. -1.
    10030    2    1    2    0    0  0.00000000000E+00  0.00000000000E+00  0.14429374856E+04  0.19474267368E+04  0.13078235004E+04 0.  0.
        1    1    3    3  502    0 -0.28670688258E+03 -0.40243356551E+03  0.83694085823E+02  0.50115697261E+03  0.50400001928E-02 0. -1.
       -1    1    3    3    0  502  0.28670688258E+03  0.40243356551E+03  0.13592433997E+04  0.14462697642E+04  0.50400001928E-02 0.  1.
</event>
<event>
 5   0  0.1254125E-03  0.1301976E+04  0.7818609E-02  0.9027999E-01
       -3   -1    0    0    0  501  0.00000000000E+00  0.00000000000E+00  0.45013562762E+03  0.45013563895E+03  0.10100000352E+00 0. -1.
        3   -1    0    0  501    0  0.00000000000E+00  0.00000000000E+00 -0.94146213486E+03  0.94146214028E+03  0.10100000352E+00 0.  1.
    10030    2    1    2    0    0  0.00000000000E+00  0.00000000000E+00 -0.49132650724E+03  0.13915977792E+04  0.13019764370E+04 0.  0.
        2    1    3    3  502    0 -0.42969446154E+03  0.40117006696E+03  0.53249376311E+02  0.59026286431E+03  0.25500000920E-02 0. -1.
       -2    1    3    3    0  502  0.42969446154E+03 -0.40117006696E+03 -0.54457588356E+03  0.80133491491E+03  0.25500000920E-02 0.  1.
</event>
<event>
 5   0  0.1857986E-03  0.1304473E+04  0.7818609E-02  0.9026026E-01
        1   -1    0    0  501    0  0.00000000000E+00  0.00000000000E+00  0.94928710524E+03  0.94928710525E+03  0.50400001928E-02 0. -1.
       -1   -1    0    0    0  501  0.00000000000E+00  0.00000000000E+00 -0.44813874504E+03  0.44813874507E+03  0.50400001928E-02 0.  1.
    10030    2    1    2    0    0  0.00000000000E+00  0.00000000000E+00  0.50114836020E+03  0.13974258503E+04  0.13044728162E+04 0.  0.
        1    1    3    3  502    0 -0.36858950457E+03 -0.48939264817E+03  0.10916581448E+02  0.61276631658E+03  0.50400001928E-02 0.  1.
       -1    1    3    3    0  502  0.36858950457E+03  0.48939264817E+03  0.49023177875E+03  0.78465953374E+03  0.50400001928E-02 0. -1.
</event>
<event>
 5   0  0.3294720E-03  0.1348251E+04  0.7818609E-02  0.8992153E-01
       -2   -1    0    0    0  501  0.00000000000E+00  0.00000000000E+00  0.40602797956E+03  0.40602797957E+03  0.25500000920E-02 0. -1.
        2   -1    0    0  501    0  0.00000000000E+00  0.00000000000E+00 -0.11192459530E+04  0.11192459530E+04  0.25500000920E-02 0.  1.
    10030    2    1    2    0    0  0.00000000000E+00  0.00000000000E+00 -0.71321797343E+03  0.15252739326E+04  0.13482509751E+04 0.  0.
        5    1    3    3  502    0  0.84857711930E+02  0.18617837292E+03  0.37003317512E+03  0.42285914736E+03  0.46999998093E+01 0. -1.
       -5    1    3    3    0  502 -0.84857711930E+02 -0.18617837292E+03 -0.10832511485E+04  0.11024147852E+04  0.46999998093E+01 0.  1.
</event>
<event>
 5   0  0.3262927E-03  0.1344085E+04  0.7818609E-02  0.8995318E-01
       -2   -1    0    0    0  501  0.00000000000E+00  0.00000000000E+00  0.44085517321E+03  0.44085517321E+03  0.25500000920E-02 0. -1.
        2   -1    0    0  501    0  0.00000000000E+00  0.00000000000E+00 -0.10244652709E+04  0.10244652710E+04  0.25500000920E-02 0.  1.
    10030    2    1    2    0    0  0.00000000000E+00  0.00000000000E+00 -0.58361009774E+03  0.14653204442E+04  0.13440845427E+04 0.  0.
        3    1    3    3  502    0 -0.35643531482E+03 -0.56140806423E+03 -0.39759180860E+03  0.77479313672E+03  0.10100000352E+00 0.  1.
       -3    1    3    3    0  502  0.35643531482E+03  0.56140806423E+03 -0.18601828914E+03  0.69052730745E+03  0.10100000352E+00 0. -1.
</event>
<event>
 5   0  0.3294720E-03  0.1288858E+04  0.7818609E-02  0.9038447E-01
        2   -1    0    0  501    0  0.00000000000E+00  0.00000000000E+00  0.85196907010E+03  0.85196907010E+03  0.25500000920E-02 0. -1.
       -2   -1    0    0    0  501  0.00000000000E+00  0.00000000000E+00 -0.48744614729E+03  0.48744614729E+03  0.25500000920E-02 0.  1.
    10030    2    1    2    0    0  0.00000000000E+00  0.00000000000E+00  0.36452292281E+03  0.13394152174E+04  0.12888584730E+04 0.  0.
        5    1    3    3  502    0  0.36536194285E+03 -0.32035746712E+03  0.62212384369E+03  0.78941650788E+03  0.46999998093E+01 0. -1.
       -5    1    3    3    0  502 -0.36536194285E+03  0.32035746712E+03 -0.25760092089E+03  0.54999870951E+03  0.46999998093E+01 0.  1.
</event>
<event>
 5   0  0.1823154E-03  0.1271296E+04  0.7818609E-02  0.9052643E-01
        1   -1    0    0  501    0  0.00000000000E+00  0.00000000000E+00  0.92153077532E+03  0.92153077533E+03  0.50400001928E-02 0.  1.
       -1   -1    0    0    0  501  0.00000000000E+00  0.00000000000E+00 -0.43845331694E+03  0.43845331697E+03  0.50400001928E-02 0. -1.
    10030    2    1    2    0    0  0.00000000000E+00  0.00000000000E+00  0.48307745838E+03  0.13599840923E+04  0.12712957565E+04 0.  0.
        2    1    3    3  502    0 -0.15335481385E+03 -0.42457334171E+03  0.72027134360E+03  0.85004178124E+03  0.25500000920E-02 0.  1.
       -2    1    3    3    0  502  0.15335481385E+03  0.42457334171E+03 -0.23719388522E+03  0.50994231107E+03  0.25500000920E-02 0. -1.
</event>
<event>
 5   0  0.3259968E-03  0.1288576E+04  0.7818609E-02  0.9038674E-01
       -2   -1    0    0    0  501  0.00000000000E+00  0.00000000000E+00  0.28009219513E+03  0.28009219515E+03  0.25500000920E-02 0.  1.
        2   -1    0    0  501    0  0.00000000000E+00  0.00000000000E+00 -0.14820371993E+04  0.14820371993E+04  0.25500000920E-02 0. -1.
    10030    2    1    2    0    0  0.00000000000E+00  0.00000000000E+00 -0.12019450042E+04  0.17621293945E+04  0.12885760396E+04 0.  0.
        4    1    3    3  502    0  0.44907087269E+03 -0.42991188280E+03 -0.36964008980E+03  0.72327331249E+03  0.12699999809E+01 0.  1.
       -4    1    3    3    0  502 -0.44907087269E+03  0.42991188280E+03 -0.83230491441E+03  0.10388560820E+04  0.12699999809E+01 0. -1.
</event>
<event>
 5   0  0.1857986E-03  0.1275120E+04  0.7818609E-02  0.9049531E-01
       -1   -1    0    0    0  501  0.00000000000E+00  0.00000000000E+00  0.37289052369E+03  0.37289052372E+03  0.50400001928E-02 0.  1.
        1   -1    0    0  501    0  0.00000000000E+00  0.00000000000E+00 -0.10900857898E+04  0.10900857898E+04  0.50400001928E-02 0. -1.
    10030    2    1    2    0    0  0.00000000000E+00  0.00000000000E+00 -0.71719526611E+03  0.14629763135E+04  0.12751198548E+04 0.  0.
        1    1    3    3  502    0 -0.53304327988E+02  0.41684083934E+03 -0.90869760994E+03  0.10011638143E+04  0.50400001928E-02 0. -1.
       -1    1    3    3    0  502  0.53304327988E+02 -0.41684083934E+03  0.19150234384E+03  0.46181249923E+03  0.50400001928E-02 0.  1.
</event>
<event>
 5   0  0.3262927E-03  0.1266289E+04  0.7818609E-02  0.9056734E-01
        2   -1    0    0  501    0  0.00000000000E+00  0.00000000000E+00  0.15604857709E+04  0.15604857709E+04  0.25500000920E-02 0. -1.
       -2   -1    0    0    0  501  0.00000000000E+00  0.00000000000E+00 -0.25688928196E+03  0.25688928198E+03  0.25500000920E-02 0.  1.
    10030    2    1    2    0    0  0.00000000000E+00  0.00000000000E+00  0.13035964890E+04  0.18173750529E+04  0.12662891759E+04 0.  0.
        3    1    3    3  502    0  0.51203056383E+03 -0.75497767026E+02  0.12839990357E+03  0.53325580780E+03  0.10100000352E+00 0.  1.
       -3    1    3    3    0  502 -0.51203056383E+03  0.75497767026E+02  0.11751965854E+04  0.12841192451E+04  0.10100000352E+00 0. -1.
</event>
<event>
 5   0  0.1857986E-03  0.1303552E+04  0.7818609E-02  0.9026753E-01
       -1   -1    0    0    0  501  0.00000000000E+00  0.00000000000E+00  0.47054874132E+03  0.47054874135E+03  0.50400001928E-02 0.  1.
        1   -1    0    0  501    0  0.00000000000E+00  0.00000000000E+00 -0.90280166064E+03  0.90280166066E+03  0.50400001928E-02 0. -1.
    10030    2    1    2    0    0  0.00000000000E+00  0.00000000000E+00 -0.43225291932E+03  0.13733504020E+04  0.13035523543E+04 0.  0.
        1    1    3    3  502    0  0.45010421409E+03  0.41791244522E+03  0.13651496495E+02  0.61435411514E+03  0.50400001928E-02 0.  1.
       -1    1    3    3    0  502 -0.45010421409E+03 -0.41791244522E+03 -0.44590441582E+03  0.75899628687E+03  0.50400001928E-02 0. -1.
</event>
<event>
 5   0  0.3294720E-03  0.1327488E+04  0.7818609E-02  0.9008047E-01
       -2   -1    0    0    0  501  0.00000000000E+00  0.00000000000E+00  0.22007067174E+03  0.22007067175E+03  0.25500000920E-02 0. -1.
        2   -1    0    0  501    0  0.00000000000E+00  0.00000000000E+00 -0.20018841618E+04  0.20018841618E+04  0.25500000920E-02 0.  1.
    10030    2    1    2    0    0  0.00000000000E+00  0.00000000000E+00 -0.17818134900E+04  0.22219548335E+04  0.13274878414E+04 0.  0.
        5    1    3    3  502    0  0.98573955851E+02  0.30683559241E+03  0.80287805816E+02  0.33216430769E+03  0.46999998093E+01 0. -1.
       -5    1    3    3    0  502 -0.98573955851E+02 -0.30683559241E+03 -0.18621012959E+04  0.18897905258E+04  0.46999998093E+01 0.  1.
</event>
<event>
 5   0  0.1254125E-03  0.1295890E+04  0.7818609E-02  0.9032831E-01
       -3   -1    0    0    0  501  0.00000000000E+00  0.00000000000E+00  0.31167633549E+03  0.31167635186E+03  0.10100000352E+00 0. -1.
        3   -1    0    0  501    0  0.00000000000E+00  0.00000000000E+00 -0.13470142085E+04  0.13470142123E+04  0.10100000352E+00 0.  1.
    10030    2    1    2    0    0  0.00000000000E+00  0.00000000000E+00 -0.10353378730E+04  0.16586905642E+04  0.12958896081E+04 0.  0.
        4    1    3    3  502    0  0.81309005595E+02 -0.27506863644E+03 -0.12613228916E+04  0.12935265590E+04  0.12699999809E+01 0.  1.
       -4    1    3    3    0  502 -0.81309005595E+02  0.27506863644E+03  0.22598501856E+03  0.36516400515E+03  0.12699999809E+01 0. -1.
</event>
<event>
 5   0  0.1803959E-03  0.1346558E+04  0.7818609E-02  0.8993438E-01
        1   -1    0    0  501    0  0.00000000000E+00  0.00000000000E+00  0.80949775636E+03  0.80949775637E+03  0.50400001928E-02 0. -1.
       -1   -1    0    0    0  501  0.00000000000E+00  0.00000000000E+00 -0.55998264678E+03  0.55998264680E+03  0.50400001928E-02 0.  1.
    10030    2    1    2    0    0  0.00000000000E+00  0.00000000000E+00  0.24951510958E+03  0.13694804032E+04  0.13465581253E+04 0.  0.
        4    1    3    3  502    0 -0.14936121947E+03 -0.65646491995E+03  0.11770273655E+03  0.68345483544E+03  0.12699999809E+01 0.  1.
       -4    1    3    3    0  502  0.14936121947E+03  0.65646491995E+03  0.13181237303E+03  0.68602556773E+03  0.12699999809E+01 0. -1.
</event>
<event>
 5   0  0.3299104E-03  0.1281245E+04  0.7818609E-02  0.9044571E-01
        2   -1    0    0  501    0  0.00000000000E+00  0.00000000000E+00  0.49776119610E+03  0.49776119611E+03  0.25500000920E-02 0. -1.
       -2   -1    0    0    0  501  0.00000000000E+00  0.00000000000E+00 -0.82448643069E+03  0.82448643069E+03  0.25500000920E-02 0.  1.
    10030    2    1    2    0    0  0.00000000000E+00  0.00000000000E+00 -0.32672523458E+03  0.13222476268E+04  0.12812452566E+04 0.  0.
        2    1    3    3  502    0 -0.57792902555E+01  0.26323780694E+03 -0.76606396756E+03  0.81005033522E+03  0.25500000920E-02 0.  1.
       -2    1    3    3    0  502  0.57792902555E+01 -0.26323780694E+03  0.43933873297E+03  0.51219729158E+03  0.25500000920E-02 0. -1.
</event>
<event>
 5   0  0.3262927E-03  0.1435633E+04  0.7818609E-02  0.8928422E-01
        2   -1    0    0  501    0  0.00000000000E+00  0.00000000000E+00  0.46768215874E+03  0.46768215875E+03  0.25500000920E-02 0. -1.
       -2   -1    0    0    0  501  0.00000000000E+00  0.00000000000E+00 -0.11017318329E+04  0.11017318329E+04  0.25500000920E-02 0.  1.
    10030    2    1    2    0    0  0.00000000000E+00  0.00000000000E+00 -0.63404967416E+03  0.15694139917E+04  0.14356327134E+04 0.  0.
        3    1    3    3  502    0  0.37663570821E+03 -0.10055410631E+03 -0.97593123002E+03  0.10509078746E+04  0.10100000352E+00 0.  1.
       -3    1    3    3    0  502 -0.37663570821E+03  0.10055410631E+03  0.34188155585E+03  0.51850611706E+03  0.10100000352E+00 0. -1.
</event>
<event>
 5   0  0.1814770E-03  0.1331756E+04  0.7818609E-02  0.9004754E-01
       -1   -1    0    0    0  501  0.00000000000E+00  0.00000000000E+00  0.15929261782E+04  0.15929261782E+04  0.50400001928E-02 0.  1.
        1   -1    0    0  501    0  0.00000000000E+00  0.00000000000E+00 -0.27835177079E+03  0.27835177084E+03  0.50400001928E-02 0. -1.
    10030    2    1    2    0    0  0.00000000000E+00  0.00000000000E+00  0.13145744074E+04  0.18712779491E+04  0.13317564680E+04 0.  0.
        5    1    3    3  502    0 -0.13571229550E+03 -0.14627833311E+03 -0.23533089432E+03  0.30857397445E+03  0.46999998093E+01 0. -1.
       -5    1    3    3    0  502  0.13571229550E+03  0.14627833311E+03  0.15499053017E+04  0.15627039746E+04  0.46999998093E+01 0.  1.
</event>
<event>
 5   0  0.1254125E-03  0.9209546E+03  0.7818609E-02  0.9399760E-01
       -4   -1    0    0    0  501  0.00000000000E+00  0.00000000000E+00  0.13047559919E+04  0.13047566100E+04  0.12699999809E+01 0. -1.
        4   -1    0    0  501    0  0.00000000000E+00  0.00000000000E+00 -0.16250948712E+03  0.16251444952E+03  0.12699999809E+01 0.  1.
    10030    2    1    2    0    0  0.00000000000E+00  0.00000000000E+00  0.11422465048E+04  0.14672710595E+04  0.92095455066E+03 0.  0.
        2    1    3    3  502    0  0.88870589447E+02 -0.43064155004E+03  0.78892805354E+03  0.90319300261E+03  0.25500000920E-02 0. -1.
       -2    1    3    3    0  502 -0.88870589447E+02  0.43064155004E+03  0.35331845127E+03  0.56407805692E+03  0.25500000920E-02 0.  1.
</event>
<event>
 5   0  0.3259968E-03  0.1300746E+04  0.7818609E-02  0.9028974E-01
        2   -1    0    0  501    0  0.00000000000E+00  0.00000000000E+00  0.82147611092E+03  0.82147611093E+03  0.25500000920E-02 0.  1.
       -2   -1    0    0    0  501  0.00000000000E+00  0.00000000000E+00 -0.51490818732E+03  0.51490818733E+03  0.25500000920E-02 0. -1.
    10030    2    1    2    0    0  0.00000000000E+00  0.00000000000E+00  0.30656792360E+03  0.13363842983E+04  0.13007455942E+04 0.  0.
        4    1    3    3  502    0  0.25917464992E+03 -0.54518740496E+03  0.40195340381E+03  0.72523717323E+03  0.12699999809E+01 0.  1.
       -4    1    3    3    0  502 -0.25917464992E+03  0.54518740496E+03 -0.95385480206E+02  0.61114712503E+03  0.12699999809E+01 0. -1.
</event>
<event>
 5   0  0.3299104E-03  0.1285706E+04  0.7818609E-02  0.9040978E-01
        2   -1    0    0  501    0  0.00000000000E+00  0.00000000000E+00  0.12073778232E+04  0.12073778232E+04  0.25500000920E-02 0.  1.
       -2   -1    0    0    0  501  0.00000000000E+00  0.00000000000E+00 -0.34227892254E+03  0.34227892255E+03  0.25500000920E-02 0. -1.
    10030    2    1    2    0    0  0.00000000000E+00  0.00000000000E+00  0.86509890066E+03  0.15496567458E+04  0.12857060013E+04 0.  0.
        2    1    3    3  502    0 -0.46346525255E+03 -0.13270577658E+03  0.94511809588E+03  0.10609708189E+04  0.25500000920E-02 0.  1.
       -2    1    3    3    0  502  0.46346525255E+03  0.13270577658E+03 -0.80019195219E+02  0.48868592682E+03  0.25500000920E-02 0. -1.
</event>
<event>
 5   0  0.1823154E-03  0.1251312E+04  0.7818609E-02  0.9069092E-01
        1   -1    0    0  501    0  0.00000000000E+00  0.00000000000E+00  0.49085383217E+03  0.49085383220E+03  0.50400001928E-02 0.  1.
       -1   -1    0    0    0  501  0.00000000000E+00  0.00000000000E+00 -0.79747921260E+03  0.79747921262E+03  0.50400001928E-02 0. -1.
    10030    2    1    2    0    0  0.00000000000E+00  0.00000000000E+00 -0.30662538043E+03  0.12883330448E+04  0.12513124751E+04 0.  0.
        2    1    3    3  502    0  0.45215450851E+03 -0.10464447251E+02 -0.59841345022E+03  0.75010123425E+03  0.25500000920E-02 0. -1.
       -2    1    3    3    0  502 -0.45215450851E+03  0.10464447251E+02  0.29178806979E+03  0.53823181056E+03  0.25500000920E-02 0.  1.
</event>
<event>
 5   0  0.3299104E-03  0.1306546E+04  0.7818609E-02  0.9024390E-01
       -2   -1    0    0    0  501  0.00000000000E+00  0.00000000000E+00  0.25910485982E+03  0.25910485984E+03  0.25500000920E-02 0.  1.
        2   -1    0    0  501    0  0.00000000000E+00  0.00000000000E+00 -0.16470772509E+04  0.16470772509E+04  0.25500000920E-02 0. -1.
    10030    2    1    2    0    0  0.00000000000E+00  0.00000000000E+00 -0.13879723911E+04  0.19061821108E+04  0.13065461649E+04 0.  0.
        2    1    3    3  502    0  0.46119539096E+03 -0.16687153366E+03 -0.64406153845E+02  0.49466700925E+03  0.25500000920E-02 0.  1.
       -2    1    3    3    0  502 -0.46119539096E+03  0.16687153366E+03 -0.13235662373E+04  0.14115151015E+04  0.25500000920E-02 0. -1.
</event>
<event>
 5   0  0.3294720E-03  0.1301007E+04  0.7818609E-02  0.9028767E-01
        2   -1    0    0  501    0  0.00000000000E+00  0.00000000000E+00  0.29403266866E+03  0.29403266867E+03  0.25500000920E-02 0.  1.
       -2   -1    0    0    0  501  0.00000000000E+00  0.00000000000E+00 -0.14391410759E+04  0.14391410759E+04  0.25500000920E-02 0. -1.
    10030    2    1    2    0    0  0.00000000000E+00  0.00000000000E+00 -0.11451084073E+04  0.17331737446E+04  0.13010065198E+04 0.  0.
        5    1    3    3  502    0 -0.31591582545E+03 -0.90433211640E+02 -0.13204175821E+04  0.13607004284E+04  0.46999998093E+01 0. -1.
       -5    1    3    3    0  502  0.31591582545E+03  0.90433211640E+02  0.17530917485E+03  0.37247331625E+03  0.46999998093E+01 0.  1.
</event>
<event>
 5   0  0.3259968E-03  0.1318759E+04  0.7818609E-02  0.9014820E-01
       -2   -1    0    0    0  501  0.00000000000E+00  0.00000000000E+00  0.30170338042E+03  0.30170338043E+03  0.25500000920E-02 0. -1.
        2   -1    0    0  501    0  0.00000000000E+00  0.00000000000E+00 -0.14410889725E+04  0.14410889725E+04  0.25500000920E-02 0.  1.
    10030    2    1    2    0    0  0.00000000000E+00  0.00000000000E+00 -0.11393855920E+04  0.17427923529E+04  0.13187591357E+04 0.  0.
        4    1    3    3  502    0 -0.59520247325E+03  0.28371460010E+03 -0.57557967578E+03  0.87524484262E+03  0.12699999809E+01 0. -1.
       -4    1    3    3    0  502  0.59520247325E+03 -0.28371460010E+03 -0.56380591626E+03  0.86754751027E+03  0.12699999809E+01 0.  1.
</event>
<event>
 5   0  0.3299104E-03  0.1287590E+04  0.7818609E-02  0.9039465E-01
       -2   -1    0    0    0  501  0.00000000000E+00  0.00000000000E+00  0.53512837514E+03  0.53512837515E+03  0.25500000920E-02 0.  1.
        2   -1    0    0  501    0  0.00000000000E+00  0.00000000000E+00 -0.77452843791E+03  0.77452843791E+03  0.25500000920E-02 0. -1.
    10030    2    1    2    0    0  0.00000000000E+00  0.00000000000E+00 -0.23940006277E+03  0.13096568131E+04  0.12875902213E+04 0.  0.
        2    1    3    3  502    0  0.30383665214E+03  0.12011689489E+03  0.44453870179E+03  0.55168780756E+03  0.25500000920E-02 0.  1.
       -2    1    3    3    0  502 -0.30383665214E+03 -0.12011689489E+03 -0.68393876455E+03  0.75796900549E+03  0.25500000920E-02 0. -1.
</event>
<event>
 5   0  0.3294720E-03  0.1269535E+04  0.7818609E-02  0.9054079E-01
        2   -1    0    0  501    0  0.00000000000E+00  0.00000000000E+00  0.97356625981E+03  0.97356625982E+03  0.25500000920E-02 0.  1.
       -2   -1    0    0    0  501  0.00000000000E+00  0.00000000000E+00 -0.41386977987E+03  0.41386977988E+03  0.25500000920E-02 0. -1.
    10030    2    1    2    0    0  0.00000000000E+00  0.00000000000E+00  0.55969647995E+03  0.13874360397E+04  0.12695348024E+04 0.  0.
        5    1    3    3  502    0 -0.36837668032E+03  0.34188783618E+03 -0.14386803366E+03  0.52278941481E+03  0.46999998093E+01 0. -1.
       -5    1    3    3    0  502  0.36837668032E+03 -0.34188783618E+03  0.70356451360E+03  0.86464662489E+03  0.46999998093E+01 0.  1.
</event>
<event>
 5   0  0.1857986E-03  0.1271218E+04  0.7818609E-02  0.9052706E-01
        1   -1    0    0  501    0  0.00000000000E+00  0.00000000000E+00  0.12358371588E+04  0.12358371588E+04  0.50400001928E-02 0.  1.
       -1   -1    0    0    0  501  0.00000000000E+00  0.00000000000E+00 -0.32690291393E+03  0.32690291397E+03  0.50400001928E-02 0. -1.
    10030    2    1    2    0    0  0.00000000000E+00  0.00000000000E+00  0.90893424486E+03  0.15627400728E+04  0.12712179489E+04 0.  0.
        1    1    3    3  502    0 -0.31273524087E+03 -0.93123267009E+02 -0.21607700871E+03  0.39136242469E+03  0.50400001928E-02 0. -1.
       -1    1    3    3    0  502  0.31273524087E+03  0.93123267009E+02  0.11250112536E+04  0.11713776481E+04  0.50400001928E-02 0.  1.
</event>
<event>
 5   0  0.3262927E-03  0.1311225E+04  0.7818609E-02  0.9020711E-01
       -2   -1    0    0    0  501  0.00000000000E+00  0.00000000000E+00  0.38875041611E+03  0.38875041612E+03  0.25500000920E-02 0.  1.
        2   -1    0    0  501    0  0.00000000000E+00  0.00000000000E+00 -0.11056654281E+04  0.11056654281E+04  0.25500000920E-02 0. -1.
    10030    2    1    2    0    0  0.00000000000E+00  0.00000000000E+00 -0.71691501202E+03  0.14944158443E+04  0.13112252213E+04 0.  0.
        3    1    3    3  502    0 -0.17557797962E+03 -0.62445352252E+03 -0.24998699691E+03  0.69517144471E+03  0.10100000352E+00 0. -1.
       -3    1    3    3    0  502  0.17557797962E+03  0.62445352252E+03 -0.46692801510E+03  0.79924439954E+03  0.10100000352E+00 0.  1.
</event>
<event>
 5   0  0.1857986E-03  0.1292585E+04  0.7818609E-02  0.9035466E-01
        1   -1    0    0  501    0  0.00000000000E+00  0.00000000000E+00  0.94062808383E+03  0.94062808385E+03  0.50400001928E-02 0.  1.
       -1   -1    0    0    0  501  0.00000000000E+00  0.00000000000E+00 -0.44405876888E+03  0.44405876891E+03  0.50400001928E-02 0. -1.
    10030    2    1    2    0    0  0.00000000000E+00  0.00000000000E+00  0.49656931495E+03  0.13846868528E+04  0.12925852373E+04 0.  0.
        1    1    3    3  502    0  0.18853592461E+03 -0.57830476314E+03  0.48227933719E+03  0.77625740128E+03  0.50400001928E-02 0.  1.
       -1    1    3    3    0  502 -0.18853592461E+03  0.57830476314E+03  0.14289977760E+02  0.60842945148E+03  0.50400001928E-02 0. -1.
</event>
<event>
 5   0  0.3299104E-03  0.1296526E+04  0.7818609E-02  0.9032324E-01
        2   -1    0    0  501    0  0.00000000000E+00  0.00000000000E+00  0.83016509697E+03  0.83016509697E+03  0.25500000920E-02 0.  1.
       -2   -1    0    0    0  501  0.00000000000E+00  0.00000000000E+00 -0.50621879607E+03  0.50621879608E+03  0.25500000920E-02 0. -1.
    10030    2    1    2    0    0  0.00000000000E+00  0.00000000000E+00  0.32394630090E+03  0.13363838930E+04  0.12965263992E+04 0.  0.
        2    1    3    3  502    0  0.15747753407E+03  0.62843498626E+03  0.18537507975E+03  0.67386469406E+03  0.25500000920E-02 0.  1.
       -2    1    3    3    0  502 -0.15747753407E+03 -0.62843498626E+03  0.13857122115E+03  0.66251919899E+03  0.25500000920E-02 0. -1.
</event>
<event>
 5   0  0.3294720E-03  0.1385667E+04  0.7818609E-02  0.8964259E-01
        2   -1    0    0  501    0  0.00000000000E+00  0.00000000000E+00  0.49392130850E+03  0.49392130851E+03  0.25500000920E-02 0. -1.
       -2   -1    0    0    0  501  0.00000000000E+00  0.00000000000E+00 -0.97185136183E+03  0.97185136183E+03  0.25500000920E-02 0.  1.
    10030    2    1    2    0    0  0.00000000000E+00  0.00000000000E+00 -0.47793005333E+03  0.14657726703E+04  0.13856667656E+04 0.  0.
        5    1    3    3  502    0  0.81009873115E+02 -0.60785630091E+03 -0.58000696762E+03  0.84408652080E+03  0.46999998093E+01 0.  1.
       -5    1    3    3    0  502 -0.81009873115E+02  0.60785630091E+03  0.10207691429E+03  0.62168614954E+03  0.46999998093E+01 0. -1.
</event>
<event>
 5   0  0.1857986E-03  0.1020054E+04  0.7818609E-02  0.9286820E-01
        1   -1    0    0  501    0  0.00000000000E+00  0.00000000000E+00  0.62465211989E+03  0.62465211991E+03  0.50400001928E-02 0. -1.
       -1   -1    0    0    0  501  0.00000000000E+00  0.00000000000E+00 -0.41643545448E+03  0.41643545451E+03  0.50400001928E-02 0.  1.
    10030    2    1    2    0    0  0.00000000000E+00  0.00000000000E+00  0.20821666541E+03  0.10410875744E+04  0.10200535074E+04 0.  0.
        1    1    3    3  502    0  0.44326609886E+03 -0.25099645990E+03  0.78223331829E+02  0.51536680816E+03  0.50400001928E-02 0.  1.
       -1    1    3    3    0  502 -0.44326609886E+03  0.25099645990E+03  0.12999333358E+03  0.52572076627E+03  0.50400001928E-02 0. -1.
</event>
<event>
 5   0  0.1803959E-03  0.1303426E+04  0.7818609E-02  0.9026853E-01
        1   -1    0    0  501    0  0.00000000000E+00  0.00000000000E+00  0.12373049204E+04  0.12373049204E+04  0.50400001928E-02 0. -1.
       -1   -1    0    0    0  501  0.00000000000E+00  0.00000000000E+00 -0.34327010429E+03  0.34327010432E+03  0.50400001928E-02 0.  1.
    10030    2    1    2    0    0  0.00000000000E+00  0.00000000000E+00  0.89403481607E+03  0.15805750247E+04  0.13034259305E+04 0.  0.
        4    1    3    3  502    0 -0.28736916657E+03  0.10607028138E+01 -0.26229000781E+03  0.38907560202E+03  0.12699999809E+01 0.  1.
       -4    1    3    3    0  502  0.28736916657E+03 -0.10607028138E+01  0.11563248239E+04  0.11914994227E+04  0.12699999809E+01 0. -1.
</event>
<event>
 5   0  0.1873488E-03  0.1337871E+04  0.7818609E-02  0.9000061E-01
        1   -1    0    0  501    0  0.00000000000E+00  0.00000000000E+00  0.45815210445E+03  0.45815210448E+03  0.50400001928E-02 0.  1.
       -1   -1    0    0    0  501  0.00000000000E+00  0.00000000000E+00 -0.97669467505E+03  0.97669467506E+03  0.50400001928E-02 0. -1.
    10030    2    1    2    0    0  0.00000000000E+00  0.00000000000E+00 -0.51854257060E+03  0.14348467795E+04  0.13378710264E+04 0.  0.
        3    1    3    3  502    0 -0.44157418073E+03 -0.44776169319E+03 -0.14715467526E+02  0.62904280153E+03  0.10100000352E+00 0. -1.
       -3    1    3    3    0  502  0.44157418073E+03  0.44776169319E+03 -0.50382710307E+03  0.80580397800E+03  0.10100000352E+00 0.  1.
</event>
<event>
 5   0  0.1254125E-03  0.1310219E+04  0.7818609E-02  0.9021501E-01
       -3   -1    0    0    0  501  0.00000000000E+00  0.00000000000E+00  0.16684041697E+03  0.16684044754E+03  0.10100000352E+00 0.  1.
        3   -1    0    0  501    0  0.00000000000E+00  0.00000000000E+00 -0.25723276352E+04  0.25723276371E+04  0.10100000352E+00 0. -1.
    10030    2    1    2    0    0  0.00000000000E+00  0.00000000000E+00 -0.24054872182E+04  0.27391680847E+04  0.13102186990E+04 0.  0.
        4    1    3    3  502    0 -0.14466585911E+03 -0.79926858425E+01  0.13292233439E+03  0.19662668613E+03  0.12699999809E+01 0.  1.
       -4    1    3    3    0  502  0.14466585911E+03  0.79926858425E+01 -0.25384095526E+04  0.25425413985E+04  0.12699999809E+01 0. -1.
</event>
<event>
 5   0  0.1814770E-03  0.1317724E+04  0.7818609E-02  0.9015626E-01
       -1   -1    0    0    0  501  0.00000000000E+00  0.00000000000E+00  0.35936165122E+03  0.35936165126E+03  0.50400001928E-02 0.  1.
        1   -1    0    0  501    0  0.00000000000E+00  0.00000000000E+00 -0.12079737804E+04  0.12079737804E+04  0.50400001928E-02 0. -1.
    10030    2    1    2    0    0  0.00000000000E+00  0.00000000000E+00 -0.84861212919E+03  0.15673354317E+04  0.13177244817E+04 0.  0.
        5    1    3    3  502    0 -0.20511252685E+03  0.55167011328E+03 -0.77647713319E+03  0.97434587848E+03  0.46999998093E+01 0. -1.
       -5    1    3    3    0  502  0.20511252685E+03 -0.55167011328E+03 -0.72134995999E+02  0.59298955320E+03  0.46999998093E+01 0.  1.
</event>
<event>
 5   0  0.1873488E-03  0.1298299E+04  0.7818609E-02  0.9030915E-01
        1   -1    0    0  501    0  0.00000000000E+00  0.00000000000E+00  0.90183516079E+03  0.90183516081E+03  0.50400001928E-02 0. -1.
       -1   -1    0    0    0  501  0.00000000000E+00  0.00000000000E+00 -0.46726376625E+03  0.46726376628E+03  0.50400001928E-02 0.  1.
    10030    2    1    2    0    0  0.00000000000E+00  0.00000000000E+00  0.43457139454E+03  0.13690989271E+04  0.12982987234E+04 0.  0.
        3    1    3    3  502    0  0.33062056686E+03  0.53703800537E+03  0.55027682404E+02  0.63304647103E+03  0.10100000352E+00 0.  1.
       -3    1    3    3    0  502 -0.33062056686E+03 -0.53703800537E+03  0.37954371214E+03  0.73605245606E+03  0.10100000352E+00 0. -1.
</event>
<event>
 5   0  0.3294720E-03  0.1299878E+04  0.7818609E-02  0.9029662E-01
        2   -1    0    0  501    0  0.00000000000E+00  0.00000000000E+00  0.12242368309E+04  0.12242368309E+04  0.25500000920E-02 0.  1.
       -2   -1    0    0    0  501  0.00000000000E+00  0.00000000000E+00 -0.34504820588E+03  0.34504820589E+03  0.25500000920E-02 0. -1.
    10030    2    1    2    0    0  0.00000000000E+00  0.00000000000E+00  0.87918862498E+03  0.15692850368E+04  0.12998780282E+04 0.  0.
        5    1    3    3  502    0  0.42588019336E+03 -0.23541695814E+03 -0.80512292061E+02  0.49325389248E+03  0.46999998093E+01 0. -1.
       -5    1    3    3    0  502 -0.42588019336E+03  0.23541695814E+03  0.95970091704E+03  0.10760311443E+04  0.46999998093E+01 0.  1.
</event>
<event>
 5   0  0.1814770E-03  0.1289821E+04  0.7818609E-02  0.9037676E-01
        1   -1    0    0  501    0  0.00000000000E+00  0.00000000000E+00  0.12171772966E+04  0.12171772967E+04  0.50400001928E-02 0.  1.
       -1   -1    0    0    0  501  0.00000000000E+00  0.00000000000E+00 -0.34170028829E+03  0.34170028832E+03  0.50400001928E-02 0. -1.
    10030    2    1    2    0    0  0.00000000000E+00  0.00000000000E+00  0.87547700836E+03  0.15588775850E+04  0.12898214345E+04 0.  0.
        5    1    3    3  502    0 -0.81768877214E+02  0.35693350576E+03  0.10793216817E+04  0.11397565790E+04  0.46999998093E+01 0.  1.
       -5    1    3    3    0  502  0.81768877214E+02 -0.35693350576E+03 -0.20384467332E+03  0.41912100598E+03  0.46999998093E+01 0. -1.
</event>
<event>
 5   0  0.3294720E-03  0.1347912E+04  0.7818609E-02  0.8992410E-01
        2   -1    0    0  501    0  0.00000000000E+00  0.00000000000E+00  0.23066800359E+04  0.23066800359E+04  0.25500000920E-02 0.  1.
       -2   -1    0    0    0  501  0.00000000000E+00  0.00000000000E+00 -0.19691363336E+03  0.19691363338E+03  0.25500000920E-02 0. -1.
    10030    2    1    2    0    0  0.00000000000E+00  0.00000000000E+00  0.21097664025E+04  0.25035936692E+04  0.13479120845E+04 0.  0.
        5    1    3    3  502    0 -0.62748957951E+03  0.58907024579E+01  0.59834084055E+03  0.86707077234E+03  0.46999998093E+01 0. -1.
       -5    1    3    3    0  502  0.62748957951E+03 -0.58907024579E+01  0.15114255619E+04  0.16365228969E+04  0.46999998093E+01 0.  1.
</event>
<event>
 5   0  0.1803959E-03  0.1289554E+04  0.7818609E-02  0.9037890E-01
       -1   -1    0    0    0  501  0.00000000000E+00  0.00000000000E+00  0.29393225139E+03  0.29393225143E+03  0.50400001928E-02 0.  1.
        1   -1    0    0  501    0  0.00000000000E+00  0.00000000000E+00 -0.14143988026E+04  0.14143988026E+04  0.50400001928E-02 0. -1.
    10030    2    1    2    0    0  0.00000000000E+00  0.00000000000E+00 -0.11204665512E+04  0.17083310540E+04  0.12895540694E+04 0.  0.
        4    1    3    3  502    0  0.58802171731E+03 -0.55085870380E+02 -0.90296064798E+03  0.10789548359E+04  0.12699999809E+01 0. -1.
       -4    1    3    3    0  502 -0.58802171731E+03  0.55085870380E+02 -0.21750590321E+03  0.62937621815E+03  0.12699999809E+01 0.  1.
</event>
<event>
 5   0  0.1814770E-03  0.1288725E+04  0.7818609E-02  0.9038554E-01
        1   -1    0    0  501    0  0.00000000000E+00  0.00000000000E+00  0.69870017503E+03  0.69870017504E+03  0.50400001928E-02 0. -1.
       -1   -1    0    0    0  501  0.00000000000E+00  0.00000000000E+00 -0.59425101299E+03  0.59425101301E+03  0.50400001928E-02 0.  1.
    10030    2    1    2    0    0  0.00000000000E+00  0.00000000000E+00  0.10444916203E+03  0.12929511881E+04  0.12887253964E+04 0.  0.
        5    1    3    3  502    0  0.34267120107E+03 -0.47860137924E+03 -0.21073859815E+03  0.62523249996E+03  0.46999998093E+01 0.  1.
       -5    1    3    3    0  502 -0.34267120107E+03  0.47860137924E+03  0.31518776019E+03  0.66771868809E+03  0.46999998093E+01 0. -1.
</event>
<event>
 5   0  0.3262927E-03  0.1310131E+04  0.7818609E-02  0.9021569E-01
       -2   -1    0    0    0  501  0.00000000000E+00  0.00000000000E+00  0.30306611029E+03  0.30306611030E+03  0.25500000920E-02 0. -1.
        2   -1    0    0  501    0  0.00000000000E+00  0.00000000000E+00 -0.14158987469E+04  0.14158987469E+04  0.25500000920E-02 0.  1.
    10030    2    1    2    0    0  0.00000000000E+00  0.00000000000E+00 -0.11128326366E+04  0.17189648572E+04  0.13101311779E+04 0.  0.
        3    1    3    3  502    0 -0.35017668680E+03 -0.32245717337E+02  0.16872131498E+03  0.39003896035E+03  0.10100000352E+00 0. -1.
       -3    1    3    3    0  502  0.35017668680E+03  0.32245717337E+02 -0.12815539516E+04  0.13289258969E+04  0.10100000352E+00 0.  1.
</event>
<event>
 5   0  0.3294720E-03  0.1277261E+04  0.7818609E-02  0.9047794E-01
       -2   -1    0    0    0  501  0.00000000000E+00  0.00000000000E+00  0.14545134982E+03  0.14545134985E+03  0.25500000920E-02 0. -1.
        2   -1    0    0  501    0  0.00000000000E+00  0.00000000000E+00 -0.28040224169E+04  0.28040224169E+04  0.25500000920E-02 0.  1.
    10030    2    1    2    0    0  0.00000000000E+00  0.00000000000E+00 -0.26585710670E+04  0.29494737667E+04  0.12772608903E+04 0.  0.
        5    1    3    3  502    0  0.50419559935E+01 -0.62260355539E+03 -0.10013591286E+04  0.11791534264E+04  0.46999998093E+01 0.  1.
       -5    1    3    3    0  502 -0.50419559935E+01  0.62260355539E+03 -0.16572119385E+04  0.17703203403E+04  0.46999998093E+01 0. -1.
</event>
<event>
 5   0  0.1254125E-03  0.1312817E+04  0.7818609E-02  0.9019462E-01
       -3   -1    0    0    0  501  0.00000000000E+00  0.00000000000E+00  0.10829388776E+04  0.10829388823E+04  0.10100000352E+00 0.  1.
        3   -1    0    0  501    0  0.00000000000E+00  0.00000000000E+00 -0.39787323637E+03  0.39787324919E+03  0.10100000352E+00 0. -1.
    10030    2    1    2    0    0  0.00000000000E+00  0.00000000000E+00  0.68506564126E+03  0.14808121315E+04  0.13128174420E+04 0.  0.
        2    1    3    3  502    0 -0.47641425922E+03  0.16870201010E+03  0.81498927308E+03  0.95897780466E+03  0.25500000920E-02 0.  1.
       -2    1    3    3    0  502  0.47641425922E+03 -0.16870201010E+03 -0.12992363182E+03  0.52183432688E+03  0.25500000920E-02 0. -1.
</event>
<event>
 5   0  0.3259968E-03  0.9916224E+03  0.7818609E-02  0.9317781E-01
       -2   -1    0    0    0  501  0.00000000000E+00  0.00000000000E+00  0.24620266867E+03  0.24620266869E+03  0.25500000920E-02 0.  1.
        2   -1    0    0  501    0  0.00000000000E+00  0.00000000000E+00 -0.99848126903E+03  0.99848126903E+03  0.25500000920E-02 0. -1.
    10030    2    1    2    0    0  0.00000000000E+00  0.00000000000E+00 -0.75227860036E+03  0.12446839377E+04  0.99162241416E+03 0.  0.
        4    1    3    3  502    0  0.14642158294E+03  0.46405156094E+03 -0.25676983626E+03  0.55019586773E+03  0.12699999809E+01 0. -1.
       -4    1    3    3    0  502 -0.14642158294E+03 -0.46405156094E+03 -0.49550876409E+03  0.69448806998E+03  0.12699999809E+01 0.  1.
</event>
<event>
 5   0  0.1857986E-03  0.1302411E+04  0.7818609E-02  0.9027655E-01
        1   -1    0    0  501    0  0.00000000000E+00  0.00000000000E+00  0.11415871457E+04  0.11415871457E+04  0.50400001928E-02 0.  1.
       -1   -1    0    0    0  501  0.00000000000E+00  0.00000000000E+00 -0.37147294378E+03  0.37147294382E+03  0.50400001928E-02 0. -1.
    10030    2    1    2    0    0  0.00000000000E+00  0.00000000000E+00  0.77011420191E+03  0.15130600895E+04  0.13024112064E+04 0.  0.
        1    1    3    3  502    0  0.14153491772E+03 -0.33021341241E+03 -0.24592334310E+03  0.43537492048E+03  0.50400001928E-02 0. -1.
       -1    1    3    3    0  502 -0.14153491772E+03  0.33021341241E+03  0.10160375450E+04  0.10776851690E+04  0.50400001928E-02 0.  1.
</event>
<event>
 5   0  0.1823154E-03  0.1329988E+04  0.7818609E-02  0.9006117E-01
       -1   -1    0    0    0  501  0.00000000000E+00  0.00000000000E+00  0.40716481213E+03  0.40716481216E+03  0.50400001928E-02 0.  1.
        1   -1    0    0  501    0  0.00000000000E+00  0.00000000000E+00 -0.10860881048E+04  0.10860881048E+04  0.50400001928E-02 0. -1.
    10030    2    1    2    0    0  0.00000000000E+00  0.00000000000E+00 -0.67892329267E+03  0.14932529170E+04  0.13299877581E+04 0.  0.
        2    1    3    3  502    0 -0.59931200140E+02  0.61971285832E+03 -0.60176678897E+03  0.86588627650E+03  0.25500000920E-02 0.  1.
       -2    1    3    3    0  502  0.59931200140E+02 -0.61971285832E+03 -0.77156503704E+02  0.62736664048E+03  0.25500000920E-02 0. -1.
</event>
<event>
 5   0  0.1803959E-03  0.1303480E+04  0.7818609E-02  0.9026810E-01
       -1   -1    0    0    0  501  0.00000000000E+00  0.00000000000E+00  0.95759773025E+03  0.95759773026E+03  0.50400001928E-02 0.  1.
        1   -1    0    0  501    0  0.00000000000E+00  0.00000000000E+00 -0.44357334610E+03  0.44357334613E+03  0.50400001928E-02 0. -1.
    10030    2    1    2    0    0  0.00000000000E+00  0.00000000000E+00  0.51402438415E+03  0.14011710764E+04  0.13034796960E+04 0.  0.
        4    1    3    3  502    0  0.14081909770E+02  0.64964287105E+03  0.20295342255E+03  0.68075389438E+03  0.12699999809E+01 0. -1.
       -4    1    3    3    0  502 -0.14081909770E+02 -0.64964287105E+03  0.31107096160E+03  0.72041718201E+03  0.12699999809E+01 0.  1.
</event>
<event>
 5   0  0.1803959E-03  0.1356538E+04  0.7818609E-02  0.8985893E-01
       -1   -1    0    0    0  501  0.00000000000E+00  0.00000000000E+00  0.45315252101E+03  0.45315252104E+03  0.50400001928E-02 0.  1.
        1   -1    0    0  501    0  0.00000000000E+00  0.00000000000E+00 -0.10152189532E+04  0.10152189532E+04  0.50400001928E-02 0. -1.
    10030    2    1    2    0    0  0.00000000000E+00  0.00000000000E+00 -0.56206643218E+03  0.14683714742E+04  0.13565382826E+04 0.  0.
        4    1    3    3  502    0  0.18319060848E+03 -0.23098218985E+03  0.38017367269E+03  0.48108752361E+03  0.12699999809E+01 0.  1.
       -4    1    3    3    0  502 -0.18319060848E+03  0.23098218985E+03 -0.94224010487E+03  0.98728395064E+03  0.12699999809E+01 0. -1.
</event>
<event>
 5   0  0.1857986E-03  0.1330736E+04  0.7818609E-02  0.9005540E-01
        1   -1    0    0  501    0  0.00000000000E+00  0.00000000000E+00  0.11254953611E+04  0.11254953611E+04  0.50400001928E-02 0. -1.
       -1   -1    0    0    0  501  0.00000000000E+00  0.00000000000E+00 -0.39335070301E+03  0.39335070304E+03  0.50400001928E-02 0.  1.
    10030    2    1    2    0    0  0.00000000000E+00  0.00000000000E+00  0.73214465808E+03  0.15188460641E+04  0.13307357237E+04 0.  0.
        1    1    3    3  502    0 -0.47873140310E+03 -0.25022290498E+03 -0.77326044044E+02  0.54568725073E+03  0.50400001928E-02 0.  1.
       -1    1    3    3    0  502  0.47873140310E+03  0.25022290498E+03  0.80947070213E+03  0.97315881341E+03  0.50400001928E-02 0. -1.
</event>
<event>
 5   0  0.1814770E-03  0.1297360E+04  0.7818609E-02  0.9031661E-01
        1   -1    0    0  501    0  0.00000000000E+00  0.00000000000E+00  0.40894970180E+03  0.40894970183E+03  0.50400001928E-02 0.  1.
       -1   -1    0    0    0  501  0.00000000000E+00  0.00000000000E+00 -0.10289427690E+04  0.10289427690E+04  0.50400001928E-02 0. -1.
    10030    2    1    2    0    0  0.00000000000E+00  0.00000000000E+00 -0.61999306717E+03  0.14378924708E+04  0.12973601483E+04 0.  0.
        5    1    3    3  502    0  0.11613500726E+03 -0.63688221403E+03 -0.35511835401E+03  0.73840194326E+03  0.46999998093E+01 0.  1.
       -5    1    3    3    0  502 -0.11613500726E+03  0.63688221403E+03 -0.26487471316E+03  0.69949052755E+03  0.46999998093E+01 0. -1.
</event>
<event>
 5   0  0.3259968E-03  0.1217195E+04  0.7818609E-02  0.9097938E-01
        2   -1    0    0  501    0  0.00000000000E+00  0.00000000000E+00  0.40988193478E+03  0.40988193479E+03  0.25500000920E-02 0. -1.
       -2   -1    0    0    0  501  0.00000000000E+00  0.00000000000E+00 -0.90365214233E+03  0.90365214233E+03  0.25500000920E-02 0.  1.
    10030    2    1    2    0    0  0.00000000000E+00  0.00000000000E+00 -0.49377020755E+03  0.13135340771E+04  0.12171946245E+04 0.  0.
        4    1    3    3  502    0  0.39905172180E+03 -0.29059029737E+03  0.13724347102E+03  0.51236937929E+03  0.12699999809E+01 0. -1.
       -4    1    3    3    0  502 -0.39905172180E+03  0.29059029737E+03 -0.63101367857E+03  0.80116469782E+03  0.12699999809E+01 0.  1.
</event>
<event>
 5   0  0.1814770E-03  0.1324101E+04  0.7818609E-02  0.9010668E-01
        1   -1    0    0  501    0  0.00000000000E+00  0.00000000000E+00  0.47511181448E+03  0.47511181451E+03  0.50400001928E-02 0.  1.
       -1   -1    0    0    0  501  0.00000000000E+00  0.00000000000E+00 -0.92254306079E+03  0.92254306080E+03  0.50400001928E-02 0. -1.
    10030    2    1    2    0    0  0.00000000000E+00  0.00000000000E+00 -0.44743124631E+03  0.13976548753E+04  0.13241013671E+04 0.  0.
        5    1    3    3  502    0 -0.62753515646E+03 -0.20915364582E+03 -0.25249552028E+03  0.70804074594E+03  0.46999998093E+01 0. -1.
       -5    1    3    3    0  502  0.62753515646E+03  0.20915364582E+03 -0.19493572603E+03  0.68961412937E+03  0.46999998093E+01 0.  1.
</event>
<event>
 5   0  0.3259968E-03  0.1328414E+04  0.7818609E-02  0.9007331E-01
        2   -1    0    0  501    0  0.00000000000E+00  0.00000000000E+00  0.92937958475E+03  0.92937958476E+03  0.25500000920E-02 0. -1.
       -2   -1    0    0    0  501  0.00000000000E+00  0.00000000000E+00 -0.47469419387E+03  0.47469419387E+03  0.25500000920E-02 0.  1.
    10030    2    1    2    0    0  0.00000000000E+00  0.00000000000E+00  0.45468539089E+03  0.14040737786E+04  0.13284142318E+04 0.  0.
        4    1    3    3  502    0 -0.28193112303E+03 -0.56669528188E+02  0.86016906183E+03  0.90696693512E+03  0.12699999809E+01 0. -1.
       -4    1    3    3    0  502  0.28193112303E+03  0.56669528188E+02 -0.40548367095E+03  0.49710684351E+03  0.12699999809E+01 0.  1.
</event>
<event>
 5   0  0.1857986E-03  0.1301323E+04  0.7818609E-02  0.9028517E-01
       -1   -1    0    0    0  501  0.00000000000E+00  0.00000000000E+00  0.18496596128E+03  0.18496596135E+03  0.50400001928E-02 0. -1.
        1   -1    0    0  501    0  0.00000000000E+00  0.00000000000E+00 -0.22888555480E+04  0.22888555480E+04  0.50400001928E-02 0.  1.
    10030    2    1    2    0    0  0.00000000000E+00  0.00000000000E+00 -0.21038895867E+04  0.24738215093E+04  0.13013229680E+04 0.  0.
        1    1    3    3  502    0  0.58277969877E+03  0.25619430019E+03 -0.79624251542E+03  0.10194458495E+04  0.50400001928E-02 0.  1.
       -1    1    3    3    0  502 -0.58277969877E+03 -0.25619430019E+03 -0.13076470713E+04  0.14543756598E+04  0.50400001928E-02 0. -1.
</event>
<event>
 5   0  0.1254125E-03  0.1285944E+04  0.7818609E-02  0.9040787E-01
       -3   -1    0    0    0  501  0.00000000000E+00  0.00000000000E+00  0.45066936173E+03  0.45066937305E+03  0.10100000352E+00 0. -1.
        3   -1    0    0  501    0  0.00000000000E+00  0.00000000000E+00 -0.91733046593E+03  0.91733047149E+03  0.10100000352E+00 0.  1.
    10030    2    1    2    0    0  0.00000000000E+00  0.00000000000E+00 -0.46666110419E+03  0.13679998445E+04  0.12859436179E+04 0.  0.
        5    1    3    3  502    0  0.32716676408E+03  0.10739027872E+03  0.34428983496E+03  0.48695825687E+03  0.46999998093E+01 0.  1.
       -5    1    3    3    0  502 -0.32716676408E+03 -0.10739027872E+03 -0.81095093915E+03  0.88104158767E+03  0.46999998093E+01 0. -1.
</event>
<event>
 5   0  0.3336609E-03  0.1314239E+04  0.7818609E-02  0.9018349E-01
       -2   -1    0    0    0  501  0.00000000000E+00  0.00000000000E+00  0.38587878327E+03  0.38587878328E+03  0.25500000920E-02 0. -1.
        2   -1    0    0  501    0  0.00000000000E+00  0.00000000000E+00 -0.11190198229E+04  0.11190198229E+04  0.25500000920E-02 0.  1.
    10030    2    1    2    0    0  0.00000000000E+00  0.00000000000E+00 -0.73314103966E+03  0.15048986062E+04  0.13142389550E+04 0.  0.
        1    1    3    3  502    0  0.59505327056E+03  0.17473687528E+03 -0.61530340914E+03  0.87362443631E+03  0.50400001928E-02 0.  1.
       -1    1    3    3    0  502 -0.59505327056E+03 -0.17473687528E+03 -0.11783763051E+03  0.63127416990E+03  0.50400001928E-02 0. -1.
</event>
<event>
 5   0  0.1873488E-03  0.1284928E+04  0.7818609E-02  0.9041603E-01
       -1   -1    0    0    0  501  0.00000000000E+00  0.00000000000E+00  0.37432850073E+03  0.37432850076E+03  0.50400001928E-02 0.  1.
        1   -1    0    0  501    0  0.00000000000E+00  0.00000000000E+00 -0.11026686572E+04  0.11026686572E+04  0.50400001928E-02 0. -1.
    10030    2    1    2    0    0  0.00000000000E+00  0.00000000000E+00 -0.72834015646E+03  0.14769971580E+04  0.12849284887E+04 0.  0.
        3    1    3    3  502    0  0.34537034705E+03  0.38484568778E+03  0.74101389186E+02  0.52237716844E+03  0.10100000352E+00 0.  1.
       -3    1    3    3    0  502 -0.34537034705E+03 -0.38484568778E+03 -0.80244154564E+03  0.95461998952E+03  0.10100000352E+00 0. -1.
</event>
<event>
 5   0  0.3299104E-03  0.1318323E+04  0.7818609E-02  0.9015160E-01
       -2   -1    0    0    0  501  0.00000000000E+00  0.00000000000E+00  0.21255330834E+03  0.21255330835E+03  0.25500000920E-02 0. -1.
        2   -1    0    0  501    0  0.00000000000E+00  0.00000000000E+00 -0.20441637429E+04  0.20441637429E+04  0.25500000920E-02 0.  1.
    10030    2    1    2    0    0  0.00000000000E+00  0.00000000000E+00 -0.18316104346E+04  0.22567170512E+04  0.13183228229E+04 0.  0.
        2    1    3    3  502    0 -0.44011398914E+03  0.10936920650E+03 -0.96937883443E+02  0.46374443395E+03  0.25500000920E-02 0. -1.
       -2    1    3    3    0  502  0.44011398914E+03 -0.10936920650E+03 -0.17346725511E+04  0.17929726173E+04  0.25500000920E-02 0.  1.
</event>
<event>
 5   0  0.1857986E-03  0.1290639E+04  0.7818609E-02  0.9037022E-01
       -1   -1    0    0    0  501  0.00000000000E+00  0.00000000000E+00  0.13903869085E+04  0.13903869085E+04  0.50400001928E-02 0.  1.
        1   -1    0    0  501    0  0.00000000000E+00  0.00000000000E+00 -0.29951170386E+03  0.29951170391E+03  0.50400001928E-02 0. -1.
    10030    2    1    2    0    0  0.00000000000E+00  0.00000000000E+00  0.10908752046E+04  0.16898986124E+04  0.12906388372E+04 0.  0.
        1    1    3    3  502    0  0.55652792631E+03 -0.27132972823E+03  0.30724375631E+03  0.69118874412E+03  0.50400001928E-02 0. -1.
       -1    1    3    3    0  502 -0.55652792631E+03  0.27132972823E+03  0.78363144832E+03  0.99870986828E+03  0.50400001928E-02 0.  1.
</event>
<event>
 5   0  0.1873488E-03  0.1283741E+04  0.7818609E-02  0.9042559E-01
       -1   -1    0    0    0  501  0.00000000000E+00  0.00000000000E+00  0.92348289663E+03  0.92348289664E+03  0.50400001928E-02 0.  1.
        1   -1    0    0  501    0  0.00000000000E+00  0.00000000000E+00 -0.44613433485E+03  0.44613433488E+03  0.50400001928E-02 0. -1.
    10030    2    1    2    0    0  0.00000000000E+00  0.00000000000E+00  0.47734856178E+03  0.13696172315E+04  0.12837405156E+04 0.  0.
        3    1    3    3  502    0 -0.32304571648E+03  0.46708578765E+02  0.82832813351E+03  0.89031889412E+03  0.10100000352E+00 0.  1.
       -3    1    3    3    0  502  0.32304571648E+03 -0.46708578765E+02 -0.35097957172E+03  0.47929833740E+03  0.10100000352E+00 0. -1.
</event>
<event>
 5   0  0.1857986E-03  0.1307564E+04  0.7818609E-02  0.9023588E-01
        1   -1    0    0  501    0  0.00000000000E+00  0.00000000000E+00  0.16632524841E+04  0.16632524841E+04  0.50400001928E-02 0.  1.
       -1   -1    0    0    0  501  0.00000000000E+00  0.00000000000E+00 -0.25698485965E+03  0.25698485970E+03  0.50400001928E-02 0. -1.
    10030    2    1    2    0    0  0.00000000000E+00  0.00000000000E+00  0.14062676245E+04  0.19202373438E+04  0.13075636983E+04 0.  0.
        1    1    3    3  502    0  0.46073696718E+02  0.93767076418E+02 -0.24464658446E+03  0.26602067863E+03  0.50400001928E-02 0. -1.
       -1    1    3    3    0  502 -0.46073696718E+02 -0.93767076418E+02  0.16509142089E+04  0.16542166652E+04  0.50400001928E-02 0.  1.
</event>
<event>
 5   0  0.3294720E-03  0.1119147E+04  0.7818609E-02  0.9186728E-01
        2   -1    0    0  501    0  0.00000000000E+00  0.00000000000E+00  0.12084504867E+04  0.12084504867E+04  0.25500000920E-02 0.  1.
       -2   -1    0    0    0  501  0.00000000000E+00  0.00000000000E+00 -0.25911092862E+03  0.25911092864E+03  0.25500000920E-02 0. -1.
    10030    2    1    2    0    0  0.00000000000E+00  0.00000000000E+00  0.94933955808E+03  0.14675614153E+04  0.11191474037E+04 0.  0.
        5    1    3    3  502    0 -0.74297974420E+02 -0.51549925814E+03  0.74290131264E+03  0.90729494899E+03  0.46999998093E+01 0.  1.
       -5    1    3    3    0  502  0.74297974420E+02  0.51549925814E+03  0.20643824544E+03  0.56026646635E+03  0.46999998093E+01 0. -1.
</event>
<event>
 5   0  0.3262927E-03  0.1238044E+04  0.7818609E-02  0.9080194E-01
       -2   -1    0    0    0  501  0.00000000000E+00  0.00000000000E+00  0.59255668092E+03  0.59255668092E+03  0.25500000920E-02 0.  1.
        2   -1    0    0  501    0  0.00000000000E+00  0.00000000000E+00 -0.64666887555E+03  0.64666887555E+03  0.25500000920E-02 0. -1.
    10030    2    1    2    0    0  0.00000000000E+00  0.00000000000E+00 -0.54112194626E+02  0.12392255565E+04  0.12380435575E+04 0.  0.
        3    1    3    3  502    0  0.55718663748E+03 -0.25384081727E+03  0.64112378670E+02  0.61563180295E+03  0.10100000352E+00 0.  1.
       -3    1    3    3    0  502 -0.55718663748E+03  0.25384081727E+03 -0.11822457330E+03  0.62359375353E+03  0.10100000352E+00 0. -1.
</event>
<event>
 5   0  0.3336609E-03  0.1294864E+04  0.7818609E-02  0.9033648E-01
        2   -1    0    0  501    0  0.00000000000E+00  0.00000000000E+00  0.48772189450E+03  0.48772189451E+03  0.25500000920E-02 0.  1.
       -2   -1    0    0    0  501  0.00000000000E+00  0.00000000000E+00 -0.85944125801E+03  0.85944125801E+03  0.25500000920E-02 0. -1.
    10030    2    1    2    0    0  0.00000000000E+00  0.00000000000E+00 -0.37171936351E+03  0.13471631525E+04  0.12948641914E+04 0.  0.
        1    1    3    3  502    0  0.24728925367E+03  0.54498766345E+03  0.71107667014E+02  0.60267721761E+03  0.50400001928E-02 0.  1.
       -1    1    3    3    0  502 -0.24728925367E+03 -0.54498766345E+03 -0.44282703052E+03  0.74448593491E+03  0.50400001928E-02 0. -1.
</event>
<event>
 5   0  0.1823154E-03  0.1273467E+04  0.7818609E-02  0.9050874E-01
       -1   -1    0    0    0  501  0.00000000000E+00  0.00000000000E+00  0.33336246070E+03  0.33336246073E+03  0.50400001928E-02 0.  1.
        1   -1    0    0  501    0  0.00000000000E+00  0.00000000000E+00 -0.12161832513E+04  0.12161832513E+04  0.50400001928E-02 0. -1.
    10030    2    1    2    0    0  0.00000000000E+00  0.00000000000E+00 -0.88282079058E+03  0.15495457120E+04  0.12734674575E+04 0.  0.
        2    1    3    3  502    0  0.61478102271E+03  0.47742207022E+02 -0.63455035936E+03  0.88481025242E+03  0.25500000920E-02 0. -1.
       -2    1    3    3    0  502 -0.61478102271E+03 -0.47742207022E+02 -0.24827043121E+03  0.66473545959E+03  0.25500000920E-02 0.  1.
</event>
<event>
 5   0  0.1857986E-03  0.1293705E+04  0.7818609E-02  0.9034572E-01
        1   -1    0    0  501    0  0.00000000000E+00  0.00000000000E+00  0.24197577781E+04  0.24197577781E+04  0.50400001928E-02 0. -1.
       -1   -1    0    0    0  501  0.00000000000E+00  0.00000000000E+00 -0.17291745558E+03  0.17291745565E+03  0.50400001928E-02 0.  1.
    10030    2    1    2    0    0  0.00000000000E+00  0.00000000000E+00  0.22468403225E+04  0.25926752337E+04  0.12937053114E+04 0.  0.
        1    1    3    3  502    0 -0.50479014205E+03 -0.37336565346E+03  0.81163848795E+03  0.10261442559E+04  0.50400001928E-02 0.  1.
       -1    1    3    3    0  502  0.50479014205E+03  0.37336565346E+03  0.14352018346E+04  0.15665309779E+04  0.50400001928E-02 0. -1.
</event>
<event>
 5   0  0.3294720E-03  0.1353466E+04  0.7818609E-02  0.8988209E-01
       -2   -1    0    0    0  501  0.00000000000E+00  0.00000000000E+00  0.54670808695E+03  0.54670808696E+03  0.25500000920E-02 0.  1.
        2   -1    0    0  501    0  0.00000000000E+00  0.00000000000E+00 -0.83768180053E+03  0.83768180054E+03  0.25500000920E-02 0. -1.
    10030    2    1    2    0    0  0.00000000000E+00  0.00000000000E+00 -0.29097371358E+03  0.13843898875E+04  0.13534657951E+04 0.  0.
        5    1    3    3  502    0  0.10856965864E+02  0.46205192654E+03 -0.65108374315E+03  0.79846226405E+03  0.46999998093E+01 0. -1.
       -5    1    3    3    0  502 -0.10856965864E+02 -0.46205192654E+03  0.36011002956E+03  0.58592762344E+03  0.46999998093E+01 0.  1.
</event>
<event>
 5   0  0.1873488E-03  0.1284712E+04  0.7818609E-02  0.9041777E-01
       -1   -1    0    0    0  501  0.00000000000E+00  0.00000000000E+00  0.54420552939E+03  0.54420552942E+03  0.50400001928E-02 0. -1.
        1   -1    0    0  501    0  0.00000000000E+00  0.00000000000E+00 -0.75820856750E+03  0.75820856751E+03  0.50400001928E-02 0.  1.
    10030    2    1    2    0    0  0.00000000000E+00  0.00000000000E+00 -0.21400303810E+03  0.13024140969E+04  0.12847120999E+04 0.  0.
        3    1    3    3  502    0  0.20635420019E+03  0.32610283751E+03 -0.62759075394E+03  0.73674641581E+03  0.10100000352E+00 0.  1.
       -3    1    3    3    0  502 -0.20635420019E+03 -0.32610283751E+03  0.41358771584E+03  0.56566768112E+03  0.10100000352E+00 0. -1.
</event>
<event>
 5   0  0.1803959E-03  0.1303920E+04  0.7818609E-02  0.9026462E-01
       -1   -1    0    0    0  501  0.00000000000E+00  0.00000000000E+00  0.32632717322E+03  0.32632717326E+03  0.50400001928E-02 0. -1.
        1   -1    0    0  501    0  0.00000000000E+00  0.00000000000E+00 -0.13025328140E+04  0.13025328140E+04  0.50400001928E-02 0.  1.
    10030    2    1    2    0    0  0.00000000000E+00  0.00000000000E+00 -0.97620564075E+03  0.16288599872E+04  0.13039200148E+04 0.  0.
        4    1    3    3  502    0 -0.38933272612E+03  0.11046721438E+03  0.15041834817E+03  0.43175255581E+03  0.12699999809E+01 0. -1.
       -4    1    3    3    0  502  0.38933272612E+03 -0.11046721438E+03 -0.11266239889E+04  0.11971074314E+04  0.12699999809E+01 0.  1.
</event>
<event>
 5   0  0.3294720E-03  0.1317813E+04  0.7818609E-02  0.9015558E-01
       -2   -1    0    0    0  501  0.00000000000E+00  0.00000000000E+00  0.49104201874E+03  0.49104201875E+03  0.25500000920E-02 0.  1.
        2   -1    0    0  501    0  0.00000000000E+00  0.00000000000E+00 -0.88415549707E+03  0.88415549708E+03  0.25500000920E-02 0. -1.
    10030    2    1    2    0    0  0.00000000000E+00  0.00000000000E+00 -0.39311347833E+03  0.13751975158E+04  0.13178125818E+04 0.  0.
        5    1    3    3  502    0  0.84815734474E+02 -0.64930959763E+03 -0.12030826953E+03  0.66580239719E+03  0.46999998093E+01 0.  1.
       -5    1    3    3    0  502 -0.84815734474E+02  0.64930959763E+03 -0.27280520880E+03  0.70939511863E+03  0.46999998093E+01 0. -1.
</event>
<event>
 5   0  0.1814770E-03  0.1318046E+04  0.7818609E-02  0.9015376E-01
        1   -1    0    0  501    0  0.00000000000E+00  0.00000000000E+00  0.89880298111E+03  0.89880298112E+03  0.50400001928E-02 0.  1.
       -1   -1    0    0    0  501  0.00000000000E+00  0.00000000000E+00 -0.48321044528E+03  0.48321044531E+03  0.50400001928E-02 0. -1.
    10030    2    1    2    0    0  0.00000000000E+00  0.00000000000E+00  0.41559253583E+03  0.13820134264E+04  0.13180455057E+04 0.  0.
        5    1    3    3  502    0  0.41989169892E+03  0.22391691440E+03 -0.27022536169E+03  0.54725831147E+03  0.46999998093E+01 0. -1.
       -5    1    3    3    0  502 -0.41989169892E+03 -0.22391691440E+03  0.68581789752E+03  0.83475511495E+03  0.46999998093E+01 0.  1.
</event>
<event>
 5   0  0.3294720E-03  0.1272796E+04  0.7818609E-02  0.9051421E-01
       -2   -1    0    0    0  501  0.00000000000E+00  0.00000000000E+00  0.46592639687E+03  0.46592639687E+03  0.25500000920E-02 0. -1.
        2   -1    0    0  501    0  0.00000000000E+00  0.00000000000E+00 -0.86924124016E+03  0.86924124016E+03  0.25500000920E-02 0.  1.
    10030    2    1    2    0    0  0.00000000000E+00  0.00000000000E+00 -0.40331484329E+03  0.13351676370E+04  0.12727960387E+04 0.  0.
        5    1    3    3  502    0 -0.64651669829E+02 -0.56572633014E+03  0.96440962733E+02  0.57753707094E+03  0.46999998093E+01 0. -1.
       -5    1    3    3    0  502  0.64651669829E+02  0.56572633014E+03 -0.49975580603E+03  0.75763056609E+03  0.46999998093E+01 0.  1.
</event>
<event>
 5   0  0.3259968E-03  0.1310110E+04  0.7818609E-02  0.9021586E-01
       -2   -1    0    0    0  501  0.00000000000E+00  0.00000000000E+00  0.10463088391E+04  0.10463088391E+04  0.25500000920E-02 0.  1.
        2   -1    0    0  501    0  0.00000000000E+00  0.00000000000E+00 -0.41010530341E+03  0.41010530342E+03  0.25500000920E-02 0. -1.
    10030    2    1    2    0    0  0.00000000000E+00  0.00000000000E+00  0.63620353571E+03  0.14564141425E+04  0.13101096197E+04 0.  0.
        4    1    3    3  502    0 -0.17798115701E+03 -0.48163865185E+03  0.77027024185E+03  0.92572725011E+03  0.12699999809E+01 0.  1.
       -4    1    3    3    0  502  0.17798115701E+03  0.48163865185E+03 -0.13406670614E+03  0.53068689243E+03  0.12699999809E+01 0. -1.
</event>
<event>
 5   0  0.3336609E-03  0.1292015E+04  0.7818609E-02  0.9035921E-01
       -2   -1    0    0    0  501  0.00000000000E+00  0.00000000000E+00  0.39997575787E+03  0.39997575788E+03  0.25500000920E-02 0.  1.
        2   -1    0    0  501    0  0.00000000000E+00  0.00000000000E+00 -0.10433780120E+04  0.10433780120E+04  0.25500000920E-02 0. -1.
    10030    2    1    2    0    0  0.00000000000E+00  0.00000000000E+00 -0.64340225408E+03  0.14433537698E+04  0.12920153421E+04 0.  0.
        1    1    3    3  502    0 -0.55751003523E+03 -0.24255326618E+03 -0.77775866219E+02  0.61294258435E+03  0.50400001928E-02 0.  1.
       -1    1    3    3    0  502  0.55751003523E+03  0.24255326618E+03 -0.56562638787E+03  0.83041118549E+03  0.50400001928E-02 0. -1.
</event>
<event>
 5   0  0.3336609E-03  0.1581615E+04  0.7818609E-02  0.8831923E-01
        2   -1    0    0  501    0  0.00000000000E+00  0.00000000000E+00  0.10710525979E+04  0.10710525979E+04  0.25500000920E-02 0. -1.
       -2   -1    0    0    0  501  0.00000000000E+00  0.00000000000E+00 -0.58388944841E+03  0.58388944841E+03  0.25500000920E-02 0.  1.
    10030    2    1    2    0    0  0.00000000000E+00  0.00000000000E+00  0.48716314946E+03  0.16549420463E+04  0.15816147579E+04 0.  0.
        1    1    3    3  502    0 -0.51589707042E+03  0.57123940479E+03  0.43340930369E+03  0.88335036617E+03  0.50400001928E-02 0. -1.
       -1    1    3    3    0  502  0.51589707042E+03 -0.57123940479E+03  0.53753845770E+02  0.77159168011E+03  0.50400001928E-02 0.  1.
</event>
<event>
 5   0  0.1823154E-03  0.1363242E+04  0.7818609E-02  0.8980864E-01
        1   -1    0    0  501    0  0.00000000000E+00  0.00000000000E+00  0.10226846689E+04  0.10226846689E+04  0.50400001928E-02 0. -1.
       -1   -1    0    0    0  501  0.00000000000E+00  0.00000000000E+00 -0.45430154298E+03  0.45430154300E+03  0.50400001928E-02 0.  1.
    10030    2    1    2    0    0  0.00000000000E+00  0.00000000000E+00  0.56838312596E+03  0.14769862120E+04  0.13632420520E+04 0.  0.
        2    1    3    3  502    0  0.59809129333E+03  0.27080180914E+03  0.48267171479E+03  0.81487348665E+03  0.25500000920E-02 0. -1.
       -2    1    3    3    0  502 -0.59809129333E+03 -0.27080180914E+03  0.85711411170E+02  0.66211272530E+03  0.25500000920E-02 0.  1.
</event>
<event>
 5   0  0.3336609E-03  0.1320842E+04  0.7818609E-02  0.9013199E-01
       -2   -1    0    0    0  501  0.00000000000E+00  0.00000000000E+00  0.31678578887E+03  0.31678578888E+03  0.25500000920E-02 0. -1.
        2   -1    0    0  501    0  0.00000000000E+00  0.00000000000E+00 -0.13768157789E+04  0.13768157789E+04  0.25500000920E-02 0.  1.
    10030    2    1    2    0    0  0.00000000000E+00  0.00000000000E+00 -0.10600299900E+04  0.16936015677E+04  0.13208416599E+04 0.  0.
        1    1    3    3  502    0  0.47404727863E+03 -0.34050383341E+03 -0.13378809198E+03  0.59880124960E+03  0.50400001928E-02 0. -1.
       -1    1    3    3    0  502 -0.47404727863E+03  0.34050383341E+03 -0.92624189801E+03  0.10948003181E+04  0.50400001928E-02 0.  1.
</event>
<event>
 5   0  0.1814770E-03  0.1296377E+04  0.7818609E-02  0.9032443E-01
        1   -1    0    0  501    0  0.00000000000E+00  0.00000000000E+00  0.73682228532E+03  0.73682228534E+03  0.50400001928E-02 0. -1.
       -1   -1    0    0    0  501  0.00000000000E+00  0.00000000000E+00 -0.57021628290E+03  0.57021628292E+03  0.50400001928E-02 0.  1.
    10030    2    1    2    0    0  0.00000000000E+00  0.00000000000E+00  0.16660600242E+03  0.13070385683E+04  0.12963765884E+04 0.  0.
        5    1    3    3  502    0 -0.52483524125E+02 -0.64555083165E+03  0.10872102084E+03  0.65675927623E+03  0.46999998093E+01 0. -1.
       -5    1    3    3    0  502  0.52483524125E+02  0.64555083165E+03  0.57884981587E+02  0.65027929202E+03  0.46999998093E+01 0.  1.
</event>
<event>
 5   0  0.1873488E-03  0.1302391E+04  0.7818609E-02  0.9027671E-01
        1   -1    0    0  501    0  0.00000000000E+00  0.00000000000E+00  0.86396711495E+03  0.86396711497E+03  0.50400001928E-02 0. -1.
       -1   -1    0    0    0  501  0.00000000000E+00  0.00000000000E+00 -0.49082391513E+03  0.49082391516E+03  0.50400001928E-02 0.  1.
    10030    2    1    2    0    0  0.00000000000E+00  0.00000000000E+00  0.37314319982E+03  0.13547910301E+04  0.13023912192E+04 0.  0.
        3    1    3    3  502    0 -0.26437986027E+03  0.11130182697E+03  0.79470435653E+03  0.84489042585E+03  0.10100000352E+00 0. -1.
       -3    1    3    3    0  502  0.26437986027E+03 -0.11130182697E+03 -0.42156115670E+03  0.50990060428E+03  0.10100000352E+00 0.  1.
</event>
<event>
 5   0  0.3259968E-03  0.9792145E+03  0.7818609E-02  0.9331640E-01
        2   -1    0    0  501    0  0.00000000000E+00  0.00000000000E+00  0.11821697878E+04  0.11821697878E+04  0.25500000920E-02 0.  1.
       -2   -1    0    0    0  501  0.00000000000E+00  0.00000000000E+00 -0.20277566764E+03  0.20277566765E+03  0.25500000920E-02 0. -1.
    10030    2    1    2    0    0  0.00000000000E+00  0.00000000000E+00  0.97939412016E+03  0.13849454555E+04  0.97921451786E+03 0.  0.
        4    1    3    3  502    0 -0.20654217186E+03 -0.42672909963E+03  0.66266529597E+03  0.81479095516E+03  0.12699999809E+01 0.  1.
       -4    1    3    3    0  502  0.20654217186E+03  0.42672909963E+03  0.31672882418E+03  0.57015450029E+03  0.12699999809E+01 0. -1.
</event>
<event>
 5   0  0.1803959E-03  0.1289898E+04  0.7818609E-02  0.9037615E-01
       -1   -1    0    0    0  501  0.00000000000E+00  0.00000000000E+00  0.87262092003E+03  0.87262092005E+03  0.50400001928E-02 0.  1.
        1   -1    0    0  501    0  0.00000000000E+00  0.00000000000E+00 -0.47667801832E+03  0.47667801834E+03  0.50400001928E-02 0. -1.
    10030    2    1    2    0    0  0.00000000000E+00  0.00000000000E+00  0.39594290172E+03  0.13492989384E+04  0.12898979974E+04 0.  0.
        4    1    3    3  502    0 -0.29277616920E+03 -0.34511853698E+03 -0.28268057275E+03  0.53360529320E+03  0.12699999809E+01 0. -1.
       -4    1    3    3    0  502  0.29277616920E+03  0.34511853698E+03  0.67862347447E+03  0.81569364520E+03  0.12699999809E+01 0.  1.
</event>
<event>
 5   0  0.3262927E-03  0.1372460E+04  0.7818609E-02  0.8973999E-01
        2   -1    0    0  501    0  0.00000000000E+00  0.00000000000E+00  0.10052452971E+04  0.10052452972E+04  0.25500000920E-02 0. -1.
       -2   -1    0    0    0  501  0.00000000000E+00  0.00000000000E+00 -0.46845415517E+03  0.46845415517E+03  0.25500000920E-02 0.  1.
    10030    2    1    2    0    0  0.00000000000E+00  0.00000000000E+00  0.53679114198E+03  0.14736994523E+04  0.13724595971E+04 0.  0.
        3    1    3    3  502    0  0.36130305105E+03 -0.33938422728E+03 -0.24115077304E+03  0.55124881312E+03  0.10100000352E+00 0.  1.
       -3    1    3    3    0  502 -0.36130305105E+03  0.33938422728E+03  0.77794191502E+03  0.92245063921E+03  0.10100000352E+00 0. -1.
</event>
<event>
 5   0  0.3262927E-03  0.1239377E+04  0.7818609E-02  0.9079072E-01
       -2   -1    0    0    0  501  0.00000000000E+00  0.00000000000E+00  0.32670505499E+03  0.32670505500E+03  0.25500000920E-02 0.  1.
        2   -1    0    0  501    0  0.00000000000E+00  0.00000000000E+00 -0.11754138761E+04  0.11754138761E+04  0.25500000920E-02 0. -1.
    10030    2    1    2    0    0  0.00000000000E+00  0.00000000000E+00 -0.84870882110E+03  0.15021189311E+04  0.12393767063E+04 0.  0.
        3    1    3    3  502    0  0.47469059550E+03  0.39825495107E+03 -0.41382487417E+03  0.74511019600E+03  0.10100000352E+00 0.  1.
       -3    1    3    3    0  502 -0.47469059550E+03 -0.39825495107E+03 -0.43488394693E+03  0.75700873510E+03  0.10100000352E+00 0. -1.
</event>
<event>
 5   0  0.3262927E-03  0.9327967E+03  0.7818609E-02  0.9385488E-01
       -2   -1    0    0    0  501  0.00000000000E+00  0.00000000000E+00  0.24439933523E+03  0.24439933525E+03  0.25500000920E-02 0. -1.
        2   -1    0    0  501    0  0.00000000000E+00  0.00000000000E+00 -0.89004913075E+03  0.89004913076E+03  0.25500000920E-02 0.  1.
    10030    2    1    2    0    0  0.00000000000E+00  0.00000000000E+00 -0.64564979552E+03  0.11344484660E+04  0.93279668930E+03 0.  0.
        3    1    3    3  502    0  0.41138463941E+03 -0.18081045000E+03 -0.47471433565E+03  0.65366922143E+03  0.10100000352E+00 0.  1.
       -3    1    3    3    0  502 -0.41138463941E+03  0.18081045000E+03 -0.17093545986E+03  0.48077924457E+03  0.10100000352E+00 0. -1.
</event>
<event>
 5   0  0.1823154E-03  0.1337142E+04  0.7818609E-02  0.9000619E-01
        1   -1    0    0  501    0  0.00000000000E+00  0.00000000000E+00  0.16915988877E+04  0.16915988877E+04  0.50400001928E-02 0. -1.
       -1   -1    0    0    0  501  0.00000000000E+00  0.00000000000E+00 -0.26423947811E+03  0.26423947816E+03  0.50400001928E-02 0.  1.
    10030    2    1    2    0    0  0.00000000000E+00  0.00000000000E+00  0.14273594095E+04  0.19558383658E+04  0.13371420378E+04 0.  0.
        2    1    3    3  502    0 -0.52848539866E+01  0.76384705720E+02 -0.25780526076E+03  0.26893513238E+03  0.25500000920E-02 0.  1.
       -2    1    3    3    0  502  0.52848539866E+01 -0.76384705720E+02  0.16851646703E+04  0.16869032334E+04  0.25500000920E-02 0. -1.
</event>
<event>
 5   0  0.3294720E-03  0.1456329E+04  0.7818609E-02  0.8914025E-01
        2   -1    0    0  501    0  0.00000000000E+00  0.00000000000E+00  0.69857503576E+03  0.69857503577E+03  0.25500000920E-02 0.  1.
       -2   -1    0    0    0  501  0.00000000000E+00  0.00000000000E+00 -0.75900688868E+03  0.75900688868E+03  0.25500000920E-02 0. -1.
    10030    2    1    2    0    0  0.00000000000E+00  0.00000000000E+00 -0.60431852918E+02  0.14575819245E+04  0.14563286228E+04 0.  0.
        5    1    3    3  502    0  0.69486916422E+03  0.91321799512E+02  0.16748469176E+03  0.72059422592E+03  0.46999998093E+01 0.  1.
       -5    1    3    3    0  502 -0.69486916422E+03 -0.91321799512E+02 -0.22791654468E+03  0.73698769853E+03  0.46999998093E+01 0. -1.
</event>
<event>
 5   0  0.3294720E-03  0.8834912E+03  0.7818609E-02  0.9446457E-01
       -2   -1    0    0    0  501  0.00000000000E+00  0.00000000000E+00  0.30341697225E+03  0.30341697226E+03  0.25500000920E-02 0. -1.
        2   -1    0    0  501    0  0.00000000000E+00  0.00000000000E+00 -0.64313864570E+03  0.64313864570E+03  0.25500000920E-02 0.  1.
    10030    2    1    2    0    0  0.00000000000E+00  0.00000000000E+00 -0.33972167345E+03  0.94655561796E+03  0.88349121246E+03 0.  0.
        5    1    3    3  502    0  0.23414101159E+03  0.61917168798E+02  0.22591449488E+03  0.33123284574E+03  0.46999998093E+01 0. -1.
       -5    1    3    3    0  502 -0.23414101159E+03 -0.61917168798E+02 -0.56563616833E+03  0.61532277223E+03  0.46999998093E+01 0.  1.
</event>
<event>
 5   0  0.3259968E-03  0.1192329E+04  0.7818609E-02  0.9119598E-01
       -2   -1    0    0    0  501  0.00000000000E+00  0.00000000000E+00  0.42959669766E+03  0.42959669767E+03  0.25500000920E-02 0.  1.
        2   -1    0    0  501    0  0.00000000000E+00  0.00000000000E+00 -0.82731542070E+03  0.82731542071E+03  0.25500000920E-02 0. -1.
    10030    2    1    2    0    0  0.00000000000E+00  0.00000000000E+00 -0.39771872304E+03  0.12569121184E+04  0.11923287679E+04 0.  0.
        4    1    3    3  502    0  0.35049703407E+03  0.32144860580E+03  0.18010256099E+03  0.50854294060E+03  0.12699999809E+01 0. -1.
       -4    1    3    3    0  502 -0.35049703407E+03 -0.32144860580E+03 -0.57782128403E+03  0.74836917777E+03  0.12699999809E+01 0.  1.
</event>
<event>
 5   0  0.3259968E-03  0.1293875E+04  0.7818609E-02  0.9034436E-01
        2   -1    0    0  501    0  0.00000000000E+00  0.00000000000E+00  0.61429117879E+03  0.61429117879E+03  0.25500000920E-02 0.  1.
       -2   -1    0    0    0  501  0.00000000000E+00  0.00000000000E+00 -0.68131928674E+03  0.68131928675E+03  0.25500000920E-02 0. -1.
    10030    2    1    2    0    0  0.00000000000E+00  0.00000000000E+00 -0.67028107953E+02  0.12956104655E+04  0.12938754620E+04 0.  0.
        4    1    3    3  502    0 -0.57727760991E+02  0.27737595599E+03 -0.61589251266E+03  0.67793444771E+03  0.12699999809E+01 0. -1.
       -4    1    3    3    0  502  0.57727760991E+02 -0.27737595599E+03  0.54886440470E+03  0.61767601783E+03  0.12699999809E+01 0.  1.
</event>
<event>
 5   0  0.1823154E-03  0.1306727E+04  0.7818609E-02  0.9024247E-01
       -1   -1    0    0    0  501  0.00000000000E+00  0.00000000000E+00  0.39922962530E+03  0.39922962534E+03  0.50400001928E-02 0.  1.
        1   -1    0    0  501    0  0.00000000000E+00  0.00000000000E+00 -0.10692694270E+04  0.10692694270E+04  0.50400001928E-02 0. -1.
    10030    2    1    2    0    0  0.00000000000E+00  0.00000000000E+00 -0.67003980173E+03  0.14684990524E+04  0.13067272596E+04 0.  0.
        2    1    3    3  502    0 -0.56382386048E+03 -0.25475101713E+03 -0.99052556391E+02  0.62658346236E+03  0.25500000920E-02 0.  1.
       -2    1    3    3    0  502  0.56382386048E+03  0.25475101713E+03 -0.57098724534E+03  0.84191559002E+03  0.25500000920E-02 0. -1.
</event>
<event>
 5   0  0.3262927E-03  0.1263212E+04  0.7818609E-02  0.9059258E-01
       -2   -1    0    0    0  501  0.00000000000E+00  0.00000000000E+00  0.20468784743E+03  0.20468784744E+03  0.25500000920E-02 0. -1.
        2   -1    0    0  501    0  0.00000000000E+00  0.00000000000E+00 -0.19489491074E+04  0.19489491074E+04  0.25500000920E-02 0.  1.
    10030    2    1    2    0    0  0.00000000000E+00  0.00000000000E+00 -0.17442612599E+04  0.21536369548E+04  0.12632120923E+04 0.  0.
        3    1    3    3  502    0 -0.23321153926E+03 -0.58607582945E+03 -0.81678897762E+03  0.10319964845E+04  0.10100000352E+00 0. -1.
       -3    1    3    3    0  502  0.23321153926E+03  0.58607582945E+03 -0.92747228231E+03  0.11216404703E+04  0.10100000352E+00 0.  1.
</event>
<event>
 5   0  0.1803959E-03  0.1318572E+04  0.7818609E-02  0.9014966E-01
       -1   -1    0    0    0  501  0.00000000000E+00  0.00000000000E+00  0.42745631246E+03  0.42745631249E+03  0.50400001928E-02 0. -1.
        1   -1    0    0  501    0  0.00000000000E+00  0.00000000000E+00 -0.10168480132E+04  0.10168480132E+04  0.50400001928E-02 0.  1.
    10030    2    1    2    0    0  0.00000000000E+00  0.00000000000E+00 -0.58939170071E+03  0.14443043257E+04  0.13185721096E+04 0.  0.
        4    1    3    3  502    0 -0.39467443265E+03  0.92883043375E+02  0.27474258159E+03  0.48977573089E+03  0.12699999809E+01 0. -1.
       -4    1    3    3    0  502  0.39467443265E+03 -0.92883043375E+02 -0.86413428230E+03  0.95452859479E+03  0.12699999809E+01 0.  1.
</event>
<event>
 5   0  0.3336609E-03  0.1308849E+04  0.7818609E-02  0.9022577E-01
       -2   -1    0    0    0  501  0.00000000000E+00  0.00000000000E+00  0.32596837205E+03  0.32596837206E+03  0.25500000920E-02 0.  1.
        2   -1    0    0  501    0  0.00000000000E+00  0.00000000000E+00 -0.13138434129E+04  0.13138434129E+04  0.25500000920E-02 0. -1.
    10030    2    1    2    0    0  0.00000000000E+00  0.00000000000E+00 -0.98787504087E+03  0.16398117850E+04  0.13088489576E+04 0.  0.
        1    1    3    3  502    0 -0.29019605937E+03 -0.49131448493E+03 -0.89537825232E+03  0.10617466227E+04  0.50400001928E-02 0. -1.
       -1    1    3    3    0  502  0.29019605937E+03  0.49131448493E+03 -0.92496788555E+02  0.57806516232E+03  0.50400001928E-02 0.  1.
</event>
<event>
 5   0  0.3299104E-03  0.1313798E+04  0.7818609E-02  0.9018694E-01
        2   -1    0    0  501    0  0.00000000000E+00  0.00000000000E+00  0.10422363138E+04  0.10422363138E+04  0.25500000920E-02 0.  1.
       -2   -1    0    0    0  501  0.00000000000E+00  0.00000000000E+00 -0.41402937170E+03  0.41402937171E+03  0.25500000920E-02 0. -1.
    10030    2    1    2    0    0  0.00000000000E+00  0.00000000000E+00  0.62820694212E+03  0.14562656855E+04  0.13137982283E+04 0.  0.
        2    1    3    3  502    0 -0.65600625355E+02 -0.88827391168E+02  0.10318748393E+04  0.10377665592E+04  0.25500000920E-02 0.  1.
       -2    1    3    3    0  502  0.65600625355E+02  0.88827391168E+02 -0.40366789720E+03  0.41849912629E+03  0.25500000920E-02 0. -1.
</event>
<event>
 5   0  0.1803959E-03  0.1301541E+04  0.7818609E-02  0.9028344E-01
        1   -1    0    0  501    0  0.00000000000E+00  0.00000000000E+00  0.19024395245E+04  0.19024395245E+04  0.50400001928E-02 0.  1.
       -1   -1    0    0    0  501  0.00000000000E+00  0.00000000000E+00 -0.22260997258E+03  0.22260997264E+03  0.50400001928E-02 0. -1.
    10030    2    1    2    0    0  0.00000000000E+00  0.00000000000E+00  0.16798295519E+04  0.21250494971E+04  0.13015406416E+04 0.  0.
        4    1    3    3  502    0  0.28242671316E+03  0.24434357882E+02  0.17963290470E+04  0.18185602944E+04  0.12699999809E+01 0.  1.
       -4    1    3    3    0  502 -0.28242671316E+03 -0.24434357882E+02 -0.11649949512E+03  0.30648920277E+03  0.12699999809E+01 0. -1.
</event>
<event>
 5   0  0.1823154E-03  0.1455246E+04  0.7818609E-02  0.8914772E-01
        1   -1    0    0  501    0  0.00000000000E+00  0.00000000000E+00  0.45288160091E+03  0.45288160094E+03  0.50400001928E-02 0. -1.
       -1   -1    0    0    0  501  0.00000000000E+00  0.00000000000E+00 -0.11690360742E+04  0.11690360743E+04  0.50400001928E-02 0.  1.
    10030    2    1    2    0    0  0.00000000000E+00  0.00000000000E+00 -0.71615447333E+03  0.16219176752E+04  0.14552455860E+04 0.  0.
        2    1    3    3  502    0 -0.35566108779E+03  0.14702031154E+03  0.33016328557E+03  0.50706762520E+03  0.25500000920E-02 0. -1.
       -2    1    3    3    0  502  0.35566108779E+03 -0.14702031154E+03 -0.10463177589E+04  0.11148500500E+04  0.25500000920E-02 0.  1.
</event>
<event>
 5   0  0.3259968E-03  0.1454276E+04  0.7818609E-02  0.8915442E-01
       -2   -1    0    0    0  501  0.00000000000E+00  0.00000000000E+00  0.81830000466E+03  0.81830000467E+03  0.25500000920E-02 0. -1.
        2   -1    0    0  501    0  0.00000000000E+00  0.00000000000E+00 -0.64613143835E+03  0.64613143836E+03  0.25500000920E-02 0.  1.
    10030    2    1    2    0    0  0.00000000000E+00  0.00000000000E+00  0.17216856631E+03  0.14644314430E+04  0.14542755709E+04 0.  0.
        4    1    3    3  502    0 -0.82511269563E+02  0.60357629787E+03 -0.31369612570E+03  0.68521480511E+03  0.12699999809E+01 0.  1.
       -4    1    3    3    0  502  0.82511269563E+02 -0.60357629787E+03  0.48586469201E+03  0.77921663791E+03  0.12699999809E+01 0. -1.
</event>
<event>
 5   0  0.3259968E-03  0.1319238E+04  0.7818609E-02  0.9014447E-01
        2   -1    0    0  501    0  0.00000000000E+00  0.00000000000E+00  0.83850017881E+03  0.83850017881E+03  0.25500000920E-02 0.  1.
       -2   -1    0    0    0  501  0.00000000000E+00  0.00000000000E+00 -0.51889964370E+03  0.51889964371E+03  0.25500000920E-02 0. -1.
    10030    2    1    2    0    0  0.00000000000E+00  0.00000000000E+00  0.31960053511E+03  0.13573998225E+04  0.13192383318E+04 0.  0.
        4    1    3    3  502    0  0.12911893721E+03 -0.45133077512E+03  0.63658845917E+03  0.79095995332E+03  0.12699999809E+01 0.  1.
       -4    1    3    3    0  502 -0.12911893721E+03  0.45133077512E+03 -0.31698792406E+03  0.56643986920E+03  0.12699999809E+01 0. -1.
</event>
<event>
 5   0  0.1803959E-03  0.1290743E+04  0.7818609E-02  0.9036938E-01
       -1   -1    0    0    0  501  0.00000000000E+00  0.00000000000E+00  0.16035489947E+04  0.16035489947E+04  0.50400001928E-02 0. -1.
        1   -1    0    0  501    0  0.00000000000E+00  0.00000000000E+00 -0.25973921657E+03  0.25973921662E+03  0.50400001928E-02 0.  1.
    10030    2    1    2    0    0  0.00000000000E+00  0.00000000000E+00  0.13438097781E+04  0.18632882113E+04  0.12907432892E+04 0.  0.
        4    1    3    3  502    0 -0.22100223108E+03 -0.20949478942E+03 -0.14950590200E+03  0.33923985699E+03  0.12699999809E+01 0.  1.
       -4    1    3    3    0  502  0.22100223108E+03  0.20949478942E+03  0.14933156801E+04  0.15240483543E+04  0.12699999809E+01 0. -1.
</event>
<event>
 5   0  0.1823154E-03  0.1313502E+04  0.7818609E-02  0.9018926E-01
        1   -1    0    0  501    0  0.00000000000E+00  0.00000000000E+00  0.17097348444E+04  0.17097348444E+04  0.50400001928E-02 0.  1.
       -1   -1    0    0    0  501  0.00000000000E+00  0.00000000000E+00 -0.25227405258E+03  0.25227405263E+03  0.50400001928E-02 0. -1.
    10030    2    1    2    0    0  0.00000000000E+00  0.00000000000E+00  0.14574607918E+04  0.19620088970E+04  0.13135017900E+04 0.  0.
        2    1    3    3  502    0  0.59420823573E+02  0.13532041095E+03  0.16845727584E+04  0.16910434135E+04  0.25500000920E-02 0.  1.
       -2    1    3    3    0  502 -0.59420823573E+02 -0.13532041095E+03 -0.22711196660E+03  0.27096548355E+03  0.25500000920E-02 0. -1.
</event>
<event>
 5   0  0.3294720E-03  0.1373492E+04  0.7818609E-02  0.8973233E-01
       -2   -1    0    0    0  501  0.00000000000E+00  0.00000000000E+00  0.20013395777E+03  0.20013395779E+03  0.25500000920E-02 0. -1.
        2   -1    0    0  501    0  0.00000000000E+00  0.00000000000E+00 -0.23565223040E+04  0.23565223040E+04  0.25500000920E-02 0.  1.
    10030    2    1    2    0    0  0.00000000000E+00  0.00000000000E+00 -0.21563883463E+04  0.25566562618E+04  0.13734920973E+04 0.  0.
        5    1    3    3  502    0 -0.31884008117E+02 -0.15993093907E+03  0.16353794531E+03  0.23100052987E+03  0.46999998093E+01 0. -1.
       -5    1    3    3    0  502  0.31884008117E+02  0.15993093907E+03 -0.23199262916E+04  0.23256557320E+04  0.46999998093E+01 0.  1.
</event>
<event>
 5   0  0.3294720E-03  0.1301285E+04  0.7818609E-02  0.9028547E-01
        2   -1    0    0  501    0  0.00000000000E+00  0.00000000000E+00  0.15934435694E+04  0.15934435694E+04  0.25500000920E-02 0. -1.
       -2   -1    0    0    0  501  0.00000000000E+00  0.00000000000E+00 -0.26567342390E+03  0.26567342391E+03  0.25500000920E-02 0.  1.
    10030    2    1    2    0    0  0.00000000000E+00  0.00000000000E+00  0.13277701455E+04  0.18591169933E+04  0.13012849171E+04 0.  0.
        5    1    3    3  502    0 -0.38899819279E+03  0.49830765330E+03  0.44401991143E+03  0.77253212430E+03  0.46999998093E+01 0.  1.
       -5    1    3    3    0  502  0.38899819279E+03 -0.49830765330E+03  0.88375023405E+03  0.10865848690E+04  0.46999998093E+01 0. -1.
</event>
<event>
 5   0  0.1814770E-03  0.1314873E+04  0.7818609E-02  0.9017853E-01
       -1   -1    0    0    0  501  0.00000000000E+00  0.00000000000E+00  0.29830575196E+03  0.29830575200E+03  0.50400001928E-02 0.  1.
        1   -1    0    0  501    0  0.00000000000E+00  0.00000000000E+00 -0.14489261082E+04  0.14489261082E+04  0.50400001928E-02 0. -1.
    10030    2    1    2    0    0  0.00000000000E+00  0.00000000000E+00 -0.11506203562E+04  0.17472318602E+04  0.13148733662E+04 0.  0.
        5    1    3    3  502    0 -0.23824502083E+03 -0.20847322792E+03  0.19032521280E+03  0.36941515039E+03  0.46999998093E+01 0.  1.
       -5    1    3    3    0  502  0.23824502083E+03  0.20847322792E+03 -0.13409455690E+04  0.13778167098E+04  0.46999998093E+01 0. -1.
</event>
<event>
 5   0  0.3299104E-03  0.1301399E+04  0.7818609E-02  0.9028457E-01
        2   -1    0    0  501    0  0.00000000000E+00  0.00000000000E+00  0.11237728772E+04  0.11237728772E+04  0.25500000920E-02 0. -1.
       -2   -1    0    0    0  501  0.00000000000E+00  0.00000000000E+00 -0.37677504998E+03  0.37677504999E+03  0.25500000920E-02 0.  1.
    10030    2    1    2    0    0  0.00000000000E+00  0.00000000000E+00  0.74699782720E+03  0.15005479272E+04  0.13013986045E+04 0.  0.
        2    1    3    3  502    0  0.53652008278E+03 -0.62225795947E+02  0.79191232777E+03  0.95856715142E+03  0.25500000920E-02 0. -1.
       -2    1    3    3    0  502 -0.53652008278E+03  0.62225795947E+02 -0.44914500576E+02  0.54198077574E+03  0.25500000920E-02 0.  1.
</event>
<event>
 5   0  0.1803959E-03  0.1298396E+04  0.7818609E-02  0.9030838E-01
        1   -1    0    0  501    0  0.00000000000E+00  0.00000000000E+00  0.14797001942E+04  0.14797001942E+04  0.50400001928E-02 0. -1.
       -1   -1    0    0    0  501  0.00000000000E+00  0.00000000000E+00 -0.28482658522E+03  0.28482658526E+03  0.50400001928E-02 0.  1.
    10030    2    1    2    0    0  0.00000000000E+00  0.00000000000E+00  0.11948736090E+04  0.17645267795E+04  0.12983958618E+04 0.  0.
        4    1    3    3  502    0 -0.49791474628E+02 -0.64715329931E+03  0.57973022010E+03  0.87027313226E+03  0.12699999809E+01 0.  1.
       -4    1    3    3    0  502  0.49791474628E+02  0.64715329931E+03  0.61514338889E+03  0.89425364720E+03  0.12699999809E+01 0. -1.
</event>
<event>
 5   0  0.3262927E-03  0.1281031E+04  0.7818609E-02  0.9044745E-01
        2   -1    0    0  501    0  0.00000000000E+00  0.00000000000E+00  0.82583878552E+03  0.82583878553E+03  0.25500000920E-02 0.  1.
       -2   -1    0    0    0  501  0.00000000000E+00  0.00000000000E+00 -0.49677983341E+03  0.49677983342E+03  0.25500000920E-02 0. -1.
    10030    2    1    2    0    0  0.00000000000E+00  0.00000000000E+00  0.32905895211E+03  0.13226186189E+04  0.12810309197E+04 0.  0.
        3    1    3    3  502    0 -0.89108795827E+01 -0.11713614587E+03  0.81462111242E+03  0.82304790106E+03  0.10100000352E+00 0.  1.
       -3    1    3    3    0  502  0.89108795827E+01  0.11713614587E+03 -0.48556216030E+03  0.49957071788E+03  0.10100000352E+00 0. -1.
</event>
<event>
 5   0  0.1254125E-03  0.1283565E+04  0.7818609E-02  0.9042701E-01
        4   -1    0    0  501    0  0.00000000000E+00  0.00000000000E+00  0.96146620772E+03  0.96146704649E+03  0.12699999809E+01 0. -1.
       -4   -1    0    0    0  501  0.00000000000E+00  0.00000000000E+00 -0.42839042496E+03  0.42839230747E+03  0.12699999809E+01 0.  1.
    10030    2    1    2    0    0  0.00000000000E+00  0.00000000000E+00  0.53307578276E+03  0.13898593540E+04  0.12835650485E+04 0.  0.
        2    1    3    3  502    0 -0.14655215299E+03  0.28933304178E+02  0.94238086276E+03  0.95414692797E+03  0.25500000920E-02 0. -1.
       -2    1    3    3    0  502  0.14655215299E+03 -0.28933304178E+02 -0.40930508000E+03  0.43571242599E+03  0.25500000920E-02 0.  1.
</event>
<event>
 5   0  0.3299104E-03  0.1249903E+04  0.7818609E-02  0.9070264E-01
        2   -1    0    0  501    0  0.00000000000E+00  0.00000000000E+00  0.73090195939E+03  0.73090195939E+03  0.25500000920E-02 0.  1.
       -2   -1    0    0    0  501  0.00000000000E+00  0.00000000000E+00 -0.53435947800E+03  0.53435947800E+03  0.25500000920E-02 0. -1.
    10030    2    1    2    0    0  0.00000000000E+00  0.00000000000E+00  0.19654248139E+03  0.12652614374E+04  0.12499030194E+04 0.  0.
        2    1    3    3  502    0  0.22842646618E+03 -0.57071628129E+03  0.21220944902E+03  0.65032958909E+03  0.25500000920E-02 0.  1.
       -2    1    3    3    0  502 -0.22842646618E+03  0.57071628129E+03 -0.15666967631E+02  0.61493184831E+03  0.25500000920E-02 0. -1.
</event>
<event>
 5   0  0.1873488E-03  0.1297726E+04  0.7818609E-02  0.9031370E-01
        1   -1    0    0  501    0  0.00000000000E+00  0.00000000000E+00  0.11603230406E+04  0.11603230406E+04  0.50400001928E-02 0.  1.
       -1   -1    0    0    0  501  0.00000000000E+00  0.00000000000E+00 -0.36285006011E+03  0.36285006015E+03  0.50400001928E-02 0. -1.
    10030    2    1    2    0    0  0.00000000000E+00  0.00000000000E+00  0.79747298050E+03  0.15231731008E+04  0.12977261423E+04 0.  0.
        3    1    3    3  502    0 -0.95162261958E+02 -0.85938212724E+02  0.11453047280E+04  0.11524600482E+04  0.10100000352E+00 0.  1.
       -3    1    3    3    0  502  0.95162261958E+02  0.85938212724E+02 -0.34783174755E+03  0.37071305253E+03  0.10100000352E+00 0. -1.
</event>
<event>
 5   0  0.3299104E-03  0.1256300E+04  0.7818609E-02  0.9064956E-01
        2   -1    0    0  501    0  0.00000000000E+00  0.00000000000E+00  0.49280196631E+03  0.49280196632E+03  0.25500000920E-02 0.  1.
       -2   -1    0    0    0  501  0.00000000000E+00  0.00000000000E+00 -0.80067150830E+03  0.80067150831E+03  0.25500000920E-02 0. -1.
    10030    2    1    2    0    0  0.00000000000E+00  0.00000000000E+00 -0.30786954199E+03  0.12934734746E+04  0.12563001133E+04 0.  0.
        2    1    3    3  502    0  0.34576502571E+03  0.23989968724E+03 -0.63406714497E+03  0.76101672602E+03  0.25500000920E-02 0. -1.
       -2    1    3    3    0  502 -0.34576502571E+03 -0.23989968724E+03  0.32619760298E+03  0.53245674861E+03  0.25500000920E-02 0.  1.
</event>
<event>
 5   0  0.1814770E-03  0.1244344E+04  0.7818609E-02  0.9074904E-01
        1   -1    0    0  501    0  0.00000000000E+00  0.00000000000E+00  0.69435099925E+03  0.69435099927E+03  0.50400001928E-02 0.  1.
       -1   -1    0    0    0  501  0.00000000000E+00  0.00000000000E+00 -0.55749579419E+03  0.55749579421E+03  0.50400001928E-02 0. -1.
    10030    2    1    2    0    0  0.00000000000E+00  0.00000000000E+00  0.13685520506E+03  0.12518467935E+04  0.12443436210E+04 0.  0.
        5    1    3    3  502    0 -0.39142292323E+03 -0.40519161295E+03  0.33399570316E+03  0.65495600445E+03  0.46999998093E+01 0.  1.
       -5    1    3    3    0  502  0.39142292323E+03  0.40519161295E+03 -0.19714049811E+03  0.59689078903E+03  0.46999998093E+01 0. -1.
</event>
<event>
 5   0  0.1803959E-03  0.1289550E+04  0.7818609E-02  0.9037893E-01
       -1   -1    0    0    0  501  0.00000000000E+00  0.00000000000E+00  0.28700322908E+03  0.28700322913E+03  0.50400001928E-02 0.  1.
        1   -1    0    0  501    0  0.00000000000E+00  0.00000000000E+00 -0.14485373126E+04  0.14485373126E+04  0.50400001928E-02 0. -1.
    10030    2    1    2    0    0  0.00000000000E+00  0.00000000000E+00 -0.11615340835E+04  0.17355405417E+04  0.12895501327E+04 0.  0.
        4    1    3    3  502    0  0.21131828721E+03  0.60915213717E+03 -0.57619737756E+03  0.86471196103E+03  0.12699999809E+01 0.  1.
       -4    1    3    3    0  502 -0.21131828721E+03 -0.60915213717E+03 -0.58533670595E+03  0.87082858070E+03  0.12699999809E+01 0. -1.
</event>
<event>
 5   0  0.3262927E-03  0.1299911E+04  0.7818609E-02  0.9029636E-01
       -2   -1    0    0    0  501  0.00000000000E+00  0.00000000000E+00  0.65524995642E+03  0.65524995642E+03  0.25500000920E-02 0. -1.
        2   -1    0    0  501    0  0.00000000000E+00  0.00000000000E+00 -0.64470378955E+03  0.64470378956E+03  0.25500000920E-02 0.  1.
    10030    2    1    2    0    0  0.00000000000E+00  0.00000000000E+00  0.10546166864E+02  0.12999537460E+04  0.12999109662E+04 0.  0.
        3    1    3    3  502    0  0.31955915123E+03  0.50517493004E+03  0.26047230979E+03  0.65204723406E+03  0.10100000352E+00 0. -1.
       -3    1    3    3    0  502 -0.31955915123E+03 -0.50517493004E+03 -0.24992614293E+03  0.64790651192E+03  0.10100000352E+00 0.  1.
</event>
<event>
 5   0  0.1873488E-03  0.1295953E+04  0.7818609E-02  0.9032780E-01
       -1   -1    0    0    0  501  0.00000000000E+00  0.00000000000E+00  0.67021210478E+03  0.67021210480E+03  0.50400001928E-02 0. -1.
        1   -1    0    0  501    0  0.00000000000E+00  0.00000000000E+00 -0.62647900840E+03  0.62647900842E+03  0.50400001928E-02 0.  1.
    10030    2    1    2    0    0  0.00000000000E+00  0.00000000000E+00  0.43733096382E+02  0.12966911132E+04  0.12959534171E+04 0.  0.
        3    1    3    3  502    0 -0.29629762408E+03  0.49930734036E+03 -0.26600141444E+03  0.63863672370E+03  0.10100000352E+00 0.  1.
       -3    1    3    3    0  502  0.29629762408E+03 -0.49930734036E+03  0.30973451082E+03  0.65805438952E+03  0.10100000352E+00 0. -1.
</event>
<event>
 5   0  0.1823154E-03  0.1275364E+04  0.7818609E-02  0.9049333E-01
       -1   -1    0    0    0  501  0.00000000000E+00  0.00000000000E+00  0.36019306528E+03  0.36019306531E+03  0.50400001928E-02 0.  1.
        1   -1    0    0  501    0  0.00000000000E+00  0.00000000000E+00 -0.11289453133E+04  0.11289453133E+04  0.50400001928E-02 0. -1.
    10030    2    1    2    0    0  0.00000000000E+00  0.00000000000E+00 -0.76875224803E+03  0.14891383786E+04  0.12753639057E+04 0.  0.
        2    1    3    3  502    0  0.56529014784E+03  0.28843693125E+03 -0.45719525647E+03  0.78216131143E+03  0.25500000920E-02 0. -1.
       -2    1    3    3    0  502 -0.56529014784E+03 -0.28843693125E+03 -0.31155699156E+03  0.70697706720E+03  0.25500000920E-02 0.  1.
</event>
<event>
 5   0  0.1823154E-03  0.1304173E+04  0.7818609E-02  0.9026263E-01
        1   -1    0    0  501    0  0.00000000000E+00  0.00000000000E+00  0.99576054893E+03  0.99576054894E+03  0.50400001928E-02 0. -1.
       -1   -1    0    0    0  501  0.00000000000E+00  0.00000000000E+00 -0.42702699651E+03  0.42702699654E+03  0.50400001928E-02 0.  1.
    10030    2    1    2    0    0  0.00000000000E+00  0.00000000000E+00  0.56873355242E+03  0.14227875455E+04  0.13041727439E+04 0.  0.
        2    1    3    3  502    0  0.85918692325E+02 -0.33366211469E+03  0.88834760815E+03  0.95282417128E+03  0.25500000920E-02 0. -1.
       -2    1    3    3    0  502 -0.85918692325E+02  0.33366211469E+03 -0.31961405572E+03  0.46996337420E+03  0.25500000920E-02 0.  1.
</event>
<event>
 5   0  0.3259968E-03  0.1302677E+04  0.7818609E-02  0.9027445E-01
       -2   -1    0    0    0  501  0.00000000000E+00  0.00000000000E+00  0.17177130437E+03  0.17177130439E+03  0.25500000920E-02 0. -1.
        2   -1    0    0  501    0  0.00000000000E+00  0.00000000000E+00 -0.24698048423E+04  0.24698048423E+04  0.25500000920E-02 0.  1.
    10030    2    1    2    0    0  0.00000000000E+00  0.00000000000E+00 -0.22980335379E+04  0.26415761467E+04  0.13026766281E+04 0.  0.
        4    1    3    3  502    0  0.19935683811E+03 -0.40930188334E+03 -0.20446631240E+03  0.49907841710E+03  0.12699999809E+01 0. -1.
       -4    1    3    3    0  502 -0.19935683811E+03  0.40930188334E+03 -0.20935672255E+04  0.21424977296E+04  0.12699999809E+01 0.  1.
</event>
<event>
 5   0  0.1803959E-03  0.1303804E+04  0.7818609E-02  0.9026554E-01
       -1   -1    0    0    0  501  0.00000000000E+00  0.00000000000E+00  0.41640197083E+03  0.41640197086E+03  0.50400001928E-02 0.  1.
        1   -1    0    0  501    0  0.00000000000E+00  0.00000000000E+00 -0.10205914730E+04  0.10205914730E+04  0.50400001928E-02 0. -1.
    10030    2    1    2    0    0  0.00000000000E+00  0.00000000000E+00 -0.60418950216E+03  0.14369934439E+04  0.13038041276E+04 0.  0.
        4    1    3    3  502    0 -0.23865915103E+03 -0.20039676054E+03  0.32898622211E+03  0.45315626360E+03  0.12699999809E+01 0.  1.
       -4    1    3    3    0  502  0.23865915103E+03  0.20039676054E+03 -0.93317572427E+03  0.98383718026E+03  0.12699999809E+01 0. -1.
</event>
<event>
 5   0  0.1857986E-03  0.1303267E+04  0.7818609E-02  0.9026978E-01
        1   -1    0    0  501    0  0.00000000000E+00  0.00000000000E+00  0.48338234220E+03  0.48338234223E+03  0.50400001928E-02 0.  1.
       -1   -1    0    0    0  501  0.00000000000E+00  0.00000000000E+00 -0.87844857073E+03  0.87844857074E+03  0.50400001928E-02 0. -1.
    10030    2    1    2    0    0  0.00000000000E+00  0.00000000000E+00 -0.39506622852E+03  0.13618309130E+04  0.13032674747E+04 0.  0.
        1    1    3    3  502    0 -0.25222369764E+03  0.46022323165E+03  0.20609398539E+03  0.56382350735E+03  0.50400001928E-02 0.  1.
       -1    1    3    3    0  502  0.25222369764E+03 -0.46022323165E+03 -0.60116021392E+03  0.79800740562E+03  0.50400001928E-02 0. -1.
</event>
<event>
 5   0  0.3294720E-03  0.1182646E+04  0.7818609E-02  0.9128183E-01
        2   -1    0    0  501    0  0.00000000000E+00  0.00000000000E+00  0.84205848679E+03  0.84205848679E+03  0.25500000920E-02 0.  1.
       -2   -1    0    0    0  501  0.00000000000E+00  0.00000000000E+00 -0.41524787755E+03  0.41524787756E+03  0.25500000920E-02 0. -1.
    10030    2    1    2    0    0  0.00000000000E+00  0.00000000000E+00  0.42681060924E+03  0.12573063643E+04  0.11826461845E+04 0.  0.
        5    1    3    3  502    0 -0.49402775428E+03  0.11103313495E+03  0.53805027141E+03  0.73885855454E+03  0.46999998093E+01 0.  1.
       -5    1    3    3    0  502  0.49402775428E+03 -0.11103313495E+03 -0.11123966217E+03  0.51844780981E+03  0.46999998093E+01 0. -1.
</event>
<event>
 5   0  0.3336609E-03  0.1295799E+04  0.7818609E-02  0.9032903E-01
       -2   -1    0    0    0  501  0.00000000000E+00  0.00000000000E+00  0.35197889412E+03  0.35197889413E+03  0.25500000920E-02 0. -1.
        2   -1    0    0  501    0  0.00000000000E+00  0.00000000000E+00 -0.11926112874E+04  0.11926112874E+04  0.25500000920E-02 0.  1.
    10030    2    1    2    0    0  0.00000000000E+00  0.00000000000E+00 -0.84063239329E+03  0.15445901815E+04  0.12957993704E+04 0.  0.
        1    1    3    3  502    0 -0.14137768769E+03  0.11194344447E+03  0.32146194487E+03  0.36858753012E+03  0.50400001928E-02 0. -1.
       -1    1    3    3    0  502  0.14137768769E+03 -0.11194344447E+03 -0.11620943382E+04  0.11760026514E+04  0.50400001928E-02 0.  1.
</event>
<event>
 5   0  0.3336609E-03  0.1296019E+04  0.7818609E-02  0.9032728E-01
        2   -1    0    0  501    0  0.00000000000E+00  0.00000000000E+00  0.88288456611E+03  0.88288456611E+03  0.25500000920E-02 0. -1.
       -2   -1    0    0    0  501  0.00000000000E+00  0.00000000000E+00 -0.47561836750E+03  0.47561836750E+03  0.25500000920E-02 0.  1.
    10030    2    1    2    0    0  0.00000000000E+00  0.00000000000E+00  0.40726619861E+03  0.13585029336E+04  0.12960186974E+04 0.  0.
        1    1    3    3  502    0 -0.20750210070E+02 -0.58116975517E+03 -0.96029666911E+02  0.58941543286E+03  0.50400001928E-02 0.  1.
       -1    1    3    3    0  502  0.20750210070E+02  0.58116975517E+03  0.50329586552E+03  0.76908750075E+03  0.50400001928E-02 0. -1.
</event>
<event>
 5   0  0.1873488E-03  0.1309299E+04  0.7818609E-02  0.9022223E-01
        1   -1    0    0  501    0  0.00000000000E+00  0.00000000000E+00  0.73361001528E+03  0.73361001529E+03  0.50400001928E-02 0. -1.
       -1   -1    0    0    0  501  0.00000000000E+00  0.00000000000E+00 -0.58418783928E+03  0.58418783930E+03  0.50400001928E-02 0.  1.
    10030    2    1    2    0    0  0.00000000000E+00  0.00000000000E+00  0.14942217600E+03  0.13177978546E+04  0.13092991251E+04 0.  0.
        3    1    3    3  502    0 -0.47207753343E+03 -0.42808868271E+03  0.22551328233E+03  0.67599805365E+03  0.10100000352E+00 0. -1.
       -3    1    3    3    0  502  0.47207753343E+03  0.42808868271E+03 -0.76091106329E+02  0.64179980095E+03  0.10100000352E+00 0.  1.
</event>
<event>
 5   0  0.3294720E-03  0.1346649E+04  0.7818609E-02  0.8993368E-01
       -2   -1    0    0    0  501  0.00000000000E+00  0.00000000000E+00  0.38217239758E+03  0.38217239759E+03  0.25500000920E-02 0.  1.
        2   -1    0    0  501    0  0.00000000000E+00  0.00000000000E+00 -0.11862868524E+04  0.11862868524E+04  0.25500000920E-02 0. -1.
    10030    2    1    2    0    0  0.00000000000E+00  0.00000000000E+00 -0.80411445479E+03  0.15684592500E+04  0.13466493094E+04 0.  0.
        5    1    3    3  502    0 -0.21875930409E+03 -0.56703467544E+03 -0.64571775193E+02  0.61120827909E+03  0.46999998093E+01 0.  1.
       -5    1    3    3    0  502  0.21875930409E+03  0.56703467544E+03 -0.73954267960E+03  0.95725097087E+03  0.46999998093E+01 0. -1.
</event>
<event>
 5   0  0.3299104E-03  0.1341217E+04  0.7818609E-02  0.8997503E-01
        2   -1    0    0  501    0  0.00000000000E+00  0.00000000000E+00  0.14838364694E+04  0.14838364694E+04  0.25500000920E-02 0. -1.
       -2   -1    0    0    0  501  0.00000000000E+00  0.00000000000E+00 -0.30307646207E+03  0.30307646208E+03  0.25500000920E-02 0.  1.
    10030    2    1    2    0    0  0.00000000000E+00  0.00000000000E+00  0.11807600073E+04  0.17869129315E+04  0.13412172195E+04 0.  0.
        2    1    3    3  502    0 -0.45888899913E+03 -0.30898683598E+02 -0.59837714279E+02  0.46380426284E+03  0.25500000920E-02 0.  1.
       -2    1    3    3    0  502  0.45888899913E+03  0.30898683598E+02  0.12405977216E+04  0.13231086686E+04  0.25500000920E-02 0. -1.
</event>
<event>
 5   0  0.1814770E-03  0.8835697E+03  0.7818609E-02  0.9446356E-01
        1   -1    0    0  501    0  0.00000000000E+00  0.00000000000E+00  0.72222677698E+03  0.72222677700E+03  0.50400001928E-02 0.  1.
       -1   -1    0    0    0  501  0.00000000000E+00  0.00000000000E+00 -0.27023899529E+03  0.27023899533E+03  0.50400001928E-02 0. -1.
    10030    2    1    2    0    0  0.00000000000E+00  0.00000000000E+00  0.45198778170E+03  0.99246577233E+03  0.88356966587E+03 0.  0.
        5    1    3    3  502    0 -0.73411049748E+01  0.31614874322E+03  0.57247070867E+03  0.65402501629E+03  0.46999998093E+01 0.  1.
       -5    1    3    3    0  502  0.73411049748E+01 -0.31614874322E+03 -0.12048292697E+03  0.33844075604E+03  0.46999998093E+01 0. -1.
</event>
<event>
 5   0  0.3336609E-03  0.1311455E+04  0.7818609E-02  0.9020531E-01
        2   -1    0    0  501    0  0.00000000000E+00  0.00000000000E+00  0.88437020217E+03  0.88437020217E+03  0.25500000920E-02 0.  1.
       -2   -1    0    0    0  501  0.00000000000E+00  0.00000000000E+00 -0.48619716665E+03  0.48619716666E+03  0.25500000920E-02 0. -1.
    10030    2    1    2    0    0  0.00000000000E+00  0.00000000000E+00  0.39817303552E+03  0.13705673688E+04  0.13114545918E+04 0.  0.
        1    1    3    3  502    0 -0.19802020900E+02  0.60423513865E+02 -0.48296766758E+03  0.48713539084E+03  0.50400001928E-02 0. -1.
       -1    1    3    3    0  502  0.19802020900E+02 -0.60423513865E+02  0.88114070310E+03  0.88343197799E+03  0.50400001928E-02 0.  1.
</event>
<event>
 5   0  0.3259968E-03  0.1314498E+04  0.7818609E-02  0.9018146E-01
       -2   -1    0    0    0  501  0.00000000000E+00  0.00000000000E+00  0.58382565799E+03  0.58382565799E+03  0.25500000920E-02 0. -1.
        2   -1    0    0  501    0  0.00000000000E+00  0.00000000000E+00 -0.73990622607E+03  0.73990622607E+03  0.25500000920E-02 0.  1.
    10030    2    1    2    0    0  0.00000000000E+00  0.00000000000E+00 -0.15608056808E+03  0.13237318841E+04  0.13144979867E+04 0.  0.
        4    1    3    3  502    0 -0.30159069126E+03  0.39752393851E+01 -0.66609601967E+03  0.73120330135E+03  0.12699999809E+01 0.  1.
       -4    1    3    3    0  502  0.30159069126E+03 -0.39752393851E+01  0.51001545158E+03  0.59252858272E+03  0.12699999809E+01 0. -1.
</event>
<event>
 5   0  0.3336609E-03  0.9446928E+03  0.7818609E-02  0.9371376E-01
        2   -1    0    0  501    0  0.00000000000E+00  0.00000000000E+00  0.61137138525E+03  0.61137138526E+03  0.25500000920E-02 0. -1.
       -2   -1    0    0    0  501  0.00000000000E+00  0.00000000000E+00 -0.36493546437E+03  0.36493546438E+03  0.25500000920E-02 0.  1.
    10030    2    1    2    0    0  0.00000000000E+00  0.00000000000E+00  0.24643592088E+03  0.97630684963E+03  0.94469275510E+03 0.  0.
        1    1    3    3  502    0 -0.18387774514E+03  0.68852057624E+02 -0.32076256205E+03  0.37608543210E+03  0.50400001928E-02 0.  1.
       -1    1    3    3    0  502  0.18387774514E+03 -0.68852057624E+02  0.56719848293E+03  0.60022141753E+03  0.50400001928E-02 0. -1.
</event>
<event>
 5   0  0.3299104E-03  0.1301698E+04  0.7818609E-02  0.9028220E-01
       -2   -1    0    0    0  501  0.00000000000E+00  0.00000000000E+00  0.34506855294E+03  0.34506855295E+03  0.25500000920E-02 0.  1.
        2   -1    0    0  501    0  0.00000000000E+00  0.00000000000E+00 -0.12275949546E+04  0.12275949546E+04  0.25500000920E-02 0. -1.
    10030    2    1    2    0    0  0.00000000000E+00  0.00000000000E+00 -0.88252640161E+03  0.15726635075E+04  0.13016979904E+04 0.  0.
        2    1    3    3  502    0 -0.57457271046E+03  0.20140614978E+02 -0.72694291655E+02  0.57950315273E+03  0.25500000920E-02 0. -1.
       -2    1    3    3    0  502  0.57457271046E+03 -0.20140614978E+02 -0.80983210996E+03  0.99316035478E+03  0.25500000920E-02 0.  1.
</event>
<event>
 5   0  0.1823154E-03  0.1269499E+04  0.7818609E-02  0.9054108E-01
       -1   -1    0    0    0  501  0.00000000000E+00  0.00000000000E+00  0.29559366730E+03  0.29559366735E+03  0.50400001928E-02 0.  1.
        1   -1    0    0  501    0  0.00000000000E+00  0.00000000000E+00 -0.13630438615E+04  0.13630438615E+04  0.50400001928E-02 0. -1.
    10030    2    1    2    0    0  0.00000000000E+00  0.00000000000E+00 -0.10674501942E+04  0.16586375288E+04  0.12694993245E+04 0.  0.
        2    1    3    3  502    0 -0.47742773220E+03  0.13431336141E+03 -0.16151939090E+02  0.49622394508E+03  0.25500000920E-02 0.  1.
       -2    1    3    3    0  502  0.47742773220E+03 -0.13431336141E+03 -0.10512982551E+04  0.11624135837E+04  0.25500000920E-02 0. -1.
</event>
<event>
 5   0  0.1823154E-03  0.1308172E+04  0.7818609E-02  0.9023110E-01
        1   -1    0    0  501    0  0.00000000000E+00  0.00000000000E+00  0.10485923603E+04  0.10485923603E+04  0.50400001928E-02 0. -1.
       -1   -1    0    0    0  501  0.00000000000E+00  0.00000000000E+00 -0.40800270343E+03  0.40800270346E+03  0.50400001928E-02 0.  1.
    10030    2    1    2    0    0  0.00000000000E+00  0.00000000000E+00  0.64058965689E+03  0.14565950638E+04  0.13081720343E+04 0.  0.
        2    1    3    3  502    0  0.45337737689E+03  0.47125686445E+03  0.33582107245E+03  0.73512575174E+03  0.25500000920E-02 0. -1.
       -2    1    3    3    0  502 -0.45337737689E+03 -0.47125686445E+03  0.30476858444E+03  0.72146931205E+03  0.25500000920E-02 0.  1.
</event>
<event>
 5   0  0.3336609E-03  0.1298483E+04  0.7818609E-02  0.9030769E-01
        2   -1    0    0  501    0  0.00000000000E+00  0.00000000000E+00  0.74494527203E+03  0.74494527204E+03  0.25500000920E-02 0.  1.
       -2   -1    0    0    0  501  0.00000000000E+00  0.00000000000E+00 -0.56583324855E+03  0.56583324855E+03  0.25500000920E-02 0. -1.
    10030    2    1    2    0    0  0.00000000000E+00  0.00000000000E+00  0.17911202349E+03  0.13107785206E+04  0.12984834281E+04 0.  0.
        1    1    3    3  502    0  0.20508896113E+02  0.40863116707E+03  0.59842718385E+03  0.72492423047E+03  0.50400001928E-02 0. -1.
       -1    1    3    3    0  502 -0.20508896113E+02 -0.40863116707E+03 -0.41931516036E+03  0.58585429012E+03  0.50400001928E-02 0.  1.
</event>
<event>
 5   0  0.1857986E-03  0.1308679E+04  0.7818609E-02  0.9022711E-01
       -1   -1    0    0    0  501  0.00000000000E+00  0.00000000000E+00  0.51421022336E+03  0.51421022338E+03  0.50400001928E-02 0.  1.
        1   -1    0    0  501    0  0.00000000000E+00  0.00000000000E+00 -0.83265555292E+03  0.83265555293E+03  0.50400001928E-02 0. -1.
    10030    2    1    2    0    0  0.00000000000E+00  0.00000000000E+00 -0.31844532956E+03  0.13468657763E+04  0.13086787197E+04 0.  0.
        1    1    3    3  502    0  0.11067900390E+03 -0.84935365221E+01 -0.82289447653E+03  0.83034769921E+03  0.50400001928E-02 0. -1.
       -1    1    3    3    0  502 -0.11067900390E+03  0.84935365221E+01  0.50444914697E+03  0.51651807710E+03  0.50400001928E-02 0.  1.
</event>
<event>
 5   0  0.1814770E-03  0.1301922E+04  0.7818609E-02  0.9028042E-01
       -1   -1    0    0    0  501  0.00000000000E+00  0.00000000000E+00  0.49716777757E+03  0.49716777760E+03  0.50400001928E-02 0. -1.
        1   -1    0    0  501    0  0.00000000000E+00  0.00000000000E+00 -0.85232896733E+03  0.85232896735E+03  0.50400001928E-02 0.  1.
    10030    2    1    2    0    0  0.00000000000E+00  0.00000000000E+00 -0.35516118976E+03  0.13494967449E+04  0.13019224224E+04 0.  0.
        5    1    3    3  502    0  0.29648235177E+03  0.44338656485E+03  0.20919664460E+03  0.57295615618E+03  0.46999998093E+01 0. -1.
       -5    1    3    3    0  502 -0.29648235177E+03 -0.44338656485E+03 -0.56435783436E+03  0.77654058876E+03  0.46999998093E+01 0.  1.
</event>
<event>
 5   0  0.3336609E-03  0.1292012E+04  0.7818609E-02  0.9035924E-01
        2   -1    0    0  501    0  0.00000000000E+00  0.00000000000E+00  0.21950777800E+04  0.21950777800E+04  0.25500000920E-02 0.  1.
       -2   -1    0    0    0  501  0.00000000000E+00  0.00000000000E+00 -0.19011808355E+03  0.19011808356E+03  0.25500000920E-02 0. -1.
    10030    2    1    2    0    0  0.00000000000E+00  0.00000000000E+00  0.20049596965E+04  0.23851958636E+04  0.12920123541E+04 0.  0.
        1    1    3    3  502    0  0.41236183228E+03  0.49594781971E+03  0.10694877671E+04  0.12489237786E+04  0.50400001928E-02 0. -1.
       -1    1    3    3    0  502 -0.41236183228E+03 -0.49594781971E+03  0.93547192935E+03  0.11362720850E+04  0.50400001928E-02 0.  1.
</event>
<event>
 5   0  0.1803959E-03  0.1317313E+04  0.7818609E-02  0.9015947E-01
        1   -1    0    0  501    0  0.00000000000E+00  0.00000000000E+00  0.47499791942E+03  0.47499791945E+03  0.50400001928E-02 0.  1.
       -1   -1    0    0    0  501  0.00000000000E+00  0.00000000000E+00 -0.91332727953E+03  0.91332727954E+03  0.50400001928E-02 0. -1.
    10030    2    1    2    0    0  0.00000000000E+00  0.00000000000E+00 -0.43832936010E+03  0.13883251990E+04  0.13173132620E+04 0.  0.
        4    1    3    3  502    0  0.51980359756E+03  0.34193323090E+03 -0.44694711590E+03  0.76607927249E+03  0.12699999809E+01 0. -1.
       -4    1    3    3    0  502 -0.51980359756E+03 -0.34193323090E+03  0.86177557959E+01  0.62224592650E+03  0.12699999809E+01 0.  1.
</event>
<event>
 5   0  0.3299104E-03  0.1265332E+04  0.7818609E-02  0.9057518E-01
        2   -1    0    0  501    0  0.00000000000E+00  0.00000000000E+00  0.71661493492E+03  0.71661493493E+03  0.25500000920E-02 0. -1.
       -2   -1    0    0    0  501  0.00000000000E+00  0.00000000000E+00 -0.55855124983E+03  0.55855124983E+03  0.25500000920E-02 0.  1.
    10030    2    1    2    0    0  0.00000000000E+00  0.00000000000E+00  0.15806368509E+03  0.12751661848E+04  0.12653318419E+04 0.  0.
        2    1    3    3  502    0  0.24391862341E+03  0.46258898224E+03  0.43786284739E+03  0.68206211922E+03  0.25500000920E-02 0. -1.
       -2    1    3    3    0  502 -0.24391862341E+03 -0.46258898224E+03 -0.27979916230E+03  0.59310406555E+03  0.25500000920E-02 0.  1.
</event>
<event>
 5   0  0.1803959E-03  0.1284875E+04  0.7818609E-02  0.9041646E-01
       -1   -1    0    0    0  501  0.00000000000E+00  0.00000000000E+00  0.46776034246E+03  0.46776034249E+03  0.50400001928E-02 0.  1.
        1   -1    0    0  501    0  0.00000000000E+00  0.00000000000E+00 -0.88234470266E+03  0.88234470267E+03  0.50400001928E-02 0. -1.
    10030    2    1    2    0    0  0.00000000000E+00  0.00000000000E+00 -0.41458436019E+03  0.13501050452E+04  0.12848748738E+04 0.  0.
        4    1    3    3  502    0  0.13456229322E+03  0.26337730682E+03 -0.80655195935E+03  0.85907059811E+03  0.12699999809E+01 0. -1.
       -4    1    3    3    0  502 -0.13456229322E+03 -0.26337730682E+03  0.39196759916E+03  0.49103444705E+03  0.12699999809E+01 0.  1.
</event>
<event>
 5   0  0.1857986E-03  0.1291802E+04  0.7818609E-02  0.9036092E-01
        1   -1    0    0  501    0  0.00000000000E+00  0.00000000000E+00  0.53626761848E+03  0.53626761851E+03  0.50400001928E-02 0.  1.
       -1   -1    0    0    0  501  0.00000000000E+00  0.00000000000E+00 -0.77794713064E+03  0.77794713065E+03  0.50400001928E-02 0. -1.
    10030    2    1    2    0    0  0.00000000000E+00  0.00000000000E+00 -0.24167951215E+03  0.13142147492E+04  0.12918016180E+04 0.  0.
        1    1    3    3  502    0  0.14672386804E+03 -0.11267971729E+03  0.50873754103E+03  0.54133030380E+03  0.50400001928E-02 0.  1.
       -1    1    3    3    0  502 -0.14672386804E+03  0.11267971729E+03 -0.75041705318E+03  0.77288444536E+03  0.50400001928E-02 0. -1.
</event>
<event>
 5   0  0.3294720E-03  0.1304503E+04  0.7818609E-02  0.9026002E-01
       -2   -1    0    0    0  501  0.00000000000E+00  0.00000000000E+00  0.50958885642E+03  0.50958885642E+03  0.25500000920E-02 0.  1.
        2   -1    0    0  501    0  0.00000000000E+00  0.00000000000E+00 -0.83485375822E+03  0.83485375823E+03  0.25500000920E-02 0. -1.
    10030    2    1    2    0    0  0.00000000000E+00  0.00000000000E+00 -0.32526490180E+03  0.13444426147E+04  0.13045032341E+04 0.  0.
        5    1    3    3  502    0  0.33718665709E+03 -0.40881895167E+03  0.22924897692E+03  0.57741229670E+03  0.46999998093E+01 0.  1.
       -5    1    3    3    0  502 -0.33718665709E+03  0.40881895167E+03 -0.55451387872E+03  0.76703031795E+03  0.46999998093E+01 0. -1.
</event>
<event>
 5   0  0.1873488E-03  0.1288413E+04  0.7818609E-02  0.9038805E-01
       -1   -1    0    0    0  501  0.00000000000E+00  0.00000000000E+00  0.43774041847E+03  0.43774041849E+03  0.50400001928E-02 0.  1.
        1   -1    0    0  501    0  0.00000000000E+00  0.00000000000E+00 -0.94805457994E+03  0.94805457996E+03  0.50400001928E-02 0. -1.
    10030    2    1    2    0    0  0.00000000000E+00  0.00000000000E+00 -0.51031416148E+03  0.13857949985E+04  0.12884126801E+04 0.  0.
        3    1    3    3  502    0 -0.13899607784E+03 -0.45483364965E+02  0.41964870881E+03  0.44440262730E+03  0.10100000352E+00 0.  1.
       -3    1    3    3    0  502  0.13899607784E+03  0.45483364965E+02 -0.92996287029E+03  0.94139237115E+03  0.10100000352E+00 0. -1.
</event>
<event>
 5   0  0.1873488E-03  0.1284238E+04  0.7818609E-02  0.9042159E-01
       -1   -1    0    0    0  501  0.00000000000E+00  0.00000000000E+00  0.29099172177E+03  0.29099172181E+03  0.50400001928E-02 0. -1.
        1   -1    0    0  501    0  0.00000000000E+00  0.00000000000E+00 -0.14169364470E+04  0.14169364470E+04  0.50400001928E-02 0.  1.
    10030    2    1    2    0    0  0.00000000000E+00  0.00000000000E+00 -0.11259447252E+04  0.17079281688E+04  0.12842379474E+04 0.  0.
        3    1    3    3  502    0 -0.42352911762E+03  0.65347028435E+02 -0.11989302186E+04  0.12732167242E+04  0.10100000352E+00 0.  1.
       -3    1    3    3    0  502  0.42352911762E+03 -0.65347028435E+02  0.72985493378E+02  0.43471144458E+03  0.10100000352E+00 0. -1.
</event>
<event>
 5   0  0.3299104E-03  0.1290672E+04  0.7818609E-02  0.9036995E-01
       -2   -1    0    0    0  501  0.00000000000E+00  0.00000000000E+00  0.33537702219E+03  0.33537702220E+03  0.25500000920E-02 0. -1.
        2   -1    0    0  501    0  0.00000000000E+00  0.00000000000E+00 -0.12417618133E+04  0.12417618133E+04  0.25500000920E-02 0.  1.
    10030    2    1    2    0    0  0.00000000000E+00  0.00000000000E+00 -0.90638479106E+03  0.15771388355E+04  0.12906717309E+04 0.  0.
        2    1    3    3  502    0  0.40503390425E+02  0.53064124130E+03 -0.71586302963E+01  0.53223293547E+03  0.25500000920E-02 0. -1.
       -2    1    3    3    0  502 -0.40503390425E+02 -0.53064124130E+03 -0.89922616076E+03  0.10449059000E+04  0.25500000920E-02 0.  1.
</event>
<event>
 5   0  0.3259968E-03  0.1276645E+04  0.7818609E-02  0.9048294E-01
       -2   -1    0    0    0  501  0.00000000000E+00  0.00000000000E+00  0.63829225537E+03  0.63829225537E+03  0.25500000920E-02 0.  1.
        2   -1    0    0  501    0  0.00000000000E+00  0.00000000000E+00 -0.63835274502E+03  0.63835274503E+03  0.25500000920E-02 0. -1.
    10030    2    1    2    0    0  0.00000000000E+00  0.00000000000E+00 -0.60489653397E-01  0.12766450004E+04  0.12766449990E+04 0.  0.
        4    1    3    3  502    0  0.22681748704E+03 -0.41434454929E+03 -0.42936277668E+03  0.63834284272E+03  0.12699999809E+01 0. -1.
       -4    1    3    3    0  502 -0.22681748704E+03  0.41434454929E+03  0.42930228703E+03  0.63830215768E+03  0.12699999809E+01 0.  1.
</event>
<event>
 5   0  0.1873488E-03  0.1315303E+04  0.7818609E-02  0.9017517E-01
        1   -1    0    0  501    0  0.00000000000E+00  0.00000000000E+00  0.12710882914E+04  0.12710882914E+04  0.50400001928E-02 0.  1.
       -1   -1    0    0    0  501  0.00000000000E+00  0.00000000000E+00 -0.34026413210E+03  0.34026413214E+03  0.50400001928E-02 0. -1.
    10030    2    1    2    0    0  0.00000000000E+00  0.00000000000E+00  0.93082415933E+03  0.16113524236E+04  0.13153033937E+04 0.  0.
        3    1    3    3  502    0  0.54430686439E+03  0.17497462463E+03  0.67271006110E+02  0.57568348973E+03  0.10100000352E+00 0. -1.
       -3    1    3    3    0  502 -0.54430686439E+03 -0.17497462463E+03  0.86355315322E+03  0.10356689338E+04  0.10100000352E+00 0.  1.
</event>
<event>
 5   0  0.3299104E-03  0.1250688E+04  0.7818609E-02  0.9069611E-01
        2   -1    0    0  501    0  0.00000000000E+00  0.00000000000E+00  0.57147733268E+03  0.57147733269E+03  0.25500000920E-02 0. -1.
       -2   -1    0    0    0  501  0.00000000000E+00  0.00000000000E+00 -0.68428828673E+03  0.68428828674E+03  0.25500000920E-02 0.  1.
    10030    2    1    2    0    0  0.00000000000E+00  0.00000000000E+00 -0.11281095405E+03  0.12557656194E+04  0.12506882024E+04 0.  0.
        2    1    3    3  502    0 -0.38431908778E+03 -0.17330461873E+03  0.40733489754E+03  0.58622297026E+03  0.25500000920E-02 0. -1.
       -2    1    3    3    0  502  0.38431908778E+03  0.17330461873E+03 -0.52014585159E+03  0.66954264916E+03  0.25500000920E-02 0.  1.
</event>
<event>
 5   0  0.3259968E-03  0.1275633E+04  0.7818609E-02  0.9049115E-01
        2   -1    0    0  501    0  0.00000000000E+00  0.00000000000E+00  0.97212303849E+03  0.97212303850E+03  0.25500000920E-02 0. -1.
       -2   -1    0    0    0  501  0.00000000000E+00  0.00000000000E+00 -0.41847553544E+03  0.41847553545E+03  0.25500000920E-02 0.  1.
    10030    2    1    2    0    0  0.00000000000E+00  0.00000000000E+00  0.55364750305E+03  0.13905985739E+04  0.12756327200E+04 0.  0.
        4    1    3    3  502    0  0.49793350644E+03  0.39591753199E+03  0.32701244264E+03  0.71528121708E+03  0.12699999809E+01 0. -1.
       -4    1    3    3    0  502 -0.49793350644E+03 -0.39591753199E+03  0.22663506041E+03  0.67531735686E+03  0.12699999809E+01 0.  1.
</event>
<event>
 5   0  0.3262927E-03  0.1286787E+04  0.7818609E-02  0.9040109E-01
        2   -1    0    0  501    0  0.00000000000E+00  0.00000000000E+00  0.14858677625E+04  0.14858677625E+04  0.25500000920E-02 0. -1.
       -2   -1    0    0    0  501  0.00000000000E+00  0.00000000000E+00 -0.27859485463E+03  0.27859485464E+03  0.25500000920E-02 0.  1.
    10030    2    1    2    0    0  0.00000000000E+00  0.00000000000E+00  0.12072729079E+04  0.17644626172E+04  0.12867868717E+04 0.  0.
        3    1    3    3  502    0  0.53653575418E+03 -0.32533245919E+03  0.40854139687E+03  0.74874422046E+03  0.10100000352E+00 0. -1.
       -3    1    3    3    0  502 -0.53653575418E+03  0.32533245919E+03  0.79873151102E+03  0.10157183967E+04  0.10100000352E+00 0.  1.
</event>
<event>
 5   0  0.1873488E-03  0.1315079E+04  0.7818609E-02  0.9017692E-01
        1   -1    0    0  501    0  0.00000000000E+00  0.00000000000E+00  0.11763334327E+04  0.11763334328E+04  0.50400001928E-02 0.  1.
       -1   -1    0    0    0  501  0.00000000000E+00  0.00000000000E+00 -0.36754720189E+03  0.36754720192E+03  0.50400001928E-02 0. -1.
    10030    2    1    2    0    0  0.00000000000E+00  0.00000000000E+00  0.80878623085E+03  0.15438806347E+04  0.13150787987E+04 0.  0.
        3    1    3    3  502    0  0.16035123926E+03  0.47162290316E+02  0.11509775430E+04  0.11630503498E+04  0.10100000352E+00 0.  1.
       -3    1    3    3    0  502 -0.16035123926E+03 -0.47162290316E+02 -0.34219131214E+03  0.38083028485E+03  0.10100000352E+00 0. -1.
</event>
<event>
 5   0  0.3299104E-03  0.1290289E+04  0.7818609E-02  0.9037302E-01
        2   -1    0    0  501    0  0.00000000000E+00  0.00000000000E+00  0.93911914465E+03  0.93911914465E+03  0.25500000920E-02 0.  1.
       -2   -1    0    0    0  501  0.00000000000E+00  0.00000000000E+00 -0.44319356465E+03  0.44319356466E+03  0.25500000920E-02 0. -1.
    10030    2    1    2    0    0  0.00000000000E+00  0.00000000000E+00  0.49592558000E+03  0.13823127093E+04  0.12902892100E+04 0.  0.
        2    1    3    3  502    0  0.59831079698E+03  0.76957314339E+02  0.29293309838E+01  0.60324689722E+03  0.25500000920E-02 0. -1.
       -2    1    3    3    0  502 -0.59831079698E+03 -0.76957314339E+02  0.49299624902E+03  0.77906581209E+03  0.25500000920E-02 0.  1.
</event>
<event>
 5   0  0.1814770E-03  0.1306565E+04  0.7818609E-02  0.9024375E-01
       -1   -1    0    0    0  501  0.00000000000E+00  0.00000000000E+00  0.33903111735E+03  0.33903111739E+03  0.50400001928E-02 0. -1.
        1   -1    0    0  501    0  0.00000000000E+00  0.00000000000E+00 -0.12588172166E+04  0.12588172166E+04  0.50400001928E-02 0.  1.
    10030    2    1    2    0    0  0.00000000000E+00  0.00000000000E+00 -0.91978609929E+03  0.15978483340E+04  0.13065652797E+04 0.  0.
        5    1    3    3  502    0 -0.39009453721E+03  0.52399094146E+03 -0.46476378824E+03  0.80172796107E+03  0.46999998093E+01 0.  1.
       -5    1    3    3    0  502  0.39009453721E+03 -0.52399094146E+03 -0.45502231105E+03  0.79612037297E+03  0.46999998093E+01 0. -1.
</event>
<event>
 5   0  0.1803959E-03  0.1312845E+04  0.7818609E-02  0.9019440E-01
        1   -1    0    0  501    0  0.00000000000E+00  0.00000000000E+00  0.95847496639E+03  0.95847496640E+03  0.50400001928E-02 0. -1.
       -1   -1    0    0    0  501  0.00000000000E+00  0.00000000000E+00 -0.44955867969E+03  0.44955867972E+03  0.50400001928E-02 0.  1.
    10030    2    1    2    0    0  0.00000000000E+00  0.00000000000E+00  0.50891628670E+03  0.14080336461E+04  0.13128453686E+04 0.  0.
        4    1    3    3  502    0  0.48317241727E+01  0.65369822347E+03  0.31830973314E+03  0.72709518774E+03  0.12699999809E+01 0.  1.
       -4    1    3    3    0  502 -0.48317241727E+01 -0.65369822347E+03  0.19060655356E+03  0.68093845837E+03  0.12699999809E+01 0. -1.
</event>
<event>
 5   0  0.3299104E-03  0.1323879E+04  0.7818609E-02  0.9010841E-01
       -2   -1    0    0    0  501  0.00000000000E+00  0.00000000000E+00  0.75370860413E+03  0.75370860413E+03  0.25500000920E-02 0. -1.
        2   -1    0    0  501    0  0.00000000000E+00  0.00000000000E+00 -0.58134351274E+03  0.58134351274E+03  0.25500000920E-02 0.  1.
    10030    2    1    2    0    0  0.00000000000E+00  0.00000000000E+00  0.17236509139E+03  0.13350521169E+04  0.13238785556E+04 0.  0.
        2    1    3    3  502    0  0.43110272877E+03 -0.17163411617E+03 -0.38987781195E+03  0.60606314922E+03  0.25500000920E-02 0.  1.
       -2    1    3    3    0  502 -0.43110272877E+03  0.17163411617E+03  0.56224290334E+03  0.72898896765E+03  0.25500000920E-02 0. -1.
</event>
<event>
 5   0  0.1814770E-03  0.1297990E+04  0.7818609E-02  0.9031161E-01
       -1   -1    0    0    0  501  0.00000000000E+00  0.00000000000E+00  0.87510491009E+03  0.87510491011E+03  0.50400001928E-02 0.  1.
        1   -1    0    0  501    0  0.00000000000E+00  0.00000000000E+00 -0.48130707714E+03  0.48130707716E+03  0.50400001928E-02 0. -1.
    10030    2    1    2    0    0  0.00000000000E+00  0.00000000000E+00  0.39379783296E+03  0.13564119873E+04  0.12979895015E+04 0.  0.
        5    1    3    3  502    0  0.18489116584E+03  0.42303876419E+03 -0.27972824356E+03  0.53983008387E+03  0.46999998093E+01 0. -1.
       -5    1    3    3    0  502 -0.18489116584E+03 -0.42303876419E+03  0.67352607651E+03  0.81658190339E+03  0.46999998093E+01 0.  1.
</event>
<event>
 5   0  0.1873488E-03  0.1222317E+04  0.7818609E-02  0.9093544E-01
       -1   -1    0    0    0  501  0.00000000000E+00  0.00000000000E+00  0.11323123767E+04  0.11323123767E+04  0.50400001928E-02 0.  1.
        1   -1    0    0  501    0  0.00000000000E+00  0.00000000000E+00 -0.32986870570E+03  0.32986870574E+03  0.50400001928E-02 0. -1.
    10030    2    1    2    0    0  0.00000000000E+00  0.00000000000E+00  0.80244367097E+03  0.14621810824E+04  0.12223165190E+04 0.  0.
        3    1    3    3  502    0 -0.85709767015E+02  0.17063856065E+03 -0.29326675099E+03  0.34995582576E+03  0.10100000352E+00 0. -1.
       -3    1    3    3    0  502  0.85709767015E+02 -0.17063856065E+03  0.10957104220E+04  0.11122252567E+04  0.10100000352E+00 0.  1.
</event>
<event>
 5   0  0.1873488E-03  0.1308650E+04  0.7818609E-02  0.9022733E-01
       -1   -1    0    0    0  501  0.00000000000E+00  0.00000000000E+00  0.65085530654E+03  0.65085530656E+03  0.50400001928E-02 0. -1.
        1   -1    0    0  501    0  0.00000000000E+00  0.00000000000E+00 -0.65781358333E+03  0.65781358335E+03  0.50400001928E-02 0.  1.
    10030    2    1    2    0    0  0.00000000000E+00  0.00000000000E+00 -0.69582767928E+01  0.13086688899E+04  0.13086503910E+04 0.  0.
        3    1    3    3  502    0  0.22512294125E+03 -0.55896032946E+03 -0.25848168943E+03  0.65569030995E+03  0.10100000352E+00 0.  1.
       -3    1    3    3    0  502 -0.22512294125E+03  0.55896032946E+03  0.25152341263E+03  0.65297857997E+03  0.10100000352E+00 0. -1.
</event>
<event>
 5   0  0.1823154E-03  0.1329782E+04  0.7818609E-02  0.9006276E-01
       -1   -1    0    0    0  501  0.00000000000E+00  0.00000000000E+00  0.89588752522E+03  0.89588752523E+03  0.50400001928E-02 0. -1.
        1   -1    0    0  501    0  0.00000000000E+00  0.00000000000E+00 -0.49345473381E+03  0.49345473384E+03  0.50400001928E-02 0.  1.
    10030    2    1    2    0    0  0.00000000000E+00  0.00000000000E+00  0.40243279140E+03  0.13893422591E+04  0.13297818472E+04 0.  0.
        2    1    3    3  502    0  0.31503612773E+03 -0.83698850287E+02  0.80667777259E+03  0.87004729073E+03  0.25500000920E-02 0. -1.
       -2    1    3    3    0  502 -0.31503612773E+03  0.83698850287E+02 -0.40424498119E+03  0.51929496834E+03  0.25500000920E-02 0.  1.
</event>
<event>
 5   0  0.3294720E-03  0.1291778E+04  0.7818609E-02  0.9036110E-01
        2   -1    0    0  501    0  0.00000000000E+00  0.00000000000E+00  0.43986525458E+03  0.43986525459E+03  0.25500000920E-02 0.  1.
       -2   -1    0    0    0  501  0.00000000000E+00  0.00000000000E+00 -0.94841056912E+03  0.94841056912E+03  0.25500000920E-02 0. -1.
    10030    2    1    2    0    0  0.00000000000E+00  0.00000000000E+00 -0.50854531454E+03  0.13882758237E+04  0.12917783965E+04 0.  0.
        5    1    3    3  502    0  0.19165913549E+03  0.27050100309E+03 -0.84997785842E+03  0.91235325763E+03  0.46999998093E+01 0. -1.
       -5    1    3    3    0  502 -0.19165913549E+03 -0.27050100309E+03  0.34143254389E+03  0.47592256609E+03  0.46999998093E+01 0.  1.
</event>
<event>
 5   0  0.1803959E-03  0.1177904E+04  0.7818609E-02  0.9132420E-01
       -1   -1    0    0    0  501  0.00000000000E+00  0.00000000000E+00  0.33883365545E+03  0.33883365549E+03  0.50400001928E-02 0. -1.
        1   -1    0    0  501    0  0.00000000000E+00  0.00000000000E+00 -0.10237011505E+04  0.10237011505E+04  0.50400001928E-02 0.  1.
    10030    2    1    2    0    0  0.00000000000E+00  0.00000000000E+00 -0.68486749504E+03  0.13625348060E+04  0.11779039060E+04 0.  0.
        4    1    3    3  502    0  0.29636808733E+03 -0.39293711287E+03  0.31732094548E+02  0.49319586026E+03  0.12699999809E+01 0. -1.
       -4    1    3    3    0  502 -0.29636808733E+03  0.39293711287E+03 -0.71659958959E+03  0.86933894573E+03  0.12699999809E+01 0.  1.
</event>
<event>
 5   0  0.1873488E-03  0.1326306E+04  0.7818609E-02  0.9008960E-01
       -1   -1    0    0    0  501  0.00000000000E+00  0.00000000000E+00  0.25177479414E+03  0.25177479419E+03  0.50400001928E-02 0. -1.
        1   -1    0    0  501    0  0.00000000000E+00  0.00000000000E+00 -0.17466881175E+04  0.17466881175E+04  0.50400001928E-02 0.  1.
    10030    2    1    2    0    0  0.00000000000E+00  0.00000000000E+00 -0.14949133234E+04  0.19984629117E+04  0.13263062109E+04 0.  0.
        3    1    3    3  502    0  0.29953396458E+02  0.65741856370E+02 -0.17407409880E+04  0.17422394769E+04  0.10100000352E+00 0.  1.
       -3    1    3    3    0  502 -0.29953396458E+02 -0.65741856370E+02  0.24582766459E+03  0.25622343476E+03  0.10100000352E+00 0. -1.
</event>
<event>
 5   0  0.3299104E-03  0.1227711E+04  0.7818609E-02  0.9088941E-01
       -2   -1    0    0    0  501  0.00000000000E+00  0.00000000000E+00  0.69376717158E+03  0.69376717159E+03  0.25500000920E-02 0.  1.
        2   -1    0    0  501    0  0.00000000000E+00  0.00000000000E+00 -0.54314859687E+03  0.54314859688E+03  0.25500000920E-02 0. -1.
    10030    2    1    2    0    0  0.00000000000E+00  0.00000000000E+00  0.15061857471E+03  0.12369157685E+04  0.12277111481E+04 0.  0.
        2    1    3    3  502    0 -0.31456072200E+02 -0.54369965862E+02  0.69052078928E+03  0.69337186134E+03  0.25500000920E-02 0.  1.
       -2    1    3    3    0  502  0.31456072200E+02  0.54369965862E+02 -0.53990221457E+03  0.54354390712E+03  0.25500000920E-02 0. -1.
</event>
<event>
 5   0  0.1254125E-03  0.1303560E+04  0.7818609E-02  0.9026747E-01
       -4   -1    0    0    0  501  0.00000000000E+00  0.00000000000E+00  0.12365193893E+04  0.12365200415E+04  0.12699999809E+01 0.  1.
        4   -1    0    0  501    0  0.00000000000E+00  0.00000000000E+00 -0.34355704243E+03  0.34355938977E+03  0.12699999809E+01 0. -1.
    10030    2    1    2    0    0  0.00000000000E+00  0.00000000000E+00  0.89296234692E+03  0.15800794313E+04  0.13035602235E+04 0.  0.
        5    1    3    3  502    0  0.27456947475E+03  0.59086579776E+03  0.42603836345E+03  0.77848671443E+03  0.46999998093E+01 0.  1.
       -5    1    3    3    0  502 -0.27456947475E+03 -0.59086579776E+03  0.46692398347E+03  0.80159271688E+03  0.46999998093E+01 0. -1.
</event>
<event>
 5   0  0.3294720E-03  0.1100757E+04  0.7818609E-02  0.9204454E-01
        2   -1    0    0  501    0  0.00000000000E+00  0.00000000000E+00  0.93000483357E+03  0.93000483357E+03  0.25500000920E-02 0.  1.
       -2   -1    0    0    0  501  0.00000000000E+00  0.00000000000E+00 -0.32571511021E+03  0.32571511022E+03  0.25500000920E-02 0. -1.
    10030    2    1    2    0    0  0.00000000000E+00  0.00000000000E+00  0.60428972336E+03  0.12557199438E+04  0.11007572428E+04 0.  0.
        5    1    3    3  502    0  0.11506189461E+03  0.21121059410E+02  0.91563458317E+03  0.92308944238E+03  0.46999998093E+01 0.  1.
       -5    1    3    3    0  502 -0.11506189461E+03 -0.21121059410E+02 -0.31134485981E+03  0.33263050141E+03  0.46999998093E+01 0. -1.
</event>
<event>
 5   0  0.1857986E-03  0.1288999E+04  0.7818609E-02  0.9038335E-01
        1   -1    0    0  501    0  0.00000000000E+00  0.00000000000E+00  0.85139348901E+03  0.85139348902E+03  0.50400001928E-02 0.  1.
       -1   -1    0    0    0  501  0.00000000000E+00  0.00000000000E+00 -0.48788177830E+03  0.48788177833E+03  0.50400001928E-02 0. -1.
    10030    2    1    2    0    0  0.00000000000E+00  0.00000000000E+00  0.36351171071E+03  0.13392752673E+04  0.12889986338E+04 0.  0.
        1    1    3    3  502    0 -0.36864774682E+03 -0.25851454736E+03 -0.29736876611E+03  0.53959161921E+03  0.50400001928E-02 0. -1.
       -1    1    3    3    0  502  0.36864774682E+03  0.25851454736E+03  0.66088047682E+03  0.79968364814E+03  0.50400001928E-02 0.  1.
</event>
<event>
 5   0  0.3262927E-03  0.1307290E+04  0.7818609E-02  0.9023804E-01
        2   -1    0    0  501    0  0.00000000000E+00  0.00000000000E+00  0.10612218377E+04  0.10612218377E+04  0.25500000920E-02 0.  1.
       -2   -1    0    0    0  501  0.00000000000E+00  0.00000000000E+00 -0.40260363864E+03  0.40260363865E+03  0.25500000920E-02 0. -1.
    10030    2    1    2    0    0  0.00000000000E+00  0.00000000000E+00  0.65861819910E+03  0.14638254764E+04  0.13072899805E+04 0.  0.
        3    1    3    3  502    0  0.10071646851E+03  0.46838233154E+03  0.82721721101E+03  0.95593626353E+03  0.10100000352E+00 0.  1.
       -3    1    3    3    0  502 -0.10071646851E+03 -0.46838233154E+03 -0.16859901191E+03  0.50788921287E+03  0.10100000352E+00 0. -1.
</event>
<event>
 5   0  0.3294720E-03  0.1456608E+04  0.7818609E-02  0.8913832E-01
        2   -1    0    0  501    0  0.00000000000E+00  0.00000000000E+00  0.16628249676E+04  0.16628249676E+04  0.25500000920E-02 0. -1.
       -2   -1    0    0    0  501  0.00000000000E+00  0.00000000000E+00 -0.31899141234E+03  0.31899141235E+03  0.25500000920E-02 0.  1.
    10030    2    1    2    0    0  0.00000000000E+00  0.00000000000E+00  0.13438335553E+04  0.19818163800E+04  0.14566082314E+04 0.  0.
        5    1    3    3  502    0 -0.37483296060E+03 -0.21791222153E+03 -0.12424216547E+03  0.45104732603E+03  0.46999998093E+01 0.  1.
       -5    1    3    3    0  502  0.37483296060E+03  0.21791222153E+03  0.14680757208E+04  0.15307690540E+04  0.46999998093E+01 0. -1.
</event>
<event>
 5   0  0.1857986E-03  0.1291573E+04  0.7818609E-02  0.9036275E-01
        1   -1    0    0  501    0  0.00000000000E+00  0.00000000000E+00  0.87446101602E+03  0.87446101604E+03  0.50400001928E-02 0.  1.
       -1   -1    0    0    0  501  0.00000000000E+00  0.00000000000E+00 -0.47691107210E+03  0.47691107213E+03  0.50400001928E-02 0. -1.
    10030    2    1    2    0    0  0.00000000000E+00  0.00000000000E+00  0.39754994392E+03  0.13513720882E+04  0.12915729026E+04 0.  0.
        1    1    3    3  502    0  0.20662929109E+03 -0.81361544250E+02  0.83325428352E+03  0.86233871875E+03  0.50400001928E-02 0.  1.
       -1    1    3    3    0  502 -0.20662929109E+03  0.81361544250E+02 -0.43570433960E+03  0.48903336941E+03  0.50400001928E-02 0. -1.
</event>
<event>
 5   0  0.3299104E-03  0.1300658E+04  0.7818609E-02  0.9029044E-01
       -2   -1    0    0    0  501  0.00000000000E+00  0.00000000000E+00  0.31181958607E+03  0.31181958608E+03  0.25500000920E-02 0. -1.
        2   -1    0    0  501    0  0.00000000000E+00  0.00000000000E+00 -0.13563218057E+04  0.13563218057E+04  0.25500000920E-02 0.  1.
    10030    2    1    2    0    0  0.00000000000E+00  0.00000000000E+00 -0.10445022196E+04  0.16681413917E+04  0.13006578398E+04 0.  0.
        2    1    3    3  502    0 -0.45513643333E+03 -0.33623120056E+03 -0.11118437562E+03  0.57668237234E+03  0.25500000920E-02 0. -1.
       -2    1    3    3    0  502  0.45513643333E+03  0.33623120056E+03 -0.93331784397E+03  0.10914590194E+04  0.25500000920E-02 0.  1.
</event>
<event>
 5   0  0.3294720E-03  0.1290039E+04  0.7818609E-02  0.9037502E-01
       -2   -1    0    0    0  501  0.00000000000E+00  0.00000000000E+00  0.31376610915E+03  0.31376610916E+03  0.25500000920E-02 0.  1.
        2   -1    0    0  501    0  0.00000000000E+00  0.00000000000E+00 -0.13259874549E+04  0.13259874549E+04  0.25500000920E-02 0. -1.
    10030    2    1    2    0    0  0.00000000000E+00  0.00000000000E+00 -0.10122213458E+04  0.16397535641E+04  0.12900386421E+04 0.  0.
        5    1    3    3  502    0  0.30701867389E+03 -0.50500081616E+03 -0.17773272155E+03  0.61716877817E+03  0.46999998093E+01 0.  1.
       -5    1    3    3    0  502 -0.30701867389E+03  0.50500081616E+03 -0.83448862421E+03  0.10225847859E+04  0.46999998093E+01 0. -1.
</event>
<event>
 5   0  0.1823154E-03  0.1317295E+04  0.7818609E-02  0.9015961E-01
       -1   -1    0    0    0  501  0.00000000000E+00  0.00000000000E+00  0.46279364122E+03  0.46279364125E+03  0.50400001928E-02 0.  1.
        1   -1    0    0  501    0  0.00000000000E+00  0.00000000000E+00 -0.93738668559E+03  0.93738668560E+03  0.50400001928E-02 0. -1.
    10030    2    1    2    0    0  0.00000000000E+00  0.00000000000E+00 -0.47459304436E+03  0.14001803268E+04  0.13172951036E+04 0.  0.
        2    1    3    3  502    0  0.46610550479E+03  0.14852806798E+03 -0.70606949006E+03  0.85898140456E+03  0.25500000920E-02 0. -1.
       -2    1    3    3    0  502 -0.46610550479E+03 -0.14852806798E+03  0.23147644570E+03  0.54119892229E+03  0.25500000920E-02 0.  1.
</event>
<event>
 5   0  0.3294720E-03  0.1317052E+04  0.7818609E-02  0.9016151E-01
       -2   -1    0    0    0  501  0.00000000000E+00  0.00000000000E+00  0.21042199757E+03  0.21042199759E+03  0.25500000920E-02 0.  1.
        2   -1    0    0  501    0  0.00000000000E+00  0.00000000000E+00 -0.20608890742E+04  0.20608890742E+04  0.25500000920E-02 0. -1.
    10030    2    1    2    0    0  0.00000000000E+00  0.00000000000E+00 -0.18504670766E+04  0.22713110718E+04  0.13170518529E+04 0.  0.
        5    1    3    3  502    0  0.65134230787E+03  0.33940015642E+02 -0.76873120538E+03  0.10081510218E+04  0.46999998093E+01 0.  1.
       -5    1    3    3    0  502 -0.65134230787E+03 -0.33940015642E+02 -0.10817358712E+04  0.12631600499E+04  0.46999998093E+01 0. -1.
</event>
<event>
 5   0  0.1803959E-03  0.1278266E+04  0.7818609E-02  0.9046980E-01
       -1   -1    0    0    0  501  0.00000000000E+00  0.00000000000E+00  0.25522684696E+03  0.25522684701E+03  0.50400001928E-02 0. -1.
        1   -1    0    0  501    0  0.00000000000E+00  0.00000000000E+00 -0.16005019789E+04  0.16005019789E+04  0.50400001928E-02 0.  1.
    10030    2    1    2    0    0  0.00000000000E+00  0.00000000000E+00 -0.13452751319E+04  0.18557288259E+04  0.12782661283E+04 0.  0.
        4    1    3    3  502    0 -0.52442805818E+03  0.27119050492E+03 -0.10280073691E+04  0.11854829573E+04  0.12699999809E+01 0. -1.
       -4    1    3    3    0  502  0.52442805818E+03 -0.27119050492E+03 -0.31726776279E+03  0.67024586859E+03  0.12699999809E+01 0.  1.
</event>
<event>
 5   0  0.1814770E-03  0.1287642E+04  0.7818609E-02  0.9039423E-01
        1   -1    0    0  501    0  0.00000000000E+00  0.00000000000E+00  0.30727285643E+03  0.30727285647E+03  0.50400001928E-02 0. -1.
       -1   -1    0    0    0  501  0.00000000000E+00  0.00000000000E+00 -0.13489821459E+04  0.13489821459E+04  0.50400001928E-02 0.  1.
    10030    2    1    2    0    0  0.00000000000E+00  0.00000000000E+00 -0.10417092894E+04  0.16562550023E+04  0.12876421821E+04 0.  0.
        5    1    3    3  502    0  0.14174777194E+03 -0.85925452497E+02 -0.13210424322E+04  0.13314093330E+04  0.46999998093E+01 0.  1.
       -5    1    3    3    0  502 -0.14174777194E+03  0.85925452497E+02  0.27933314279E+03  0.32484566935E+03  0.46999998093E+01 0. -1.
</event>
<event>
 5   0  0.1814770E-03  0.1284670E+04  0.7818609E-02  0.9041811E-01
        1   -1    0    0  501    0  0.00000000000E+00  0.00000000000E+00  0.13313206302E+04  0.13313206302E+04  0.50400001928E-02 0. -1.
       -1   -1    0    0    0  501  0.00000000000E+00  0.00000000000E+00 -0.30991366963E+03  0.30991366967E+03  0.50400001928E-02 0.  1.
    10030    2    1    2    0    0  0.00000000000E+00  0.00000000000E+00  0.10214069606E+04  0.16412342999E+04  0.12846703266E+04 0.  0.
        5    1    3    3  502    0 -0.21469942581E+03 -0.40817058309E+01  0.12840819942E+04  0.13019221028E+04  0.46999998093E+01 0. -1.
       -5    1    3    3    0  502  0.21469942581E+03  0.40817058309E+01 -0.26267503369E+03  0.33931219708E+03  0.46999998093E+01 0.  1.
</event>
<event>
 5   0  0.1814770E-03  0.1274230E+04  0.7818609E-02  0.9050254E-01
        1   -1    0    0  501    0  0.00000000000E+00  0.00000000000E+00  0.10686638580E+04  0.10686638580E+04  0.50400001928E-02 0. -1.
       -1   -1    0    0    0  501  0.00000000000E+00  0.00000000000E+00 -0.37983486735E+03  0.37983486738E+03  0.50400001928E-02 0.  1.
    10030    2    1    2    0    0  0.00000000000E+00  0.00000000000E+00  0.68882899068E+03  0.14484987254E+04  0.12742304262E+04 0.  0.
        5    1    3    3  502    0  0.43716943072E+03 -0.87169588894E+02  0.86183307997E+03  0.97030613525E+03  0.46999998093E+01 0. -1.
       -5    1    3    3    0  502 -0.43716943072E+03  0.87169588894E+02 -0.17300408928E+03  0.47819259017E+03  0.46999998093E+01 0.  1.
</event>
<event>
 5   0  0.3262927E-03  0.1327188E+04  0.7818609E-02  0.9008279E-01
       -2   -1    0    0    0  501  0.00000000000E+00  0.00000000000E+00  0.64763971882E+03  0.64763971882E+03  0.25500000920E-02 0. -1.
        2   -1    0    0  501    0  0.00000000000E+00  0.00000000000E+00 -0.67994115088E+03  0.67994115089E+03  0.25500000920E-02 0.  1.
    10030    2    1    2    0    0  0.00000000000E+00  0.00000000000E+00 -0.32301432065E+02  0.13275808697E+04  0.13271878477E+04 0.  0.
        3    1    3    3  502    0  0.84413342155E+02 -0.61415892773E+03 -0.25294868921E+03  0.66955197738E+03  0.10100000352E+00 0.  1.
       -3    1    3    3    0  502 -0.84413342155E+02  0.61415892773E+03  0.22064725715E+03  0.65802889232E+03  0.10100000352E+00 0. -1.
</event>
<event>
 5   0  0.1814770E-03  0.1344400E+04  0.7818609E-02  0.8995078E-01
        1   -1    0    0  501    0  0.00000000000E+00  0.00000000000E+00  0.10619821077E+04  0.10619821077E+04  0.50400001928E-02 0. -1.
       -1   -1    0    0    0  501  0.00000000000E+00  0.00000000000E+00 -0.42548063652E+03  0.42548063655E+03  0.50400001928E-02 0.  1.
    10030    2    1    2    0    0  0.00000000000E+00  0.00000000000E+00  0.63650147114E+03  0.14874627442E+04  0.13443999750E+04 0.  0.
        5    1    3    3  502    0  0.17511290034E+03  0.43309043719E+02  0.10346829887E+04  0.10503005180E+04  0.46999998093E+01 0. -1.
       -5    1    3    3    0  502 -0.17511290034E+03 -0.43309043719E+02 -0.39818151751E+03  0.43716222620E+03  0.46999998093E+01 0.  1.
</event>
<event>
 5   0  0.1814770E-03  0.1311742E+04  0.7818609E-02  0.9020305E-01
        1   -1    0    0  501    0  0.00000000000E+00  0.00000000000E+00  0.96652514640E+03  0.96652514642E+03  0.50400001928E-02 0. -1.
       -1   -1    0    0    0  501  0.00000000000E+00  0.00000000000E+00 -0.44506535356E+03  0.44506535359E+03  0.50400001928E-02 0.  1.
    10030    2    1    2    0    0  0.00000000000E+00  0.00000000000E+00  0.52145979285E+03  0.14115905000E+04  0.13117421332E+04 0.  0.
        5    1    3    3  502    0  0.22510420171E+03 -0.84567565952E+02 -0.39589770783E+03  0.46322851801E+03  0.46999998093E+01 0.  1.
       -5    1    3    3    0  502 -0.22510420171E+03  0.84567565952E+02  0.91735750067E+03  0.94836198199E+03  0.46999998093E+01 0. -1.
</event>
<event>
 5   0  0.3262927E-03  0.8743874E+03  0.7818609E-02  0.9458177E-01
       -2   -1    0    0    0  501  0.00000000000E+00  0.00000000000E+00  0.32658521987E+03  0.32658521988E+03  0.25500000920E-02 0.  1.
        2   -1    0    0  501    0  0.00000000000E+00  0.00000000000E+00 -0.58526326438E+03  0.58526326438E+03  0.25500000920E-02 0. -1.
    10030    2    1    2    0    0  0.00000000000E+00  0.00000000000E+00 -0.25867804451E+03  0.91184848426E+03  0.87438740129E+03 0.  0.
        3    1    3    3  502    0  0.99978761665E+01  0.22190659787E+02  0.32587815089E+03  0.32678580498E+03  0.10100000352E+00 0.  1.
       -3    1    3    3    0  502 -0.99978761665E+01 -0.22190659787E+02 -0.58455619540E+03  0.58506267928E+03  0.10100000352E+00 0. -1.
</event>
<event>
 5   0  0.3336609E-03  0.1297771E+04  0.7818609E-02  0.9031335E-01
       -2   -1    0    0    0  501  0.00000000000E+00  0.00000000000E+00  0.25889697899E+04  0.25889697899E+04  0.25500000920E-02 0. -1.
        2   -1    0    0  501    0  0.00000000000E+00  0.00000000000E+00 -0.16263315756E+03  0.16263315758E+03  0.25500000920E-02 0.  1.
    10030    2    1    2    0    0  0.00000000000E+00  0.00000000000E+00  0.24263366323E+04  0.27516029475E+04  0.12977709070E+04 0.  0.
        1    1    3    3  502    0  0.97664242732E+02 -0.58118958919E+02 -0.14136689094E+03  0.18138554400E+03  0.50400001928E-02 0.  1.
       -1    1    3    3    0  502 -0.97664242732E+02  0.58118958919E+02  0.25677035233E+04  0.25702174035E+04  0.50400001928E-02 0. -1.
</event>
<event>
 5   0  0.3259968E-03  0.1298913E+04  0.7818609E-02  0.9030428E-01
       -2   -1    0    0    0  501  0.00000000000E+00  0.00000000000E+00  0.46077978114E+03  0.46077978115E+03  0.25500000920E-02 0.  1.
        2   -1    0    0  501    0  0.00000000000E+00  0.00000000000E+00 -0.91539131298E+03  0.91539131298E+03  0.25500000920E-02 0. -1.
    10030    2    1    2    0    0  0.00000000000E+00  0.00000000000E+00 -0.45461153184E+03  0.13761710941E+04  0.12989130977E+04 0.  0.
        4    1    3    3  502    0 -0.47123666424E+03 -0.92560833858E+02  0.23591885539E+03  0.53506151134E+03  0.12699999809E+01 0.  1.
       -4    1    3    3    0  502  0.47123666424E+03  0.92560833858E+02 -0.69053038723E+03  0.84110958280E+03  0.12699999809E+01 0. -1.
</event>
<event>
 5   0  0.1823154E-03  0.1280214E+04  0.7818609E-02  0.9045405E-01
        1   -1    0    0  501    0  0.00000000000E+00  0.00000000000E+00  0.94880787232E+03  0.94880787233E+03  0.50400001928E-02 0. -1.
       -1   -1    0    0    0  501  0.00000000000E+00  0.00000000000E+00 -0.43184388431E+03  0.43184388433E+03  0.50400001928E-02 0.  1.
    10030    2    1    2    0    0  0.00000000000E+00  0.00000000000E+00  0.51696398801E+03  0.13806517567E+04  0.12802138526E+04 0.  0.
        2    1    3    3  502    0 -0.23236897696E+03  0.19658897430E+03 -0.34880761847E+03  0.46293554733E+03  0.25500000920E-02 0.  1.
       -2    1    3    3    0  502  0.23236897696E+03 -0.19658897430E+03  0.86577160649E+03  0.91771620933E+03  0.25500000920E-02 0. -1.
</event>
<event>
 5   0  0.3294720E-03  0.1303465E+04  0.7818609E-02  0.9026822E-01
       -2   -1    0    0    0  501  0.00000000000E+00  0.00000000000E+00  0.60904967498E+03  0.60904967499E+03  0.25500000920E-02 0. -1.
        2   -1    0    0  501    0  0.00000000000E+00  0.00000000000E+00 -0.69740699666E+03  0.69740699667E+03  0.25500000920E-02 0.  1.
    10030    2    1    2    0    0  0.00000000000E+00  0.00000000000E+00 -0.88357321676E+02  0.13064566717E+04  0.13034653883E+04 0.  0.
        5    1    3    3  502    0  0.82990103538E+02 -0.62692140146E+03 -0.20206989448E+03  0.66390672021E+03  0.46999998093E+01 0.  1.
       -5    1    3    3    0  502 -0.82990103538E+02  0.62692140146E+03  0.11371257280E+03  0.64254995144E+03  0.46999998093E+01 0. -1.
</event>
<event>
 5   0  0.1803959E-03  0.1260596E+04  0.7818609E-02  0.9061410E-01
        1   -1    0    0  501    0  0.00000000000E+00  0.00000000000E+00  0.27209962114E+04  0.27209962114E+04  0.50400001928E-02 0.  1.
       -1   -1    0    0    0  501  0.00000000000E+00  0.00000000000E+00 -0.14600363806E+03  0.14600363814E+03  0.50400001928E-02 0. -1.
    10030    2    1    2    0    0  0.00000000000E+00  0.00000000000E+00  0.25749925733E+04  0.28669998495E+04  0.12605956467E+04 0.  0.
        4    1    3    3  502    0  0.41301415437E+03  0.17133310855E+03  0.27718027341E+03  0.52608577500E+03  0.12699999809E+01 0. -1.
       -4    1    3    3    0  502 -0.41301415437E+03 -0.17133310855E+03  0.22978122999E+04  0.23409140745E+04  0.12699999809E+01 0.  1.
</event>
<event>
 5   0  0.3336609E-03  0.1331820E+04  0.7818609E-02  0.9004705E-01
       -2   -1    0    0    0  501  0.00000000000E+00  0.00000000000E+00  0.22919249568E+03  0.22919249569E+03  0.25500000920E-02 0.  1.
        2   -1    0    0  501    0  0.00000000000E+00  0.00000000000E+00 -0.19347768017E+04  0.19347768017E+04  0.25500000920E-02 0. -1.
    10030    2    1    2    0    0  0.00000000000E+00  0.00000000000E+00 -0.17055843061E+04  0.21639692974E+04  0.13318202939E+04 0.  0.
        1    1    3    3  502    0  0.40362788615E+03 -0.52253054123E+03 -0.71224105302E+03  0.97120592802E+03  0.50400001928E-02 0. -1.
       -1    1    3    3    0  502 -0.40362788615E+03  0.52253054123E+03 -0.99334325303E+03  0.11927633694E+04  0.50400001928E-02 0.  1.
</event>
<event>
 5   0  0.3294720E-03  0.1275418E+04  0.7818609E-02  0.9049290E-01
        2   -1    0    0  501    0  0.00000000000E+00  0.00000000000E+00  0.70133970449E+03  0.70133970450E+03  0.25500000920E-02 0.  1.
       -2   -1    0    0    0  501  0.00000000000E+00  0.00000000000E+00 -0.57985103193E+03  0.57985103194E+03  0.25500000920E-02 0. -1.
    10030    2    1    2    0    0  0.00000000000E+00  0.00000000000E+00  0.12148867256E+03  0.12811907364E+04  0.12754176593E+04 0.  0.
        5    1    3    3  502    0  0.57263359416E+03  0.26237015088E+03  0.16070926286E+03  0.65007452373E+03  0.46999998093E+01 0.  1.
       -5    1    3    3    0  502 -0.57263359416E+03 -0.26237015088E+03 -0.39220590303E+02  0.63111621270E+03  0.46999998093E+01 0. -1.
</event>
<event>
 5   0  0.3299104E-03  0.1287033E+04  0.7818609E-02  0.9039912E-01
        2   -1    0    0  501    0  0.00000000000E+00  0.00000000000E+00  0.22866442710E+04  0.22866442710E+04  0.25500000920E-02 0.  1.
       -2   -1    0    0    0  501  0.00000000000E+00  0.00000000000E+00 -0.18110092889E+03  0.18110092891E+03  0.25500000920E-02 0. -1.
    10030    2    1    2    0    0  0.00000000000E+00  0.00000000000E+00  0.21055433421E+04  0.24677451999E+04  0.12870328691E+04 0.  0.
        2    1    3    3  502    0 -0.31957865192E+03 -0.43652510409E+03  0.17209176922E+04  0.18039518798E+04  0.25500000920E-02 0.  1.
       -2    1    3    3    0  502  0.31957865192E+03  0.43652510409E+03  0.38462564991E+03  0.66379332012E+03  0.25500000920E-02 0. -1.
</event>
<event>
 5   0  0.1857986E-03  0.1292079E+04  0.7818609E-02  0.9035871E-01
       -1   -1    0    0    0  501  0.00000000000E+00  0.00000000000E+00  0.63421140406E+03  0.63421140408E+03  0.50400001928E-02 0. -1.
        1   -1    0    0  501    0  0.00000000000E+00  0.00000000000E+00 -0.65808775567E+03  0.65808775569E+03  0.50400001928E-02 0.  1.
    10030    2    1    2    0    0  0.00000000000E+00  0.00000000000E+00 -0.23876351605E+02  0.12922991598E+04  0.12920785728E+04 0.  0.
        1    1    3    3  502    0  0.24006390048E+03  0.13382764583E+03 -0.59669707425E+03  0.65695350942E+03  0.50400001928E-02 0.  1.
       -1    1    3    3    0  502 -0.24006390048E+03 -0.13382764583E+03  0.57282072264E+03  0.63534565035E+03  0.50400001928E-02 0. -1.
</event>
<event>
 5   0  0.1803959E-03  0.1322094E+04  0.7818609E-02  0.9012225E-01
        1   -1    0    0  501    0  0.00000000000E+00  0.00000000000E+00  0.28831893484E+03  0.28831893488E+03  0.50400001928E-02 0.  1.
       -1   -1    0    0    0  501  0.00000000000E+00  0.00000000000E+00 -0.15156251177E+04  0.15156251177E+04  0.50400001928E-02 0. -1.
    10030    2    1    2    0    0  0.00000000000E+00  0.00000000000E+00 -0.12273061828E+04  0.18039440525E+04  0.13220944287E+04 0.  0.
        4    1    3    3  502    0  0.59259761117E+03 -0.44057608795E+01 -0.10133033567E+04  0.11738724995E+04  0.12699999809E+01 0. -1.
       -4    1    3    3    0  502 -0.59259761117E+03  0.44057608795E+01 -0.21400282615E+03  0.63007155307E+03  0.12699999809E+01 0.  1.
</event>
<event>
 5   0  0.3299104E-03  0.1192264E+04  0.7818609E-02  0.9119655E-01
        2   -1    0    0  501    0  0.00000000000E+00  0.00000000000E+00  0.10000012599E+04  0.10000012599E+04  0.25500000920E-02 0. -1.
       -2   -1    0    0    0  501  0.00000000000E+00  0.00000000000E+00 -0.35537303125E+03  0.35537303126E+03  0.25500000920E-02 0.  1.
    10030    2    1    2    0    0  0.00000000000E+00  0.00000000000E+00  0.64462822862E+03  0.13553742911E+04  0.11922641972E+04 0.  0.
        2    1    3    3  502    0 -0.11653118373E+03  0.31743202242E+03  0.88042832187E+03  0.94313129287E+03  0.25500000920E-02 0. -1.
       -2    1    3    3    0  502  0.11653118373E+03 -0.31743202242E+03 -0.23580009324E+03  0.41224299827E+03  0.25500000920E-02 0.  1.
</event>
<event>
 5   0  0.3294720E-03  0.1308619E+04  0.7818609E-02  0.9022758E-01
        2   -1    0    0  501    0  0.00000000000E+00  0.00000000000E+00  0.59098293358E+03  0.59098293358E+03  0.25500000920E-02 0. -1.
       -2   -1    0    0    0  501  0.00000000000E+00  0.00000000000E+00 -0.72442229567E+03  0.72442229567E+03  0.25500000920E-02 0.  1.
    10030    2    1    2    0    0  0.00000000000E+00  0.00000000000E+00 -0.13343936209E+03  0.13154052293E+04  0.13086194457E+04 0.  0.
        5    1    3    3  502    0 -0.56806666733E+03  0.10749573873E+03 -0.37464795534E+03  0.68893994863E+03  0.46999998093E+01 0.  1.
       -5    1    3    3    0  502  0.56806666733E+03 -0.10749573873E+03  0.24120859325E+03  0.62646528063E+03  0.46999998093E+01 0. -1.
</event>
<event>
 5   0  0.1803959E-03  0.1303642E+04  0.7818609E-02  0.9026682E-01
       -1   -1    0    0    0  501  0.00000000000E+00  0.00000000000E+00  0.49458973651E+03  0.49458973653E+03  0.50400001928E-02 0.  1.
        1   -1    0    0  501    0  0.00000000000E+00  0.00000000000E+00 -0.85903672695E+03  0.85903672696E+03  0.50400001928E-02 0. -1.
    10030    2    1    2    0    0  0.00000000000E+00  0.00000000000E+00 -0.36444699044E+03  0.13536264635E+04  0.13036422031E+04 0.  0.
        4    1    3    3  502    0 -0.37125475628E+03  0.67108597845E+02  0.36969750550E+03  0.52821540724E+03  0.12699999809E+01 0.  1.
       -4    1    3    3    0  502  0.37125475628E+03 -0.67108597845E+02 -0.73414449595E+03  0.82541105626E+03  0.12699999809E+01 0. -1.
</event>
<event>
 5   0  0.1823154E-03  0.1306400E+04  0.7818609E-02  0.9024506E-01
        1   -1    0    0  501    0  0.00000000000E+00  0.00000000000E+00  0.25816477196E+03  0.25816477201E+03  0.50400001928E-02 0.  1.
       -1   -1    0    0    0  501  0.00000000000E+00  0.00000000000E+00 -0.16527040274E+04  0.16527040274E+04  0.50400001928E-02 0. -1.
    10030    2    1    2    0    0  0.00000000000E+00  0.00000000000E+00 -0.13945392555E+04  0.19108687994E+04  0.13063995689E+04 0.  0.
        2    1    3    3  502    0  0.51717993949E+03 -0.24939458903E+03 -0.24172130001E+03  0.62297828031E+03  0.25500000920E-02 0.  1.
       -2    1    3    3    0  502 -0.51717993949E+03  0.24939458903E+03 -0.11528179555E+04  0.12878905191E+04  0.25500000920E-02 0. -1.
</event>
<event>
 5   0  0.3259968E-03  0.1297499E+04  0.7818609E-02  0.9031551E-01
        2   -1    0    0  501    0  0.00000000000E+00  0.00000000000E+00  0.12639772125E+04  0.12639772125E+04  0.25500000920E-02 0.  1.
       -2   -1    0    0    0  501  0.00000000000E+00  0.00000000000E+00 -0.33297736849E+03  0.33297736850E+03  0.25500000920E-02 0. -1.
    10030    2    1    2    0    0  0.00000000000E+00  0.00000000000E+00  0.93099984400E+03  0.15969545810E+04  0.12974988340E+04 0.  0.
        4    1    3    3  502    0  0.18553017229E+03  0.59622749239E+03  0.24891669681E+03  0.67221261693E+03  0.12699999809E+01 0. -1.
       -4    1    3    3    0  502 -0.18553017229E+03 -0.59622749239E+03  0.68208314718E+03  0.92474196405E+03  0.12699999809E+01 0.  1.
</event>
<event>
 5   0  0.1814770E-03  0.1290007E+04  0.7818609E-02  0.9037527E-01
       -1   -1    0    0    0  501  0.00000000000E+00  0.00000000000E+00  0.38859241740E+03  0.38859241743E+03  0.50400001928E-02 0.  1.
        1   -1    0    0  501    0  0.00000000000E+00  0.00000000000E+00 -0.10706065331E+04  0.10706065331E+04  0.50400001928E-02 0. -1.
    10030    2    1    2    0    0  0.00000000000E+00  0.00000000000E+00 -0.68201411567E+03  0.14591989505E+04  0.12900071020E+04 0.  0.
        5    1    3    3  502    0 -0.28991128548E+03  0.50179697268E+03 -0.20750643899E+02  0.57991502348E+03  0.46999998093E+01 0.  1.
       -5    1    3    3    0  502  0.28991128548E+03 -0.50179697268E+03 -0.66126347178E+03  0.87928392704E+03  0.46999998093E+01 0. -1.
</event>
<event>
 5   0  0.3259968E-03  0.1311953E+04  0.7818609E-02  0.9020140E-01
        2   -1    0    0  501    0  0.00000000000E+00  0.00000000000E+00  0.99033521857E+03  0.99033521858E+03  0.25500000920E-02 0. -1.
       -2   -1    0    0    0  501  0.00000000000E+00  0.00000000000E+00 -0.43450448249E+03  0.43450448250E+03  0.25500000920E-02 0.  1.
    10030    2    1    2    0    0  0.00000000000E+00  0.00000000000E+00  0.55583073608E+03  0.14248397011E+04  0.13119528828E+04 0.  0.
        4    1    3    3  502    0  0.36321979603E+02 -0.23774449172E+03 -0.38489395526E+03  0.45385757594E+03  0.12699999809E+01 0.  1.
       -4    1    3    3    0  502 -0.36321979603E+02  0.23774449172E+03  0.94072469134E+03  0.97098212514E+03  0.12699999809E+01 0. -1.
</event>
<event>
 5   0  0.3259968E-03  0.1324097E+04  0.7818609E-02  0.9010672E-01
        2   -1    0    0  501    0  0.00000000000E+00  0.00000000000E+00  0.10765694694E+04  0.10765694694E+04  0.25500000920E-02 0.  1.
       -2   -1    0    0    0  501  0.00000000000E+00  0.00000000000E+00 -0.40713386853E+03  0.40713386853E+03  0.25500000920E-02 0. -1.
    10030    2    1    2    0    0  0.00000000000E+00  0.00000000000E+00  0.66943560085E+03  0.14837033379E+04  0.13240965113E+04 0.  0.
        4    1    3    3  502    0 -0.47097129893E+03 -0.46451875105E+03  0.30476256485E+03  0.72833609572E+03  0.12699999809E+01 0.  1.
       -4    1    3    3    0  502  0.47097129893E+03  0.46451875105E+03  0.36467303600E+03  0.75536724219E+03  0.12699999809E+01 0. -1.
</event>
<event>
 5   0  0.3262927E-03  0.1306334E+04  0.7818609E-02  0.9024557E-01
       -2   -1    0    0    0  501  0.00000000000E+00  0.00000000000E+00  0.79397406187E+03  0.79397406187E+03  0.25500000920E-02 0.  1.
        2   -1    0    0  501    0  0.00000000000E+00  0.00000000000E+00 -0.53733130249E+03  0.53733130250E+03  0.25500000920E-02 0. -1.
    10030    2    1    2    0    0  0.00000000000E+00  0.00000000000E+00  0.25664275938E+03  0.13313053644E+04  0.13063339800E+04 0.  0.
        3    1    3    3  502    0  0.59583634435E+03  0.19539556967E+03 -0.58003305712E+02  0.62973388949E+03  0.10100000352E+00 0. -1.
       -3    1    3    3    0  502 -0.59583634435E+03 -0.19539556967E+03  0.31464606509E+03  0.70157147488E+03  0.10100000352E+00 0.  1.
</event>
<event>
 5   0  0.1823154E-03  0.1298729E+04  0.7818609E-02  0.9030574E-01
        1   -1    0    0  501    0  0.00000000000E+00  0.00000000000E+00  0.66019550773E+03  0.66019550775E+03  0.50400001928E-02 0. -1.
       -1   -1    0    0    0  501  0.00000000000E+00  0.00000000000E+00 -0.63871092387E+03  0.63871092389E+03  0.50400001928E-02 0.  1.
    10030    2    1    2    0    0  0.00000000000E+00  0.00000000000E+00  0.21484583868E+02  0.12989064316E+04  0.12987287364E+04 0.  0.
        2    1    3    3  502    0 -0.31096575870E+03 -0.46104061457E+03  0.34607301745E+03  0.65499975937E+03  0.25500000920E-02 0. -1.
       -2    1    3    3    0  502  0.31096575870E+03  0.46104061457E+03 -0.32458843358E+03  0.64390667227E+03  0.25500000920E-02 0.  1.
</event>
<event>
 5   0  0.1803959E-03  0.1263495E+04  0.7818609E-02  0.9059026E-01
        1   -1    0    0  501    0  0.00000000000E+00  0.00000000000E+00  0.49756695719E+03  0.49756695721E+03  0.50400001928E-02 0.  1.
       -1   -1    0    0    0  501  0.00000000000E+00  0.00000000000E+00 -0.80211272717E+03  0.80211272719E+03  0.50400001928E-02 0. -1.
    10030    2    1    2    0    0  0.00000000000E+00  0.00000000000E+00 -0.30454576999E+03  0.12996796844E+04  0.12634948184E+04 0.  0.
        4    1    3    3  502    0 -0.23616843388E+03  0.38324947507E+02 -0.75370453094E+03  0.79076953888E+03  0.12699999809E+01 0. -1.
       -4    1    3    3    0  502  0.23616843388E+03 -0.38324947507E+02  0.44915876096E+03  0.50891014552E+03  0.12699999809E+01 0.  1.
</event>
<event>
 5   0  0.1814770E-03  0.1303894E+04  0.7818609E-02  0.9026483E-01
        1   -1    0    0  501    0  0.00000000000E+00  0.00000000000E+00  0.47382544790E+03  0.47382544793E+03  0.50400001928E-02 0.  1.
       -1   -1    0    0    0  501  0.00000000000E+00  0.00000000000E+00 -0.89702904684E+03  0.89702904686E+03  0.50400001928E-02 0. -1.
    10030    2    1    2    0    0  0.00000000000E+00  0.00000000000E+00 -0.42320359894E+03  0.13708544948E+04  0.13038944588E+04 0.  0.
        5    1    3    3  502    0  0.18948582792E+03  0.54397651665E+03 -0.53256236881E+03  0.78451264893E+03  0.46999998093E+01 0. -1.
       -5    1    3    3    0  502 -0.18948582792E+03 -0.54397651665E+03  0.10935876987E+03  0.58634184585E+03  0.46999998093E+01 0.  1.
</event>
<event>
 5   0  0.3336609E-03  0.1334283E+04  0.7818609E-02  0.9002812E-01
       -2   -1    0    0    0  501  0.00000000000E+00  0.00000000000E+00  0.98189138898E+03  0.98189138898E+03  0.25500000920E-02 0. -1.
        2   -1    0    0  501    0  0.00000000000E+00  0.00000000000E+00 -0.45328620395E+03  0.45328620395E+03  0.25500000920E-02 0.  1.
    10030    2    1    2    0    0  0.00000000000E+00  0.00000000000E+00  0.52860518503E+03  0.14351775929E+04  0.13342830590E+04 0.  0.
        1    1    3    3  502    0  0.67729010506E+02  0.12986681172E+02  0.97804719966E+03  0.98047549563E+03  0.50400001928E-02 0. -1.
       -1    1    3    3    0  502 -0.67729010506E+02 -0.12986681172E+02 -0.44944201463E+03  0.45470209730E+03  0.50400001928E-02 0.  1.
</event>
<event>
 5   0  0.3294720E-03  0.1260132E+04  0.7818609E-02  0.9061793E-01
        2   -1    0    0  501    0  0.00000000000E+00  0.00000000000E+00  0.12850123150E+04  0.12850123150E+04  0.25500000920E-02 0.  1.
       -2   -1    0    0    0  501  0.00000000000E+00  0.00000000000E+00 -0.30893323561E+03  0.30893323562E+03  0.25500000920E-02 0. -1.
    10030    2    1    2    0    0  0.00000000000E+00  0.00000000000E+00  0.97607907943E+03  0.15939455507E+04  0.12601317587E+04 0.  0.
        5    1    3    3  502    0  0.33359991453E+02  0.62567466515E+03  0.57174566289E+03  0.84823161264E+03  0.46999998093E+01 0.  1.
       -5    1    3    3    0  502 -0.33359991453E+02 -0.62567466515E+03  0.40433341654E+03  0.74571393803E+03  0.46999998093E+01 0. -1.
</event>
<event>
 5   0  0.3259968E-03  0.1309907E+04  0.7818609E-02  0.9021745E-01
       -2   -1    0    0    0  501  0.00000000000E+00  0.00000000000E+00  0.12731988648E+04  0.12731988648E+04  0.25500000920E-02 0.  1.
        2   -1    0    0  501    0  0.00000000000E+00  0.00000000000E+00 -0.33691855668E+03  0.33691855669E+03  0.25500000920E-02 0. -1.
    10030    2    1    2    0    0  0.00000000000E+00  0.00000000000E+00  0.93628030814E+03  0.16101174215E+04  0.13099073615E+04 0.  0.
        4    1    3    3  502    0  0.25370071972E+02  0.40587284533E+03 -0.16293108308E+03  0.43809195138E+03  0.12699999809E+01 0. -1.
       -4    1    3    3    0  502 -0.25370071972E+02 -0.40587284533E+03  0.10992113912E+04  0.11720254701E+04  0.12699999809E+01 0.  1.
</event>
<event>
 5   0  0.1814770E-03  0.1287109E+04  0.7818609E-02  0.9039851E-01
       -1   -1    0    0    0  501  0.00000000000E+00  0.00000000000E+00  0.10934315281E+04  0.10934315281E+04  0.50400001928E-02 0. -1.
        1   -1    0    0  501    0  0.00000000000E+00  0.00000000000E+00 -0.37877276011E+03  0.37877276014E+03  0.50400001928E-02 0.  1.
    10030    2    1    2    0    0  0.00000000000E+00  0.00000000000E+00  0.71465876796E+03  0.14722042882E+04  0.12871085081E+04 0.  0.
        5    1    3    3  502    0  0.20652019577E+03  0.23806106091E+03  0.99910253146E+03  0.10476409778E+04  0.46999998093E+01 0. -1.
       -5    1    3    3    0  502 -0.20652019577E+03 -0.23806106091E+03 -0.28444376349E+03  0.42456331044E+03  0.46999998093E+01 0.  1.
</event>
<event>
 5   0  0.1857986E-03  0.1256531E+04  0.7818609E-02  0.9064765E-01
        1   -1    0    0  501    0  0.00000000000E+00  0.00000000000E+00  0.12223463300E+04  0.12223463300E+04  0.50400001928E-02 0.  1.
       -1   -1    0    0    0  501  0.00000000000E+00  0.00000000000E+00 -0.32291777194E+03  0.32291777198E+03  0.50400001928E-02 0. -1.
    10030    2    1    2    0    0  0.00000000000E+00  0.00000000000E+00  0.89942855809E+03  0.15452641020E+04  0.12565307055E+04 0.  0.
        1    1    3    3  502    0  0.18937757659E+03  0.36389719027E+03  0.10349068711E+04  0.11132462726E+04  0.50400001928E-02 0.  1.
       -1    1    3    3    0  502 -0.18937757659E+03 -0.36389719027E+03 -0.13547831301E+03  0.43201782940E+03  0.50400001928E-02 0. -1.
</event>
<event>
 5   0  0.1823154E-03  0.1305455E+04  0.7818609E-02  0.9025250E-01
        1   -1    0    0  501    0  0.00000000000E+00  0.00000000000E+00  0.19982546360E+04  0.19982546360E+04  0.50400001928E-02 0.  1.
       -1   -1    0    0    0  501  0.00000000000E+00  0.00000000000E+00 -0.21321272829E+03  0.21321272835E+03  0.50400001928E-02 0. -1.
    10030    2    1    2    0    0  0.00000000000E+00  0.00000000000E+00  0.17850419077E+04  0.22114673644E+04  0.13054552046E+04 0.  0.
        2    1    3    3  502    0 -0.50082188819E+03 -0.28663928520E+03  0.37572353468E+03  0.68858755292E+03  0.25500000920E-02 0. -1.
       -2    1    3    3    0  502  0.50082188819E+03  0.28663928520E+03  0.14093183730E+04  0.15228798114E+04  0.25500000920E-02 0.  1.
</event>
<event>
 5   0  0.1823154E-03  0.1300223E+04  0.7818609E-02  0.9029389E-01
       -1   -1    0    0    0  501  0.00000000000E+00  0.00000000000E+00  0.28895987497E+03  0.28895987501E+03  0.50400001928E-02 0.  1.
        1   -1    0    0  501    0  0.00000000000E+00  0.00000000000E+00 -0.14626418022E+04  0.14626418022E+04  0.50400001928E-02 0. -1.
    10030    2    1    2    0    0  0.00000000000E+00  0.00000000000E+00 -0.11736819272E+04  0.17516016772E+04  0.13002227384E+04 0.  0.
        2    1    3    3  502    0 -0.45920909360E+03 -0.39328086168E+03 -0.26492455013E+03  0.66009684523E+03  0.25500000920E-02 0.  1.
       -2    1    3    3    0  502  0.45920909360E+03  0.39328086168E+03 -0.90875737711E+03  0.10915048320E+04  0.25500000920E-02 0. -1.
</event>
<event>
 5   0  0.1873488E-03  0.1291727E+04  0.7818609E-02  0.9036151E-01
        1   -1    0    0  501    0  0.00000000000E+00  0.00000000000E+00  0.33312504288E+03  0.33312504292E+03  0.50400001928E-02 0. -1.
       -1   -1    0    0    0  501  0.00000000000E+00  0.00000000000E+00 -0.12522017368E+04  0.12522017368E+04  0.50400001928E-02 0.  1.
    10030    2    1    2    0    0  0.00000000000E+00  0.00000000000E+00 -0.91907669390E+03  0.15853267797E+04  0.12917271497E+04 0.  0.
        3    1    3    3  502    0 -0.20524249984E+03  0.14151994217E+02 -0.12109128965E+04  0.12282649615E+04  0.10100000352E+00 0.  1.
       -3    1    3    3    0  502  0.20524249984E+03 -0.14151994217E+02  0.29183620256E+03  0.35706181819E+03  0.10100000352E+00 0. -1.
</event>
<event>
 5   0  0.3336609E-03  0.1289697E+04  0.7818609E-02  0.9037775E-01
       -2   -1    0    0    0  501  0.00000000000E+00  0.00000000000E+00  0.30108983849E+03  0.30108983850E+03  0.25500000920E-02 0. -1.
        2   -1    0    0  501    0  0.00000000000E+00  0.00000000000E+00 -0.13810821067E+04  0.13810821067E+04  0.25500000920E-02 0.  1.
    10030    2    1    2    0    0  0.00000000000E+00  0.00000000000E+00 -0.10799922682E+04  0.16821719452E+04  0.12896973109E+04 0.  0.
        1    1    3    3  502    0  0.57841122951E+03  0.28361939759E+03 -0.50241294270E+03  0.81695671742E+03  0.50400001928E-02 0.  1.
       -1    1    3    3    0  502 -0.57841122951E+03 -0.28361939759E+03 -0.57757932553E+03  0.86521522780E+03  0.50400001928E-02 0. -1.
</event>
<event>
 5   0  0.1823154E-03  0.1301173E+04  0.7818609E-02  0.9028635E-01
        1   -1    0    0  501    0  0.00000000000E+00  0.00000000000E+00  0.71262720795E+03  0.71262720797E+03  0.50400001928E-02 0.  1.
       -1   -1    0    0    0  501  0.00000000000E+00  0.00000000000E+00 -0.59394723891E+03  0.59394723894E+03  0.50400001928E-02 0. -1.
    10030    2    1    2    0    0  0.00000000000E+00  0.00000000000E+00  0.11867996903E+03  0.13065744469E+04  0.13011732591E+04 0.  0.
        2    1    3    3  502    0 -0.31900550173E+02  0.59974889720E+03  0.31047126269E+03  0.67609821014E+03  0.25500000920E-02 0.  1.
       -2    1    3    3    0  502  0.31900550173E+02 -0.59974889720E+03 -0.19179129366E+03  0.63047623676E+03  0.25500000920E-02 0. -1.
</event>
<event>
 5   0  0.1803959E-03  0.1294834E+04  0.7818609E-02  0.9033672E-01
       -1   -1    0    0    0  501  0.00000000000E+00  0.00000000000E+00  0.18927908365E+03  0.18927908372E+03  0.50400001928E-02 0. -1.
        1   -1    0    0  501    0  0.00000000000E+00  0.00000000000E+00 -0.22144476522E+04  0.22144476522E+04  0.50400001928E-02 0.  1.
    10030    2    1    2    0    0  0.00000000000E+00  0.00000000000E+00 -0.20251685685E+04  0.24037267359E+04  0.12948337692E+04 0.  0.
        4    1    3    3  502    0  0.46019156742E+03  0.32135838524E+03 -0.41362756909E+03  0.69723516069E+03  0.12699999809E+01 0.  1.
       -4    1    3    3    0  502 -0.46019156742E+03 -0.32135838524E+03 -0.16115409995E+04  0.17064915752E+04  0.12699999809E+01 0. -1.
</event>
<event>
 5   0  0.3259968E-03  0.1204109E+04  0.7818609E-02  0.9109267E-01
        2   -1    0    0  501    0  0.00000000000E+00  0.00000000000E+00  0.89702063231E+03  0.89702063231E+03  0.25500000920E-02 0. -1.
       -2   -1    0    0    0  501  0.00000000000E+00  0.00000000000E+00 -0.40408201749E+03  0.40408201750E+03  0.25500000920E-02 0.  1.
    10030    2    1    2    0    0  0.00000000000E+00  0.00000000000E+00  0.49293861482E+03  0.13011026498E+04  0.12041094748E+04 0.  0.
        4    1    3    3  502    0 -0.22026274249E+02 -0.51259876247E+03  0.58684422945E+03  0.77950651734E+03  0.12699999809E+01 0. -1.
       -4    1    3    3    0  502  0.22026274249E+02  0.51259876247E+03 -0.93905614629E+02  0.52159613247E+03  0.12699999809E+01 0.  1.
</event>
<event>
 5   0  0.1814770E-03  0.1339686E+04  0.7818609E-02  0.8998672E-01
        1   -1    0    0  501    0  0.00000000000E+00  0.00000000000E+00  0.82190690844E+03  0.82190690845E+03  0.50400001928E-02 0.  1.
       -1   -1    0    0    0  501  0.00000000000E+00  0.00000000000E+00 -0.54591333270E+03  0.54591333272E+03  0.50400001928E-02 0. -1.
    10030    2    1    2    0    0  0.00000000000E+00  0.00000000000E+00  0.27599357574E+03  0.13678202412E+04  0.13396864403E+04 0.  0.
        5    1    3    3  502    0 -0.21523295433E+03  0.49958179872E+03 -0.26105716329E+03  0.60339052922E+03  0.46999998093E+01 0. -1.
       -5    1    3    3    0  502  0.21523295433E+03 -0.49958179872E+03  0.53705073902E+03  0.76442971196E+03  0.46999998093E+01 0.  1.
</event>
<event>
 5   0  0.1814770E-03  0.1352850E+04  0.7818609E-02  0.8988673E-01
       -1   -1    0    0    0  501  0.00000000000E+00  0.00000000000E+00  0.16808873584E+04  0.16808873584E+04  0.50400001928E-02 0.  1.
        1   -1    0    0  501    0  0.00000000000E+00  0.00000000000E+00 -0.27220798914E+03  0.27220798919E+03  0.50400001928E-02 0. -1.
    10030    2    1    2    0    0  0.00000000000E+00  0.00000000000E+00  0.14086793693E+04  0.19530953476E+04  0.13528502768E+04 0.  0.
        5    1    3    3  502    0  0.15198935817E+03  0.16796518774E+03  0.16244758931E+04  0.16402003190E+04  0.46999998093E+01 0.  1.
       -5    1    3    3    0  502 -0.15198935817E+03 -0.16796518774E+03 -0.21579652376E+03  0.31289502865E+03  0.46999998093E+01 0. -1.
</event>
<event>
 5   0  0.1823154E-03  0.1282312E+04  0.7818609E-02  0.9043711E-01
       -1   -1    0    0    0  501  0.00000000000E+00  0.00000000000E+00  0.57479628657E+03  0.57479628659E+03  0.50400001928E-02 0. -1.
        1   -1    0    0  501    0  0.00000000000E+00  0.00000000000E+00 -0.71517651426E+03  0.71517651427E+03  0.50400001928E-02 0.  1.
    10030    2    1    2    0    0  0.00000000000E+00  0.00000000000E+00 -0.14038022769E+03  0.12899728009E+04  0.12823116699E+04 0.  0.
        2    1    3    3  502    0 -0.61286216467E+03  0.28626192412E+02  0.11709767525E+03  0.62460496103E+03  0.25500000920E-02 0. -1.
       -2    1    3    3    0  502  0.61286216467E+03 -0.28626192412E+02 -0.25747790294E+03  0.66536783984E+03  0.25500000920E-02 0.  1.
</event>
<event>
 5   0  0.3336609E-03  0.1310782E+04  0.7818609E-02  0.9021059E-01
       -2   -1    0    0    0  501  0.00000000000E+00  0.00000000000E+00  0.25540827197E+03  0.25540827199E+03  0.25500000920E-02 0.  1.
        2   -1    0    0  501    0  0.00000000000E+00  0.00000000000E+00 -0.16817668474E+04  0.16817668474E+04  0.25500000920E-02 0. -1.
    10030    2    1    2    0    0  0.00000000000E+00  0.00000000000E+00 -0.14263585754E+04  0.19371751194E+04  0.13107816971E+04 0.  0.
        1    1    3    3  502    0  0.55312106305E+03  0.34912823199E+03 -0.77418058943E+03  0.10135033388E+04  0.50400001928E-02 0.  1.
       -1    1    3    3    0  502 -0.55312106305E+03 -0.34912823199E+03 -0.65217798601E+03  0.92367178057E+03  0.50400001928E-02 0. -1.
</event>
<event>
 5   0  0.1823154E-03  0.1317688E+04  0.7818609E-02  0.9015655E-01
        1   -1    0    0  501    0  0.00000000000E+00  0.00000000000E+00  0.10611962518E+04  0.10611962518E+04  0.50400001928E-02 0.  1.
       -1   -1    0    0    0  501  0.00000000000E+00  0.00000000000E+00 -0.40904326815E+03  0.40904326818E+03  0.50400001928E-02 0. -1.
    10030    2    1    2    0    0  0.00000000000E+00  0.00000000000E+00  0.65215298367E+03  0.14702395200E+04  0.13176876459E+04 0.  0.
        2    1    3    3  502    0  0.71840588325E+02 -0.54543024985E+03 -0.78412098785E+02  0.55570107506E+03  0.25500000920E-02 0. -1.
       -2    1    3    3    0  502 -0.71840588325E+02  0.54543024985E+03  0.73056508245E+03  0.91453844495E+03  0.25500000920E-02 0.  1.
</event>
<event>
 5   0  0.3336609E-03  0.1313033E+04  0.7818609E-02  0.9019293E-01
       -2   -1    0    0    0  501  0.00000000000E+00  0.00000000000E+00  0.11327576835E+04  0.11327576835E+04  0.25500000920E-02 0.  1.
        2   -1    0    0  501    0  0.00000000000E+00  0.00000000000E+00 -0.38049952595E+03  0.38049952596E+03  0.25500000920E-02 0. -1.
    10030    2    1    2    0    0  0.00000000000E+00  0.00000000000E+00  0.75225815755E+03  0.15132572095E+04  0.13130327667E+04 0.  0.
        1    1    3    3  502    0  0.61211631156E+03  0.22365110822E+02  0.10382129814E+03  0.62126116814E+03  0.50400001928E-02 0. -1.
       -1    1    3    3    0  502 -0.61211631156E+03 -0.22365110822E+02  0.64843685941E+03  0.89199604132E+03  0.50400001928E-02 0.  1.
</event>
<event>
 5   0  0.3262927E-03  0.1343190E+04  0.7818609E-02  0.8996000E-01
        2   -1    0    0  501    0  0.00000000000E+00  0.00000000000E+00  0.14391485182E+04  0.14391485182E+04  0.25500000920E-02 0.  1.
       -2   -1    0    0    0  501  0.00000000000E+00  0.00000000000E+00 -0.31340726951E+03  0.31340726952E+03  0.25500000920E-02 0. -1.
    10030    2    1    2    0    0  0.00000000000E+00  0.00000000000E+00  0.11257412487E+04  0.17525557877E+04  0.13431896478E+04 0.  0.
        3    1    3    3  502    0 -0.53107599443E+03 -0.38060641140E+03  0.36016165413E+03  0.74606928603E+03  0.10100000352E+00 0. -1.
       -3    1    3    3    0  502  0.53107599443E+03  0.38060641140E+03  0.76557959454E+03  0.10064865017E+04  0.10100000352E+00 0.  1.
</event>
<event>
 5   0  0.3262927E-03  0.1349223E+04  0.7818609E-02  0.8991416E-01
       -2   -1    0    0    0  501  0.00000000000E+00  0.00000000000E+00  0.48035492673E+03  0.48035492673E+03  0.25500000920E-02 0.  1.
        2   -1    0    0  501    0  0.00000000000E+00  0.00000000000E+00 -0.94742609071E+03  0.94742609071E+03  0.25500000920E-02 0. -1.
    10030    2    1    2    0    0  0.00000000000E+00  0.00000000000E+00 -0.46707116398E+03  0.14277810174E+04  0.13492231697E+04 0.  0.
        3    1    3    3  502    0 -0.18699640022E+03 -0.57244386945E+03  0.88208424894E+02  0.60863813041E+03  0.10100000352E+00 0.  1.
       -3    1    3    3    0  502  0.18699640022E+03  0.57244386945E+03 -0.55527958887E+03  0.81914288704E+03  0.10100000352E+00 0. -1.
</event>
<event>
 5   0  0.1857986E-03  0.1196343E+04  0.7818609E-02  0.9116064E-01
        1   -1    0    0  501    0  0.00000000000E+00  0.00000000000E+00  0.59908149545E+03  0.59908149547E+03  0.50400001928E-02 0. -1.
       -1   -1    0    0    0  501  0.00000000000E+00  0.00000000000E+00 -0.59726255916E+03  0.59726255919E+03  0.50400001928E-02 0.  1.
    10030    2    1    2    0    0  0.00000000000E+00  0.00000000000E+00  0.18189362817E+01  0.11963440547E+04  0.11963426719E+04 0.  0.
        1    1    3    3  502    0  0.38400438465E+03  0.17364892627E+03 -0.42358558088E+03  0.59752661981E+03  0.50400001928E-02 0.  1.
       -1    1    3    3    0  502 -0.38400438465E+03 -0.17364892627E+03  0.42540451717E+03  0.59881743484E+03  0.50400001928E-02 0. -1.
</event>
<event>
 5   0  0.1814770E-03  0.1308751E+04  0.7818609E-02  0.9022655E-01
       -1   -1    0    0    0  501  0.00000000000E+00  0.00000000000E+00  0.49412415580E+03  0.49412415583E+03  0.50400001928E-02 0.  1.
        1   -1    0    0  501    0  0.00000000000E+00  0.00000000000E+00 -0.86659797811E+03  0.86659797812E+03  0.50400001928E-02 0. -1.
    10030    2    1    2    0    0  0.00000000000E+00  0.00000000000E+00 -0.37247382231E+03  0.13607221340E+04  0.13087505406E+04 0.  0.
        5    1    3    3  502    0 -0.21024416848E+03  0.61956915763E+03 -0.19745196132E+03  0.68343099029E+03  0.46999998093E+01 0.  1.
       -5    1    3    3    0  502  0.21024416848E+03 -0.61956915763E+03 -0.17502186099E+03  0.67729114366E+03  0.46999998093E+01 0. -1.
</event>
<event>
 5   0  0.3262927E-03  0.1320363E+04  0.7818609E-02  0.9013571E-01
       -2   -1    0    0    0  501  0.00000000000E+00  0.00000000000E+00  0.15292237224E+03  0.15292237226E+03  0.25500000920E-02 0.  1.
        2   -1    0    0  501    0  0.00000000000E+00  0.00000000000E+00 -0.28500694974E+04  0.28500694974E+04  0.25500000920E-02 0. -1.
    10030    2    1    2    0    0  0.00000000000E+00  0.00000000000E+00 -0.26971471252E+04  0.30029918697E+04  0.13203626602E+04 0.  0.
        3    1    3    3  502    0 -0.21025293474E+03  0.10962914888E+02  0.74521652714E+02  0.22333823899E+03  0.10100000352E+00 0.  1.
       -3    1    3    3    0  502  0.21025293474E+03 -0.10962914888E+02 -0.27716687779E+04  0.27796536307E+04  0.10100000352E+00 0. -1.
</event>
<event>
 5   0  0.1814770E-03  0.1308068E+04  0.7818609E-02  0.9023191E-01
       -1   -1    0    0    0  501  0.00000000000E+00  0.00000000000E+00  0.69007985075E+03  0.69007985076E+03  0.50400001928E-02 0.  1.
        1   -1    0    0  501    0  0.00000000000E+00  0.00000000000E+00 -0.61987119938E+03  0.61987119940E+03  0.50400001928E-02 0. -1.
    10030    2    1    2    0    0  0.00000000000E+00  0.00000000000E+00  0.70208651366E+02  0.13099510502E+04  0.13080682318E+04 0.  0.
        5    1    3    3  502    0  0.69066162888E+01 -0.61202556960E+03  0.26590413809E+03  0.66734556254E+03  0.46999998093E+01 0.  1.
       -5    1    3    3    0  502 -0.69066162888E+01  0.61202556960E+03 -0.19569548673E+03  0.64260548762E+03  0.46999998093E+01 0. -1.
</event>
<event>
 5   0  0.3299104E-03  0.1295964E+04  0.7818609E-02  0.9032772E-01
       -2   -1    0    0    0  501  0.00000000000E+00  0.00000000000E+00  0.61109811052E+03  0.61109811052E+03  0.25500000920E-02 0.  1.
        2   -1    0    0  501    0  0.00000000000E+00  0.00000000000E+00 -0.68709167987E+03  0.68709167988E+03  0.25500000920E-02 0. -1.
    10030    2    1    2    0    0  0.00000000000E+00  0.00000000000E+00 -0.75993569357E+02  0.12981897904E+04  0.12959636219E+04 0.  0.
        2    1    3    3  502    0 -0.19521958265E+03  0.35400281780E+03  0.46928376318E+03  0.61939965358E+03  0.25500000920E-02 0.  1.
       -2    1    3    3    0  502  0.19521958265E+03 -0.35400281780E+03 -0.54527733253E+03  0.67879013682E+03  0.25500000920E-02 0. -1.
</event>
<event>
 5   0  0.1857986E-03  0.1287829E+04  0.7818609E-02  0.9039273E-01
       -1   -1    0    0    0  501  0.00000000000E+00  0.00000000000E+00  0.10126853396E+04  0.10126853396E+04  0.50400001928E-02 0.  1.
        1   -1    0    0  501    0  0.00000000000E+00  0.00000000000E+00 -0.40943231490E+03  0.40943231493E+03  0.50400001928E-02 0. -1.
    10030    2    1    2    0    0  0.00000000000E+00  0.00000000000E+00  0.60325302473E+03  0.14221176546E+04  0.12878293410E+04 0.  0.
        1    1    3    3  502    0  0.27332541523E+03 -0.48703542572E+03 -0.52285960955E+02  0.56093146663E+03  0.50400001928E-02 0. -1.
       -1    1    3    3    0  502 -0.27332541523E+03  0.48703542572E+03  0.65553898568E+03  0.86118618794E+03  0.50400001928E-02 0.  1.
</event>
<event>
 5   0  0.1857986E-03  0.1295176E+04  0.7818609E-02  0.9033400E-01
       -1   -1    0    0    0  501  0.00000000000E+00  0.00000000000E+00  0.81197602178E+03  0.81197602180E+03  0.50400001928E-02 0. -1.
        1   -1    0    0  501    0  0.00000000000E+00  0.00000000000E+00 -0.51648075008E+03  0.51648075011E+03  0.50400001928E-02 0.  1.
    10030    2    1    2    0    0  0.00000000000E+00  0.00000000000E+00  0.29549527170E+03  0.13284567719E+04  0.12951756403E+04 0.  0.
        1    1    3    3  502    0  0.43028635670E+03  0.43807039010E+03  0.35874701101E+03  0.71116203032E+03  0.50400001928E-02 0. -1.
       -1    1    3    3    0  502 -0.43028635670E+03 -0.43807039010E+03 -0.63251739309E+02  0.61729474159E+03  0.50400001928E-02 0.  1.
</event>
<event>
 5   0  0.1823154E-03  0.1710997E+04  0.7818609E-02  0.8755117E-01
        1   -1    0    0  501    0  0.00000000000E+00  0.00000000000E+00  0.63007238636E+03  0.63007238638E+03  0.50400001928E-02 0. -1.
       -1   -1    0    0    0  501  0.00000000000E+00  0.00000000000E+00 -0.11615771452E+04  0.11615771452E+04  0.50400001928E-02 0.  1.
    10030    2    1    2    0    0  0.00000000000E+00  0.00000000000E+00 -0.53150475882E+03  0.17916495316E+04  0.17109970004E+04 0.  0.
        2    1    3    3  502    0 -0.71370848584E+03 -0.46496463018E+03 -0.34890443782E+03  0.92049237738E+03  0.25500000920E-02 0.  1.
       -2    1    3    3    0  502  0.71370848584E+03  0.46496463018E+03 -0.18260032100E+03  0.87115715420E+03  0.25500000920E-02 0. -1.
</event>
<event>
 5   0  0.3259968E-03  0.1290311E+04  0.7818609E-02  0.9037284E-01
        2   -1    0    0  501    0  0.00000000000E+00  0.00000000000E+00  0.63361354020E+03  0.63361354020E+03  0.25500000920E-02 0. -1.
       -2   -1    0    0    0  501  0.00000000000E+00  0.00000000000E+00 -0.65690743803E+03  0.65690743804E+03  0.25500000920E-02 0.  1.
    10030    2    1    2    0    0  0.00000000000E+00  0.00000000000E+00 -0.23293897834E+02  0.12905209782E+04  0.12903107337E+04 0.  0.
        4    1    3    3  502    0 -0.34548961232E+03  0.53848425793E+03 -0.94699423462E+02  0.64675958591E+03  0.12699999809E+01 0. -1.
       -4    1    3    3    0  502  0.34548961232E+03 -0.53848425793E+03  0.71405525628E+02  0.64376139233E+03  0.12699999809E+01 0.  1.
</event>
<event>
 5   0  0.1873488E-03  0.1215953E+04  0.7818609E-02  0.9099007E-01
        1   -1    0    0  501    0  0.00000000000E+00  0.00000000000E+00  0.40300201340E+03  0.40300201344E+03  0.50400001928E-02 0. -1.
       -1   -1    0    0    0  501  0.00000000000E+00  0.00000000000E+00 -0.91720447139E+03  0.91720447140E+03  0.50400001928E-02 0.  1.
    10030    2    1    2    0    0  0.00000000000E+00  0.00000000000E+00 -0.51420245798E+03  0.13202064848E+04  0.12159527108E+04 0.  0.
        3    1    3    3  502    0  0.99037540657E+02  0.50810027185E+03  0.89078943110E+02  0.52527077686E+03  0.10100000352E+00 0. -1.
       -3    1    3    3    0  502 -0.99037540657E+02 -0.50810027185E+03 -0.60328140110E+03  0.79493570798E+03  0.10100000352E+00 0.  1.
</event>
<event>
 5   0  0.1814770E-03  0.1286381E+04  0.7818609E-02  0.9040436E-01
        1   -1    0    0  501    0  0.00000000000E+00  0.00000000000E+00  0.74297866648E+03  0.74297866649E+03  0.50400001928E-02 0. -1.
       -1   -1    0    0    0  501  0.00000000000E+00  0.00000000000E+00 -0.55680448161E+03  0.55680448163E+03  0.50400001928E-02 0.  1.
    10030    2    1    2    0    0  0.00000000000E+00  0.00000000000E+00  0.18617418487E+03  0.12997831481E+04  0.12863807388E+04 0.  0.
        5    1    3    3  502    0 -0.24227168468E+03 -0.14696252868E+03  0.67649186385E+03  0.73345544233E+03  0.46999998093E+01 0. -1.
       -5    1    3    3    0  502  0.24227168468E+03  0.14696252868E+03 -0.49031767898E+03  0.56632770579E+03  0.46999998093E+01 0.  1.
</event>
<event>
 5   0  0.1823154E-03  0.1271842E+04  0.7818609E-02  0.9052197E-01
        1   -1    0    0  501    0  0.00000000000E+00  0.00000000000E+00  0.62799839704E+03  0.62799839706E+03  0.50400001928E-02 0. -1.
       -1   -1    0    0    0  501  0.00000000000E+00  0.00000000000E+00 -0.64394382987E+03  0.64394382989E+03  0.50400001928E-02 0.  1.
    10030    2    1    2    0    0  0.00000000000E+00  0.00000000000E+00 -0.15945432826E+02  0.12719422269E+04  0.12718422748E+04 0.  0.
        2    1    3    3  502    0 -0.67432379121E+02  0.53546069028E+03 -0.34434780255E+03  0.64018800810E+03  0.25500000920E-02 0.  1.
       -2    1    3    3    0  502  0.67432379121E+02 -0.53546069028E+03  0.32840236972E+03  0.63175421885E+03  0.25500000920E-02 0. -1.
</event>
<event>
 5   0  0.3299104E-03  0.1320535E+04  0.7818609E-02  0.9013437E-01
        2   -1    0    0  501    0  0.00000000000E+00  0.00000000000E+00  0.12443507945E+04  0.12443507946E+04  0.25500000920E-02 0.  1.
       -2   -1    0    0    0  501  0.00000000000E+00  0.00000000000E+00 -0.35034585959E+03  0.35034585960E+03  0.25500000920E-02 0. -1.
    10030    2    1    2    0    0  0.00000000000E+00  0.00000000000E+00  0.89400493495E+03  0.15946966542E+04  0.13205349655E+04 0.  0.
        2    1    3    3  502    0  0.26155700374E+03  0.47044438266E+03 -0.14778754355E+02  0.53846856451E+03  0.25500000920E-02 0. -1.
       -2    1    3    3    0  502 -0.26155700374E+03 -0.47044438266E+03  0.90878368931E+03  0.10562280896E+04  0.25500000920E-02 0.  1.
</event>
<event>
 5   0  0.1254125E-03  0.9382759E+03  0.7818609E-02  0.9378960E-01
       -3   -1    0    0    0  501  0.00000000000E+00  0.00000000000E+00  0.36902664952E+03  0.36902666334E+03  0.10100000352E+00 0.  1.
        3   -1    0    0  501    0  0.00000000000E+00  0.00000000000E+00 -0.59640782817E+03  0.59640783673E+03  0.10100000352E+00 0. -1.
    10030    2    1    2    0    0  0.00000000000E+00  0.00000000000E+00 -0.22738117865E+03  0.96543450007E+03  0.93827585151E+03 0.  0.
        3    1    3    3  502    0  0.93670689887E+02  0.37569744682E+03  0.15886847412E+03  0.41852356202E+03  0.10100000352E+00 0.  1.
       -3    1    3    3    0  502 -0.93670689887E+02 -0.37569744682E+03 -0.38624965277E+03  0.54691093805E+03  0.10100000352E+00 0. -1.
</event>
<event>
 5   0  0.3259968E-03  0.1317815E+04  0.7818609E-02  0.9015556E-01
        2   -1    0    0  501    0  0.00000000000E+00  0.00000000000E+00  0.19217660749E+04  0.19217660749E+04  0.25500000920E-02 0. -1.
       -2   -1    0    0    0  501  0.00000000000E+00  0.00000000000E+00 -0.22591674436E+03  0.22591674437E+03  0.25500000920E-02 0.  1.
    10030    2    1    2    0    0  0.00000000000E+00  0.00000000000E+00  0.16958493305E+04  0.21476828193E+04  0.13178150630E+04 0.  0.
        4    1    3    3  502    0 -0.63324689903E+03  0.10393194757E+03  0.10915899513E+04  0.12662439415E+04  0.12699999809E+01 0. -1.
       -4    1    3    3    0  502  0.63324689903E+03 -0.10393194757E+03  0.60425937924E+03  0.88143887772E+03  0.12699999809E+01 0.  1.
</event>
<event>
 5   0  0.3259968E-03  0.1354244E+04  0.7818609E-02  0.8987621E-01
       -2   -1    0    0    0  501  0.00000000000E+00  0.00000000000E+00  0.85722160867E+03  0.85722160867E+03  0.25500000920E-02 0.  1.
        2   -1    0    0  501    0  0.00000000000E+00  0.00000000000E+00 -0.53486110356E+03  0.53486110357E+03  0.25500000920E-02 0. -1.
    10030    2    1    2    0    0  0.00000000000E+00  0.00000000000E+00  0.32236050511E+03  0.13920827122E+04  0.13542444323E+04 0.  0.
        4    1    3    3  502    0 -0.15083654624E+03  0.10528922766E+03 -0.50868323417E+03  0.54092303590E+03  0.12699999809E+01 0. -1.
       -4    1    3    3    0  502  0.15083654624E+03 -0.10528922766E+03  0.83104373928E+03  0.85115967634E+03  0.12699999809E+01 0.  1.
</event>
<event>
 5   0  0.1803959E-03  0.1547149E+04  0.7818609E-02  0.8853691E-01
       -1   -1    0    0    0  501  0.00000000000E+00  0.00000000000E+00  0.66804341962E+03  0.66804341964E+03  0.50400001928E-02 0. -1.
        1   -1    0    0  501    0  0.00000000000E+00  0.00000000000E+00 -0.89577690794E+03  0.89577690795E+03  0.50400001928E-02 0.  1.
    10030    2    1    2    0    0  0.00000000000E+00  0.00000000000E+00 -0.22773348832E+03  0.15638203276E+04  0.15471494677E+04 0.  0.
        4    1    3    3  502    0 -0.67159613298E+03 -0.12662751041E+03 -0.48018088928E+03  0.83525516553E+03  0.12699999809E+01 0.  1.
       -4    1    3    3    0  502  0.67159613298E+03  0.12662751041E+03  0.25244740095E+03  0.72856516206E+03  0.12699999809E+01 0. -1.
</event>
<event>
 5   0  0.3299104E-03  0.1310640E+04  0.7818609E-02  0.9021170E-01
       -2   -1    0    0    0  501  0.00000000000E+00  0.00000000000E+00  0.32367127367E+03  0.32367127368E+03  0.25500000920E-02 0. -1.
        2   -1    0    0  501    0  0.00000000000E+00  0.00000000000E+00 -0.13267911163E+04  0.13267911163E+04  0.25500000920E-02 0.  1.
    10030    2    1    2    0    0  0.00000000000E+00  0.00000000000E+00 -0.10031198426E+04  0.16504623899E+04  0.13106397987E+04 0.  0.
        2    1    3    3  502    0 -0.42823257437E+03 -0.47109760157E+03 -0.69716660300E+03  0.94411723864E+03  0.25500000920E-02 0.  1.
       -2    1    3    3    0  502  0.42823257437E+03  0.47109760157E+03 -0.30595323958E+03  0.70634515130E+03  0.25500000920E-02 0. -1.
</event>
<event>
 5   0  0.3259968E-03  0.1263814E+04  0.7818609E-02  0.9058763E-01
       -2   -1    0    0    0  501  0.00000000000E+00  0.00000000000E+00  0.34376438670E+03  0.34376438671E+03  0.25500000920E-02 0. -1.
        2   -1    0    0  501    0  0.00000000000E+00  0.00000000000E+00 -0.11615710633E+04  0.11615710633E+04  0.25500000920E-02 0.  1.
    10030    2    1    2    0    0  0.00000000000E+00  0.00000000000E+00 -0.81780667655E+03  0.15053354500E+04  0.12638144867E+04 0.  0.
        4    1    3    3  502    0  0.32605488904E+03 -0.41651666704E+03 -0.82066607720E+03  0.97636691247E+03  0.12699999809E+01 0.  1.
       -4    1    3    3    0  502 -0.32605488904E+03  0.41651666704E+03  0.28594006506E+01  0.52896853750E+03  0.12699999809E+01 0. -1.
</event>
<event>
 5   0  0.3294720E-03  0.1231967E+04  0.7818609E-02  0.9085327E-01
       -2   -1    0    0    0  501  0.00000000000E+00  0.00000000000E+00  0.11735685915E+04  0.11735685915E+04  0.25500000920E-02 0.  1.
        2   -1    0    0  501    0  0.00000000000E+00  0.00000000000E+00 -0.32331789052E+03  0.32331789053E+03  0.25500000920E-02 0. -1.
    10030    2    1    2    0    0  0.00000000000E+00  0.00000000000E+00  0.85025070095E+03  0.14968864820E+04  0.12319670797E+04 0.  0.
        5    1    3    3  502    0 -0.16638932613E+03  0.40952576739E+03 -0.96091661836E+02  0.45238529980E+03  0.46999998093E+01 0. -1.
       -5    1    3    3    0  502  0.16638932613E+03 -0.40952576739E+03  0.94634236278E+03  0.10445011822E+04  0.46999998093E+01 0.  1.
</event>
<event>
 5   0  0.1254125E-03  0.1363242E+04  0.7818609E-02  0.8980864E-01
        4   -1    0    0  501    0  0.00000000000E+00  0.00000000000E+00  0.91755130319E+03  0.91755218211E+03  0.12699999809E+01 0.  1.
       -4   -1    0    0    0  501  0.00000000000E+00  0.00000000000E+00 -0.50635348717E+03  0.50635507983E+03  0.12699999809E+01 0. -1.
    10030    2    1    2    0    0  0.00000000000E+00  0.00000000000E+00  0.41119781602E+03  0.14239072619E+04  0.13632418152E+04 0.  0.
        4    1    3    3  502    0  0.36014166995E+03  0.11857422093E+03  0.79723612178E+03  0.88280740543E+03  0.12699999809E+01 0.  1.
       -4    1    3    3    0  502 -0.36014166995E+03 -0.11857422093E+03 -0.38603830576E+03  0.54109985651E+03  0.12699999809E+01 0. -1.
</event>
<event>
 5   0  0.3294720E-03  0.1296939E+04  0.7818609E-02  0.9031996E-01
        2   -1    0    0  501    0  0.00000000000E+00  0.00000000000E+00  0.11752496406E+04  0.11752496406E+04  0.25500000920E-02 0.  1.
       -2   -1    0    0    0  501  0.00000000000E+00  0.00000000000E+00 -0.35780720738E+03  0.35780720739E+03  0.25500000920E-02 0. -1.
    10030    2    1    2    0    0  0.00000000000E+00  0.00000000000E+00  0.81744243323E+03  0.15330568480E+04  0.12969391534E+04 0.  0.
        5    1    3    3  502    0 -0.24264732639E+02  0.61709800110E+03  0.64243401815E+03  0.89114660852E+03  0.46999998093E+01 0.  1.
       -5    1    3    3    0  502  0.24264732639E+02 -0.61709800110E+03  0.17500841508E+03  0.64191023949E+03  0.46999998093E+01 0. -1.
</event>
<event>
 5   0  0.1814770E-03  0.1300810E+04  0.7818609E-02  0.9028923E-01
        1   -1    0    0  501    0  0.00000000000E+00  0.00000000000E+00  0.63988731467E+03  0.63988731469E+03  0.50400001928E-02 0. -1.
       -1   -1    0    0    0  501  0.00000000000E+00  0.00000000000E+00 -0.66109537897E+03  0.66109537899E+03  0.50400001928E-02 0.  1.
    10030    2    1    2    0    0  0.00000000000E+00  0.00000000000E+00 -0.21208064309E+02  0.13009826937E+04  0.13008098198E+04 0.  0.
        5    1    3    3  502    0 -0.15315265336E+03  0.62781398855E+03 -0.84087039087E+02  0.65168923544E+03  0.46999998093E+01 0. -1.
       -5    1    3    3    0  502  0.15315265336E+03 -0.62781398855E+03  0.62878974778E+02  0.64929345824E+03  0.46999998093E+01 0.  1.
</event>
<event>
 5   0  0.1823154E-03  0.1301818E+04  0.7818609E-02  0.9028124E-01
        1   -1    0    0  501    0  0.00000000000E+00  0.00000000000E+00  0.10035010597E+04  0.10035010597E+04  0.50400001928E-02 0. -1.
       -1   -1    0    0    0  501  0.00000000000E+00  0.00000000000E+00 -0.42220454194E+03  0.42220454197E+03  0.50400001928E-02 0.  1.
    10030    2    1    2    0    0  0.00000000000E+00  0.00000000000E+00  0.58129651772E+03  0.14257056016E+04  0.13018182750E+04 0.  0.
        2    1    3    3  502    0 -0.49476279604E+03 -0.20056628277E+03 -0.11716743392E+03  0.54657594688E+03  0.25500000920E-02 0. -1.
       -2    1    3    3    0  502  0.49476279604E+03  0.20056628277E+03  0.69846395164E+03  0.87912965476E+03  0.25500000920E-02 0.  1.
</event>
<event>
 5   0  0.3336609E-03  0.1235080E+04  0.7818609E-02  0.9082693E-01
        2   -1    0    0  501    0  0.00000000000E+00  0.00000000000E+00  0.16600407422E+04  0.16600407422E+04  0.25500000920E-02 0.  1.
       -2   -1    0    0    0  501  0.00000000000E+00  0.00000000000E+00 -0.22972682815E+03  0.22972682816E+03  0.25500000920E-02 0. -1.
    10030    2    1    2    0    0  0.00000000000E+00  0.00000000000E+00  0.14303139140E+04  0.18897675704E+04  0.12350803930E+04 0.  0.
        1    1    3    3  502    0 -0.17284029126E+03  0.50760101894E+03  0.11838285105E+04  0.12996085961E+04  0.50400001928E-02 0.  1.
       -1    1    3    3    0  502  0.17284029126E+03 -0.50760101894E+03  0.24648540351E+03  0.59015897425E+03  0.50400001928E-02 0. -1.
</event>
<event>
 5   0  0.1803959E-03  0.1302579E+04  0.7818609E-02  0.9027523E-01
        1   -1    0    0  501    0  0.00000000000E+00  0.00000000000E+00  0.17170658486E+04  0.17170658486E+04  0.50400001928E-02 0. -1.
       -1   -1    0    0    0  501  0.00000000000E+00  0.00000000000E+00 -0.24703646880E+03  0.24703646885E+03  0.50400001928E-02 0.  1.
    10030    2    1    2    0    0  0.00000000000E+00  0.00000000000E+00  0.14700293798E+04  0.19641023175E+04  0.13025788022E+04 0.  0.
        4    1    3    3  502    0 -0.53615788592E+03  0.30397985682E+03  0.41762161546E+03  0.74449879690E+03  0.12699999809E+01 0.  1.
       -4    1    3    3    0  502  0.53615788592E+03 -0.30397985682E+03  0.10524077644E+04  0.12196035206E+04  0.12699999809E+01 0. -1.
</event>
<event>
 5   0  0.3262927E-03  0.1277420E+04  0.7818609E-02  0.9047665E-01
       -2   -1    0    0    0  501  0.00000000000E+00  0.00000000000E+00  0.60179863530E+03  0.60179863531E+03  0.25500000920E-02 0. -1.
        2   -1    0    0  501    0  0.00000000000E+00  0.00000000000E+00 -0.67788574050E+03  0.67788574050E+03  0.25500000920E-02 0.  1.
    10030    2    1    2    0    0  0.00000000000E+00  0.00000000000E+00 -0.76087105193E+02  0.12796843758E+04  0.12774203905E+04 0.  0.
        3    1    3    3  502    0 -0.37364216659E+03  0.47819337251E+03  0.16149111780E+03  0.62797831292E+03  0.10100000352E+00 0. -1.
       -3    1    3    3    0  502  0.37364216659E+03 -0.47819337251E+03 -0.23757822299E+03  0.65170606289E+03  0.10100000352E+00 0.  1.
</event>
<event>
 5   0  0.1814770E-03  0.1301323E+04  0.7818609E-02  0.9028517E-01
        1   -1    0    0  501    0  0.00000000000E+00  0.00000000000E+00  0.14092694785E+04  0.14092694785E+04  0.50400001928E-02 0. -1.
       -1   -1    0    0    0  501  0.00000000000E+00  0.00000000000E+00 -0.30041103852E+03  0.30041103856E+03  0.50400001928E-02 0.  1.
    10030    2    1    2    0    0  0.00000000000E+00  0.00000000000E+00  0.11088584399E+04  0.17096805170E+04  0.13013225697E+04 0.  0.
        5    1    3    3  502    0  0.46148412893E+03 -0.31223488878E+03  0.99583508364E+03  0.11411256858E+04  0.46999998093E+01 0. -1.
       -5    1    3    3    0  502 -0.46148412893E+03  0.31223488878E+03  0.11302335629E+03  0.56855483121E+03  0.46999998093E+01 0.  1.
</event>
<event>
 5   0  0.1873488E-03  0.1187844E+04  0.7818609E-02  0.9123564E-01
        1   -1    0    0  501    0  0.00000000000E+00  0.00000000000E+00  0.12770589211E+04  0.12770589211E+04  0.50400001928E-02 0.  1.
       -1   -1    0    0    0  501  0.00000000000E+00  0.00000000000E+00 -0.27621547729E+03  0.27621547734E+03  0.50400001928E-02 0. -1.
    10030    2    1    2    0    0  0.00000000000E+00  0.00000000000E+00  0.10008434438E+04  0.15532743984E+04  0.11878441639E+04 0.  0.
        3    1    3    3  502    0 -0.32615734595E+03  0.44101661798E+03  0.79823448993E+03  0.96853114703E+03  0.10100000352E+00 0.  1.
       -3    1    3    3    0  502  0.32615734595E+03 -0.44101661798E+03  0.20260895383E+03  0.58474325137E+03  0.10100000352E+00 0. -1.
</event>
<event>
 5   0  0.1814770E-03  0.1309087E+04  0.7818609E-02  0.9022390E-01
        1   -1    0    0  501    0  0.00000000000E+00  0.00000000000E+00  0.50658204878E+03  0.50658204880E+03  0.50400001928E-02 0.  1.
       -1   -1    0    0    0  501  0.00000000000E+00  0.00000000000E+00 -0.84572069879E+03  0.84572069881E+03  0.50400001928E-02 0. -1.
    10030    2    1    2    0    0  0.00000000000E+00  0.00000000000E+00 -0.33913865001E+03  0.13523027476E+04  0.13090865889E+04 0.  0.
        5    1    3    3  502    0  0.25430453105E+03  0.16527713111E+03 -0.76873214011E+03  0.82641304310E+03  0.46999998093E+01 0. -1.
       -5    1    3    3    0  502 -0.25430453105E+03 -0.16527713111E+03  0.42959349009E+03  0.52588970451E+03  0.46999998093E+01 0.  1.
</event>
<event>
 5   0  0.3299104E-03  0.1294908E+04  0.7818609E-02  0.9033613E-01
        2   -1    0    0  501    0  0.00000000000E+00  0.00000000000E+00  0.90476768415E+03  0.90476768416E+03  0.25500000920E-02 0. -1.
       -2   -1    0    0    0  501  0.00000000000E+00  0.00000000000E+00 -0.46331968900E+03  0.46331968901E+03  0.25500000920E-02 0.  1.
    10030    2    1    2    0    0  0.00000000000E+00  0.00000000000E+00  0.44144799515E+03  0.13680873732E+04  0.12949079999E+04 0.  0.
        2    1    3    3  502    0  0.13390344720E+03  0.45697081930E+02 -0.44678695601E+03  0.46865439348E+03  0.25500000920E-02 0.  1.
       -2    1    3    3    0  502 -0.13390344720E+03 -0.45697081930E+02  0.88823495116E+03  0.89943297968E+03  0.25500000920E-02 0. -1.
</event>
<event>
 5   0  0.3294720E-03  0.1330004E+04  0.7818609E-02  0.9006104E-01
        2   -1    0    0  501    0  0.00000000000E+00  0.00000000000E+00  0.26908851202E+04  0.26908851202E+04  0.25500000920E-02 0.  1.
       -2   -1    0    0    0  501  0.00000000000E+00  0.00000000000E+00 -0.16434292240E+03  0.16434292242E+03  0.25500000920E-02 0. -1.
    10030    2    1    2    0    0  0.00000000000E+00  0.00000000000E+00  0.25265421978E+04  0.28552280427E+04  0.13300043978E+04 0.  0.
        5    1    3    3  502    0 -0.12593156378E+03  0.60715046680E+03  0.17790143188E+04  0.18839863281E+04  0.46999998093E+01 0.  1.
       -5    1    3    3    0  502  0.12593156378E+03 -0.60715046680E+03  0.74752787903E+03  0.97124171452E+03  0.46999998093E+01 0. -1.
</event>
<event>
 5   0  0.1803959E-03  0.1359614E+04  0.7818609E-02  0.8983582E-01
        1   -1    0    0  501    0  0.00000000000E+00  0.00000000000E+00  0.16887730897E+04  0.16887730897E+04  0.50400001928E-02 0. -1.
       -1   -1    0    0    0  501  0.00000000000E+00  0.00000000000E+00 -0.27365303344E+03  0.27365303349E+03  0.50400001928E-02 0.  1.
    10030    2    1    2    0    0  0.00000000000E+00  0.00000000000E+00  0.14151200563E+04  0.19624261232E+04  0.13596144731E+04 0.  0.
        4    1    3    3  502    0 -0.12221299321E+03 -0.46373422906E+02 -0.25534137824E+03  0.28685770410E+03  0.12699999809E+01 0.  1.
       -4    1    3    3    0  502  0.12221299321E+03  0.46373422906E+02  0.16704614345E+04  0.16755684191E+04  0.12699999809E+01 0. -1.
</event>
<event>
 5   0  0.3259968E-03  0.9924995E+03  0.7818609E-02  0.9316810E-01
       -2   -1    0    0    0  501  0.00000000000E+00  0.00000000000E+00  0.20680152893E+03  0.20680152894E+03  0.25500000920E-02 0. -1.
        2   -1    0    0  501    0  0.00000000000E+00  0.00000000000E+00 -0.11908220115E+04  0.11908220115E+04  0.25500000920E-02 0.  1.
    10030    2    1    2    0    0  0.00000000000E+00  0.00000000000E+00 -0.98402048259E+03  0.13976235405E+04  0.99249949657E+03 0.  0.
        4    1    3    3  502    0  0.16717064911E+03 -0.38801930738E+03 -0.12545654078E+03  0.44073344024E+03  0.12699999809E+01 0. -1.
       -4    1    3    3    0  502 -0.16717064911E+03  0.38801930738E+03 -0.85856394180E+03  0.95689010022E+03  0.12699999809E+01 0.  1.
</event>
<event>
 5   0  0.1814770E-03  0.1243925E+04  0.7818609E-02  0.9075255E-01
        1   -1    0    0  501    0  0.00000000000E+00  0.00000000000E+00  0.15700453592E+04  0.15700453592E+04  0.50400001928E-02 0. -1.
       -1   -1    0    0    0  501  0.00000000000E+00  0.00000000000E+00 -0.24638615427E+03  0.24638615432E+03  0.50400001928E-02 0.  1.
    10030    2    1    2    0    0  0.00000000000E+00  0.00000000000E+00  0.13236592049E+04  0.18164315135E+04  0.12439251394E+04 0.  0.
        5    1    3    3  502    0 -0.28560190293E+03 -0.97933374364E+02  0.14558252079E+04  0.14868115276E+04  0.46999998093E+01 0. -1.
       -5    1    3    3    0  502  0.28560190293E+03  0.97933374364E+02 -0.13216600295E+03  0.32961998590E+03  0.46999998093E+01 0.  1.
</event>
<event>
 5   0  0.3299104E-03  0.1305629E+04  0.7818609E-02  0.9025113E-01
        2   -1    0    0  501    0  0.00000000000E+00  0.00000000000E+00  0.33356289694E+03  0.33356289695E+03  0.25500000920E-02 0. -1.
       -2   -1    0    0    0  501  0.00000000000E+00  0.00000000000E+00 -0.12776202736E+04  0.12776202736E+04  0.25500000920E-02 0.  1.
    10030    2    1    2    0    0  0.00000000000E+00  0.00000000000E+00 -0.94405737666E+03  0.16111831705E+04  0.13056289207E+04 0.  0.
        2    1    3    3  502    0 -0.54466598724E+03  0.20906168200E+03 -0.11056389537E+03  0.59379474527E+03  0.25500000920E-02 0. -1.
       -2    1    3    3    0  502  0.54466598724E+03 -0.20906168200E+03 -0.83349348128E+03  0.10173884253E+04  0.25500000920E-02 0.  1.
</event>
<event>
 5   0  0.3262927E-03  0.1312681E+04  0.7818609E-02  0.9019569E-01
        2   -1    0    0  501    0  0.00000000000E+00  0.00000000000E+00  0.68826488389E+03  0.68826488390E+03  0.25500000920E-02 0.  1.
       -2   -1    0    0    0  501  0.00000000000E+00  0.00000000000E+00 -0.62589710662E+03  0.62589710663E+03  0.25500000920E-02 0. -1.
    10030    2    1    2    0    0  0.00000000000E+00  0.00000000000E+00  0.62367777272E+02  0.13141619905E+04  0.13126812247E+04 0.  0.
        3    1    3    3  502    0  0.46221394687E+03 -0.32010125626E+03 -0.30783721541E+03  0.64099166011E+03  0.10100000352E+00 0. -1.
       -3    1    3    3    0  502 -0.46221394687E+03  0.32010125626E+03  0.37020499268E+03  0.67317033041E+03  0.10100000352E+00 0.  1.
</event>
<event>
 5   0  0.1823154E-03  0.1236248E+04  0.7818609E-02  0.9081707E-01
       -1   -1    0    0    0  501  0.00000000000E+00  0.00000000000E+00  0.41952350185E+03  0.41952350188E+03  0.50400001928E-02 0.  1.
        1   -1    0    0  501    0  0.00000000000E+00  0.00000000000E+00 -0.91074120234E+03  0.91074120235E+03  0.50400001928E-02 0. -1.
    10030    2    1    2    0    0  0.00000000000E+00  0.00000000000E+00 -0.49121770049E+03  0.13302647042E+04  0.12362480957E+04 0.  0.
        2    1    3    3  502    0  0.13561123550E+02  0.48315733314E+03 -0.66020578027E+03  0.81822770971E+03  0.25500000920E-02 0. -1.
       -2    1    3    3    0  502 -0.13561123550E+02 -0.48315733314E+03  0.16898807978E+03  0.51203699451E+03  0.25500000920E-02 0.  1.
</event>
<event>
 5   0  0.1814770E-03  0.1294652E+04  0.7818609E-02  0.9033817E-01
       -1   -1    0    0    0  501  0.00000000000E+00  0.00000000000E+00  0.20066640656E+04  0.20066640656E+04  0.50400001928E-02 0.  1.
        1   -1    0    0  501    0  0.00000000000E+00  0.00000000000E+00 -0.20881964065E+03  0.20881964071E+03  0.50400001928E-02 0. -1.
    10030    2    1    2    0    0  0.00000000000E+00  0.00000000000E+00  0.17978444249E+04  0.22154837063E+04  0.12946518747E+04 0.  0.
        5    1    3    3  502    0 -0.37524674035E+03  0.52460604254E+03  0.99245094021E+03  0.11836395460E+04  0.46999998093E+01 0.  1.
       -5    1    3    3    0  502  0.37524674035E+03 -0.52460604254E+03  0.80539348474E+03  0.10318441604E+04  0.46999998093E+01 0. -1.
</event>
<event>
 5   0  0.3262927E-03  0.1293557E+04  0.7818609E-02  0.9034690E-01
        2   -1    0    0  501    0  0.00000000000E+00  0.00000000000E+00  0.50650647635E+03  0.50650647636E+03  0.25500000920E-02 0. -1.
       -2   -1    0    0    0  501  0.00000000000E+00  0.00000000000E+00 -0.82589765363E+03  0.82589765364E+03  0.25500000920E-02 0.  1.
    10030    2    1    2    0    0  0.00000000000E+00  0.00000000000E+00 -0.31939117728E+03  0.13324041300E+04  0.12935571273E+04 0.  0.
        3    1    3    3  502    0 -0.34768596800E+03 -0.50477362290E+03  0.53001621678E+02  0.61521632360E+03  0.10100000352E+00 0. -1.
       -3    1    3    3    0  502  0.34768596800E+03  0.50477362290E+03 -0.37239279896E+03  0.71718780639E+03  0.10100000352E+00 0.  1.
</event>
<event>
 5   0  0.3262927E-03  0.1289907E+04  0.7818609E-02  0.9037608E-01
       -2   -1    0    0    0  501  0.00000000000E+00  0.00000000000E+00  0.11150828781E+04  0.11150828781E+04  0.25500000920E-02 0.  1.
        2   -1    0    0  501    0  0.00000000000E+00  0.00000000000E+00 -0.37303504346E+03  0.37303504347E+03  0.25500000920E-02 0. -1.
    10030    2    1    2    0    0  0.00000000000E+00  0.00000000000E+00  0.74204783467E+03  0.14881179216E+04  0.12899069577E+04 0.  0.
        3    1    3    3  502    0  0.34553747201E+03 -0.24071039823E+03 -0.19253465610E+03  0.46304129879E+03  0.10100000352E+00 0. -1.
       -3    1    3    3    0  502 -0.34553747201E+03  0.24071039823E+03  0.93458249077E+03  0.10250766228E+04  0.10100000352E+00 0.  1.
</event>
<event>
 5   0  0.3299104E-03  0.1316371E+04  0.7818609E-02  0.9016683E-01
        2   -1    0    0  501    0  0.00000000000E+00  0.00000000000E+00  0.19060590329E+04  0.19060590329E+04  0.25500000920E-02 0. -1.
       -2   -1    0    0    0  501  0.00000000000E+00  0.00000000000E+00 -0.22727948829E+03  0.22727948830E+03  0.25500000920E-02 0.  1.
    10030    2    1    2    0    0  0.00000000000E+00  0.00000000000E+00  0.16787795446E+04  0.21333385212E+04  0.13163709533E+04 0.  0.
        2    1    3    3  502    0 -0.32979996972E+03  0.16075656220E+03 -0.46183533483E+02  0.36978860325E+03  0.25500000920E-02 0.  1.
       -2    1    3    3    0  502  0.32979996972E+03 -0.16075656220E+03  0.17249630781E+04  0.17635499179E+04  0.25500000920E-02 0. -1.
</event>
<event>
 5   0  0.1857986E-03  0.1325906E+04  0.7818609E-02  0.9009270E-01
        1   -1    0    0  501    0  0.00000000000E+00  0.00000000000E+00  0.89217929811E+03  0.89217929813E+03  0.50400001928E-02 0. -1.
       -1   -1    0    0    0  501  0.00000000000E+00  0.00000000000E+00 -0.49262122094E+03  0.49262122097E+03  0.50400001928E-02 0.  1.
    10030    2    1    2    0    0  0.00000000000E+00  0.00000000000E+00  0.39955807717E+03  0.13848005191E+04  0.13259056605E+04 0.  0.
        1    1    3    3  502    0  0.32001552469E+03  0.13565753068E+03 -0.38982606255E+03  0.52228082556E+03  0.50400001928E-02 0.  1.
       -1    1    3    3    0  502 -0.32001552469E+03 -0.13565753068E+03  0.78938413972E+03  0.86251969354E+03  0.50400001928E-02 0. -1.
</event>
<event>
 5   0  0.3259968E-03  0.1297307E+04  0.7818609E-02  0.9031704E-01
        2   -1    0    0  501    0  0.00000000000E+00  0.00000000000E+00  0.13370689132E+04  0.13370689132E+04  0.25500000920E-02 0. -1.
       -2   -1    0    0    0  501  0.00000000000E+00  0.00000000000E+00 -0.31468182464E+03  0.31468182465E+03  0.25500000920E-02 0.  1.
    10030    2    1    2    0    0  0.00000000000E+00  0.00000000000E+00  0.10223870886E+04  0.16517507379E+04  0.12973068801E+04 0.  0.
        4    1    3    3  502    0  0.71595825694E+02  0.16943211821E+02  0.13317376112E+04  0.13337689877E+04  0.12699999809E+01 0. -1.
       -4    1    3    3    0  502 -0.71595825694E+02 -0.16943211821E+02 -0.30935052261E+03  0.31798175014E+03  0.12699999809E+01 0.  1.
</event>
<event>
 5   0  0.3262927E-03  0.1336692E+04  0.7818609E-02  0.9000964E-01
       -2   -1    0    0    0  501  0.00000000000E+00  0.00000000000E+00  0.15899657308E+04  0.15899657308E+04  0.25500000920E-02 0. -1.
        2   -1    0    0  501    0  0.00000000000E+00  0.00000000000E+00 -0.28094078038E+03  0.28094078039E+03  0.25500000920E-02 0.  1.
    10030    2    1    2    0    0  0.00000000000E+00  0.00000000000E+00  0.13090249504E+04  0.18709065112E+04  0.13366917568E+04 0.  0.
        3    1    3    3  502    0 -0.58248636946E+03 -0.22761864209E+03  0.98450333546E+03  0.11663393351E+04  0.10100000352E+00 0. -1.
       -3    1    3    3    0  502  0.58248636946E+03  0.22761864209E+03  0.32452161492E+03  0.70456717607E+03  0.10100000352E+00 0.  1.
</event>
<event>
 5   0  0.1823154E-03  0.1268677E+04  0.7818609E-02  0.9054780E-01
       -1   -1    0    0    0  501  0.00000000000E+00  0.00000000000E+00  0.73036321509E+03  0.73036321511E+03  0.50400001928E-02 0.  1.
        1   -1    0    0  501    0  0.00000000000E+00  0.00000000000E+00 -0.55093899271E+03  0.55093899273E+03  0.50400001928E-02 0. -1.
    10030    2    1    2    0    0  0.00000000000E+00  0.00000000000E+00  0.17942422239E+03  0.12813022078E+04  0.12686773807E+04 0.  0.
        2    1    3    3  502    0  0.12731027159E+03  0.61788571111E+03  0.22758237794E+02  0.63127537148E+03  0.25500000920E-02 0.  1.
       -2    1    3    3    0  502 -0.12731027159E+03 -0.61788571111E+03  0.15666598459E+03  0.65002683635E+03  0.25500000920E-02 0. -1.
</event>
<event>
 5   0  0.1857986E-03  0.1288838E+04  0.7818609E-02  0.9038464E-01
        1   -1    0    0  501    0  0.00000000000E+00  0.00000000000E+00  0.89650325079E+03  0.89650325081E+03  0.50400001928E-02 0. -1.
       -1   -1    0    0    0  501  0.00000000000E+00  0.00000000000E+00 -0.46321703129E+03  0.46321703132E+03  0.50400001928E-02 0.  1.
    10030    2    1    2    0    0  0.00000000000E+00  0.00000000000E+00  0.43328621950E+03  0.13597202821E+04  0.12888375761E+04 0.  0.
        1    1    3    3  502    0  0.24168125524E+03  0.11619441599E+03  0.83484331845E+03  0.87685479860E+03  0.50400001928E-02 0. -1.
       -1    1    3    3    0  502 -0.24168125524E+03 -0.11619441599E+03 -0.40155709895E+03  0.48286548353E+03  0.50400001928E-02 0.  1.
</event>
<event>
 5   0  0.3336609E-03  0.1348579E+04  0.7818609E-02  0.8991904E-01
        2   -1    0    0  501    0  0.00000000000E+00  0.00000000000E+00  0.12942991458E+04  0.12942991458E+04  0.25500000920E-02 0. -1.
       -2   -1    0    0    0  501  0.00000000000E+00  0.00000000000E+00 -0.35128384177E+03  0.35128384178E+03  0.25500000920E-02 0.  1.
    10030    2    1    2    0    0  0.00000000000E+00  0.00000000000E+00  0.94301530405E+03  0.16455829876E+04  0.13485790690E+04 0.  0.
        1    1    3    3  502    0  0.79540209892E+02 -0.34067594938E+03 -0.23188079751E+03  0.41970877016E+03  0.50400001928E-02 0.  1.
       -1    1    3    3    0  502 -0.79540209892E+02  0.34067594938E+03  0.11748961016E+04  0.12258742174E+04  0.50400001928E-02 0. -1.
</event>
<event>
 5   0  0.1814770E-03  0.1278297E+04  0.7818609E-02  0.9046955E-01
       -1   -1    0    0    0  501  0.00000000000E+00  0.00000000000E+00  0.31581910997E+03  0.31581911001E+03  0.50400001928E-02 0. -1.
        1   -1    0    0  501    0  0.00000000000E+00  0.00000000000E+00 -0.12934964387E+04  0.12934964387E+04  0.50400001928E-02 0.  1.
    10030    2    1    2    0    0  0.00000000000E+00  0.00000000000E+00 -0.97767732872E+03  0.16093155487E+04  0.12782971392E+04 0.  0.
        5    1    3    3  502    0  0.32420942998E+03 -0.49102585120E+03 -0.17467848569E+03  0.61380192603E+03  0.46999998093E+01 0. -1.
       -5    1    3    3    0  502 -0.32420942998E+03  0.49102585120E+03 -0.80299884303E+03  0.99551362268E+03  0.46999998093E+01 0.  1.
</event>
<event>
 5   0  0.1803959E-03  0.1307859E+04  0.7818609E-02  0.9023356E-01
        1   -1    0    0  501    0  0.00000000000E+00  0.00000000000E+00  0.34676571342E+03  0.34676571346E+03  0.50400001928E-02 0.  1.
       -1   -1    0    0    0  501  0.00000000000E+00  0.00000000000E+00 -0.12331787752E+04  0.12331787752E+04  0.50400001928E-02 0. -1.
    10030    2    1    2    0    0  0.00000000000E+00  0.00000000000E+00 -0.88641306178E+03  0.15799444887E+04  0.13078594998E+04 0.  0.
        4    1    3    3  502    0  0.14470956780E+03 -0.60377486549E+03 -0.19522723814E+03  0.65084578406E+03  0.12699999809E+01 0. -1.
       -4    1    3    3    0  502 -0.14470956780E+03  0.60377486549E+03 -0.69118582364E+03  0.92909870461E+03  0.12699999809E+01 0.  1.
</event>
<event>
 5   0  0.3262927E-03  0.1305309E+04  0.7818609E-02  0.9025366E-01
       -2   -1    0    0    0  501  0.00000000000E+00  0.00000000000E+00  0.78872044423E+03  0.78872044423E+03  0.25500000920E-02 0. -1.
        2   -1    0    0  501    0  0.00000000000E+00  0.00000000000E+00 -0.54006154373E+03  0.54006154373E+03  0.25500000920E-02 0.  1.
    10030    2    1    2    0    0  0.00000000000E+00  0.00000000000E+00  0.24865890050E+03  0.13287819880E+04  0.13053085163E+04 0.  0.
        3    1    3    3  502    0  0.41639157573E+03  0.15319524626E+03 -0.36292923737E+03  0.57320883572E+03  0.10100000352E+00 0.  1.
       -3    1    3    3    0  502 -0.41639157573E+03 -0.15319524626E+03  0.61158813787E+03  0.75557315224E+03  0.10100000352E+00 0. -1.
</event>
<event>
 5   0  0.1803959E-03  0.1286437E+04  0.7818609E-02  0.9040391E-01
       -1   -1    0    0    0  501  0.00000000000E+00  0.00000000000E+00  0.82593024999E+03  0.82593025000E+03  0.50400001928E-02 0. -1.
        1   -1    0    0  501    0  0.00000000000E+00  0.00000000000E+00 -0.50092575224E+03  0.50092575226E+03  0.50400001928E-02 0.  1.
    10030    2    1    2    0    0  0.00000000000E+00  0.00000000000E+00  0.32500449775E+03  0.13268560023E+04  0.12864365228E+04 0.  0.
        4    1    3    3  502    0 -0.61996389459E+02 -0.60577261317E+03  0.37619316942E+03  0.71577016199E+03  0.12699999809E+01 0. -1.
       -4    1    3    3    0  502  0.61996389459E+02  0.60577261317E+03 -0.51188671668E+02  0.61108584027E+03  0.12699999809E+01 0.  1.
</event>
<event>
 5   0  0.1857986E-03  0.1306753E+04  0.7818609E-02  0.9024227E-01
        1   -1    0    0  501    0  0.00000000000E+00  0.00000000000E+00  0.37426426108E+03  0.37426426111E+03  0.50400001928E-02 0.  1.
       -1   -1    0    0    0  501  0.00000000000E+00  0.00000000000E+00 -0.11406403900E+04  0.11406403900E+04  0.50400001928E-02 0. -1.
    10030    2    1    2    0    0  0.00000000000E+00  0.00000000000E+00 -0.76637612889E+03  0.15149046511E+04  0.13067531255E+04 0.  0.
        1    1    3    3  502    0  0.65252421588E+03  0.16001156549E+02 -0.41712660460E+03  0.77462151636E+03  0.50400001928E-02 0. -1.
       -1    1    3    3    0  502 -0.65252421588E+03 -0.16001156549E+02 -0.34924952430E+03  0.74028313473E+03  0.50400001928E-02 0.  1.
</event>
<event>
 5   0  0.1823154E-03  0.1216253E+04  0.7818609E-02  0.9098748E-01
       -1   -1    0    0    0  501  0.00000000000E+00  0.00000000000E+00  0.29581289595E+03  0.29581289599E+03  0.50400001928E-02 0. -1.
        1   -1    0    0  501    0  0.00000000000E+00  0.00000000000E+00 -0.12501748634E+04  0.12501748634E+04  0.50400001928E-02 0.  1.
    10030    2    1    2    0    0  0.00000000000E+00  0.00000000000E+00 -0.95436196742E+03  0.15459877594E+04  0.12162530112E+04 0.  0.
        2    1    3    3  502    0 -0.52017506459E+02 -0.22723338450E+02  0.29243803502E+03  0.29789624943E+03  0.25500000920E-02 0. -1.
       -2    1    3    3    0  502  0.52017506459E+02  0.22723338450E+02 -0.12468000024E+04  0.12480915099E+04  0.25500000920E-02 0.  1.
</event>
<event>
 5   0  0.3336609E-03  0.1254367E+04  0.7818609E-02  0.9066556E-01
        2   -1    0    0  501    0  0.00000000000E+00  0.00000000000E+00  0.10966289613E+04  0.10966289613E+04  0.25500000920E-02 0.  1.
       -2   -1    0    0    0  501  0.00000000000E+00  0.00000000000E+00 -0.35869854373E+03  0.35869854374E+03  0.25500000920E-02 0. -1.
    10030    2    1    2    0    0  0.00000000000E+00  0.00000000000E+00  0.73793041757E+03  0.14553275050E+04  0.12543671096E+04 0.  0.
        1    1    3    3  502    0 -0.55659499737E+03 -0.11925379953E+02  0.33869718045E+02  0.55775206285E+03  0.50400001928E-02 0. -1.
       -1    1    3    3    0  502  0.55659499737E+03  0.11925379953E+02  0.70406069952E+03  0.89757544219E+03  0.50400001928E-02 0.  1.
</event>
<event>
 5   0  0.1814770E-03  0.1341822E+04  0.7818609E-02  0.8997042E-01
        1   -1    0    0  501    0  0.00000000000E+00  0.00000000000E+00  0.67336999733E+03  0.67336999735E+03  0.50400001928E-02 0. -1.
       -1   -1    0    0    0  501  0.00000000000E+00  0.00000000000E+00 -0.66846106976E+03  0.66846106978E+03  0.50400001928E-02 0.  1.
    10030    2    1    2    0    0  0.00000000000E+00  0.00000000000E+00  0.49089275717E+01  0.13418310671E+04  0.13418220877E+04 0.  0.
        5    1    3    3  502    0  0.45763986740E+03 -0.48726052119E+03 -0.54488652055E+02  0.67070721403E+03  0.46999998093E+01 0. -1.
       -5    1    3    3    0  502 -0.45763986740E+03  0.48726052119E+03  0.59397579626E+02  0.67112385311E+03  0.46999998093E+01 0.  1.
</event>
<event>
 5   0  0.3262927E-03  0.1146073E+04  0.7818609E-02  0.9161414E-01
        2   -1    0    0  501    0  0.00000000000E+00  0.00000000000E+00  0.57663502511E+03  0.57663502512E+03  0.25500000920E-02 0. -1.
       -2   -1    0    0    0  501  0.00000000000E+00  0.00000000000E+00 -0.56946068126E+03  0.56946068127E+03  0.25500000920E-02 0.  1.
    10030    2    1    2    0    0  0.00000000000E+00  0.00000000000E+00  0.71743438535E+01  0.11460957064E+04  0.11460732511E+04 0.  0.
        3    1    3    3  502    0  0.33028464849E+03  0.42801010532E+03 -0.18639119272E+03  0.57185862431E+03  0.10100000352E+00 0. -1.
       -3    1    3    3    0  502 -0.33028464849E+03 -0.42801010532E+03  0.19356553657E+03  0.57423708207E+03  0.10100000352E+00 0.  1.
</event>
<event>
 5   0  0.3299104E-03  0.1292415E+04  0.7818609E-02  0.9035602E-01
        2   -1    0    0  501    0  0.00000000000E+00  0.00000000000E+00  0.10590339689E+04  0.10590339689E+04  0.25500000920E-02 0.  1.
       -2   -1    0    0    0  501  0.00000000000E+00  0.00000000000E+00 -0.39430659567E+03  0.39430659567E+03  0.25500000920E-02 0. -1.
    10030    2    1    2    0    0  0.00000000000E+00  0.00000000000E+00  0.66472737326E+03  0.14533405646E+04  0.12924149163E+04 0.  0.
        2    1    3    3  502    0  0.47880240582E+03 -0.22792774925E+03  0.74764540112E+03  0.91661139450E+03  0.25500000920E-02 0.  1.
       -2    1    3    3    0  502 -0.47880240582E+03  0.22792774925E+03 -0.82918027858E+02  0.53672917011E+03  0.25500000920E-02 0. -1.
</event>
<event>
 5   0  0.3259968E-03  0.1282388E+04  0.7818609E-02  0.9043649E-01
       -2   -1    0    0    0  501  0.00000000000E+00  0.00000000000E+00  0.43916922515E+03  0.43916922516E+03  0.25500000920E-02 0. -1.
        2   -1    0    0  501    0  0.00000000000E+00  0.00000000000E+00 -0.93615381925E+03  0.93615381925E+03  0.25500000920E-02 0.  1.
    10030    2    1    2    0    0  0.00000000000E+00  0.00000000000E+00 -0.49698459410E+03  0.13753230444E+04  0.12823883147E+04 0.  0.
        4    1    3    3  502    0 -0.57636230453E+03 -0.16409259092E+03 -0.49307296319E+03  0.77604281093E+03  0.12699999809E+01 0.  1.
       -4    1    3    3    0  502  0.57636230453E+03  0.16409259092E+03 -0.39116309099E+01  0.59928023347E+03  0.12699999809E+01 0. -1.
</event>
<event>
 5   0  0.3262927E-03  0.1308052E+04  0.7818609E-02  0.9023204E-01
        2   -1    0    0  501    0  0.00000000000E+00  0.00000000000E+00  0.12279064496E+04  0.12279064496E+04  0.25500000920E-02 0. -1.
       -2   -1    0    0    0  501  0.00000000000E+00  0.00000000000E+00 -0.34835726587E+03  0.34835726588E+03  0.25500000920E-02 0.  1.
    10030    2    1    2    0    0  0.00000000000E+00  0.00000000000E+00  0.87954918372E+03  0.15762637155E+04  0.13080521909E+04 0.  0.
        3    1    3    3  502    0  0.25948271229E+03  0.36331271976E+03 -0.13616037754E+03  0.46676232595E+03  0.10100000352E+00 0.  1.
       -3    1    3    3    0  502 -0.25948271229E+03 -0.36331271976E+03  0.10157095613E+04  0.11095013895E+04  0.10100000352E+00 0. -1.
</event>
<event>
 5   0  0.1857986E-03  0.1301726E+04  0.7818609E-02  0.9028198E-01
       -1   -1    0    0    0  501  0.00000000000E+00  0.00000000000E+00  0.85094258292E+03  0.85094258293E+03  0.50400001928E-02 0. -1.
        1   -1    0    0  501    0  0.00000000000E+00  0.00000000000E+00 -0.49782730324E+03  0.49782730326E+03  0.50400001928E-02 0.  1.
    10030    2    1    2    0    0  0.00000000000E+00  0.00000000000E+00  0.35311527968E+03  0.13487698862E+04  0.13017257027E+04 0.  0.
        1    1    3    3  502    0  0.47607474456E+03  0.44211443542E+03  0.21682223811E+03  0.68492643355E+03  0.50400001928E-02 0. -1.
       -1    1    3    3    0  502 -0.47607474456E+03 -0.44211443542E+03  0.13629304157E+03  0.66384345265E+03  0.50400001928E-02 0.  1.
</event>
<event>
 5   0  0.1814770E-03  0.1291084E+04  0.7818609E-02  0.9036665E-01
       -1   -1    0    0    0  501  0.00000000000E+00  0.00000000000E+00  0.68873215871E+03  0.68873215873E+03  0.50400001928E-02 0. -1.
        1   -1    0    0  501    0  0.00000000000E+00  0.00000000000E+00 -0.60506059660E+03  0.60506059662E+03  0.50400001928E-02 0.  1.
    10030    2    1    2    0    0  0.00000000000E+00  0.00000000000E+00  0.83671562106E+02  0.12937927553E+04  0.12910843363E+04 0.  0.
        5    1    3    3  502    0 -0.51891054576E+03 -0.29023306654E+03 -0.21008612842E+03  0.63060420135E+03  0.46999998093E+01 0.  1.
       -5    1    3    3    0  502  0.51891054576E+03  0.29023306654E+03  0.29375769052E+03  0.66318855400E+03  0.46999998093E+01 0. -1.
</event>
<event>
 5   0  0.1254125E-03  0.1286704E+04  0.7818609E-02  0.9040176E-01
        3   -1    0    0  501    0  0.00000000000E+00  0.00000000000E+00  0.76079449273E+03  0.76079449944E+03  0.10100000352E+00 0.  1.
       -3   -1    0    0    0  501  0.00000000000E+00  0.00000000000E+00 -0.54403857454E+03  0.54403858392E+03  0.10100000352E+00 0. -1.
    10030    2    1    2    0    0  0.00000000000E+00  0.00000000000E+00  0.21675591819E+03  0.13048330834E+04  0.12867036362E+04 0.  0.
        4    1    3    3  502    0  0.92755998352E+02  0.30814600653E+03 -0.45655501844E+03  0.55857115423E+03  0.12699999809E+01 0. -1.
       -4    1    3    3    0  502 -0.92755998352E+02 -0.30814600653E+03  0.67331093663E+03  0.74626192913E+03  0.12699999809E+01 0.  1.
</event>
<event>
 5   0  0.3259968E-03  0.1302232E+04  0.7818609E-02  0.9027797E-01
       -2   -1    0    0    0  501  0.00000000000E+00  0.00000000000E+00  0.52850048262E+03  0.52850048263E+03  0.25500000920E-02 0.  1.
        2   -1    0    0  501    0  0.00000000000E+00  0.00000000000E+00 -0.80217851191E+03  0.80217851191E+03  0.25500000920E-02 0. -1.
    10030    2    1    2    0    0  0.00000000000E+00  0.00000000000E+00 -0.27367802929E+03  0.13306789945E+04  0.13022315166E+04 0.  0.
        4    1    3    3  502    0  0.65105692105E+02  0.32889076336E+02  0.52431114153E+03  0.52936209585E+03  0.12699999809E+01 0.  1.
       -4    1    3    3    0  502 -0.65105692105E+02 -0.32889076336E+02 -0.79798917082E+03  0.80131689869E+03  0.12699999809E+01 0. -1.
</event>
<event>
 5   0  0.3299104E-03  0.1282932E+04  0.7818609E-02  0.9043211E-01
       -2   -1    0    0    0  501  0.00000000000E+00  0.00000000000E+00  0.33914707868E+03  0.33914707869E+03  0.25500000920E-02 0. -1.
        2   -1    0    0  501    0  0.00000000000E+00  0.00000000000E+00 -0.12132755564E+04  0.12132755564E+04  0.25500000920E-02 0.  1.
    10030    2    1    2    0    0  0.00000000000E+00  0.00000000000E+00 -0.87412847772E+03  0.15524226351E+04  0.12829323608E+04 0.  0.
        2    1    3    3  502    0 -0.55794498762E+03 -0.31650510157E+03 -0.43812748040E+03  0.77681000098E+03  0.25500000920E-02 0.  1.
       -2    1    3    3    0  502  0.55794498762E+03  0.31650510157E+03 -0.43600099732E+03  0.77561263412E+03  0.25500000920E-02 0. -1.
</event>
<event>
 5   0  0.1823154E-03  0.1323357E+04  0.7818609E-02  0.9011245E-01
        1   -1    0    0  501    0  0.00000000000E+00  0.00000000000E+00  0.12806702790E+04  0.12806702790E+04  0.50400001928E-02 0.  1.
       -1   -1    0    0    0  501  0.00000000000E+00  0.00000000000E+00 -0.34186667604E+03  0.34186667608E+03  0.50400001928E-02 0. -1.
    10030    2    1    2    0    0  0.00000000000E+00  0.00000000000E+00  0.93880360294E+03  0.16225369551E+04  0.13233570817E+04 0.  0.
        2    1    3    3  502    0 -0.31409195754E+03 -0.55187150525E+03  0.69747369205E+03  0.94323139643E+03  0.25500000920E-02 0. -1.
       -2    1    3    3    0  502  0.31409195754E+03  0.55187150525E+03  0.24132991089E+03  0.67930555864E+03  0.25500000920E-02 0.  1.
</event>
<event>
 5   0  0.1254125E-03  0.1316793E+04  0.7818609E-02  0.9016353E-01
        4   -1    0    0  501    0  0.00000000000E+00  0.00000000000E+00  0.99741327518E+03  0.99741408372E+03  0.12699999809E+01 0. -1.
       -4   -1    0    0    0  501  0.00000000000E+00  0.00000000000E+00 -0.43460797813E+03  0.43460983370E+03  0.12699999809E+01 0.  1.
    10030    2    1    2    0    0  0.00000000000E+00  0.00000000000E+00  0.56280529706E+03  0.14320239174E+04  0.13167925796E+04 0.  0.
        1    1    3    3  502    0  0.61764831897E+03  0.10721479364E+03  0.62542376364E+02  0.62999683076E+03  0.50400001928E-02 0. -1.
       -1    1    3    3    0  502 -0.61764831897E+03 -0.10721479364E+03  0.50026292069E+03  0.80202708667E+03  0.50400001928E-02 0.  1.
</event>
<event>
 5   0  0.3336609E-03  0.1317820E+04  0.7818609E-02  0.9015552E-01
       -2   -1    0    0    0  501  0.00000000000E+00  0.00000000000E+00  0.49512921880E+03  0.49512921881E+03  0.25500000920E-02 0. -1.
        2   -1    0    0  501    0  0.00000000000E+00  0.00000000000E+00 -0.87686733794E+03  0.87686733794E+03  0.25500000920E-02 0.  1.
    10030    2    1    2    0    0  0.00000000000E+00  0.00000000000E+00 -0.38173811914E+03  0.13719965568E+04  0.13178203824E+04 0.  0.
        1    1    3    3  502    0 -0.35827142979E+03 -0.13252928895E+03 -0.74982050551E+03  0.84151840167E+03  0.50400001928E-02 0.  1.
       -1    1    3    3    0  502  0.35827142979E+03  0.13252928895E+03  0.36808238637E+03  0.53047815508E+03  0.50400001928E-02 0. -1.
</event>
<event>
 5   0  0.1803959E-03  0.1381618E+04  0.7818609E-02  0.8967233E-01
        1   -1    0    0  501    0  0.00000000000E+00  0.00000000000E+00  0.11048568596E+04  0.11048568596E+04  0.50400001928E-02 0.  1.
       -1   -1    0    0    0  501  0.00000000000E+00  0.00000000000E+00 -0.43192631229E+03  0.43192631232E+03  0.50400001928E-02 0. -1.
    10030    2    1    2    0    0  0.00000000000E+00  0.00000000000E+00  0.67293054730E+03  0.15367831719E+04  0.13816175288E+04 0.  0.
        4    1    3    3  502    0  0.54547334935E+03  0.31810915252E+03  0.24859338745E+02  0.63194478191E+03  0.12699999809E+01 0. -1.
       -4    1    3    3    0  502 -0.54547334935E+03 -0.31810915252E+03  0.64807120855E+03  0.90483839000E+03  0.12699999809E+01 0.  1.
</event>
<event>
 5   0  0.1814770E-03  0.1290211E+04  0.7818609E-02  0.9037364E-01
       -1   -1    0    0    0  501  0.00000000000E+00  0.00000000000E+00  0.70166742647E+03  0.70166742649E+03  0.50400001928E-02 0.  1.
        1   -1    0    0  501    0  0.00000000000E+00  0.00000000000E+00 -0.59310295727E+03  0.59310295729E+03  0.50400001928E-02 0. -1.
    10030    2    1    2    0    0  0.00000000000E+00  0.00000000000E+00  0.10856446920E+03  0.12947703838E+04  0.12902108753E+04 0.  0.
        5    1    3    3  502    0 -0.22246744972E+03 -0.80760059206E+02  0.65650710055E+03  0.69788080388E+03  0.46999998093E+01 0.  1.
       -5    1    3    3    0  502  0.22246744972E+03  0.80760059206E+02 -0.54794263135E+03  0.59688957990E+03  0.46999998093E+01 0. -1.
</event>
<event>
 5   0  0.1857986E-03  0.1401804E+04  0.7818609E-02  0.8952513E-01
        1   -1    0    0  501    0  0.00000000000E+00  0.00000000000E+00  0.37205422321E+03  0.37205422324E+03  0.50400001928E-02 0.  1.
       -1   -1    0    0    0  501  0.00000000000E+00  0.00000000000E+00 -0.13204094391E+04  0.13204094391E+04  0.50400001928E-02 0. -1.
    10030    2    1    2    0    0  0.00000000000E+00  0.00000000000E+00 -0.94835521584E+03  0.16924636623E+04  0.14018044203E+04 0.  0.
        1    1    3    3  502    0 -0.99746476171E+02  0.10044943368E+03  0.35461494599E+03  0.38182614915E+03  0.50400001928E-02 0.  1.
       -1    1    3    3    0  502  0.99746476171E+02 -0.10044943368E+03 -0.13029701618E+04  0.13106375132E+04  0.50400001928E-02 0. -1.
</event>
<event>
 5   0  0.1873488E-03  0.1290410E+04  0.7818609E-02  0.9037205E-01
       -1   -1    0    0    0  501  0.00000000000E+00  0.00000000000E+00  0.80898746644E+03  0.80898746646E+03  0.50400001928E-02 0. -1.
        1   -1    0    0  501    0  0.00000000000E+00  0.00000000000E+00 -0.51458050083E+03  0.51458050085E+03  0.50400001928E-02 0.  1.
    10030    2    1    2    0    0  0.00000000000E+00  0.00000000000E+00  0.29440696562E+03  0.13235679673E+04  0.12904095097E+04 0.  0.
        3    1    3    3  502    0 -0.10466107250E+03 -0.37726012083E+03 -0.37881965260E+03  0.54477837536E+03  0.10100000352E+00 0.  1.
       -3    1    3    3    0  502  0.10466107250E+03  0.37726012083E+03  0.67322661821E+03  0.77878959195E+03  0.10100000352E+00 0. -1.
</event>
<event>
 5   0  0.3262927E-03  0.1317218E+04  0.7818609E-02  0.9016022E-01
       -2   -1    0    0    0  501  0.00000000000E+00  0.00000000000E+00  0.88000265436E+03  0.88000265436E+03  0.25500000920E-02 0.  1.
        2   -1    0    0  501    0  0.00000000000E+00  0.00000000000E+00 -0.49291419244E+03  0.49291419244E+03  0.25500000920E-02 0. -1.
    10030    2    1    2    0    0  0.00000000000E+00  0.00000000000E+00  0.38708846192E+03  0.13729168468E+04  0.13172179739E+04 0.  0.
        3    1    3    3  502    0 -0.46977528842E+03  0.60304517810E+02 -0.28345397304E+03  0.55197067088E+03  0.10100000352E+00 0. -1.
       -3    1    3    3    0  502  0.46977528842E+03 -0.60304517810E+02  0.67054243497E+03  0.82094617593E+03  0.10100000352E+00 0.  1.
</event>
<event>
 5   0  0.3336609E-03  0.1246807E+04  0.7818609E-02  0.9072845E-01
       -2   -1    0    0    0  501  0.00000000000E+00  0.00000000000E+00  0.24550595487E+03  0.24550595489E+03  0.25500000920E-02 0. -1.
        2   -1    0    0  501    0  0.00000000000E+00  0.00000000000E+00 -0.15829838060E+04  0.15829838060E+04  0.25500000920E-02 0.  1.
    10030    2    1    2    0    0  0.00000000000E+00  0.00000000000E+00 -0.13374778511E+04  0.18284897609E+04  0.12468070434E+04 0.  0.
        1    1    3    3  502    0 -0.17973194741E+03  0.50364056754E+03 -0.19881808737E+03  0.57051382637E+03  0.50400001928E-02 0. -1.
       -1    1    3    3    0  502  0.17973194741E+03 -0.50364056754E+03 -0.11386597637E+04  0.12579759345E+04  0.50400001928E-02 0.  1.
</event>
<event>
 5   0  0.1254125E-03  0.1313059E+04  0.7818609E-02  0.9019273E-01
       -3   -1    0    0    0  501  0.00000000000E+00  0.00000000000E+00  0.60466061305E+03  0.60466062148E+03  0.10100000352E+00 0.  1.
        3   -1    0    0  501    0  0.00000000000E+00  0.00000000000E+00 -0.71284822176E+03  0.71284822891E+03  0.10100000352E+00 0. -1.
    10030    2    1    2    0    0  0.00000000000E+00  0.00000000000E+00 -0.10818760871E+03  0.13175088504E+04  0.13130594092E+04 0.  0.
        2    1    3    3  502    0  0.37180446169E+03  0.53742598739E+03 -0.11728341877E+03  0.66394325811E+03  0.25500000920E-02 0. -1.
       -2    1    3    3    0  502 -0.37180446169E+03 -0.53742598739E+03  0.90958100592E+01  0.65356559229E+03  0.25500000920E-02 0.  1.
</event>
<event>
 5   0  0.3259968E-03  0.1263237E+04  0.7818609E-02  0.9059238E-01
        2   -1    0    0  501    0  0.00000000000E+00  0.00000000000E+00  0.19003821365E+04  0.19003821365E+04  0.25500000920E-02 0. -1.
       -2   -1    0    0    0  501  0.00000000000E+00  0.00000000000E+00 -0.20992718749E+03  0.20992718751E+03  0.25500000920E-02 0.  1.
    10030    2    1    2    0    0  0.00000000000E+00  0.00000000000E+00  0.16904549490E+04  0.21103093240E+04  0.12632369170E+04 0.  0.
        4    1    3    3  502    0 -0.20722917816E+03 -0.13414396479E+02  0.18417205400E+04  0.18533914963E+04  0.12699999809E+01 0. -1.
       -4    1    3    3    0  502  0.20722917816E+03  0.13414396479E+02 -0.15126559093E+03  0.25691782774E+03  0.12699999809E+01 0.  1.
</event>
<event>
 5   0  0.1823154E-03  0.1305378E+04  0.7818609E-02  0.9025312E-01
        1   -1    0    0  501    0  0.00000000000E+00  0.00000000000E+00  0.38365523673E+03  0.38365523677E+03  0.50400001928E-02 0. -1.
       -1   -1    0    0    0  501  0.00000000000E+00  0.00000000000E+00 -0.11103787962E+04  0.11103787962E+04  0.50400001928E-02 0.  1.
    10030    2    1    2    0    0  0.00000000000E+00  0.00000000000E+00 -0.72672355949E+03  0.14940340330E+04  0.13053775545E+04 0.  0.
        2    1    3    3  502    0 -0.28185756795E+03 -0.42434813137E+03  0.10363653705E+03  0.51986109397E+03  0.25500000920E-02 0. -1.
       -2    1    3    3    0  502  0.28185756795E+03  0.42434813137E+03 -0.83036009653E+03  0.97417293903E+03  0.25500000920E-02 0.  1.
</event>
<event>
 5   0  0.3294720E-03  0.1350920E+04  0.7818609E-02  0.8990132E-01
        2   -1    0    0  501    0  0.00000000000E+00  0.00000000000E+00  0.11159556011E+04  0.11159556011E+04  0.25500000920E-02 0. -1.
       -2   -1    0    0    0  501  0.00000000000E+00  0.00000000000E+00 -0.40883894432E+03  0.40883894432E+03  0.25500000920E-02 0.  1.
    10030    2    1    2    0    0  0.00000000000E+00  0.00000000000E+00  0.70711665681E+03  0.15247945455E+04  0.13509198494E+04 0.  0.
        5    1    3    3  502    0 -0.13204655710E+03  0.66116899856E+03  0.30780340916E+03  0.74117863339E+03  0.46999998093E+01 0.  1.
       -5    1    3    3    0  502  0.13204655710E+03 -0.66116899856E+03  0.39931324765E+03  0.78361591207E+03  0.46999998093E+01 0. -1.
</event>
<event>
 5   0  0.3294720E-03  0.1312307E+04  0.7818609E-02  0.9019862E-01
       -2   -1    0    0    0  501  0.00000000000E+00  0.00000000000E+00  0.52697712852E+03  0.52697712852E+03  0.25500000920E-02 0.  1.
        2   -1    0    0  501    0  0.00000000000E+00  0.00000000000E+00 -0.81699436685E+03  0.81699436685E+03  0.25500000920E-02 0. -1.
    10030    2    1    2    0    0  0.00000000000E+00  0.00000000000E+00 -0.29001723833E+03  0.13439714954E+04  0.13123068932E+04 0.  0.
        5    1    3    3  502    0  0.53451692059E+03  0.98174464413E+02 -0.52153265291E+03  0.75323632540E+03  0.46999998093E+01 0. -1.
       -5    1    3    3    0  502 -0.53451692059E+03 -0.98174464413E+02  0.23151541458E+03  0.59073516997E+03  0.46999998093E+01 0.  1.
</event>
<event>
 5   0  0.3262927E-03  0.1241969E+04  0.7818609E-02  0.9076894E-01
       -2   -1    0    0    0  501  0.00000000000E+00  0.00000000000E+00  0.45639448423E+03  0.45639448424E+03  0.25500000920E-02 0. -1.
        2   -1    0    0  501    0  0.00000000000E+00  0.00000000000E+00 -0.84493095358E+03  0.84493095358E+03  0.25500000920E-02 0.  1.
    10030    2    1    2    0    0  0.00000000000E+00  0.00000000000E+00 -0.38853646935E+03  0.13013254378E+04  0.12419691249E+04 0.  0.
        3    1    3    3  502    0  0.28320490121E+03 -0.16688460648E+03 -0.74629293457E+03  0.81548062045E+03  0.10100000352E+00 0.  1.
       -3    1    3    3    0  502 -0.28320490121E+03  0.16688460648E+03  0.35775646522E+03  0.48584481736E+03  0.10100000352E+00 0. -1.
</event>
<event>
 5   0  0.3294720E-03  0.1427685E+04  0.7818609E-02  0.8934019E-01
       -2   -1    0    0    0  501  0.00000000000E+00  0.00000000000E+00  0.26776168230E+03  0.26776168231E+03  0.25500000920E-02 0. -1.
        2   -1    0    0  501    0  0.00000000000E+00  0.00000000000E+00 -0.19030762277E+04  0.19030762277E+04  0.25500000920E-02 0.  1.
    10030    2    1    2    0    0  0.00000000000E+00  0.00000000000E+00 -0.16353145454E+04  0.21708379101E+04  0.14276846883E+04 0.  0.
        5    1    3    3  502    0 -0.26475377341E+03 -0.37089203854E+03  0.17795413490E+02  0.45606384589E+03  0.46999998093E+01 0. -1.
       -5    1    3    3    0  502  0.26475377341E+03  0.37089203854E+03 -0.16531099589E+04  0.17147740642E+04  0.46999998093E+01 0.  1.
</event>
<event>
 5   0  0.3299104E-03  0.1310425E+04  0.7818609E-02  0.9021339E-01
       -2   -1    0    0    0  501  0.00000000000E+00  0.00000000000E+00  0.49234327551E+03  0.49234327552E+03  0.25500000920E-02 0.  1.
        2   -1    0    0  501    0  0.00000000000E+00  0.00000000000E+00 -0.87195956841E+03  0.87195956841E+03  0.25500000920E-02 0. -1.
    10030    2    1    2    0    0  0.00000000000E+00  0.00000000000E+00 -0.37961629289E+03  0.13643028439E+04  0.13104250151E+04 0.  0.
        2    1    3    3  502    0  0.32351737736E+03  0.41817203756E+03  0.21310741897E+03  0.57004045337E+03  0.25500000920E-02 0.  1.
       -2    1    3    3    0  502 -0.32351737736E+03 -0.41817203756E+03 -0.59272371186E+03  0.79426239056E+03  0.25500000920E-02 0. -1.
</event>
<event>
 5   0  0.3294720E-03  0.1297628E+04  0.7818609E-02  0.9031448E-01
        2   -1    0    0  501    0  0.00000000000E+00  0.00000000000E+00  0.85725513578E+03  0.85725513579E+03  0.25500000920E-02 0. -1.
       -2   -1    0    0    0  501  0.00000000000E+00  0.00000000000E+00 -0.49105533166E+03  0.49105533167E+03  0.25500000920E-02 0.  1.
    10030    2    1    2    0    0  0.00000000000E+00  0.00000000000E+00  0.36619980412E+03  0.13483104675E+04  0.12976281517E+04 0.  0.
        5    1    3    3  502    0 -0.28192923373E+03  0.48358061302E+03 -0.15774159847E+03  0.58158301558E+03  0.46999998093E+01 0.  1.
       -5    1    3    3    0  502  0.28192923373E+03 -0.48358061302E+03  0.52394140259E+03  0.76672745188E+03  0.46999998093E+01 0. -1.
</event>
<event>
 5   0  0.3299104E-03  0.1289733E+04  0.7818609E-02  0.9037747E-01
        2   -1    0    0  501    0  0.00000000000E+00  0.00000000000E+00  0.34670997358E+03  0.34670997359E+03  0.25500000920E-02 0.  1.
       -2   -1    0    0    0  501  0.00000000000E+00  0.00000000000E+00 -0.11994251664E+04  0.11994251664E+04  0.25500000920E-02 0. -1.
    10030    2    1    2    0    0  0.00000000000E+00  0.00000000000E+00 -0.85271519277E+03  0.15461351399E+04  0.12897327905E+04 0.  0.
        2    1    3    3  502    0 -0.69028691121E+02  0.39807016479E+03  0.17618578926E+03  0.44075645048E+03  0.25500000920E-02 0.  1.
       -2    1    3    3    0  502  0.69028691121E+02 -0.39807016479E+03 -0.10289009820E+04  0.11053786895E+04  0.25500000920E-02 0. -1.
</event>
<event>
 5   0  0.3259968E-03  0.1286193E+04  0.7818609E-02  0.9040587E-01
       -2   -1    0    0    0  501  0.00000000000E+00  0.00000000000E+00  0.85234253599E+03  0.85234253600E+03  0.25500000920E-02 0.  1.
        2   -1    0    0  501    0  0.00000000000E+00  0.00000000000E+00 -0.48521910268E+03  0.48521910268E+03  0.25500000920E-02 0. -1.
    10030    2    1    2    0    0  0.00000000000E+00  0.00000000000E+00  0.36712343332E+03  0.13375616387E+04  0.12861926457E+04 0.  0.
        4    1    3    3  502    0 -0.47989667760E+03  0.22059049610E+03 -0.19798427515E+03  0.56405706648E+03  0.12699999809E+01 0. -1.
       -4    1    3    3    0  502  0.47989667760E+03 -0.22059049610E+03  0.56510770847E+03  0.77350457220E+03  0.12699999809E+01 0.  1.
</event>
<event>
 5   0  0.3336609E-03  0.1293604E+04  0.7818609E-02  0.9034652E-01
       -2   -1    0    0    0  501  0.00000000000E+00  0.00000000000E+00  0.34500854489E+03  0.34500854490E+03  0.25500000920E-02 0. -1.
        2   -1    0    0  501    0  0.00000000000E+00  0.00000000000E+00 -0.12125876732E+04  0.12125876732E+04  0.25500000920E-02 0.  1.
    10030    2    1    2    0    0  0.00000000000E+00  0.00000000000E+00 -0.86757912828E+03  0.15575962181E+04  0.12936044352E+04 0.  0.
        1    1    3    3  502    0 -0.38288310329E+02  0.56646627210E+03 -0.80686440591E+03  0.98660032520E+03  0.50400001928E-02 0.  1.
       -1    1    3    3    0  502  0.38288310329E+02 -0.56646627210E+03 -0.60714722371E+02  0.57099589287E+03  0.50400001928E-02 0. -1.
</event>
<event>
 5   0  0.1857986E-03  0.1293535E+04  0.7818609E-02  0.9034708E-01
        1   -1    0    0  501    0  0.00000000000E+00  0.00000000000E+00  0.18885377691E+04  0.18885377691E+04  0.50400001928E-02 0. -1.
       -1   -1    0    0    0  501  0.00000000000E+00  0.00000000000E+00 -0.22149853750E+03  0.22149853756E+03  0.50400001928E-02 0.  1.
    10030    2    1    2    0    0  0.00000000000E+00  0.00000000000E+00  0.16670392316E+04  0.21100363067E+04  0.12935352395E+04 0.  0.
        1    1    3    3  502    0  0.47118260704E+03  0.41697000723E+03  0.10778283861E+04  0.12480348817E+04  0.50400001928E-02 0. -1.
       -1    1    3    3    0  502 -0.47118260704E+03 -0.41697000723E+03  0.58921084549E+03  0.86200142493E+03  0.50400001928E-02 0.  1.
</event>
<event>
 5   0  0.1814770E-03  0.1275466E+04  0.7818609E-02  0.9049250E-01
        1   -1    0    0  501    0  0.00000000000E+00  0.00000000000E+00  0.12721982537E+04  0.12721982537E+04  0.50400001928E-02 0. -1.
       -1   -1    0    0    0  501  0.00000000000E+00  0.00000000000E+00 -0.31968577657E+03  0.31968577661E+03  0.50400001928E-02 0.  1.
    10030    2    1    2    0    0  0.00000000000E+00  0.00000000000E+00  0.95251247715E+03  0.15918840303E+04  0.12754664821E+04 0.  0.
        5    1    3    3  502    0 -0.66466887121E+02  0.13763452722E+03 -0.29646596409E+03  0.33357947783E+03  0.46999998093E+01 0.  1.
       -5    1    3    3    0  502  0.66466887121E+02 -0.13763452722E+03  0.12489784412E+04  0.12583045525E+04  0.46999998093E+01 0. -1.
</event>
<event>
 5   0  0.1823154E-03  0.1304763E+04  0.7818609E-02  0.9025796E-01
       -1   -1    0    0    0  501  0.00000000000E+00  0.00000000000E+00  0.42502597055E+03  0.42502597058E+03  0.50400001928E-02 0.  1.
        1   -1    0    0  501    0  0.00000000000E+00  0.00000000000E+00 -0.10013546376E+04  0.10013546376E+04  0.50400001928E-02 0. -1.
    10030    2    1    2    0    0  0.00000000000E+00  0.00000000000E+00 -0.57632866701E+03  0.14263806081E+04  0.13047631612E+04 0.  0.
        2    1    3    3  502    0 -0.21173453874E+03  0.58825110386E+03 -0.84431300933E+02  0.63087203193E+03  0.25500000920E-02 0.  1.
       -2    1    3    3    0  502  0.21173453874E+03 -0.58825110386E+03 -0.49189736607E+03  0.79550857622E+03  0.25500000920E-02 0. -1.
</event>
<event>
 5   0  0.1814770E-03  0.1290286E+04  0.7818609E-02  0.9037304E-01
        1   -1    0    0  501    0  0.00000000000E+00  0.00000000000E+00  0.15860267074E+04  0.15860267074E+04  0.50400001928E-02 0.  1.
       -1   -1    0    0    0  501  0.00000000000E+00  0.00000000000E+00 -0.26242276871E+03  0.26242276876E+03  0.50400001928E-02 0. -1.
    10030    2    1    2    0    0  0.00000000000E+00  0.00000000000E+00  0.13236039387E+04  0.18484494761E+04  0.12902860456E+04 0.  0.
        5    1    3    3  502    0 -0.32753145751E+03 -0.55578198535E+03  0.65590238972E+03  0.92000027486E+03  0.46999998093E+01 0. -1.
       -5    1    3    3    0  502  0.32753145751E+03  0.55578198535E+03  0.66770154893E+03  0.92844920127E+03  0.46999998093E+01 0.  1.
</event>
<event>
 5   0  0.3336609E-03  0.1316306E+04  0.7818609E-02  0.9016733E-01
       -2   -1    0    0    0  501  0.00000000000E+00  0.00000000000E+00  0.17788837518E+03  0.17788837520E+03  0.25500000920E-02 0.  1.
        2   -1    0    0  501    0  0.00000000000E+00  0.00000000000E+00 -0.24350404084E+04  0.24350404084E+04  0.25500000920E-02 0. -1.
    10030    2    1    2    0    0  0.00000000000E+00  0.00000000000E+00 -0.22571520332E+04  0.26129287836E+04  0.13163060157E+04 0.  0.
        1    1    3    3  502    0  0.19770574569E+03  0.26333305349E+03 -0.22597626609E+04  0.22836285037E+04  0.50400001928E-02 0. -1.
       -1    1    3    3    0  502 -0.19770574569E+03 -0.26333305349E+03  0.26106277569E+01  0.32930027990E+03  0.50400001928E-02 0.  1.
</event>
<event>
 5   0  0.3259968E-03  0.1289747E+04  0.7818609E-02  0.9037735E-01
       -2   -1    0    0    0  501  0.00000000000E+00  0.00000000000E+00  0.61107504810E+03  0.61107504811E+03  0.25500000920E-02 0. -1.
        2   -1    0    0  501    0  0.00000000000E+00  0.00000000000E+00 -0.68054173707E+03  0.68054173708E+03  0.25500000920E-02 0.  1.
    10030    2    1    2    0    0  0.00000000000E+00  0.00000000000E+00 -0.69466688974E+02  0.12916167852E+04  0.12897473779E+04 0.  0.
        4    1    3    3  502    0  0.31862479505E+03  0.53044542015E+03 -0.21656291471E+03  0.65558768499E+03  0.12699999809E+01 0.  1.
       -4    1    3    3    0  502 -0.31862479505E+03 -0.53044542015E+03  0.14709622574E+03  0.63602910020E+03  0.12699999809E+01 0. -1.
</event>
<event>
 5   0  0.1803959E-03  0.1329471E+04  0.7818609E-02  0.9006515E-01
       -1   -1    0    0    0  501  0.00000000000E+00  0.00000000000E+00  0.72174915422E+03  0.72174915423E+03  0.50400001928E-02 0. -1.
        1   -1    0    0  501    0  0.00000000000E+00  0.00000000000E+00 -0.61222585208E+03  0.61222585210E+03  0.50400001928E-02 0.  1.
    10030    2    1    2    0    0  0.00000000000E+00  0.00000000000E+00  0.10952330213E+03  0.13339750063E+04  0.13294713099E+04 0.  0.
        4    1    3    3  502    0 -0.62826502129E+03  0.96996726768E+02 -0.14018128591E+03  0.65098211020E+03  0.12699999809E+01 0.  1.
       -4    1    3    3    0  502  0.62826502129E+03 -0.96996726768E+02  0.24970458804E+03  0.68299289614E+03  0.12699999809E+01 0. -1.
</event>
<event>
 5   0  0.1823154E-03  0.1327915E+04  0.7818609E-02  0.9007716E-01
       -1   -1    0    0    0  501  0.00000000000E+00  0.00000000000E+00  0.23319263220E+03  0.23319263226E+03  0.50400001928E-02 0. -1.
        1   -1    0    0  501    0  0.00000000000E+00  0.00000000000E+00 -0.18904528611E+04  0.18904528611E+04  0.50400001928E-02 0.  1.
    10030    2    1    2    0    0  0.00000000000E+00  0.00000000000E+00 -0.16572602289E+04  0.21236454934E+04  0.13279151762E+04 0.  0.
        2    1    3    3  502    0  0.47975648723E+03  0.27740900126E+03 -0.14134283236E+04  0.15181902605E+04  0.25500000920E-02 0.  1.
       -2    1    3    3    0  502 -0.47975648723E+03 -0.27740900126E+03 -0.24383190534E+03  0.60545523294E+03  0.25500000920E-02 0. -1.
</event>
<event>
 5   0  0.1823154E-03  0.1351528E+04  0.7818609E-02  0.8989672E-01
       -1   -1    0    0    0  501  0.00000000000E+00  0.00000000000E+00  0.16996715541E+03  0.16996715548E+03  0.50400001928E-02 0. -1.
        1   -1    0    0  501    0  0.00000000000E+00  0.00000000000E+00 -0.26867381215E+04  0.26867381215E+04  0.50400001928E-02 0.  1.
    10030    2    1    2    0    0  0.00000000000E+00  0.00000000000E+00 -0.25167709661E+04  0.28567052770E+04  0.13515283733E+04 0.  0.
        2    1    3    3  502    0 -0.21312127041E+03 -0.36206051593E+03 -0.23771395021E+04  0.24139802621E+04  0.25500000920E-02 0.  1.
       -2    1    3    3    0  502  0.21312127041E+03  0.36206051593E+03 -0.13963146397E+03  0.44272501492E+03  0.25500000920E-02 0. -1.
</event>
<event>
 5   0  0.3299104E-03  0.1303929E+04  0.7818609E-02  0.9026456E-01
       -2   -1    0    0    0  501  0.00000000000E+00  0.00000000000E+00  0.15038828826E+03  0.15038828828E+03  0.25500000920E-02 0.  1.
        2   -1    0    0  501    0  0.00000000000E+00  0.00000000000E+00 -0.28263999326E+04  0.28263999326E+04  0.25500000920E-02 0. -1.
    10030    2    1    2    0    0  0.00000000000E+00  0.00000000000E+00 -0.26760116443E+04  0.29767882209E+04  0.13039285990E+04 0.  0.
        2    1    3    3  502    0 -0.11925192510E+03 -0.13210673562E+03 -0.27698725723E+04  0.27755841328E+04  0.25500000920E-02 0. -1.
       -2    1    3    3    0  502  0.11925192510E+03  0.13210673562E+03  0.93860928024E+02  0.20120408806E+03  0.25500000920E-02 0.  1.
</event>
<event>
 5   0  0.1857986E-03  0.1311519E+04  0.7818609E-02  0.9020480E-01
       -1   -1    0    0    0  501  0.00000000000E+00  0.00000000000E+00  0.11283623109E+04  0.11283623109E+04  0.50400001928E-02 0.  1.
        1   -1    0    0  501    0  0.00000000000E+00  0.00000000000E+00 -0.38110162939E+03  0.38110162943E+03  0.50400001928E-02 0. -1.
    10030    2    1    2    0    0  0.00000000000E+00  0.00000000000E+00  0.74726068152E+03  0.15094639404E+04  0.13115192950E+04 0.  0.
        1    1    3    3  502    0 -0.29324628028E+03 -0.58021712164E+03  0.27478831990E+03  0.70580019122E+03  0.50400001928E-02 0.  1.
       -1    1    3    3    0  502  0.29324628028E+03  0.58021712164E+03  0.47247236162E+03  0.80366374913E+03  0.50400001928E-02 0. -1.
</event>
<event>
 5   0  0.1823154E-03  0.1378581E+04  0.7818609E-02  0.8969470E-01
       -1   -1    0    0    0  501  0.00000000000E+00  0.00000000000E+00  0.65214168861E+03  0.65214168863E+03  0.50400001928E-02 0.  1.
        1   -1    0    0  501    0  0.00000000000E+00  0.00000000000E+00 -0.72855570106E+03  0.72855570108E+03  0.50400001928E-02 0. -1.
    10030    2    1    2    0    0  0.00000000000E+00  0.00000000000E+00 -0.76414012451E+02  0.13806973897E+04  0.13785812202E+04 0.  0.
        2    1    3    3  502    0  0.16209164106E+03 -0.20238847284E+03  0.60143348074E+03  0.65494810925E+03  0.25500000920E-02 0.  1.
       -2    1    3    3    0  502 -0.16209164106E+03  0.20238847284E+03 -0.67784749320E+03  0.72574928045E+03  0.25500000920E-02 0. -1.
</event>
<event>
 5   0  0.1873488E-03  0.1276160E+04  0.7818609E-02  0.9048687E-01
       -1   -1    0    0    0  501  0.00000000000E+00  0.00000000000E+00  0.36414805867E+03  0.36414805870E+03  0.50400001928E-02 0.  1.
        1   -1    0    0  501    0  0.00000000000E+00  0.00000000000E+00 -0.11180783730E+04  0.11180783730E+04  0.50400001928E-02 0. -1.
    10030    2    1    2    0    0  0.00000000000E+00  0.00000000000E+00 -0.75393031432E+03  0.14822264317E+04  0.12761599727E+04 0.  0.
        3    1    3    3  502    0 -0.27152781844E+03  0.53425984339E+03 -0.12253842609E+03  0.61169977319E+03  0.10100000352E+00 0. -1.
       -3    1    3    3    0  502  0.27152781844E+03 -0.53425984339E+03 -0.63139188822E+03  0.87052665850E+03  0.10100000352E+00 0.  1.
</event>
<event>
 5   0  0.1803959E-03  0.1303288E+04  0.7818609E-02  0.9026961E-01
       -1   -1    0    0    0  501  0.00000000000E+00  0.00000000000E+00  0.61771745965E+03  0.61771745968E+03  0.50400001928E-02 0. -1.
        1   -1    0    0  501    0  0.00000000000E+00  0.00000000000E+00 -0.68743434755E+03  0.68743434757E+03  0.50400001928E-02 0.  1.
    10030    2    1    2    0    0  0.00000000000E+00  0.00000000000E+00 -0.69716887898E+02  0.13051518072E+04  0.13032884544E+04 0.  0.
        4    1    3    3  502    0  0.36136481528E+03 -0.45358751654E+03 -0.33245738169E+03  0.66847265346E+03  0.12699999809E+01 0.  1.
       -4    1    3    3    0  502 -0.36136481528E+03  0.45358751654E+03  0.26274049379E+03  0.63667915378E+03  0.12699999809E+01 0. -1.
</event>
<event>
 5   0  0.3259968E-03  0.1304252E+04  0.7818609E-02  0.9026200E-01
        2   -1    0    0  501    0  0.00000000000E+00  0.00000000000E+00  0.20857455112E+04  0.20857455112E+04  0.25500000920E-02 0.  1.
       -2   -1    0    0    0  501  0.00000000000E+00  0.00000000000E+00 -0.20389263180E+03  0.20389263181E+03  0.25500000920E-02 0. -1.
    10030    2    1    2    0    0  0.00000000000E+00  0.00000000000E+00  0.18818528794E+04  0.22896381430E+04  0.13042517266E+04 0.  0.
        4    1    3    3  502    0  0.75889638429E+02  0.45176794426E+03  0.12614448545E+03  0.47515003608E+03  0.12699999809E+01 0. -1.
       -4    1    3    3    0  502 -0.75889638429E+02 -0.45176794426E+03  0.17557083940E+04  0.18144881069E+04  0.12699999809E+01 0.  1.
</event>
<event>
 5   0  0.3299104E-03  0.1316266E+04  0.7818609E-02  0.9016765E-01
        2   -1    0    0  501    0  0.00000000000E+00  0.00000000000E+00  0.60596740599E+03  0.60596740600E+03  0.25500000920E-02 0.  1.
       -2   -1    0    0    0  501  0.00000000000E+00  0.00000000000E+00 -0.71478917839E+03  0.71478917839E+03  0.25500000920E-02 0. -1.
    10030    2    1    2    0    0  0.00000000000E+00  0.00000000000E+00 -0.10882177239E+03  0.13207565844E+04  0.13162658459E+04 0.  0.
        2    1    3    3  502    0  0.89437464315E+01 -0.61494171282E+03 -0.28952985314E+03  0.67975056943E+03  0.25500000920E-02 0. -1.
       -2    1    3    3    0  502 -0.89437464315E+01  0.61494171282E+03  0.18070808075E+03  0.64100601497E+03  0.25500000920E-02 0.  1.
</event>
<event>
 5   0  0.3294720E-03  0.1273753E+04  0.7818609E-02  0.9050642E-01
       -2   -1    0    0    0  501  0.00000000000E+00  0.00000000000E+00  0.57951827685E+03  0.57951827686E+03  0.25500000920E-02 0. -1.
        2   -1    0    0  501    0  0.00000000000E+00  0.00000000000E+00 -0.69991152194E+03  0.69991152195E+03  0.25500000920E-02 0.  1.
    10030    2    1    2    0    0  0.00000000000E+00  0.00000000000E+00 -0.12039324509E+03  0.12794297988E+04  0.12737527533E+04 0.  0.
        5    1    3    3  502    0  0.51965086197E+03 -0.19950225219E+03  0.25061952948E+03  0.61046736648E+03  0.46999998093E+01 0. -1.
       -5    1    3    3    0  502 -0.51965086197E+03  0.19950225219E+03 -0.37101277457E+03  0.66896243233E+03  0.46999998093E+01 0.  1.
</event>
<event>
 5   0  0.3262927E-03  0.1510148E+04  0.7818609E-02  0.8877733E-01
       -2   -1    0    0    0  501  0.00000000000E+00  0.00000000000E+00  0.46769479866E+03  0.46769479867E+03  0.25500000920E-02 0.  1.
        2   -1    0    0  501    0  0.00000000000E+00  0.00000000000E+00 -0.12190352878E+04  0.12190352878E+04  0.25500000920E-02 0. -1.
    10030    2    1    2    0    0  0.00000000000E+00  0.00000000000E+00 -0.75134048913E+03  0.16867300865E+04  0.15101476265E+04 0.  0.
        3    1    3    3  502    0  0.11561474483E+03 -0.37097861633E+03 -0.10987864578E+04  0.11654714037E+04  0.10100000352E+00 0. -1.
       -3    1    3    3    0  502 -0.11561474483E+03  0.37097861633E+03  0.34744596862E+03  0.52125868272E+03  0.10100000352E+00 0.  1.
</event>
<event>
 5   0  0.3336609E-03  0.1279924E+04  0.7818609E-02  0.9045639E-01
       -2   -1    0    0    0  501  0.00000000000E+00  0.00000000000E+00  0.34260283683E+03  0.34260283684E+03  0.25500000920E-02 0.  1.
        2   -1    0    0  501    0  0.00000000000E+00  0.00000000000E+00 -0.11954113531E+04  0.11954113531E+04  0.25500000920E-02 0. -1.
    10030    2    1    2    0    0  0.00000000000E+00  0.00000000000E+00 -0.85280851626E+03  0.15380141899E+04  0.12799239364E+04 0.  0.
        1    1    3    3  502    0  0.60858175793E+03 -0.12313030809E+03 -0.61263400309E+03  0.87226902423E+03  0.50400001928E-02 0.  1.
       -1    1    3    3    0  502 -0.60858175793E+03  0.12313030809E+03 -0.24017451317E+03  0.66574516571E+03  0.50400001928E-02 0. -1.
</event>
<event>
 5   0  0.1873488E-03  0.1315042E+04  0.7818609E-02  0.9017721E-01
        1   -1    0    0  501    0  0.00000000000E+00  0.00000000000E+00  0.10816952906E+04  0.10816952906E+04  0.50400001928E-02 0. -1.
       -1   -1    0    0    0  501  0.00000000000E+00  0.00000000000E+00 -0.39968191188E+03  0.39968191192E+03  0.50400001928E-02 0.  1.
    10030    2    1    2    0    0  0.00000000000E+00  0.00000000000E+00  0.68201337870E+03  0.14813772025E+04  0.13150422683E+04 0.  0.
        3    1    3    3  502    0  0.22853697438E+03 -0.14098974279E+03 -0.33509798714E+03  0.42941579782E+03  0.10100000352E+00 0.  1.
       -3    1    3    3    0  502 -0.22853697438E+03  0.14098974279E+03  0.10171113658E+04  0.10519614047E+04  0.10100000352E+00 0. -1.
</event>
<event>
 5   0  0.1873488E-03  0.1342717E+04  0.7818609E-02  0.8996359E-01
        1   -1    0    0  501    0  0.00000000000E+00  0.00000000000E+00  0.12789961939E+04  0.12789961939E+04  0.50400001928E-02 0.  1.
       -1   -1    0    0    0  501  0.00000000000E+00  0.00000000000E+00 -0.35240325678E+03  0.35240325681E+03  0.50400001928E-02 0. -1.
    10030    2    1    2    0    0  0.00000000000E+00  0.00000000000E+00  0.92659293710E+03  0.16313994507E+04  0.13427172810E+04 0.  0.
        3    1    3    3  502    0 -0.75510245395E+01 -0.29596180546E+03  0.11953993489E+04  0.12315153356E+04  0.10100000352E+00 0.  1.
       -3    1    3    3    0  502  0.75510245395E+01  0.29596180546E+03 -0.26880641182E+03  0.39988411509E+03  0.10100000352E+00 0. -1.
</event>
<event>
 5   0  0.3294720E-03  0.1305613E+04  0.7818609E-02  0.9025126E-01
        2   -1    0    0  501    0  0.00000000000E+00  0.00000000000E+00  0.77035824654E+03  0.77035824654E+03  0.25500000920E-02 0. -1.
       -2   -1    0    0    0  501  0.00000000000E+00  0.00000000000E+00 -0.55319265434E+03  0.55319265435E+03  0.25500000920E-02 0.  1.
    10030    2    1    2    0    0  0.00000000000E+00  0.00000000000E+00  0.21716559220E+03  0.13235509009E+04  0.13056133014E+04 0.  0.
        5    1    3    3  502    0  0.29682125242E+03 -0.20390026860E+03  0.66054125459E+03  0.75233969352E+03  0.46999998093E+01 0. -1.
       -5    1    3    3    0  502 -0.29682125242E+03  0.20390026860E+03 -0.44337566240E+03  0.57121120737E+03  0.46999998093E+01 0.  1.
</event>
<event>
 5   0  0.1803959E-03  0.1135398E+04  0.7818609E-02  0.9171361E-01
       -1   -1    0    0    0  501  0.00000000000E+00  0.00000000000E+00  0.21978339412E+03  0.21978339418E+03  0.50400001928E-02 0.  1.
        1   -1    0    0  501    0  0.00000000000E+00  0.00000000000E+00 -0.14663623423E+04  0.14663623423E+04  0.50400001928E-02 0. -1.
    10030    2    1    2    0    0  0.00000000000E+00  0.00000000000E+00 -0.12465789482E+04  0.16861457365E+04  0.11353978909E+04 0.  0.
        4    1    3    3  502    0 -0.33520416097E+03  0.45284099062E+03 -0.51982698359E+03  0.76658234919E+03  0.12699999809E+01 0. -1.
       -4    1    3    3    0  502  0.33520416097E+03 -0.45284099062E+03 -0.72675196456E+03  0.91956338727E+03  0.12699999809E+01 0.  1.
</event>
<event>
 5   0  0.3336609E-03  0.1353347E+04  0.7818609E-02  0.8988298E-01
        2   -1    0    0  501    0  0.00000000000E+00  0.00000000000E+00  0.11922214258E+04  0.11922214258E+04  0.25500000920E-02 0.  1.
       -2   -1    0    0    0  501  0.00000000000E+00  0.00000000000E+00 -0.38406199293E+03  0.38406199294E+03  0.25500000920E-02 0. -1.
    10030    2    1    2    0    0  0.00000000000E+00  0.00000000000E+00  0.80815943285E+03  0.15762834187E+04  0.13533468688E+04 0.  0.
        1    1    3    3  502    0  0.64426444127E+03 -0.15209200331E+03  0.24069220715E+03  0.70437304488E+03  0.50400001928E-02 0.  1.
       -1    1    3    3    0  502 -0.64426444127E+03  0.15209200331E+03  0.56746722570E+03  0.87191037384E+03  0.50400001928E-02 0. -1.
</event>
<event>
 5   0  0.3262927E-03  0.1300203E+04  0.7818609E-02  0.9029404E-01
        2   -1    0    0  501    0  0.00000000000E+00  0.00000000000E+00  0.85731125332E+03  0.85731125332E+03  0.25500000920E-02 0.  1.
       -2   -1    0    0    0  501  0.00000000000E+00  0.00000000000E+00 -0.49297408248E+03  0.49297408249E+03  0.25500000920E-02 0. -1.
    10030    2    1    2    0    0  0.00000000000E+00  0.00000000000E+00  0.36433717084E+03  0.13502853358E+04  0.13002034126E+04 0.  0.
        3    1    3    3  502    0 -0.16067209572E+03 -0.62205390262E+03  0.28532039288E+03  0.70297533164E+03  0.10100000352E+00 0.  1.
       -3    1    3    3    0  502  0.16067209572E+03  0.62205390262E+03  0.79016777960E+02  0.64731000417E+03  0.10100000352E+00 0. -1.
</event>
<event>
 5   0  0.1857986E-03  0.9811555E+03  0.7818609E-02  0.9329458E-01
       -1   -1    0    0    0  501  0.00000000000E+00  0.00000000000E+00  0.26293489602E+03  0.26293489607E+03  0.50400001928E-02 0. -1.
        1   -1    0    0  501    0  0.00000000000E+00  0.00000000000E+00 -0.91530852456E+03  0.91530852458E+03  0.50400001928E-02 0.  1.
    10030    2    1    2    0    0  0.00000000000E+00  0.00000000000E+00 -0.65237362854E+03  0.11782434206E+04  0.98115554683E+03 0.  0.
        1    1    3    3  502    0  0.17025804956E+03  0.24506879094E+03  0.14141421412E+03  0.33021886032E+03  0.50400001928E-02 0. -1.
       -1    1    3    3    0  502 -0.17025804956E+03 -0.24506879094E+03 -0.79378784266E+03  0.84802456032E+03  0.50400001928E-02 0.  1.
</event>
<event>
 5   0  0.3262927E-03  0.1324047E+04  0.7818609E-02  0.9010710E-01
       -2   -1    0    0    0  501  0.00000000000E+00  0.00000000000E+00  0.37400984153E+03  0.37400984154E+03  0.25500000920E-02 0. -1.
        2   -1    0    0  501    0  0.00000000000E+00  0.00000000000E+00 -0.11718282332E+04  0.11718282332E+04  0.25500000920E-02 0.  1.
    10030    2    1    2    0    0  0.00000000000E+00  0.00000000000E+00 -0.79781839169E+03  0.15458380748E+04  0.13240472678E+04 0.  0.
        3    1    3    3  502    0  0.41512129955E+03 -0.50085386994E+03 -0.25546700345E+03  0.69888746764E+03  0.10100000352E+00 0.  1.
       -3    1    3    3    0  502 -0.41512129955E+03  0.50085386994E+03 -0.54235138824E+03  0.84695060712E+03  0.10100000352E+00 0. -1.
</event>
<event>
 5   0  0.3336609E-03  0.1303161E+04  0.7818609E-02  0.9027062E-01
       -2   -1    0    0    0  501  0.00000000000E+00  0.00000000000E+00  0.29830803360E+03  0.29830803361E+03  0.25500000920E-02 0. -1.
        2   -1    0    0  501    0  0.00000000000E+00  0.00000000000E+00 -0.14232168955E+04  0.14232168955E+04  0.25500000920E-02 0.  1.
    10030    2    1    2    0    0  0.00000000000E+00  0.00000000000E+00 -0.11249088619E+04  0.17215249291E+04  0.13031608243E+04 0.  0.
        1    1    3    3  502    0 -0.12522464313E+03 -0.21867668721E+03 -0.13562392360E+04  0.13794511844E+04  0.50400001928E-02 0.  1.
       -1    1    3    3    0  502  0.12522464313E+03  0.21867668721E+03  0.23133037415E+03  0.34207374469E+03  0.50400001928E-02 0. -1.
</event>
<event>
 5   0  0.1823154E-03  0.1170495E+04  0.7818609E-02  0.9139081E-01
        1   -1    0    0  501    0  0.00000000000E+00  0.00000000000E+00  0.69642874984E+03  0.69642874986E+03  0.50400001928E-02 0. -1.
       -1   -1    0    0    0  501  0.00000000000E+00  0.00000000000E+00 -0.49181600366E+03  0.49181600368E+03  0.50400001928E-02 0.  1.
    10030    2    1    2    0    0  0.00000000000E+00  0.00000000000E+00  0.20461274618E+03  0.11882447535E+04  0.11704952877E+04 0.  0.
        2    1    3    3  502    0  0.34204109182E+03 -0.38666385057E+03  0.38219313097E+03  0.64231816975E+03  0.25500000920E-02 0. -1.
       -2    1    3    3    0  502 -0.34204109182E+03  0.38666385057E+03 -0.17758038478E+03  0.54592658379E+03  0.25500000920E-02 0.  1.
</event>
<event>
 5   0  0.3259968E-03  0.1325472E+04  0.7818609E-02  0.9009606E-01
       -2   -1    0    0    0  501  0.00000000000E+00  0.00000000000E+00  0.29213444308E+03  0.29213444309E+03  0.25500000920E-02 0. -1.
        2   -1    0    0  501    0  0.00000000000E+00  0.00000000000E+00 -0.15034827369E+04  0.15034827369E+04  0.25500000920E-02 0.  1.
    10030    2    1    2    0    0  0.00000000000E+00  0.00000000000E+00 -0.12113482938E+04  0.17956171800E+04  0.13254721303E+04 0.  0.
        4    1    3    3  502    0 -0.35658223570E+03  0.52161965013E+03 -0.87654482046E+03  0.10805417092E+04  0.12699999809E+01 0.  1.
       -4    1    3    3    0  502  0.35658223570E+03 -0.52161965013E+03 -0.33480347338E+03  0.71507547078E+03  0.12699999809E+01 0. -1.
</event>
<event>
 5   0  0.3299104E-03  0.1273515E+04  0.7818609E-02  0.9050836E-01
       -2   -1    0    0    0  501  0.00000000000E+00  0.00000000000E+00  0.66957787699E+03  0.66957787699E+03  0.25500000920E-02 0.  1.
        2   -1    0    0  501    0  0.00000000000E+00  0.00000000000E+00 -0.60554540042E+03  0.60554540042E+03  0.25500000920E-02 0. -1.
    10030    2    1    2    0    0  0.00000000000E+00  0.00000000000E+00  0.64032476572E+02  0.12751232774E+04  0.12735145129E+04 0.  0.
        2    1    3    3  502    0 -0.23057950436E+03  0.54204553446E+03  0.27414714501E+03  0.64972065258E+03  0.25500000920E-02 0.  1.
       -2    1    3    3    0  502  0.23057950436E+03 -0.54204553446E+03 -0.21011466844E+03  0.62540262484E+03  0.25500000920E-02 0. -1.
</event>
<event>
 5   0  0.1873488E-03  0.1280373E+04  0.7818609E-02  0.9045276E-01
        1   -1    0    0  501    0  0.00000000000E+00  0.00000000000E+00  0.16996739656E+04  0.16996739656E+04  0.50400001928E-02 0. -1.
       -1   -1    0    0    0  501  0.00000000000E+00  0.00000000000E+00 -0.24112803143E+03  0.24112803148E+03  0.50400001928E-02 0.  1.
    10030    2    1    2    0    0  0.00000000000E+00  0.00000000000E+00  0.14585459341E+04  0.19408019971E+04  0.12803734415E+04 0.  0.
        3    1    3    3  502    0 -0.20983644450E+03 -0.53897331843E+03  0.11452665466E+04  0.12830272968E+04  0.10100000352E+00 0. -1.
       -3    1    3    3    0  502  0.20983644450E+03  0.53897331843E+03  0.31327938755E+03  0.65777470025E+03  0.10100000352E+00 0.  1.
</event>
<event>
 5   0  0.1803959E-03  0.1294298E+04  0.7818609E-02  0.9034099E-01
        1   -1    0    0  501    0  0.00000000000E+00  0.00000000000E+00  0.46926029825E+03  0.46926029828E+03  0.50400001928E-02 0.  1.
       -1   -1    0    0    0  501  0.00000000000E+00  0.00000000000E+00 -0.89247234228E+03  0.89247234230E+03  0.50400001928E-02 0. -1.
    10030    2    1    2    0    0  0.00000000000E+00  0.00000000000E+00 -0.42321204404E+03  0.13617326406E+04  0.12942980144E+04 0.  0.
        4    1    3    3  502    0  0.20336264669E+03  0.17695757503E+03  0.40737467477E+03  0.48849369287E+03  0.12699999809E+01 0.  1.
       -4    1    3    3    0  502 -0.20336264669E+03 -0.17695757503E+03 -0.83058671881E+03  0.87323894770E+03  0.12699999809E+01 0. -1.
</event>
<event>
 5   0  0.1814770E-03  0.1305524E+04  0.7818609E-02  0.9025196E-01
        1   -1    0    0  501    0  0.00000000000E+00  0.00000000000E+00  0.43104101175E+03  0.43104101178E+03  0.50400001928E-02 0. -1.
       -1   -1    0    0    0  501  0.00000000000E+00  0.00000000000E+00 -0.98853348555E+03  0.98853348556E+03  0.50400001928E-02 0.  1.
    10030    2    1    2    0    0  0.00000000000E+00  0.00000000000E+00 -0.55749247380E+03  0.14195744973E+04  0.13055243756E+04 0.  0.
        5    1    3    3  502    0  0.63274181032E+03  0.65618502395E+02 -0.11964803083E+03  0.64730651755E+03  0.46999998093E+01 0.  1.
       -5    1    3    3    0  502 -0.63274181032E+03 -0.65618502395E+02 -0.43784444297E+03  0.77226797980E+03  0.46999998093E+01 0. -1.
</event>
<event>
 5   0  0.1803959E-03  0.1288959E+04  0.7818609E-02  0.9038367E-01
        1   -1    0    0  501    0  0.00000000000E+00  0.00000000000E+00  0.88337735962E+03  0.88337735963E+03  0.50400001928E-02 0.  1.
       -1   -1    0    0    0  501  0.00000000000E+00  0.00000000000E+00 -0.47018808836E+03  0.47018808838E+03  0.50400001928E-02 0. -1.
    10030    2    1    2    0    0  0.00000000000E+00  0.00000000000E+00  0.41318927126E+03  0.13535654480E+04  0.12889585130E+04 0.  0.
        4    1    3    3  502    0 -0.23277220420E+03 -0.58969132799E+03  0.32830541834E+03  0.71393614698E+03  0.12699999809E+01 0.  1.
       -4    1    3    3    0  502  0.23277220420E+03  0.58969132799E+03  0.84883852917E+02  0.63962930103E+03  0.12699999809E+01 0. -1.
</event>
<event>
 5   0  0.1857986E-03  0.1280654E+04  0.7818609E-02  0.9045049E-01
        1   -1    0    0  501    0  0.00000000000E+00  0.00000000000E+00  0.81348707773E+03  0.81348707775E+03  0.50400001928E-02 0. -1.
       -1   -1    0    0    0  501  0.00000000000E+00  0.00000000000E+00 -0.50402569859E+03  0.50402569862E+03  0.50400001928E-02 0.  1.
    10030    2    1    2    0    0  0.00000000000E+00  0.00000000000E+00  0.30946137914E+03  0.13175127764E+04  0.12806535717E+04 0.  0.
        1    1    3    3  502    0 -0.38882167222E+03 -0.75725176934E+02 -0.36284132416E+03  0.53718751079E+03  0.50400001928E-02 0.  1.
       -1    1    3    3    0  502  0.38882167222E+03  0.75725176934E+02  0.67230270330E+03  0.78032526558E+03  0.50400001928E-02 0. -1.
</event>
<event>
 5   0  0.3294720E-03  0.1296895E+04  0.7818609E-02  0.9032031E-01
       -2   -1    0    0    0  501  0.00000000000E+00  0.00000000000E+00  0.66984917788E+03  0.66984917789E+03  0.25500000920E-02 0.  1.
        2   -1    0    0  501    0  0.00000000000E+00  0.00000000000E+00 -0.62772923408E+03  0.62772923408E+03  0.25500000920E-02 0. -1.
    10030    2    1    2    0    0  0.00000000000E+00  0.00000000000E+00  0.42119943806E+02  0.12975784120E+04  0.12968946162E+04 0.  0.
        5    1    3    3  502    0 -0.68294891804E+02  0.64278819375E+03 -0.30162402972E+02  0.64712650604E+03  0.46999998093E+01 0. -1.
       -5    1    3    3    0  502  0.68294891804E+02 -0.64278819375E+03  0.72282346778E+02  0.65045190593E+03  0.46999998093E+01 0.  1.
</event>
<event>
 5   0  0.1803959E-03  0.1311063E+04  0.7818609E-02  0.9020838E-01
       -1   -1    0    0    0  501  0.00000000000E+00  0.00000000000E+00  0.43410323965E+03  0.43410323968E+03  0.50400001928E-02 0.  1.
        1   -1    0    0  501    0  0.00000000000E+00  0.00000000000E+00 -0.98990581096E+03  0.98990581097E+03  0.50400001928E-02 0. -1.
    10030    2    1    2    0    0  0.00000000000E+00  0.00000000000E+00 -0.55580257131E+03  0.14240090506E+04  0.13110626522E+04 0.  0.
        4    1    3    3  502    0 -0.87551921164E+02  0.63653554133E+03 -0.13679859797E+03  0.65693097323E+03  0.12699999809E+01 0.  1.
       -4    1    3    3    0  502  0.87551921164E+02 -0.63653554133E+03 -0.41900397334E+03  0.76707807742E+03  0.12699999809E+01 0. -1.
</event>
<event>
 5   0  0.1254125E-03  0.1297234E+04  0.7818609E-02  0.9031761E-01
       -4   -1    0    0    0  501  0.00000000000E+00  0.00000000000E+00  0.45562736698E+03  0.45562913695E+03  0.12699999809E+01 0.  1.
        4   -1    0    0  501    0  0.00000000000E+00  0.00000000000E+00 -0.92334710097E+03  0.92334797437E+03  0.12699999809E+01 0. -1.
    10030    2    1    2    0    0  0.00000000000E+00  0.00000000000E+00 -0.46771973399E+03  0.13789771113E+04  0.12972340282E+04 0.  0.
        2    1    3    3  502    0 -0.46552681585E+03  0.44613351393E+03 -0.15904228222E+03  0.66411202072E+03  0.25500000920E-02 0. -1.
       -2    1    3    3    0  502  0.46552681585E+03 -0.44613351393E+03 -0.30867745176E+03  0.71486509060E+03  0.25500000920E-02 0.  1.
</event>
<event>
 5   0  0.3262927E-03  0.1306943E+04  0.7818609E-02  0.9024077E-01
       -2   -1    0    0    0  501  0.00000000000E+00  0.00000000000E+00  0.10436453014E+04  0.10436453014E+04  0.25500000920E-02 0. -1.
        2   -1    0    0  501    0  0.00000000000E+00  0.00000000000E+00 -0.40916667889E+03  0.40916667890E+03  0.25500000920E-02 0.  1.
    10030    2    1    2    0    0  0.00000000000E+00  0.00000000000E+00  0.63447862249E+03  0.14528119803E+04  0.13069428173E+04 0.  0.
        3    1    3    3  502    0  0.43247933459E+03 -0.28911891470E+03 -0.12236980333E+03  0.53441790825E+03  0.10100000352E+00 0.  1.
       -3    1    3    3    0  502 -0.43247933459E+03  0.28911891470E+03  0.75684842583E+03  0.91839407205E+03  0.10100000352E+00 0. -1.
</event>
<event>
 5   0  0.3262927E-03  0.1263364E+04  0.7818609E-02  0.9059133E-01
        2   -1    0    0  501    0  0.00000000000E+00  0.00000000000E+00  0.77162601743E+03  0.77162601744E+03  0.25500000920E-02 0.  1.
       -2   -1    0    0    0  501  0.00000000000E+00  0.00000000000E+00 -0.51711868967E+03  0.51711868968E+03  0.25500000920E-02 0. -1.
    10030    2    1    2    0    0  0.00000000000E+00  0.00000000000E+00  0.25450732776E+03  0.12887447071E+04  0.12633641360E+04 0.  0.
        3    1    3    3  502    0 -0.51326269300E+03  0.36416007972E+03  0.71651111021E+02  0.63339170156E+03  0.10100000352E+00 0. -1.
       -3    1    3    3    0  502  0.51326269300E+03 -0.36416007972E+03  0.18285621674E+03  0.65535300556E+03  0.10100000352E+00 0.  1.
</event>
<event>
 5   0  0.1814770E-03  0.1309079E+04  0.7818609E-02  0.9022396E-01
       -1   -1    0    0    0  501  0.00000000000E+00  0.00000000000E+00  0.55341459006E+03  0.55341459009E+03  0.50400001928E-02 0.  1.
        1   -1    0    0  501    0  0.00000000000E+00  0.00000000000E+00 -0.77414274506E+03  0.77414274508E+03  0.50400001928E-02 0. -1.
    10030    2    1    2    0    0  0.00000000000E+00  0.00000000000E+00 -0.22072815500E+03  0.13275573352E+04  0.13090788974E+04 0.  0.
        5    1    3    3  502    0  0.20320713915E+02 -0.48862563571E+03 -0.55151235709E+03  0.73712679595E+03  0.46999998093E+01 0. -1.
       -5    1    3    3    0  502 -0.20320713915E+02  0.48862563571E+03  0.33078420209E+03  0.59043053922E+03  0.46999998093E+01 0.  1.
</event>
<event>
 5   0  0.3294720E-03  0.1177789E+04  0.7818609E-02  0.9132523E-01
       -2   -1    0    0    0  501  0.00000000000E+00  0.00000000000E+00  0.61004106413E+03  0.61004106413E+03  0.25500000920E-02 0.  1.
        2   -1    0    0  501    0  0.00000000000E+00  0.00000000000E+00 -0.56848144005E+03  0.56848144006E+03  0.25500000920E-02 0. -1.
    10030    2    1    2    0    0  0.00000000000E+00  0.00000000000E+00  0.41559624074E+02  0.11785225042E+04  0.11777894933E+04 0.  0.
        5    1    3    3  502    0 -0.49201275516E+03  0.21389753795E+03 -0.22215972616E+03  0.58069418966E+03  0.46999998093E+01 0. -1.
       -5    1    3    3    0  502  0.49201275516E+03 -0.21389753795E+03  0.26371935023E+03  0.59782831453E+03  0.46999998093E+01 0.  1.
</event>
<event>
 5   0  0.3262927E-03  0.1233988E+04  0.7818609E-02  0.9083617E-01
       -2   -1    0    0    0  501  0.00000000000E+00  0.00000000000E+00  0.67392130537E+03  0.67392130538E+03  0.25500000920E-02 0. -1.
        2   -1    0    0  501    0  0.00000000000E+00  0.00000000000E+00 -0.56487511514E+03  0.56487511515E+03  0.25500000920E-02 0.  1.
    10030    2    1    2    0    0  0.00000000000E+00  0.00000000000E+00  0.10904619023E+03  0.12387964205E+04  0.12339876417E+04 0.  0.
        3    1    3    3  502    0 -0.48647858137E+03  0.29758915685E+03  0.29094167415E+03  0.64020917235E+03  0.10100000352E+00 0. -1.
       -3    1    3    3    0  502  0.48647858137E+03 -0.29758915685E+03 -0.18189548392E+03  0.59858724817E+03  0.10100000352E+00 0.  1.
</event>
<event>
 5   0  0.1873488E-03  0.1316635E+04  0.7818609E-02  0.9016476E-01
       -1   -1    0    0    0  501  0.00000000000E+00  0.00000000000E+00  0.26428540772E+03  0.26428540777E+03  0.50400001928E-02 0. -1.
        1   -1    0    0  501    0  0.00000000000E+00  0.00000000000E+00 -0.16398264052E+04  0.16398264052E+04  0.50400001928E-02 0.  1.
    10030    2    1    2    0    0  0.00000000000E+00  0.00000000000E+00 -0.13755409974E+04  0.19041118129E+04  0.13166353939E+04 0.  0.
        3    1    3    3  502    0 -0.45084620249E+03  0.66880026246E+01  0.59136661956E+01  0.45093459540E+03  0.10100000352E+00 0. -1.
       -3    1    3    3    0  502  0.45084620249E+03 -0.66880026246E+01 -0.13814546636E+04  0.14531772175E+04  0.10100000352E+00 0.  1.
</event>
<event>
 5   0  0.1873488E-03  0.1281504E+04  0.7818609E-02  0.9044363E-01
        1   -1    0    0  501    0  0.00000000000E+00  0.00000000000E+00  0.66639201235E+03  0.66639201237E+03  0.50400001928E-02 0.  1.
       -1   -1    0    0    0  501  0.00000000000E+00  0.00000000000E+00 -0.61609843856E+03  0.61609843858E+03  0.50400001928E-02 0. -1.
    10030    2    1    2    0    0  0.00000000000E+00  0.00000000000E+00  0.50293573791E+02  0.12824904509E+04  0.12815039263E+04 0.  0.
        3    1    3    3  502    0  0.34256918404E+02 -0.13880640948E+03 -0.59993175999E+03  0.61673242384E+03  0.10100000352E+00 0. -1.
       -3    1    3    3    0  502 -0.34256918404E+02  0.13880640948E+03  0.65022533378E+03  0.66575802711E+03  0.10100000352E+00 0.  1.
</event>
<event>
 5   0  0.1803959E-03  0.1303920E+04  0.7818609E-02  0.9026462E-01
        1   -1    0    0  501    0  0.00000000000E+00  0.00000000000E+00  0.18852516759E+04  0.18852516759E+04  0.50400001928E-02 0. -1.
       -1   -1    0    0    0  501  0.00000000000E+00  0.00000000000E+00 -0.22546174079E+03  0.22546174085E+03  0.50400001928E-02 0.  1.
    10030    2    1    2    0    0  0.00000000000E+00  0.00000000000E+00  0.16597899351E+04  0.21107134167E+04  0.13039204343E+04 0.  0.
        4    1    3    3  502    0 -0.26937394485E+03  0.53499351656E+03  0.41318193747E+03  0.72766840750E+03  0.12699999809E+01 0.  1.
       -4    1    3    3    0  502  0.26937394485E+03 -0.53499351656E+03  0.12466079976E+04  0.13830450092E+04  0.12699999809E+01 0. -1.
</event>
<event>
 5   0  0.3336609E-03  0.1290003E+04  0.7818609E-02  0.9037531E-01
        2   -1    0    0  501    0  0.00000000000E+00  0.00000000000E+00  0.19513179481E+04  0.19513179481E+04  0.25500000920E-02 0.  1.
       -2   -1    0    0    0  501  0.00000000000E+00  0.00000000000E+00 -0.21320292740E+03  0.21320292741E+03  0.25500000920E-02 0. -1.
    10030    2    1    2    0    0  0.00000000000E+00  0.00000000000E+00  0.17381150207E+04  0.21645208755E+04  0.12900026339E+04 0.  0.
        1    1    3    3  502    0 -0.26487325938E+03  0.58517952085E+03  0.96738108196E+03  0.11612144819E+04  0.50400001928E-02 0. -1.
       -1    1    3    3    0  502  0.26487325938E+03 -0.58517952085E+03  0.77073393875E+03  0.10033063936E+04  0.50400001928E-02 0.  1.
</event>
<event>
 5   0  0.3294720E-03  0.1213492E+04  0.7818609E-02  0.9101129E-01
       -2   -1    0    0    0  501  0.00000000000E+00  0.00000000000E+00  0.64560181385E+03  0.64560181385E+03  0.25500000920E-02 0.  1.
        2   -1    0    0  501    0  0.00000000000E+00  0.00000000000E+00 -0.57022831871E+03  0.57022831872E+03  0.25500000920E-02 0. -1.
    10030    2    1    2    0    0  0.00000000000E+00  0.00000000000E+00  0.75373495136E+02  0.12158301326E+04  0.12134915523E+04 0.  0.
        5    1    3    3  502    0 -0.19196079541E+03  0.63084515992E+02  0.61088168138E+03  0.64344939333E+03  0.46999998093E+01 0.  1.
       -5    1    3    3    0  502  0.19196079541E+03 -0.63084515992E+02 -0.53550818624E+03  0.57238073925E+03  0.46999998093E+01 0. -1.
</event>
<event>
 5   0  0.3299104E-03  0.1314416E+04  0.7818609E-02  0.9018211E-01
       -2   -1    0    0    0  501  0.00000000000E+00  0.00000000000E+00  0.30960219578E+03  0.30960219579E+03  0.25500000920E-02 0. -1.
        2   -1    0    0  501    0  0.00000000000E+00  0.00000000000E+00 -0.13950877448E+04  0.13950877448E+04  0.25500000920E-02 0.  1.
    10030    2    1    2    0    0  0.00000000000E+00  0.00000000000E+00 -0.10854855490E+04  0.17046899406E+04  0.13144158080E+04 0.  0.
        2    1    3    3  502    0  0.97825077973E+02  0.48709284453E+02  0.29773623555E+03  0.31715801462E+03  0.25500000920E-02 0. -1.
       -2    1    3    3    0  502 -0.97825077973E+02 -0.48709284453E+02 -0.13832217846E+04  0.13875319260E+04  0.25500000920E-02 0.  1.
</event>
<event>
 5   0  0.3262927E-03  0.1307496E+04  0.7818609E-02  0.9023642E-01
        2   -1    0    0  501    0  0.00000000000E+00  0.00000000000E+00  0.96170085329E+03  0.96170085329E+03  0.25500000920E-02 0.  1.
       -2   -1    0    0    0  501  0.00000000000E+00  0.00000000000E+00 -0.44440664616E+03  0.44440664617E+03  0.25500000920E-02 0. -1.
    10030    2    1    2    0    0  0.00000000000E+00  0.00000000000E+00  0.51729420712E+03  0.14061074995E+04  0.13074956992E+04 0.  0.
        3    1    3    3  502    0 -0.50479151320E+02 -0.32089874266E+02  0.95875181913E+03  0.96061593035E+03  0.10100000352E+00 0.  1.
       -3    1    3    3    0  502  0.50479151320E+02  0.32089874266E+02 -0.44145761201E+03  0.44549156911E+03  0.10100000352E+00 0. -1.
</event>
<event>
 5   0  0.1823154E-03  0.1329134E+04  0.7818609E-02  0.9006776E-01
       -1   -1    0    0    0  501  0.00000000000E+00  0.00000000000E+00  0.46895349744E+03  0.46895349747E+03  0.50400001928E-02 0. -1.
        1   -1    0    0  501    0  0.00000000000E+00  0.00000000000E+00 -0.94177574440E+03  0.94177574441E+03  0.50400001928E-02 0.  1.
    10030    2    1    2    0    0  0.00000000000E+00  0.00000000000E+00 -0.47282224696E+03  0.14107292419E+04  0.13291335962E+04 0.  0.
        2    1    3    3  502    0 -0.12413118696E+03 -0.51675477581E+03 -0.65991106639E+03  0.84730553252E+03  0.25500000920E-02 0.  1.
       -2    1    3    3    0  502  0.12413118696E+03  0.51675477581E+03  0.18708881943E+03  0.56342370935E+03  0.25500000920E-02 0. -1.
</event>
<event>
 5   0  0.1857986E-03  0.1305229E+04  0.7818609E-02  0.9025429E-01
        1   -1    0    0  501    0  0.00000000000E+00  0.00000000000E+00  0.67151427463E+03  0.67151427465E+03  0.50400001928E-02 0.  1.
       -1   -1    0    0    0  501  0.00000000000E+00  0.00000000000E+00 -0.63424692950E+03  0.63424692952E+03  0.50400001928E-02 0. -1.
    10030    2    1    2    0    0  0.00000000000E+00  0.00000000000E+00  0.37267345129E+02  0.13057612042E+04  0.13052292777E+04 0.  0.
        1    1    3    3  502    0 -0.55427918900E+03  0.31315189634E+03 -0.12500874609E+03  0.64878094621E+03  0.50400001928E-02 0. -1.
       -1    1    3    3    0  502  0.55427918900E+03 -0.31315189634E+03  0.16227609122E+03  0.65698025796E+03  0.50400001928E-02 0.  1.
</event>
<event>
 5   0  0.3262927E-03  0.1285239E+04  0.7818609E-02  0.9041353E-01
       -2   -1    0    0    0  501  0.00000000000E+00  0.00000000000E+00  0.26333406763E+03  0.26333406764E+03  0.25500000920E-02 0.  1.
        2   -1    0    0  501    0  0.00000000000E+00  0.00000000000E+00 -0.15681971549E+04  0.15681971549E+04  0.25500000920E-02 0. -1.
    10030    2    1    2    0    0  0.00000000000E+00  0.00000000000E+00 -0.13048630872E+04  0.18315312225E+04  0.12852388660E+04 0.  0.
        3    1    3    3  502    0 -0.55011998309E+03  0.71385518081E+02 -0.19015266279E+03  0.58641788287E+03  0.10100000352E+00 0.  1.
       -3    1    3    3    0  502  0.55011998309E+03 -0.71385518081E+02 -0.11147104245E+04  0.12451133396E+04  0.10100000352E+00 0. -1.
</event>
<event>
 5   0  0.3294720E-03  0.1200173E+04  0.7818609E-02  0.9112705E-01
       -2   -1    0    0    0  501  0.00000000000E+00  0.00000000000E+00  0.80422126559E+03  0.80422126559E+03  0.25500000920E-02 0. -1.
        2   -1    0    0  501    0  0.00000000000E+00  0.00000000000E+00 -0.44776717281E+03  0.44776717281E+03  0.25500000920E-02 0.  1.
    10030    2    1    2    0    0  0.00000000000E+00  0.00000000000E+00  0.35645409279E+03  0.12519884384E+04  0.12001731249E+04 0.  0.
        5    1    3    3  502    0 -0.22933323845E+03 -0.18404379498E+03  0.72389332748E+03  0.78135106853E+03  0.46999998093E+01 0. -1.
       -5    1    3    3    0  502  0.22933323845E+03  0.18404379498E+03 -0.36743923470E+03  0.47063736987E+03  0.46999998093E+01 0.  1.
</event>
<event>
 5   0  0.1873488E-03  0.1324661E+04  0.7818609E-02  0.9010234E-01
       -1   -1    0    0    0  501  0.00000000000E+00  0.00000000000E+00  0.64400119202E+03  0.64400119204E+03  0.50400001928E-02 0.  1.
        1   -1    0    0  501    0  0.00000000000E+00  0.00000000000E+00 -0.68118142342E+03  0.68118142344E+03  0.50400001928E-02 0. -1.
    10030    2    1    2    0    0  0.00000000000E+00  0.00000000000E+00 -0.37180231404E+02  0.13251826155E+04  0.13246609358E+04 0.  0.
        3    1    3    3  502    0  0.58657030106E+03  0.12515190929E+03  0.26250794499E+03  0.65470462796E+03  0.10100000352E+00 0.  1.
       -3    1    3    3    0  502 -0.58657030106E+03 -0.12515190929E+03 -0.29968817640E+03  0.67047798752E+03  0.10100000352E+00 0. -1.
</event>
<event>
 5   0  0.1823154E-03  0.9515820E+03  0.7818609E-02  0.9363303E-01
        1   -1    0    0  501    0  0.00000000000E+00  0.00000000000E+00  0.12198501642E+04  0.12198501642E+04  0.50400001928E-02 0.  1.
       -1   -1    0    0    0  501  0.00000000000E+00  0.00000000000E+00 -0.18557775272E+03  0.18557775278E+03  0.50400001928E-02 0. -1.
    10030    2    1    2    0    0  0.00000000000E+00  0.00000000000E+00  0.10342724115E+04  0.14054279170E+04  0.95158195061E+03 0.  0.
        2    1    3    3  502    0 -0.30411403723E+03  0.22905386572E+03  0.93858422168E+03  0.10128629533E+04  0.25500000920E-02 0. -1.
       -2    1    3    3    0  502  0.30411403723E+03 -0.22905386572E+03  0.95688189831E+02  0.39256496369E+03  0.25500000920E-02 0.  1.
</event>
<event>
 5   0  0.1823154E-03  0.1286753E+04  0.7818609E-02  0.9040137E-01
       -1   -1    0    0    0  501  0.00000000000E+00  0.00000000000E+00  0.31011745248E+03  0.31011745252E+03  0.50400001928E-02 0.  1.
        1   -1    0    0  501    0  0.00000000000E+00  0.00000000000E+00 -0.13347625651E+04  0.13347625651E+04  0.50400001928E-02 0. -1.
    10030    2    1    2    0    0  0.00000000000E+00  0.00000000000E+00 -0.10246451126E+04  0.16448800176E+04  0.12867527601E+04 0.  0.
        2    1    3    3  502    0 -0.14221709780E+03  0.62639616164E+03 -0.46561033517E+03  0.79334156480E+03  0.25500000920E-02 0. -1.
       -2    1    3    3    0  502  0.14221709780E+03 -0.62639616164E+03 -0.55903477742E+03  0.85153845280E+03  0.25500000920E-02 0.  1.
</event>
<event>
 5   0  0.3259968E-03  0.1302792E+04  0.7818609E-02  0.9027354E-01
        2   -1    0    0  501    0  0.00000000000E+00  0.00000000000E+00  0.90166824079E+03  0.90166824080E+03  0.25500000920E-02 0. -1.
       -2   -1    0    0    0  501  0.00000000000E+00  0.00000000000E+00 -0.47059041580E+03  0.47059041580E+03  0.25500000920E-02 0.  1.
    10030    2    1    2    0    0  0.00000000000E+00  0.00000000000E+00  0.43107782500E+03  0.13722586566E+04  0.13027915142E+04 0.  0.
        4    1    3    3  502    0 -0.61955457877E+03 -0.18446699911E+03  0.13101766985E+03  0.65957804129E+03  0.12699999809E+01 0.  1.
       -4    1    3    3    0  502  0.61955457877E+03  0.18446699911E+03  0.30006015514E+03  0.71268061531E+03  0.12699999809E+01 0. -1.
</event>
<event>
 5   0  0.1814770E-03  0.1242814E+04  0.7818609E-02  0.9076185E-01
       -1   -1    0    0    0  501  0.00000000000E+00  0.00000000000E+00  0.51333383786E+03  0.51333383789E+03  0.50400001928E-02 0. -1.
        1   -1    0    0  501    0  0.00000000000E+00  0.00000000000E+00 -0.75223325306E+03  0.75223325308E+03  0.50400001928E-02 0.  1.
    10030    2    1    2    0    0  0.00000000000E+00  0.00000000000E+00 -0.23889941520E+03  0.12655670910E+04  0.12428141982E+04 0.  0.
        5    1    3    3  502    0  0.19469169785E+03  0.57508031130E+03 -0.25416864609E+03  0.65821426018E+03  0.46999998093E+01 0.  1.
       -5    1    3    3    0  502 -0.19469169785E+03 -0.57508031130E+03  0.15269230891E+02  0.60735283079E+03  0.46999998093E+01 0. -1.
</event>
<event>
 5   0  0.3294720E-03  0.1279128E+04  0.7818609E-02  0.9046283E-01
       -2   -1    0    0    0  501  0.00000000000E+00  0.00000000000E+00  0.10384462425E+04  0.10384462425E+04  0.25500000920E-02 0. -1.
        2   -1    0    0  501    0  0.00000000000E+00  0.00000000000E+00 -0.39389798353E+03  0.39389798354E+03  0.25500000920E-02 0.  1.
    10030    2    1    2    0    0  0.00000000000E+00  0.00000000000E+00  0.64454825896E+03  0.14323442260E+04  0.12791276417E+04 0.  0.
        5    1    3    3  502    0  0.67563692223E+02  0.49726127984E+03  0.76623088319E+03  0.91595059326E+03  0.46999998093E+01 0. -1.
       -5    1    3    3    0  502 -0.67563692223E+02 -0.49726127984E+03 -0.12168262422E+03  0.51639363278E+03  0.46999998093E+01 0.  1.
</event>
<event>
 5   0  0.1823154E-03  0.1258436E+04  0.7818609E-02  0.9063191E-01
       -1   -1    0    0    0  501  0.00000000000E+00  0.00000000000E+00  0.11017573934E+04  0.11017573934E+04  0.50400001928E-02 0. -1.
        1   -1    0    0  501    0  0.00000000000E+00  0.00000000000E+00 -0.35934861718E+03  0.35934861722E+03  0.50400001928E-02 0.  1.
    10030    2    1    2    0    0  0.00000000000E+00  0.00000000000E+00  0.74240877623E+03  0.14611060106E+04  0.12584355300E+04 0.  0.
        2    1    3    3  502    0  0.37202907757E+03 -0.35285436532E+03 -0.52225717224E+02  0.51540213739E+03  0.25500000920E-02 0.  1.
       -2    1    3    3    0  502 -0.37202907757E+03  0.35285436532E+03  0.79463449345E+03  0.94570387324E+03  0.25500000920E-02 0. -1.
</event>
<event>
 5   0  0.3336609E-03  0.1300715E+04  0.7818609E-02  0.9028998E-01
        2   -1    0    0  501    0  0.00000000000E+00  0.00000000000E+00  0.84250617113E+03  0.84250617113E+03  0.25500000920E-02 0.  1.
       -2   -1    0    0    0  501  0.00000000000E+00  0.00000000000E+00 -0.50203172755E+03  0.50203172756E+03  0.25500000920E-02 0. -1.
    10030    2    1    2    0    0  0.00000000000E+00  0.00000000000E+00  0.34047444358E+03  0.13445378987E+04  0.13007149243E+04 0.  0.
        1    1    3    3  502    0  0.35632645835E+03  0.44951257010E+03 -0.14657653211E+03  0.59204288306E+03  0.50400001928E-02 0. -1.
       -1    1    3    3    0  502 -0.35632645835E+03 -0.44951257010E+03  0.48705097569E+03  0.75249501562E+03  0.50400001928E-02 0.  1.
</event>
<event>
 5   0  0.1814770E-03  0.1302118E+04  0.7818609E-02  0.9027887E-01
        1   -1    0    0  501    0  0.00000000000E+00  0.00000000000E+00  0.79180908976E+03  0.79180908978E+03  0.50400001928E-02 0. -1.
       -1   -1    0    0    0  501  0.00000000000E+00  0.00000000000E+00 -0.53532859470E+03  0.53532859472E+03  0.50400001928E-02 0.  1.
    10030    2    1    2    0    0  0.00000000000E+00  0.00000000000E+00  0.25648049506E+03  0.13271376845E+04  0.13021183469E+04 0.  0.
        5    1    3    3  502    0 -0.21217286993E+03 -0.53109366698E+03 -0.18882903904E+03  0.60229254173E+03  0.46999998093E+01 0.  1.
       -5    1    3    3    0  502  0.21217286993E+03  0.53109366698E+03  0.44530953410E+03  0.72484514277E+03  0.46999998093E+01 0. -1.
</event>
<event>
 5   0  0.1254125E-03  0.1303567E+04  0.7818609E-02  0.9026741E-01
       -4   -1    0    0    0  501  0.00000000000E+00  0.00000000000E+00  0.28685346812E+03  0.28685627947E+03  0.12699999809E+01 0. -1.
        4   -1    0    0  501    0  0.00000000000E+00  0.00000000000E+00 -0.14809606723E+04  0.14809612169E+04  0.12699999809E+01 0.  1.
    10030    2    1    2    0    0  0.00000000000E+00  0.00000000000E+00 -0.11941072042E+04  0.17678174963E+04  0.13035669086E+04 0.  0.
        3    1    3    3  502    0  0.96252658781E+02  0.33484874937E+03  0.14997252874E+03  0.37931521042E+03  0.10100000352E+00 0. -1.
       -3    1    3    3    0  502 -0.96252658781E+02 -0.33484874937E+03 -0.13440797329E+04  0.13885022859E+04  0.10100000352E+00 0.  1.
</event>
<event>
 5   0  0.3299104E-03  0.1296420E+04  0.7818609E-02  0.9032409E-01
       -2   -1    0    0    0  501  0.00000000000E+00  0.00000000000E+00  0.39326039076E+03  0.39326039077E+03  0.25500000920E-02 0.  1.
        2   -1    0    0  501    0  0.00000000000E+00  0.00000000000E+00 -0.10684425189E+04  0.10684425189E+04  0.25500000920E-02 0. -1.
    10030    2    1    2    0    0  0.00000000000E+00  0.00000000000E+00 -0.67518212810E+03  0.14617029096E+04  0.12964198741E+04 0.  0.
        2    1    3    3  502    0  0.48549000037E+03 -0.42279938906E+03 -0.42283615257E+03  0.77022741822E+03  0.25500000920E-02 0. -1.
       -2    1    3    3    0  502 -0.48549000037E+03  0.42279938906E+03 -0.25234597554E+03  0.69147549142E+03  0.25500000920E-02 0.  1.
</event>
<event>
 5   0  0.3299104E-03  0.1395608E+04  0.7818609E-02  0.8957004E-01
        2   -1    0    0  501    0  0.00000000000E+00  0.00000000000E+00  0.34261718352E+03  0.34261718353E+03  0.25500000920E-02 0.  1.
       -2   -1    0    0    0  501  0.00000000000E+00  0.00000000000E+00 -0.14212079072E+04  0.14212079072E+04  0.25500000920E-02 0. -1.
    10030    2    1    2    0    0  0.00000000000E+00  0.00000000000E+00 -0.10785907237E+04  0.17638250907E+04  0.13956077534E+04 0.  0.
        2    1    3    3  502    0 -0.62616484761E+03  0.30193458356E+03 -0.46259222591E+03  0.83500806979E+03  0.25500000920E-02 0.  1.
       -2    1    3    3    0  502  0.62616484761E+03 -0.30193458356E+03 -0.61599849774E+03  0.92881702093E+03  0.25500000920E-02 0. -1.
</event>
<event>
 5   0  0.3259968E-03  0.1299724E+04  0.7818609E-02  0.9029784E-01
       -2   -1    0    0    0  501  0.00000000000E+00  0.00000000000E+00  0.41506150960E+03  0.41506150960E+03  0.25500000920E-02 0.  1.
        2   -1    0    0  501    0  0.00000000000E+00  0.00000000000E+00 -0.10174896584E+04  0.10174896584E+04  0.25500000920E-02 0. -1.
    10030    2    1    2    0    0  0.00000000000E+00  0.00000000000E+00 -0.60242814878E+03  0.14325511680E+04  0.12997242686E+04 0.  0.
        4    1    3    3  502    0  0.54708569155E+03 -0.26227844804E+03 -0.44550361910E+02  0.60834125772E+03  0.12699999809E+01 0.  1.
       -4    1    3    3    0  502 -0.54708569155E+03  0.26227844804E+03 -0.55787778687E+03  0.82420991027E+03  0.12699999809E+01 0. -1.
</event>
<event>
 5   0  0.3299104E-03  0.1302555E+04  0.7818609E-02  0.9027542E-01
       -2   -1    0    0    0  501  0.00000000000E+00  0.00000000000E+00  0.34687546654E+03  0.34687546655E+03  0.25500000920E-02 0.  1.
        2   -1    0    0  501    0  0.00000000000E+00  0.00000000000E+00 -0.12228082421E+04  0.12228082421E+04  0.25500000920E-02 0. -1.
    10030    2    1    2    0    0  0.00000000000E+00  0.00000000000E+00 -0.87593277553E+03  0.15696837086E+04  0.13025546890E+04 0.  0.
        2    1    3    3  502    0 -0.39411464385E+03  0.43687327011E+03 -0.10145401198E+03  0.59705738684E+03  0.25500000920E-02 0.  1.
       -2    1    3    3    0  502  0.39411464385E+03 -0.43687327011E+03 -0.77447876355E+03  0.97262632178E+03  0.25500000920E-02 0. -1.
</event>
<event>
 5   0  0.3299104E-03  0.1293500E+04  0.7818609E-02  0.9034736E-01
       -2   -1    0    0    0  501  0.00000000000E+00  0.00000000000E+00  0.35927061407E+03  0.35927061408E+03  0.25500000920E-02 0.  1.
        2   -1    0    0  501    0  0.00000000000E+00  0.00000000000E+00 -0.11642624179E+04  0.11642624179E+04  0.25500000920E-02 0. -1.
    10030    2    1    2    0    0  0.00000000000E+00  0.00000000000E+00 -0.80499180380E+03  0.15235330320E+04  0.12934995536E+04 0.  0.
        2    1    3    3  502    0 -0.36215127077E+02  0.15565618128E+02  0.35785441276E+03  0.36001889484E+03  0.25500000920E-02 0.  1.
       -2    1    3    3    0  502  0.36215127077E+02 -0.15565618128E+02 -0.11628462166E+04  0.11635141371E+04  0.25500000920E-02 0. -1.
</event>
<event>
 5   0  0.3262927E-03  0.1314580E+04  0.7818609E-02  0.9018082E-01
       -2   -1    0    0    0  501  0.00000000000E+00  0.00000000000E+00  0.26653461986E+03  0.26653461987E+03  0.25500000920E-02 0.  1.
        2   -1    0    0  501    0  0.00000000000E+00  0.00000000000E+00 -0.16209155038E+04  0.16209155038E+04  0.25500000920E-02 0. -1.
    10030    2    1    2    0    0  0.00000000000E+00  0.00000000000E+00 -0.13543808840E+04  0.18874501237E+04  0.13145799293E+04 0.  0.
        3    1    3    3  502    0  0.37264584494E+03 -0.86928355596E+02 -0.14445062478E+04  0.14943292057E+04  0.10100000352E+00 0. -1.
       -3    1    3    3    0  502 -0.37264584494E+03  0.86928355596E+02  0.90125363868E+02  0.39312091800E+03  0.10100000352E+00 0.  1.
</event>
<event>
 5   0  0.1803959E-03  0.1306333E+04  0.7818609E-02  0.9024558E-01
       -1   -1    0    0    0  501  0.00000000000E+00  0.00000000000E+00  0.73547377492E+03  0.73547377493E+03  0.50400001928E-02 0. -1.
        1   -1    0    0  501    0  0.00000000000E+00  0.00000000000E+00 -0.58007027754E+03  0.58007027756E+03  0.50400001928E-02 0.  1.
    10030    2    1    2    0    0  0.00000000000E+00  0.00000000000E+00  0.15540349737E+03  0.13155440525E+04  0.13063330001E+04 0.  0.
        4    1    3    3  502    0  0.56437250229E+03  0.31532088425E+03 -0.16128624043E+02  0.64668796711E+03  0.12699999809E+01 0. -1.
       -4    1    3    3    0  502 -0.56437250229E+03 -0.31532088425E+03  0.17153212142E+03  0.66885608539E+03  0.12699999809E+01 0.  1.
</event>
<event>
 5   0  0.1857986E-03  0.1310221E+04  0.7818609E-02  0.9021499E-01
        1   -1    0    0  501    0  0.00000000000E+00  0.00000000000E+00  0.39233587556E+03  0.39233587559E+03  0.50400001928E-02 0.  1.
       -1   -1    0    0    0  501  0.00000000000E+00  0.00000000000E+00 -0.10938829276E+04  0.10938829277E+04  0.50400001928E-02 0. -1.
    10030    2    1    2    0    0  0.00000000000E+00  0.00000000000E+00 -0.70154705209E+03  0.14862188033E+04  0.13102206169E+04 0.  0.
        1    1    3    3  502    0  0.55754728741E+03  0.10533183038E+03 -0.72219550912E+03  0.91843351725E+03  0.50400001928E-02 0. -1.
       -1    1    3    3    0  502 -0.55754728741E+03 -0.10533183038E+03  0.20648457029E+02  0.56778528600E+03  0.50400001928E-02 0.  1.
</event>
<event>
 5   0  0.1873488E-03  0.1279362E+04  0.7818609E-02  0.9046094E-01
        1   -1    0    0  501    0  0.00000000000E+00  0.00000000000E+00  0.10492877546E+04  0.10492877546E+04  0.50400001928E-02 0.  1.
       -1   -1    0    0    0  501  0.00000000000E+00  0.00000000000E+00 -0.38997072431E+03  0.38997072435E+03  0.50400001928E-02 0. -1.
    10030    2    1    2    0    0  0.00000000000E+00  0.00000000000E+00  0.65931703028E+03  0.14392584790E+04  0.12793615684E+04 0.  0.
        3    1    3    3  502    0  0.28511398049E+03  0.45678267793E+03 -0.58828663994E+02  0.54166522746E+03  0.10100000352E+00 0. -1.
       -3    1    3    3    0  502 -0.28511398049E+03 -0.45678267793E+03  0.71814569428E+03  0.89759325150E+03  0.10100000352E+00 0.  1.
</event>
<event>
 5   0  0.1823154E-03  0.1219146E+04  0.7818609E-02  0.9096261E-01
        1   -1    0    0  501    0  0.00000000000E+00  0.00000000000E+00  0.20891987796E+04  0.20891987796E+04  0.50400001928E-02 0.  1.
       -1   -1    0    0    0  501  0.00000000000E+00  0.00000000000E+00 -0.17785731922E+03  0.17785731929E+03  0.50400001928E-02 0. -1.
    10030    2    1    2    0    0  0.00000000000E+00  0.00000000000E+00  0.19113414604E+04  0.22670560989E+04  0.12191460853E+04 0.  0.
        2    1    3    3  502    0 -0.55412503705E+03 -0.23980614541E+03  0.79989296351E+03  0.10021927445E+04  0.25500000920E-02 0. -1.
       -2    1    3    3    0  502  0.55412503705E+03  0.23980614541E+03  0.11114484969E+04  0.12648633544E+04  0.25500000920E-02 0.  1.
</event>
<event>
 5   0  0.1857986E-03  0.1300211E+04  0.7818609E-02  0.9029398E-01
       -1   -1    0    0    0  501  0.00000000000E+00  0.00000000000E+00  0.65699938861E+03  0.65699938863E+03  0.50400001928E-02 0. -1.
        1   -1    0    0  501    0  0.00000000000E+00  0.00000000000E+00 -0.64328398163E+03  0.64328398165E+03  0.50400001928E-02 0.  1.
    10030    2    1    2    0    0  0.00000000000E+00  0.00000000000E+00  0.13715406983E+02  0.13002833703E+04  0.13002110331E+04 0.  0.
        1    1    3    3  502    0  0.56290060186E+03 -0.69085215296E+02  0.32469188583E+03  0.65349420449E+03  0.50400001928E-02 0. -1.
       -1    1    3    3    0  502 -0.56290060186E+03  0.69085215296E+02 -0.31097647885E+03  0.64678916578E+03  0.50400001928E-02 0.  1.
</event>
<event>
 5   0  0.3259968E-03  0.1293396E+04  0.7818609E-02  0.9034818E-01
       -2   -1    0    0    0  501  0.00000000000E+00  0.00000000000E+00  0.38955242705E+03  0.38955242706E+03  0.25500000920E-02 0.  1.
        2   -1    0    0  501    0  0.00000000000E+00  0.00000000000E+00 -0.10735870663E+04  0.10735870663E+04  0.25500000920E-02 0. -1.
    10030    2    1    2    0    0  0.00000000000E+00  0.00000000000E+00 -0.68403463924E+03  0.14631394934E+04  0.12933962229E+04 0.  0.
        4    1    3    3  502    0  0.29795756024E+03  0.56748713523E+03 -0.24472767165E+03  0.68608571077E+03  0.12699999809E+01 0.  1.
       -4    1    3    3    0  502 -0.29795756024E+03 -0.56748713523E+03 -0.43930696759E+03  0.77705378259E+03  0.12699999809E+01 0. -1.
</event>
<event>
 5   0  0.3259968E-03  0.1305502E+04  0.7818609E-02  0.9025214E-01
        2   -1    0    0  501    0  0.00000000000E+00  0.00000000000E+00  0.11067395320E+04  0.11067395320E+04  0.25500000920E-02 0. -1.
       -2   -1    0    0    0  501  0.00000000000E+00  0.00000000000E+00 -0.38499004253E+03  0.38499004254E+03  0.25500000920E-02 0.  1.
    10030    2    1    2    0    0  0.00000000000E+00  0.00000000000E+00  0.72174948943E+03  0.14917295745E+04  0.13055017418E+04 0.  0.
        4    1    3    3  502    0 -0.33432660086E+03  0.12447655615E+03 -0.26374064016E+03  0.44365462608E+03  0.12699999809E+01 0.  1.
       -4    1    3    3    0  502  0.33432660086E+03 -0.12447655615E+03  0.98549012959E+03  0.10480749484E+04  0.12699999809E+01 0. -1.
</event>
<event>
 5   0  0.3299104E-03  0.1351917E+04  0.7818609E-02  0.8989378E-01
        2   -1    0    0  501    0  0.00000000000E+00  0.00000000000E+00  0.14152697393E+04  0.14152697393E+04  0.25500000920E-02 0. -1.
       -2   -1    0    0    0  501  0.00000000000E+00  0.00000000000E+00 -0.32285021012E+03  0.32285021013E+03  0.25500000920E-02 0.  1.
    10030    2    1    2    0    0  0.00000000000E+00  0.00000000000E+00  0.10924195291E+04  0.17381199494E+04  0.13519173536E+04 0.  0.
        2    1    3    3  502    0 -0.63917428392E+03 -0.83774064427E+02  0.28474642591E+03  0.70472859043E+03  0.25500000920E-02 0. -1.
       -2    1    3    3    0  502  0.63917428392E+03  0.83774064427E+02  0.80767310323E+03  0.10333913590E+04  0.25500000920E-02 0.  1.
</event>
<event>
 5   0  0.1814770E-03  0.1330440E+04  0.7818609E-02  0.9005768E-01
        1   -1    0    0  501    0  0.00000000000E+00  0.00000000000E+00  0.15257532073E+04  0.15257532073E+04  0.50400001928E-02 0.  1.
       -1   -1    0    0    0  501  0.00000000000E+00  0.00000000000E+00 -0.29003218390E+03  0.29003218395E+03  0.50400001928E-02 0. -1.
    10030    2    1    2    0    0  0.00000000000E+00  0.00000000000E+00  0.12357210234E+04  0.18157853912E+04  0.13304398293E+04 0.  0.
        5    1    3    3  502    0 -0.21133454404E+03  0.46328088019E+03  0.33693896548E+02  0.51034187768E+03  0.46999998093E+01 0. -1.
       -5    1    3    3    0  502  0.21133454404E+03 -0.46328088019E+03  0.12020271268E+04  0.13054435136E+04  0.46999998093E+01 0.  1.
</event>
<event>
 5   0  0.1803959E-03  0.1300284E+04  0.7818609E-02  0.9029340E-01
       -1   -1    0    0    0  501  0.00000000000E+00  0.00000000000E+00  0.68341745427E+03  0.68341745428E+03  0.50400001928E-02 0.  1.
        1   -1    0    0  501    0  0.00000000000E+00  0.00000000000E+00 -0.61848641064E+03  0.61848641066E+03  0.50400001928E-02 0. -1.
    10030    2    1    2    0    0  0.00000000000E+00  0.00000000000E+00  0.64931043626E+02  0.13019038649E+04  0.13002836741E+04 0.  0.
        4    1    3    3  502    0 -0.45372048071E+03  0.23021838830E+03 -0.37278565671E+03  0.63074046935E+03  0.12699999809E+01 0. -1.
       -4    1    3    3    0  502  0.45372048071E+03 -0.23021838830E+03  0.43771670034E+03  0.67116339559E+03  0.12699999809E+01 0.  1.
</event>
<event>
 5   0  0.1873488E-03  0.1299479E+04  0.7818609E-02  0.9029978E-01
        1   -1    0    0  501    0  0.00000000000E+00  0.00000000000E+00  0.10092327437E+04  0.10092327437E+04  0.50400001928E-02 0. -1.
       -1   -1    0    0    0  501  0.00000000000E+00  0.00000000000E+00 -0.41829957447E+03  0.41829957450E+03  0.50400001928E-02 0.  1.
    10030    2    1    2    0    0  0.00000000000E+00  0.00000000000E+00  0.59093316919E+03  0.14275323182E+04  0.12994793223E+04 0.  0.
        3    1    3    3  502    0 -0.53344194841E+03  0.57079080141E+02  0.69811366552E+03  0.88044365743E+03  0.10100000352E+00 0. -1.
       -3    1    3    3    0  502  0.53344194841E+03 -0.57079080141E+02 -0.10718049634E+03  0.54708866074E+03  0.10100000352E+00 0.  1.
</event>
<event>
 5   0  0.1254125E-03  0.1155615E+04  0.7818609E-02  0.9152619E-01
        3   -1    0    0  501    0  0.00000000000E+00  0.00000000000E+00  0.30326220535E+03  0.30326222217E+03  0.10100000352E+00 0.  1.
       -3   -1    0    0    0  501  0.00000000000E+00  0.00000000000E+00 -0.11009006238E+04  0.11009006285E+04  0.10100000352E+00 0. -1.
    10030    2    1    2    0    0  0.00000000000E+00  0.00000000000E+00 -0.79763841848E+03  0.14041628506E+04  0.11556151022E+04 0.  0.
        5    1    3    3  502    0 -0.11148531996E+03 -0.56583763050E+03 -0.35606165018E+03  0.67779288089E+03  0.46999998093E+01 0.  1.
       -5    1    3    3    0  502  0.11148531996E+03  0.56583763050E+03 -0.44157676830E+03  0.72636996975E+03  0.46999998093E+01 0. -1.
</event>
<event>
 5   0  0.1803959E-03  0.1010295E+04  0.7818609E-02  0.9297325E-01
       -1   -1    0    0    0  501  0.00000000000E+00  0.00000000000E+00  0.80290818610E+03  0.80290818611E+03  0.50400001928E-02 0.  1.
        1   -1    0    0  501    0  0.00000000000E+00  0.00000000000E+00 -0.31781237730E+03  0.31781237734E+03  0.50400001928E-02 0. -1.
    10030    2    1    2    0    0  0.00000000000E+00  0.00000000000E+00  0.48509580880E+03  0.11207205635E+04  0.10102953220E+04 0.  0.
        4    1    3    3  502    0 -0.26798276670E+03 -0.11606311963E+03  0.69977214307E+03  0.75826649411E+03  0.12699999809E+01 0.  1.
       -4    1    3    3    0  502  0.26798276670E+03  0.11606311963E+03 -0.21467633427E+03  0.36245406934E+03  0.12699999809E+01 0. -1.
</event>
<event>
 5   0  0.1823154E-03  0.1254248E+04  0.7818609E-02  0.9066655E-01
       -1   -1    0    0    0  501  0.00000000000E+00  0.00000000000E+00  0.12302500874E+04  0.12302500874E+04  0.50400001928E-02 0. -1.
        1   -1    0    0  501    0  0.00000000000E+00  0.00000000000E+00 -0.31967861227E+03  0.31967861231E+03  0.50400001928E-02 0.  1.
    10030    2    1    2    0    0  0.00000000000E+00  0.00000000000E+00  0.91057147511E+03  0.15499286997E+04  0.12542482062E+04 0.  0.
        2    1    3    3  502    0 -0.42703313271E+03 -0.45407890364E+03  0.54036101281E+03  0.82494543537E+03  0.25500000920E-02 0.  1.
       -2    1    3    3    0  502  0.42703313271E+03  0.45407890364E+03  0.37021046230E+03  0.72498326434E+03  0.25500000920E-02 0. -1.
</event>
<event>
 5   0  0.3336609E-03  0.1318405E+04  0.7818609E-02  0.9015096E-01
        2   -1    0    0  501    0  0.00000000000E+00  0.00000000000E+00  0.27173466549E+04  0.27173466549E+04  0.25500000920E-02 0.  1.
       -2   -1    0    0    0  501  0.00000000000E+00  0.00000000000E+00 -0.15991621900E+03  0.15991621902E+03  0.25500000920E-02 0. -1.
    10030    2    1    2    0    0  0.00000000000E+00  0.00000000000E+00  0.25574304359E+04  0.28772628739E+04  0.13184047979E+04 0.  0.
        1    1    3    3  502    0  0.35826411281E+02 -0.91580508843E+02 -0.14381834518E+03  0.17422467615E+03  0.50400001928E-02 0. -1.
       -1    1    3    3    0  502 -0.35826411281E+02  0.91580508843E+02  0.27012487811E+04  0.27030381978E+04  0.50400001928E-02 0.  1.
</event>
<event>
 5   0  0.3299104E-03  0.1051296E+04  0.7818609E-02  0.9254007E-01
        2   -1    0    0  501    0  0.00000000000E+00  0.00000000000E+00  0.78172082897E+03  0.78172082898E+03  0.25500000920E-02 0.  1.
       -2   -1    0    0    0  501  0.00000000000E+00  0.00000000000E+00 -0.35345825911E+03  0.35345825912E+03  0.25500000920E-02 0. -1.
    10030    2    1    2    0    0  0.00000000000E+00  0.00000000000E+00  0.42826256987E+03  0.11351790881E+04  0.10512957402E+04 0.  0.
        2    1    3    3  502    0 -0.21736438973E+03  0.81177868750E+02 -0.29516885830E+03  0.37544877043E+03  0.25500000920E-02 0. -1.
       -2    1    3    3    0  502  0.21736438973E+03 -0.81177868750E+02  0.72343142817E+03  0.75973031766E+03  0.25500000920E-02 0.  1.
</event>
<event>
 5   0  0.3262927E-03  0.1276353E+04  0.7818609E-02  0.9048530E-01
       -2   -1    0    0    0  501  0.00000000000E+00  0.00000000000E+00  0.27525214372E+03  0.27525214374E+03  0.25500000920E-02 0.  1.
        2   -1    0    0  501    0  0.00000000000E+00  0.00000000000E+00 -0.14796224829E+04  0.14796224829E+04  0.25500000920E-02 0. -1.
    10030    2    1    2    0    0  0.00000000000E+00  0.00000000000E+00 -0.12043703392E+04  0.17548746267E+04  0.12763530238E+04 0.  0.
        3    1    3    3  502    0 -0.60927939147E+02  0.48881615133E+03 -0.11600269653E+04  0.12602841005E+04  0.10100000352E+00 0. -1.
       -3    1    3    3    0  502  0.60927939147E+02 -0.48881615133E+03 -0.44343373915E+02  0.49459052617E+03  0.10100000352E+00 0.  1.
</event>
<event>
 5   0  0.3294720E-03  0.1316849E+04  0.7818609E-02  0.9016309E-01
       -2   -1    0    0    0  501  0.00000000000E+00  0.00000000000E+00  0.97258757836E+03  0.97258757836E+03  0.25500000920E-02 0. -1.
        2   -1    0    0  501    0  0.00000000000E+00  0.00000000000E+00 -0.44574186563E+03  0.44574186564E+03  0.25500000920E-02 0.  1.
    10030    2    1    2    0    0  0.00000000000E+00  0.00000000000E+00  0.52684571273E+03  0.14183294440E+04  0.13168492726E+04 0.  0.
        5    1    3    3  502    0 -0.17546841040E+03  0.13023636522E+02  0.94677840112E+03  0.96300062772E+03  0.46999998093E+01 0. -1.
       -5    1    3    3    0  502  0.17546841040E+03 -0.13023636522E+02 -0.41993268839E+03  0.45532881628E+03  0.46999998093E+01 0.  1.
</event>
<event>
 5   0  0.1814770E-03  0.1273627E+04  0.7818609E-02  0.9050744E-01
        1   -1    0    0  501    0  0.00000000000E+00  0.00000000000E+00  0.14398958880E+04  0.14398958880E+04  0.50400001928E-02 0. -1.
       -1   -1    0    0    0  501  0.00000000000E+00  0.00000000000E+00 -0.28163959099E+03  0.28163959104E+03  0.50400001928E-02 0.  1.
    10030    2    1    2    0    0  0.00000000000E+00  0.00000000000E+00  0.11582562970E+04  0.17215354790E+04  0.12736274008E+04 0.  0.
        5    1    3    3  502    0 -0.33910173867E+03 -0.44142131222E+03  0.16105306361E+03  0.57948506740E+03  0.46999998093E+01 0.  1.
       -5    1    3    3    0  502  0.33910173867E+03  0.44142131222E+03  0.99720323338E+03  0.11420504116E+04  0.46999998093E+01 0. -1.
</event>
<event>
 5   0  0.1823154E-03  0.1348265E+04  0.7818609E-02  0.8992142E-01
       -1   -1    0    0    0  501  0.00000000000E+00  0.00000000000E+00  0.39955577629E+03  0.39955577633E+03  0.50400001928E-02 0.  1.
        1   -1    0    0  501    0  0.00000000000E+00  0.00000000000E+00 -0.11374004209E+04  0.11374004209E+04  0.50400001928E-02 0. -1.
    10030    2    1    2    0    0  0.00000000000E+00  0.00000000000E+00 -0.73784464456E+03  0.15369561972E+04  0.13482654162E+04 0.  0.
        2    1    3    3  502    0  0.41634195205E+03  0.53019728633E+03 -0.36634173312E+03  0.76723923837E+03  0.25500000920E-02 0.  1.
       -2    1    3    3    0  502 -0.41634195205E+03 -0.53019728633E+03 -0.37150291144E+03  0.76971695881E+03  0.25500000920E-02 0. -1.
</event>
<event>
 5   0  0.1814770E-03  0.1323853E+04  0.7818609E-02  0.9010861E-01
       -1   -1    0    0    0  501  0.00000000000E+00  0.00000000000E+00  0.61328927282E+03  0.61328927284E+03  0.50400001928E-02 0.  1.
        1   -1    0    0  501    0  0.00000000000E+00  0.00000000000E+00 -0.71442086712E+03  0.71442086713E+03  0.50400001928E-02 0. -1.
    10030    2    1    2    0    0  0.00000000000E+00  0.00000000000E+00 -0.10113159430E+03  0.13277101400E+04  0.13238529437E+04 0.  0.
        5    1    3    3  502    0  0.14344883391E+03  0.29256176801E+03  0.52726791698E+03  0.61984151387E+03  0.46999998093E+01 0.  1.
       -5    1    3    3    0  502 -0.14344883391E+03 -0.29256176801E+03 -0.62839951128E+03  0.70786862610E+03  0.46999998093E+01 0. -1.
</event>
<event>
 5   0  0.3299104E-03  0.1311494E+04  0.7818609E-02  0.9020500E-01
       -2   -1    0    0    0  501  0.00000000000E+00  0.00000000000E+00  0.40425601967E+03  0.40425601968E+03  0.25500000920E-02 0.  1.
        2   -1    0    0  501    0  0.00000000000E+00  0.00000000000E+00 -0.10636918423E+04  0.10636918423E+04  0.25500000920E-02 0. -1.
    10030    2    1    2    0    0  0.00000000000E+00  0.00000000000E+00 -0.65943582267E+03  0.14679478620E+04  0.13114935461E+04 0.  0.
        2    1    3    3  502    0 -0.60489751274E+03  0.34499793403E+02 -0.61046371144E+03  0.86009137867E+03  0.25500000920E-02 0. -1.
       -2    1    3    3    0  502  0.60489751274E+03 -0.34499793403E+02 -0.48972111221E+02  0.60785648335E+03  0.25500000920E-02 0.  1.
</event>
<event>
 5   0  0.3336609E-03  0.1309220E+04  0.7818609E-02  0.9022286E-01
        2   -1    0    0  501    0  0.00000000000E+00  0.00000000000E+00  0.11113013301E+04  0.11113013301E+04  0.25500000920E-02 0. -1.
       -2   -1    0    0    0  501  0.00000000000E+00  0.00000000000E+00 -0.38559654959E+03  0.38559654960E+03  0.25500000920E-02 0.  1.
    10030    2    1    2    0    0  0.00000000000E+00  0.00000000000E+00  0.72570478046E+03  0.14968978797E+04  0.13092195514E+04 0.  0.
        1    1    3    3  502    0 -0.17504646794E+03  0.21769933298E+02  0.10836161567E+04  0.10978793973E+04  0.50400001928E-02 0. -1.
       -1    1    3    3    0  502  0.17504646794E+03 -0.21769933298E+02 -0.35791137628E+03  0.39901848231E+03  0.50400001928E-02 0.  1.
</event>
<event>
 5   0  0.3336609E-03  0.1306087E+04  0.7818609E-02  0.9024752E-01
        2   -1    0    0  501    0  0.00000000000E+00  0.00000000000E+00  0.11531190033E+04  0.11531190033E+04  0.25500000920E-02 0.  1.
       -2   -1    0    0    0  501  0.00000000000E+00  0.00000000000E+00 -0.36983681969E+03  0.36983681970E+03  0.25500000920E-02 0. -1.
    10030    2    1    2    0    0  0.00000000000E+00  0.00000000000E+00  0.78328218364E+03  0.15229558230E+04  0.13060870797E+04 0.  0.
        1    1    3    3  502    0 -0.15169334613E+03  0.42102614348E+03 -0.16292559002E+03  0.47625479805E+03  0.50400001928E-02 0. -1.
       -1    1    3    3    0  502  0.15169334613E+03 -0.42102614348E+03  0.94620777366E+03  0.10467010250E+04  0.50400001928E-02 0.  1.
</event>
<event>
 5   0  0.3262927E-03  0.1282061E+04  0.7818609E-02  0.9043913E-01
       -2   -1    0    0    0  501  0.00000000000E+00  0.00000000000E+00  0.59198198162E+03  0.59198198162E+03  0.25500000920E-02 0. -1.
        2   -1    0    0  501    0  0.00000000000E+00  0.00000000000E+00 -0.69414325393E+03  0.69414325393E+03  0.25500000920E-02 0.  1.
    10030    2    1    2    0    0  0.00000000000E+00  0.00000000000E+00 -0.10216127231E+03  0.12861252356E+04  0.12820613074E+04 0.  0.
        3    1    3    3  502    0  0.47742297835E+03 -0.22972066133E+03 -0.41307903709E+03  0.67181737368E+03  0.10100000352E+00 0.  1.
       -3    1    3    3    0  502 -0.47742297835E+03  0.22972066133E+03  0.31091776478E+03  0.61430786187E+03  0.10100000352E+00 0. -1.
</event>
<event>
 5   0  0.1803959E-03  0.1284142E+04  0.7818609E-02  0.9042236E-01
       -1   -1    0    0    0  501  0.00000000000E+00  0.00000000000E+00  0.55974653863E+03  0.55974653865E+03  0.50400001928E-02 0. -1.
        1   -1    0    0  501    0  0.00000000000E+00  0.00000000000E+00 -0.73650367528E+03  0.73650367530E+03  0.50400001928E-02 0.  1.
    10030    2    1    2    0    0  0.00000000000E+00  0.00000000000E+00 -0.17675713665E+03  0.12962502140E+04  0.12841423332E+04 0.  0.
        4    1    3    3  502    0  0.11714420265E+03 -0.60047924921E+03  0.10828053271E+03  0.62130860255E+03  0.12699999809E+01 0.  1.
       -4    1    3    3    0  502 -0.11714420265E+03  0.60047924921E+03 -0.28503766936E+03  0.67494161140E+03  0.12699999809E+01 0. -1.
</event>
<event>
 5   0  0.3262927E-03  0.1275673E+04  0.7818609E-02  0.9049082E-01
       -2   -1    0    0    0  501  0.00000000000E+00  0.00000000000E+00  0.93936999111E+03  0.93936999111E+03  0.25500000920E-02 0.  1.
        2   -1    0    0  501    0  0.00000000000E+00  0.00000000000E+00 -0.43309419012E+03  0.43309419013E+03  0.25500000920E-02 0. -1.
    10030    2    1    2    0    0  0.00000000000E+00  0.00000000000E+00  0.50627580099E+03  0.13724641812E+04  0.12756734465E+04 0.  0.
        3    1    3    3  502    0  0.60106134818E+03 -0.20966840866E+03  0.21010172844E+03  0.67035686941E+03  0.10100000352E+00 0.  1.
       -3    1    3    3    0  502 -0.60106134818E+03  0.20966840866E+03  0.29617407255E+03  0.70210731183E+03  0.10100000352E+00 0. -1.
</event>
<event>
 5   0  0.1823154E-03  0.1373441E+04  0.7818609E-02  0.8973271E-01
       -1   -1    0    0    0  501  0.00000000000E+00  0.00000000000E+00  0.89240814215E+03  0.89240814217E+03  0.50400001928E-02 0.  1.
        1   -1    0    0  501    0  0.00000000000E+00  0.00000000000E+00 -0.52844061275E+03  0.52844061278E+03  0.50400001928E-02 0. -1.
    10030    2    1    2    0    0  0.00000000000E+00  0.00000000000E+00  0.36396752940E+03  0.14208487549E+04  0.13734405054E+04 0.  0.
        2    1    3    3  502    0 -0.42967877099E+03 -0.50031837403E+03 -0.16045721010E+02  0.65969673851E+03  0.25500000920E-02 0.  1.
       -2    1    3    3    0  502  0.42967877099E+03  0.50031837403E+03  0.38001325041E+03  0.76115201644E+03  0.25500000920E-02 0. -1.
</event>
<event>
 5   0  0.3294720E-03  0.1076181E+04  0.7818609E-02  0.9228724E-01
       -2   -1    0    0    0  501  0.00000000000E+00  0.00000000000E+00  0.30118126718E+03  0.30118126719E+03  0.25500000920E-02 0. -1.
        2   -1    0    0  501    0  0.00000000000E+00  0.00000000000E+00 -0.96135238096E+03  0.96135238097E+03  0.25500000920E-02 0.  1.
    10030    2    1    2    0    0  0.00000000000E+00  0.00000000000E+00 -0.66017111378E+03  0.12625336482E+04  0.10761808924E+04 0.  0.
        5    1    3    3  502    0 -0.28401588810E+03  0.32804498725E+03  0.43194900954E+02  0.43608075837E+03  0.46999998093E+01 0. -1.
       -5    1    3    3    0  502  0.28401588810E+03 -0.32804498725E+03 -0.70336601473E+03  0.82645288979E+03  0.46999998093E+01 0.  1.
</event>
<event>
 5   0  0.3262927E-03  0.1290221E+04  0.7818609E-02  0.9037356E-01
       -2   -1    0    0    0  501  0.00000000000E+00  0.00000000000E+00  0.26324211377E+03  0.26324211378E+03  0.25500000920E-02 0.  1.
        2   -1    0    0  501    0  0.00000000000E+00  0.00000000000E+00 -0.15809313776E+04  0.15809313776E+04  0.25500000920E-02 0. -1.
    10030    2    1    2    0    0  0.00000000000E+00  0.00000000000E+00 -0.13176892638E+04  0.18441734914E+04  0.12902212486E+04 0.  0.
        3    1    3    3  502    0  0.44665788342E+03  0.11898471576E+03 -0.13020618936E+04  0.13816750024E+04  0.10100000352E+00 0. -1.
       -3    1    3    3    0  502 -0.44665788342E+03 -0.11898471576E+03 -0.15627370264E+02  0.46249848898E+03  0.10100000352E+00 0.  1.
</event>
<event>
 5   0  0.1823154E-03  0.1317769E+04  0.7818609E-02  0.9015592E-01
        1   -1    0    0  501    0  0.00000000000E+00  0.00000000000E+00  0.55183736345E+03  0.55183736347E+03  0.50400001928E-02 0.  1.
       -1   -1    0    0    0  501  0.00000000000E+00  0.00000000000E+00 -0.78669703008E+03  0.78669703010E+03  0.50400001928E-02 0. -1.
    10030    2    1    2    0    0  0.00000000000E+00  0.00000000000E+00 -0.23485966663E+03  0.13385343936E+04  0.13177690464E+04 0.  0.
        2    1    3    3  502    0 -0.32546591554E+03  0.61126223385E+02  0.46116388951E+03  0.56774695979E+03  0.25500000920E-02 0.  1.
       -2    1    3    3    0  502  0.32546591554E+03 -0.61126223385E+02 -0.69602355614E+03  0.77078743378E+03  0.25500000920E-02 0. -1.
</event>
<event>
 5   0  0.1823154E-03  0.1290091E+04  0.7818609E-02  0.9037460E-01
       -1   -1    0    0    0  501  0.00000000000E+00  0.00000000000E+00  0.16116421561E+03  0.16116421569E+03  0.50400001928E-02 0. -1.
        1   -1    0    0  501    0  0.00000000000E+00  0.00000000000E+00 -0.25817386649E+04  0.25817386649E+04  0.50400001928E-02 0.  1.
    10030    2    1    2    0    0  0.00000000000E+00  0.00000000000E+00 -0.24205744493E+04  0.27429028806E+04  0.12900912943E+04 0.  0.
        2    1    3    3  502    0  0.18713751418E+03  0.35051608386E+03 -0.12992419637E+03  0.41804577628E+03  0.25500000920E-02 0. -1.
       -2    1    3    3    0  502 -0.18713751418E+03 -0.35051608386E+03 -0.22906502529E+04  0.23248571043E+04  0.25500000920E-02 0.  1.
</event>
<event>
 5   0  0.1814770E-03  0.1391238E+04  0.7818609E-02  0.8960186E-01
        1   -1    0    0  501    0  0.00000000000E+00  0.00000000000E+00  0.70934459068E+03  0.70934459070E+03  0.50400001928E-02 0. -1.
       -1   -1    0    0    0  501  0.00000000000E+00  0.00000000000E+00 -0.68215859579E+03  0.68215859581E+03  0.50400001928E-02 0.  1.
    10030    2    1    2    0    0  0.00000000000E+00  0.00000000000E+00  0.27185994887E+02  0.13915031865E+04  0.13912375928E+04 0.  0.
        5    1    3    3  502    0 -0.10747488638E+03 -0.30523348494E+03  0.62945813147E+03  0.70778383763E+03  0.46999998093E+01 0. -1.
       -5    1    3    3    0  502  0.10747488638E+03  0.30523348494E+03 -0.60227213659E+03  0.68371934888E+03  0.46999998093E+01 0.  1.
</event>
<event>
 5   0  0.3299104E-03  0.1294106E+04  0.7818609E-02  0.9034252E-01
       -2   -1    0    0    0  501  0.00000000000E+00  0.00000000000E+00  0.61924762030E+03  0.61924762030E+03  0.25500000920E-02 0. -1.
        2   -1    0    0  501    0  0.00000000000E+00  0.00000000000E+00 -0.67610704334E+03  0.67610704334E+03  0.25500000920E-02 0.  1.
    10030    2    1    2    0    0  0.00000000000E+00  0.00000000000E+00 -0.56859423041E+02  0.12953546636E+04  0.12941061435E+04 0.  0.
        2    1    3    3  502    0 -0.59194807883E+03 -0.16098031431E+03  0.17758549195E+03  0.63863432149E+03  0.25500000920E-02 0. -1.
       -2    1    3    3    0  502  0.59194807883E+03  0.16098031431E+03 -0.23444491500E+03  0.65672034215E+03  0.25500000920E-02 0.  1.
</event>
<event>
 5   0  0.3299104E-03  0.1360308E+04  0.7818609E-02  0.8983062E-01
        2   -1    0    0  501    0  0.00000000000E+00  0.00000000000E+00  0.63521052222E+03  0.63521052223E+03  0.25500000920E-02 0.  1.
       -2   -1    0    0    0  501  0.00000000000E+00  0.00000000000E+00 -0.72827718119E+03  0.72827718120E+03  0.25500000920E-02 0. -1.
    10030    2    1    2    0    0  0.00000000000E+00  0.00000000000E+00 -0.93066658970E+02  0.13634877034E+04  0.13603078013E+04 0.  0.
        2    1    3    3  502    0  0.33915991927E+03 -0.53988175583E+03  0.19089074683E+03  0.66553815694E+03  0.25500000920E-02 0.  1.
       -2    1    3    3    0  502 -0.33915991927E+03  0.53988175583E+03 -0.28395740580E+03  0.69794954648E+03  0.25500000920E-02 0. -1.
</event>
<event>
 5   0  0.1873488E-03  0.1125499E+04  0.7818609E-02  0.9180689E-01
        1   -1    0    0  501    0  0.00000000000E+00  0.00000000000E+00  0.87925719887E+03  0.87925719889E+03  0.50400001928E-02 0.  1.
       -1   -1    0    0    0  501  0.00000000000E+00  0.00000000000E+00 -0.36017561294E+03  0.36017561298E+03  0.50400001928E-02 0. -1.
    10030    2    1    2    0    0  0.00000000000E+00  0.00000000000E+00  0.51908158593E+03  0.12394328119E+04  0.11254990015E+04 0.  0.
        3    1    3    3  502    0 -0.38385197097E+03 -0.19755352381E+03 -0.13799738707E+03  0.45322513106E+03  0.10100000352E+00 0. -1.
       -3    1    3    3    0  502  0.38385197097E+03  0.19755352381E+03  0.65707897301E+03  0.78620768080E+03  0.10100000352E+00 0.  1.
</event>
<event>
 5   0  0.3259968E-03  0.1288675E+04  0.7818609E-02  0.9038594E-01
        2   -1    0    0  501    0  0.00000000000E+00  0.00000000000E+00  0.18231947934E+04  0.18231947934E+04  0.25500000920E-02 0.  1.
       -2   -1    0    0    0  501  0.00000000000E+00  0.00000000000E+00 -0.22771620394E+03  0.22771620395E+03  0.25500000920E-02 0. -1.
    10030    2    1    2    0    0  0.00000000000E+00  0.00000000000E+00  0.15954785895E+04  0.20509109974E+04  0.12886752848E+04 0.  0.
        4    1    3    3  502    0  0.10595111370E+03  0.57490757207E+03  0.36649299703E+03  0.68997324925E+03  0.12699999809E+01 0. -1.
       -4    1    3    3    0  502 -0.10595111370E+03 -0.57490757207E+03  0.12289855924E+04  0.13609377481E+04  0.12699999809E+01 0.  1.
</event>
<event>
 5   0  0.1857986E-03  0.1360335E+04  0.7818609E-02  0.8983042E-01
        1   -1    0    0  501    0  0.00000000000E+00  0.00000000000E+00  0.57602528499E+03  0.57602528501E+03  0.50400001928E-02 0. -1.
       -1   -1    0    0    0  501  0.00000000000E+00  0.00000000000E+00 -0.80313764818E+03  0.80313764820E+03  0.50400001928E-02 0.  1.
    10030    2    1    2    0    0  0.00000000000E+00  0.00000000000E+00 -0.22711236320E+03  0.13791629332E+04  0.13603346540E+04 0.  0.
        1    1    3    3  502    0 -0.56422092814E+03  0.34226202762E+03  0.53463274965E+02  0.66207769416E+03  0.50400001928E-02 0.  1.
       -1    1    3    3    0  502  0.56422092814E+03 -0.34226202762E+03 -0.28057563816E+03  0.71708523905E+03  0.50400001928E-02 0. -1.
</event>
<event>
 5   0  0.3299104E-03  0.1291970E+04  0.7818609E-02  0.9035957E-01
        2   -1    0    0  501    0  0.00000000000E+00  0.00000000000E+00  0.10940966404E+04  0.10940966404E+04  0.25500000920E-02 0. -1.
       -2   -1    0    0    0  501  0.00000000000E+00  0.00000000000E+00 -0.38140740082E+03  0.38140740083E+03  0.25500000920E-02 0.  1.
    10030    2    1    2    0    0  0.00000000000E+00  0.00000000000E+00  0.71268923959E+03  0.14755040412E+04  0.12919699004E+04 0.  0.
        2    1    3    3  502    0 -0.16721755448E+03  0.57538098929E+03  0.63203165268E+03  0.87091274153E+03  0.25500000920E-02 0. -1.
       -2    1    3    3    0  502  0.16721755448E+03 -0.57538098929E+03  0.80657586908E+02  0.60459129972E+03  0.25500000920E-02 0.  1.
</event>
<event>
 5   0  0.1873488E-03  0.1310788E+04  0.7818609E-02  0.9021054E-01
       -1   -1    0    0    0  501  0.00000000000E+00  0.00000000000E+00  0.23858265424E+03  0.23858265429E+03  0.50400001928E-02 0.  1.
        1   -1    0    0  501    0  0.00000000000E+00  0.00000000000E+00 -0.18003877936E+04  0.18003877937E+04  0.50400001928E-02 0. -1.
    10030    2    1    2    0    0  0.00000000000E+00  0.00000000000E+00 -0.15618051394E+04  0.20389704479E+04  0.13107880050E+04 0.  0.
        3    1    3    3  502    0 -0.31917514030E+03 -0.42918576786E+03 -0.13700936159E+04  0.14707922083E+04  0.10100000352E+00 0. -1.
       -3    1    3    3    0  502  0.31917514030E+03  0.42918576786E+03 -0.19171152349E+03  0.56817823961E+03  0.10100000352E+00 0.  1.
</event>
<event>
 5   0  0.3336609E-03  0.1314991E+04  0.7818609E-02  0.9017761E-01
        2   -1    0    0  501    0  0.00000000000E+00  0.00000000000E+00  0.20043656543E+04  0.20043656543E+04  0.25500000920E-02 0. -1.
       -2   -1    0    0    0  501  0.00000000000E+00  0.00000000000E+00 -0.21567943165E+03  0.21567943166E+03  0.25500000920E-02 0.  1.
    10030    2    1    2    0    0  0.00000000000E+00  0.00000000000E+00  0.17886862226E+04  0.22200450859E+04  0.13149911713E+04 0.  0.
        1    1    3    3  502    0  0.60963829818E+01  0.62056801568E+03  0.12609659267E+04  0.14054098678E+04  0.50400001928E-02 0. -1.
       -1    1    3    3    0  502 -0.60963829818E+01 -0.62056801568E+03  0.52772029589E+03  0.81463521817E+03  0.50400001928E-02 0.  1.
</event>
<event>
 5   0  0.3294720E-03  0.1317210E+04  0.7818609E-02  0.9016028E-01
       -2   -1    0    0    0  501  0.00000000000E+00  0.00000000000E+00  0.39907561689E+03  0.39907561690E+03  0.25500000920E-02 0. -1.
        2   -1    0    0  501    0  0.00000000000E+00  0.00000000000E+00 -0.10869133461E+04  0.10869133461E+04  0.25500000920E-02 0.  1.
    10030    2    1    2    0    0  0.00000000000E+00  0.00000000000E+00 -0.68783772924E+03  0.14859889630E+04  0.13172101034E+04 0.  0.
        5    1    3    3  502    0  0.41511483689E+03 -0.12201829595E+03 -0.90405705261E+03  0.10022724364E+04  0.46999998093E+01 0.  1.
       -5    1    3    3    0  502 -0.41511483689E+03  0.12201829595E+03  0.21621932337E+03  0.48371652665E+03  0.46999998093E+01 0. -1.
</event>
<event>
 5   0  0.1857986E-03  0.1300871E+04  0.7818609E-02  0.9028875E-01
       -1   -1    0    0    0  501  0.00000000000E+00  0.00000000000E+00  0.36301789725E+03  0.36301789728E+03  0.50400001928E-02 0.  1.
        1   -1    0    0  501    0  0.00000000000E+00  0.00000000000E+00 -0.11654142199E+04  0.11654142199E+04  0.50400001928E-02 0. -1.
    10030    2    1    2    0    0  0.00000000000E+00  0.00000000000E+00 -0.80239632268E+03  0.15284321172E+04  0.13008708154E+04 0.  0.
        1    1    3    3  502    0  0.57248816313E+03  0.13155831376E+03 -0.73024564518E+02  0.59193147736E+03  0.50400001928E-02 0.  1.
       -1    1    3    3    0  502 -0.57248816313E+03 -0.13155831376E+03 -0.72937175816E+03  0.93650063986E+03  0.50400001928E-02 0. -1.
</event>
<event>
 5   0  0.1803959E-03  0.1322042E+04  0.7818609E-02  0.9012266E-01
       -1   -1    0    0    0  501  0.00000000000E+00  0.00000000000E+00  0.99458031814E+03  0.99458031815E+03  0.50400001928E-02 0. -1.
        1   -1    0    0  501    0  0.00000000000E+00  0.00000000000E+00 -0.43933008564E+03  0.43933008567E+03  0.50400001928E-02 0.  1.
    10030    2    1    2    0    0  0.00000000000E+00  0.00000000000E+00  0.55525023250E+03  0.14339104038E+04  0.13220424447E+04 0.  0.
        4    1    3    3  502    0  0.35110442712E+03  0.51482738848E+03  0.38453093961E+02  0.62434110229E+03  0.12699999809E+01 0. -1.
       -4    1    3    3    0  502 -0.35110442712E+03 -0.51482738848E+03  0.51679713854E+03  0.80956930153E+03  0.12699999809E+01 0.  1.
</event>
<event>
 5   0  0.1803959E-03  0.1357069E+04  0.7818609E-02  0.8985494E-01
        1   -1    0    0  501    0  0.00000000000E+00  0.00000000000E+00  0.53139716642E+03  0.53139716645E+03  0.50400001928E-02 0.  1.
       -1   -1    0    0    0  501  0.00000000000E+00  0.00000000000E+00 -0.86641185518E+03  0.86641185519E+03  0.50400001928E-02 0. -1.
    10030    2    1    2    0    0  0.00000000000E+00  0.00000000000E+00 -0.33501468875E+03  0.13978090216E+04  0.13570686126E+04 0.  0.
        4    1    3    3  502    0  0.33211954777E+03  0.16483277756E+03 -0.75284018041E+03  0.83919198561E+03  0.12699999809E+01 0. -1.
       -4    1    3    3    0  502 -0.33211954777E+03 -0.16483277756E+03  0.41782549165E+03  0.55861703603E+03  0.12699999809E+01 0.  1.
</event>
<event>
 5   0  0.3299104E-03  0.1284495E+04  0.7818609E-02  0.9041952E-01
        2   -1    0    0  501    0  0.00000000000E+00  0.00000000000E+00  0.11639398778E+04  0.11639398778E+04  0.25500000920E-02 0.  1.
       -2   -1    0    0    0  501  0.00000000000E+00  0.00000000000E+00 -0.35438426499E+03  0.35438426500E+03  0.25500000920E-02 0. -1.
    10030    2    1    2    0    0  0.00000000000E+00  0.00000000000E+00  0.80955561283E+03  0.15183241428E+04  0.12844951975E+04 0.  0.
        2    1    3    3  502    0 -0.49775051008E+03  0.22004893516E+03  0.80789467374E+03  0.97410005031E+03  0.25500000920E-02 0.  1.
       -2    1    3    3    0  502  0.49775051008E+03 -0.22004893516E+03  0.16609390847E+01  0.54422409251E+03  0.25500000920E-02 0. -1.
</event>
<event>
 5   0  0.3299104E-03  0.1236503E+04  0.7818609E-02  0.9081492E-01
       -2   -1    0    0    0  501  0.00000000000E+00  0.00000000000E+00  0.16663838066E+03  0.16663838068E+03  0.25500000920E-02 0.  1.
        2   -1    0    0  501    0  0.00000000000E+00  0.00000000000E+00 -0.22937986097E+04  0.22937986097E+04  0.25500000920E-02 0. -1.
    10030    2    1    2    0    0  0.00000000000E+00  0.00000000000E+00 -0.21271602290E+04  0.24604369903E+04  0.12365029493E+04 0.  0.
        2    1    3    3  502    0 -0.60467571344E+02 -0.41419629952E+03 -0.15821610427E+03  0.44748992992E+03  0.25500000920E-02 0.  1.
       -2    1    3    3    0  502  0.60467571344E+02  0.41419629952E+03 -0.19689441247E+04  0.20129470604E+04  0.25500000920E-02 0. -1.
</event>
<event>
 5   0  0.3259968E-03  0.1300649E+04  0.7818609E-02  0.9029050E-01
       -2   -1    0    0    0  501  0.00000000000E+00  0.00000000000E+00  0.56755889855E+03  0.56755889856E+03  0.25500000920E-02 0.  1.
        2   -1    0    0  501    0  0.00000000000E+00  0.00000000000E+00 -0.74515997734E+03  0.74515997734E+03  0.25500000920E-02 0. -1.
    10030    2    1    2    0    0  0.00000000000E+00  0.00000000000E+00 -0.17760107879E+03  0.13127188759E+04  0.13006493394E+04 0.  0.
        4    1    3    3  502    0 -0.38454721054E+03 -0.35270087269E+03 -0.48053380449E+03  0.70935802870E+03  0.12699999809E+01 0.  1.
       -4    1    3    3    0  502  0.38454721054E+03  0.35270087269E+03  0.30293272570E+03  0.60336084720E+03  0.12699999809E+01 0. -1.
</event>
<event>
 5   0  0.3294720E-03  0.1253257E+04  0.7818609E-02  0.9067477E-01
       -2   -1    0    0    0  501  0.00000000000E+00  0.00000000000E+00  0.15131408562E+03  0.15131408564E+03  0.25500000920E-02 0. -1.
        2   -1    0    0  501    0  0.00000000000E+00  0.00000000000E+00 -0.25950206041E+04  0.25950206041E+04  0.25500000920E-02 0.  1.
    10030    2    1    2    0    0  0.00000000000E+00  0.00000000000E+00 -0.24437065185E+04  0.27463346897E+04  0.12532568291E+04 0.  0.
        5    1    3    3  502    0 -0.54172756523E+03  0.22127586099E+03 -0.17128804539E+04  0.18100865451E+04  0.46999998093E+01 0. -1.
       -5    1    3    3    0  502  0.54172756523E+03 -0.22127586099E+03 -0.73082606459E+03  0.93624814460E+03  0.46999998093E+01 0.  1.
</event>
<event>
 5   0  0.3299104E-03  0.1302288E+04  0.7818609E-02  0.9027753E-01
       -2   -1    0    0    0  501  0.00000000000E+00  0.00000000000E+00  0.30955793939E+03  0.30955793940E+03  0.25500000920E-02 0.  1.
        2   -1    0    0  501    0  0.00000000000E+00  0.00000000000E+00 -0.13696576916E+04  0.13696576916E+04  0.25500000920E-02 0. -1.
    10030    2    1    2    0    0  0.00000000000E+00  0.00000000000E+00 -0.10600997522E+04  0.16792156310E+04  0.13022878525E+04 0.  0.
        2    1    3    3  502    0 -0.27456842219E+03  0.34309392942E+03 -0.11496326861E+04  0.12307544743E+04  0.25500000920E-02 0. -1.
       -2    1    3    3    0  502  0.27456842219E+03 -0.34309392942E+03  0.89532933905E+02  0.44846115676E+03  0.25500000920E-02 0.  1.
</event>
<event>
 5   0  0.3336609E-03  0.1304954E+04  0.7818609E-02  0.9025646E-01
       -2   -1    0    0    0  501  0.00000000000E+00  0.00000000000E+00  0.33193073565E+03  0.33193073566E+03  0.25500000920E-02 0. -1.
        2   -1    0    0  501    0  0.00000000000E+00  0.00000000000E+00 -0.12825757718E+04  0.12825757718E+04  0.25500000920E-02 0.  1.
    10030    2    1    2    0    0  0.00000000000E+00  0.00000000000E+00 -0.95064503619E+03  0.16145065075E+04  0.13049541287E+04 0.  0.
        1    1    3    3  502    0  0.11775413031E+03  0.53638644421E+03 -0.91125344701E+03  0.10639357581E+04  0.50400001928E-02 0.  1.
       -1    1    3    3    0  502 -0.11775413031E+03 -0.53638644421E+03 -0.39391589184E+02  0.55057074937E+03  0.50400001928E-02 0. -1.
</event>
<event>
 5   0  0.3259968E-03  0.1301924E+04  0.7818609E-02  0.9028041E-01
        2   -1    0    0  501    0  0.00000000000E+00  0.00000000000E+00  0.11951052023E+04  0.11951052023E+04  0.25500000920E-02 0. -1.
       -2   -1    0    0    0  501  0.00000000000E+00  0.00000000000E+00 -0.35457275897E+03  0.35457275898E+03  0.25500000920E-02 0.  1.
    10030    2    1    2    0    0  0.00000000000E+00  0.00000000000E+00  0.84053244328E+03  0.15496779612E+04  0.13019243432E+04 0.  0.
        4    1    3    3  502    0 -0.14045966505E+03 -0.23863259628E+03  0.11215080525E+04  0.11551867200E+04  0.12699999809E+01 0. -1.
       -4    1    3    3    0  502  0.14045966505E+03  0.23863259628E+03 -0.28097560919E+03  0.39449124119E+03  0.12699999809E+01 0.  1.
</event>
<event>
 5   0  0.3259968E-03  0.1311313E+04  0.7818609E-02  0.9020642E-01
       -2   -1    0    0    0  501  0.00000000000E+00  0.00000000000E+00  0.79939543204E+03  0.79939543204E+03  0.25500000920E-02 0.  1.
        2   -1    0    0  501    0  0.00000000000E+00  0.00000000000E+00 -0.53776325537E+03  0.53776325537E+03  0.25500000920E-02 0. -1.
    10030    2    1    2    0    0  0.00000000000E+00  0.00000000000E+00  0.26163217667E+03  0.13371586874E+04  0.13113130669E+04 0.  0.
        4    1    3    3  502    0  0.19896956470E+03  0.31054308031E+03  0.68358716293E+03  0.77673606498E+03  0.12699999809E+01 0.  1.
       -4    1    3    3    0  502 -0.19896956470E+03 -0.31054308031E+03 -0.42195498626E+03  0.56042262244E+03  0.12699999809E+01 0. -1.
</event>
<event>
 5   0  0.3294720E-03  0.1270262E+04  0.7818609E-02  0.9053486E-01
       -2   -1    0    0    0  501  0.00000000000E+00  0.00000000000E+00  0.29761309882E+03  0.29761309883E+03  0.25500000920E-02 0. -1.
        2   -1    0    0  501    0  0.00000000000E+00  0.00000000000E+00 -0.13554229070E+04  0.13554229070E+04  0.25500000920E-02 0.  1.
    10030    2    1    2    0    0  0.00000000000E+00  0.00000000000E+00 -0.10578098082E+04  0.16530360059E+04  0.12702623534E+04 0.  0.
        5    1    3    3  502    0 -0.36013643980E+03  0.28504749957E+03 -0.10997431678E+04  0.11918084818E+04  0.46999998093E+01 0.  1.
       -5    1    3    3    0  502  0.36013643980E+03 -0.28504749957E+03  0.41933359580E+02  0.46122752403E+03  0.46999998093E+01 0. -1.
</event>
<event>
 5   0  0.1823154E-03  0.1232284E+04  0.7818609E-02  0.9085059E-01
        1   -1    0    0  501    0  0.00000000000E+00  0.00000000000E+00  0.13401282922E+04  0.13401282922E+04  0.50400001928E-02 0. -1.
       -1   -1    0    0    0  501  0.00000000000E+00  0.00000000000E+00 -0.28327938654E+03  0.28327938659E+03  0.50400001928E-02 0.  1.
    10030    2    1    2    0    0  0.00000000000E+00  0.00000000000E+00  0.10568489056E+04  0.16234076788E+04  0.12322836046E+04 0.  0.
        2    1    3    3  502    0  0.81096411207E+01  0.60588698485E+03  0.38133585059E+03  0.71594820737E+03  0.25500000920E-02 0. -1.
       -2    1    3    3    0  502 -0.81096411207E+01 -0.60588698485E+03  0.67551305502E+03  0.90745947138E+03  0.25500000920E-02 0.  1.
</event>
<event>
 5   0  0.3294720E-03  0.9918896E+03  0.7818609E-02  0.9317485E-01
       -2   -1    0    0    0  501  0.00000000000E+00  0.00000000000E+00  0.18205202172E+03  0.18205202174E+03  0.25500000920E-02 0.  1.
        2   -1    0    0  501    0  0.00000000000E+00  0.00000000000E+00 -0.13510492088E+04  0.13510492088E+04  0.25500000920E-02 0. -1.
    10030    2    1    2    0    0  0.00000000000E+00  0.00000000000E+00 -0.11689971871E+04  0.15331012305E+04  0.99188959047E+03 0.  0.
        5    1    3    3  502    0 -0.26613965130E+03  0.96176172001E+02 -0.12139714312E+04  0.12465267329E+04  0.46999998093E+01 0. -1.
       -5    1    3    3    0  502  0.26613965130E+03 -0.96176172001E+02  0.44974244140E+02  0.28657449763E+03  0.46999998093E+01 0.  1.
</event>
<event>
 5   0  0.3262927E-03  0.1310190E+04  0.7818609E-02  0.9021523E-01
        2   -1    0    0  501    0  0.00000000000E+00  0.00000000000E+00  0.12208736167E+04  0.12208736167E+04  0.25500000920E-02 0.  1.
       -2   -1    0    0    0  501  0.00000000000E+00  0.00000000000E+00 -0.35151001227E+03  0.35151001228E+03  0.25500000920E-02 0. -1.
    10030    2    1    2    0    0  0.00000000000E+00  0.00000000000E+00  0.86936360445E+03  0.15723836290E+04  0.13101897572E+04 0.  0.
        3    1    3    3  502    0 -0.25155862094E+02  0.20962480004E+03 -0.30956028451E+03  0.37470382189E+03  0.10100000352E+00 0. -1.
       -3    1    3    3    0  502  0.25155862094E+02 -0.20962480004E+03  0.11789238890E+04  0.11976798071E+04  0.10100000352E+00 0.  1.
</event>
<event>
 5   0  0.1254125E-03  0.1229621E+04  0.7818609E-02  0.9087317E-01
        4   -1    0    0  501    0  0.00000000000E+00  0.00000000000E+00  0.66633989189E+03  0.66634110215E+03  0.12699999809E+01 0. -1.
       -4   -1    0    0    0  501  0.00000000000E+00  0.00000000000E+00 -0.56726393085E+03  0.56726535250E+03  0.12699999809E+01 0.  1.
    10030    2    1    2    0    0  0.00000000000E+00  0.00000000000E+00  0.99075961033E+02  0.12336064547E+04  0.12296214210E+04 0.  0.
        2    1    3    3  502    0  0.56595854997E+03 -0.10897098735E+03  0.26426071399E+03  0.63404848500E+03  0.25500000920E-02 0. -1.
       -2    1    3    3    0  502 -0.56595854997E+03  0.10897098735E+03 -0.16518475295E+03  0.59955796966E+03  0.25500000920E-02 0.  1.
</event>
<event>
 5   0  0.1857986E-03  0.1311945E+04  0.7818609E-02  0.9020146E-01
        1   -1    0    0  501    0  0.00000000000E+00  0.00000000000E+00  0.11747466297E+04  0.11747466297E+04  0.50400001928E-02 0. -1.
       -1   -1    0    0    0  501  0.00000000000E+00  0.00000000000E+00 -0.36629174036E+03  0.36629174040E+03  0.50400001928E-02 0.  1.
    10030    2    1    2    0    0  0.00000000000E+00  0.00000000000E+00  0.80845488929E+03  0.15410383701E+04  0.13119451017E+04 0.  0.
        1    1    3    3  502    0  0.19267090998E+03  0.60964367561E+03  0.23194413815E+03  0.68013643780E+03  0.50400001928E-02 0. -1.
       -1    1    3    3    0  502 -0.19267090998E+03 -0.60964367561E+03  0.57651075114E+03  0.86090193226E+03  0.50400001928E-02 0.  1.
</event>
<event>
 5   0  0.1814770E-03  0.1319229E+04  0.7818609E-02  0.9014454E-01
       -1   -1    0    0    0  501  0.00000000000E+00  0.00000000000E+00  0.43166572202E+03  0.43166572205E+03  0.50400001928E-02 0.  1.
        1   -1    0    0  501    0  0.00000000000E+00  0.00000000000E+00 -0.10079358121E+04  0.10079358121E+04  0.50400001928E-02 0. -1.
    10030    2    1    2    0    0  0.00000000000E+00  0.00000000000E+00 -0.57627009007E+03  0.14396015342E+04  0.13192290781E+04 0.  0.
        5    1    3    3  502    0 -0.12217968650E+03 -0.58788198575E+03  0.97889956417E+01  0.60054227111E+03  0.46999998093E+01 0.  1.
       -5    1    3    3    0  502  0.12217968650E+03  0.58788198575E+03 -0.58605908571E+03  0.83905926304E+03  0.46999998093E+01 0. -1.
</event>
<event>
 5   0  0.1814770E-03  0.1295132E+04  0.7818609E-02  0.9033435E-01
        1   -1    0    0  501    0  0.00000000000E+00  0.00000000000E+00  0.90704060067E+03  0.90704060069E+03  0.50400001928E-02 0. -1.
       -1   -1    0    0    0  501  0.00000000000E+00  0.00000000000E+00 -0.46231843971E+03  0.46231843974E+03  0.50400001928E-02 0.  1.
    10030    2    1    2    0    0  0.00000000000E+00  0.00000000000E+00  0.44472216097E+03  0.13693590404E+04  0.12951318007E+04 0.  0.
        5    1    3    3  502    0 -0.35181051963E+03 -0.49160012782E+03 -0.23058842851E+02  0.60497531158E+03  0.46999998093E+01 0.  1.
       -5    1    3    3    0  502  0.35181051963E+03  0.49160012782E+03  0.46778100382E+03  0.76438372884E+03  0.46999998093E+01 0. -1.
</event>
<event>
 5   0  0.1254125E-03  0.1299811E+04  0.7818609E-02  0.9029715E-01
        3   -1    0    0  501    0  0.00000000000E+00  0.00000000000E+00  0.60997185846E+03  0.60997186682E+03  0.10100000352E+00 0. -1.
       -3   -1    0    0    0  501  0.00000000000E+00  0.00000000000E+00 -0.69245397798E+03  0.69245398535E+03  0.10100000352E+00 0.  1.
    10030    2    1    2    0    0  0.00000000000E+00  0.00000000000E+00 -0.82482119526E+02  0.13024258522E+04  0.12998114480E+04 0.  0.
        5    1    3    3  502    0 -0.58784349035E+03 -0.19515316642E+03 -0.23838697562E+03  0.66369809978E+03  0.46999998093E+01 0.  1.
       -5    1    3    3    0  502  0.58784349035E+03  0.19515316642E+03  0.15590485609E+03  0.63872775238E+03  0.46999998093E+01 0. -1.
</event>
<event>
 5   0  0.3336609E-03  0.1296450E+04  0.7818609E-02  0.9032385E-01
        2   -1    0    0  501    0  0.00000000000E+00  0.00000000000E+00  0.13833970947E+04  0.13833970947E+04  0.25500000920E-02 0.  1.
       -2   -1    0    0    0  501  0.00000000000E+00  0.00000000000E+00 -0.30374187431E+03  0.30374187432E+03  0.25500000920E-02 0. -1.
    10030    2    1    2    0    0  0.00000000000E+00  0.00000000000E+00  0.10796552204E+04  0.16871389690E+04  0.12964499627E+04 0.  0.
        1    1    3    3  502    0  0.25539112809E+03 -0.50966382707E+03  0.94138257895E+03  0.11005375981E+04  0.50400001928E-02 0.  1.
       -1    1    3    3    0  502 -0.25539112809E+03  0.50966382707E+03  0.13827264142E+03  0.58660137088E+03  0.50400001928E-02 0. -1.
</event>
<event>
 5   0  0.3336609E-03  0.1280142E+04  0.7818609E-02  0.9045463E-01
        2   -1    0    0  501    0  0.00000000000E+00  0.00000000000E+00  0.10838871988E+04  0.10838871988E+04  0.25500000920E-02 0.  1.
       -2   -1    0    0    0  501  0.00000000000E+00  0.00000000000E+00 -0.37798292723E+03  0.37798292724E+03  0.25500000920E-02 0. -1.
    10030    2    1    2    0    0  0.00000000000E+00  0.00000000000E+00  0.70590427154E+03  0.14618701260E+04  0.12801419549E+04 0.  0.
        1    1    3    3  502    0 -0.16052428941E+03 -0.22584905684E+02 -0.35415289068E+03  0.38948991701E+03  0.50400001928E-02 0. -1.
       -1    1    3    3    0  502  0.16052428941E+03  0.22584905684E+02  0.10600571622E+04  0.10723802090E+04  0.50400001928E-02 0.  1.
</event>
<event>
 5   0  0.1803959E-03  0.1332237E+04  0.7818609E-02  0.9004385E-01
       -1   -1    0    0    0  501  0.00000000000E+00  0.00000000000E+00  0.50008638572E+03  0.50008638574E+03  0.50400001928E-02 0.  1.
        1   -1    0    0  501    0  0.00000000000E+00  0.00000000000E+00 -0.88727431015E+03  0.88727431017E+03  0.50400001928E-02 0. -1.
    10030    2    1    2    0    0  0.00000000000E+00  0.00000000000E+00 -0.38718792444E+03  0.13873606959E+04  0.13322369203E+04 0.  0.
        4    1    3    3  502    0 -0.33075546096E+03  0.37521593958E+03  0.26452429216E+03  0.56582761537E+03  0.12699999809E+01 0.  1.
       -4    1    3    3    0  502  0.33075546096E+03 -0.37521593958E+03 -0.65171221660E+03  0.82153308055E+03  0.12699999809E+01 0. -1.
</event>
<event>
 5   0  0.3299104E-03  0.1298729E+04  0.7818609E-02  0.9030574E-01
        2   -1    0    0  501    0  0.00000000000E+00  0.00000000000E+00  0.16173696392E+04  0.16173696392E+04  0.25500000920E-02 0. -1.
       -2   -1    0    0    0  501  0.00000000000E+00  0.00000000000E+00 -0.26071596134E+03  0.26071596135E+03  0.25500000920E-02 0.  1.
    10030    2    1    2    0    0  0.00000000000E+00  0.00000000000E+00  0.13566536779E+04  0.18780856006E+04  0.12987287328E+04 0.  0.
        2    1    3    3  502    0 -0.47259999657E+03  0.25986391199E+03  0.15533975599E+03  0.56125791693E+03  0.25500000920E-02 0.  1.
       -2    1    3    3    0  502  0.47259999657E+03 -0.25986391199E+03  0.12013139219E+04  0.13168276837E+04  0.25500000920E-02 0. -1.
</event>
<event>
 5   0  0.1254125E-03  0.1271052E+04  0.7818609E-02  0.9052841E-01
       -3   -1    0    0    0  501  0.00000000000E+00  0.00000000000E+00  0.15538957545E+04  0.15538957578E+04  0.10100000352E+00 0. -1.
        3   -1    0    0  501    0  0.00000000000E+00  0.00000000000E+00 -0.25992320895E+03  0.25992322857E+03  0.10100000352E+00 0.  1.
    10030    2    1    2    0    0  0.00000000000E+00  0.00000000000E+00  0.12939725456E+04  0.18138189864E+04  0.12710524642E+04 0.  0.
        2    1    3    3  502    0 -0.26647627420E+03  0.16019618074E+03  0.14379490327E+04  0.14711797448E+04  0.25500000920E-02 0. -1.
       -2    1    3    3    0  502  0.26647627420E+03 -0.16019618074E+03 -0.14397648707E+03  0.34263924158E+03  0.25500000920E-02 0.  1.
</event>
<event>
 5   0  0.3294720E-03  0.1305180E+04  0.7818609E-02  0.9025468E-01
       -2   -1    0    0    0  501  0.00000000000E+00  0.00000000000E+00  0.11937572779E+04  0.11937572779E+04  0.25500000920E-02 0.  1.
        2   -1    0    0  501    0  0.00000000000E+00  0.00000000000E+00 -0.35675054015E+03  0.35675054016E+03  0.25500000920E-02 0. -1.
    10030    2    1    2    0    0  0.00000000000E+00  0.00000000000E+00  0.83700673770E+03  0.15505078180E+04  0.13051797634E+04 0.  0.
        5    1    3    3  502    0  0.45398904130E+03 -0.46369374677E+03  0.33677066099E+03  0.73113234678E+03  0.46999998093E+01 0. -1.
       -5    1    3    3    0  502 -0.45398904130E+03  0.46369374677E+03  0.50023607672E+03  0.81937547124E+03  0.46999998093E+01 0.  1.
</event>
<event>
 5   0  0.3294720E-03  0.1298067E+04  0.7818609E-02  0.9031099E-01
        2   -1    0    0  501    0  0.00000000000E+00  0.00000000000E+00  0.25121565209E+03  0.25121565210E+03  0.25500000920E-02 0. -1.
       -2   -1    0    0    0  501  0.00000000000E+00  0.00000000000E+00 -0.16768253542E+04  0.16768253542E+04  0.25500000920E-02 0.  1.
    10030    2    1    2    0    0  0.00000000000E+00  0.00000000000E+00 -0.14256097021E+04  0.19280410063E+04  0.12980674479E+04 0.  0.
        5    1    3    3  502    0  0.40920925599E+03 -0.28655023759E+03 -0.97411440581E+02  0.50899345045E+03  0.46999998093E+01 0. -1.
       -5    1    3    3    0  502 -0.40920925599E+03  0.28655023759E+03 -0.13281982615E+04  0.14190475559E+04  0.46999998093E+01 0.  1.
</event>
<event>
 5   0  0.1857986E-03  0.1667983E+04  0.7818609E-02  0.8779838E-01
        1   -1    0    0  501    0  0.00000000000E+00  0.00000000000E+00  0.16717930716E+04  0.16717930716E+04  0.50400001928E-02 0. -1.
       -1   -1    0    0    0  501  0.00000000000E+00  0.00000000000E+00 -0.41604565019E+03  0.41604565022E+03  0.50400001928E-02 0.  1.
    10030    2    1    2    0    0  0.00000000000E+00  0.00000000000E+00  0.12557474214E+04  0.20878387218E+04  0.16679834957E+04 0.  0.
        1    1    3    3  502    0  0.14949017718E+03  0.80094768029E+03  0.40509059920E+03  0.90992466348E+03  0.50400001928E-02 0.  1.
       -1    1    3    3    0  502 -0.14949017718E+03 -0.80094768029E+03  0.85065682216E+03  0.11779140583E+04  0.50400001928E-02 0. -1.
</event>
<event>
 5   0  0.1803959E-03  0.1275581E+04  0.7818609E-02  0.9049157E-01
        1   -1    0    0  501    0  0.00000000000E+00  0.00000000000E+00  0.15753736997E+04  0.15753736997E+04  0.50400001928E-02 0.  1.
       -1   -1    0    0    0  501  0.00000000000E+00  0.00000000000E+00 -0.25820952478E+03  0.25820952483E+03  0.50400001928E-02 0. -1.
    10030    2    1    2    0    0  0.00000000000E+00  0.00000000000E+00  0.13171641749E+04  0.18335832245E+04  0.12755806433E+04 0.  0.
        4    1    3    3  502    0 -0.50634064709E+03 -0.38770815182E+03  0.64601614335E+03  0.90776480008E+03  0.12699999809E+01 0.  1.
       -4    1    3    3    0  502  0.50634064709E+03  0.38770815182E+03  0.67114803155E+03  0.92581842445E+03  0.12699999809E+01 0. -1.
</event>
<event>
 5   0  0.3262927E-03  0.1331787E+04  0.7818609E-02  0.9004731E-01
       -2   -1    0    0    0  501  0.00000000000E+00  0.00000000000E+00  0.91506590247E+03  0.91506590248E+03  0.25500000920E-02 0.  1.
        2   -1    0    0  501    0  0.00000000000E+00  0.00000000000E+00 -0.48457068304E+03  0.48457068304E+03  0.25500000920E-02 0. -1.
    10030    2    1    2    0    0  0.00000000000E+00  0.00000000000E+00  0.43049521944E+03  0.13996365855E+04  0.13317869340E+04 0.  0.
        3    1    3    3  502    0 -0.25372507551E+03  0.24146251312E+03 -0.37993841500E+03  0.51675310215E+03  0.10100000352E+00 0. -1.
       -3    1    3    3    0  502  0.25372507551E+03 -0.24146251312E+03  0.81043363444E+03  0.88288348337E+03  0.10100000352E+00 0.  1.
</event>
<event>
 5   0  0.3336609E-03  0.1305362E+04  0.7818609E-02  0.9025324E-01
       -2   -1    0    0    0  501  0.00000000000E+00  0.00000000000E+00  0.95102524605E+03  0.95102524606E+03  0.25500000920E-02 0.  1.
        2   -1    0    0  501    0  0.00000000000E+00  0.00000000000E+00 -0.44792972130E+03  0.44792972131E+03  0.25500000920E-02 0. -1.
    10030    2    1    2    0    0  0.00000000000E+00  0.00000000000E+00  0.50309552475E+03  0.13989549674E+04  0.13053619780E+04 0.  0.
        1    1    3    3  502    0  0.41274023652E+03  0.13805681454E+03  0.77281474469E+03  0.88693676016E+03  0.50400001928E-02 0.  1.
       -1    1    3    3    0  502 -0.41274023652E+03 -0.13805681454E+03 -0.26971921993E+03  0.51201820721E+03  0.50400001928E-02 0. -1.
</event>
<event>
 5   0  0.3294720E-03  0.1255625E+04  0.7818609E-02  0.9065515E-01
        2   -1    0    0  501    0  0.00000000000E+00  0.00000000000E+00  0.55764228778E+03  0.55764228779E+03  0.25500000920E-02 0. -1.
       -2   -1    0    0    0  501  0.00000000000E+00  0.00000000000E+00 -0.70681254449E+03  0.70681254449E+03  0.25500000920E-02 0.  1.
    10030    2    1    2    0    0  0.00000000000E+00  0.00000000000E+00 -0.14917025670E+03  0.12644548323E+04  0.12556250465E+04 0.  0.
        5    1    3    3  502    0 -0.24892219232E+03 -0.23397829168E+03 -0.60499422348E+03  0.69480083423E+03  0.46999998093E+01 0.  1.
       -5    1    3    3    0  502  0.24892219232E+03  0.23397829168E+03  0.45582396678E+03  0.56965399805E+03  0.46999998093E+01 0. -1.
</event>
<event>
 5   0  0.1254125E-03  0.1306534E+04  0.7818609E-02  0.9024400E-01
        4   -1    0    0  501    0  0.00000000000E+00  0.00000000000E+00  0.11497758307E+04  0.11497765321E+04  0.12699999809E+01 0. -1.
       -4   -1    0    0    0  501  0.00000000000E+00  0.00000000000E+00 -0.37116419988E+03  0.37116637263E+03  0.12699999809E+01 0.  1.
    10030    2    1    2    0    0  0.00000000000E+00  0.00000000000E+00  0.77861163083E+03  0.15209429047E+04  0.13065340592E+04 0.  0.
        4    1    3    3  502    0 -0.29715496885E+03 -0.11018888719E+03 -0.27567592174E+03  0.42004939364E+03  0.12699999809E+01 0.  1.
       -4    1    3    3    0  502  0.29715496885E+03  0.11018888719E+03  0.10542875526E+04  0.11008935111E+04  0.12699999809E+01 0. -1.
</event>
<event>
 5   0  0.3262927E-03  0.1314728E+04  0.7818609E-02  0.9017966E-01
       -2   -1    0    0    0  501  0.00000000000E+00  0.00000000000E+00  0.33928579816E+03  0.33928579816E+03  0.25500000920E-02 0. -1.
        2   -1    0    0  501    0  0.00000000000E+00  0.00000000000E+00 -0.12736392997E+04  0.12736392997E+04  0.25500000920E-02 0.  1.
    10030    2    1    2    0    0  0.00000000000E+00  0.00000000000E+00 -0.93435350150E+03  0.16129250978E+04  0.13147284531E+04 0.  0.
        3    1    3    3  502    0 -0.40365407164E+03 -0.30931573147E+03  0.43853378565E+02  0.51042723311E+03  0.10100000352E+00 0. -1.
       -3    1    3    3    0  502  0.40365407164E+03  0.30931573147E+03 -0.97820688006E+03  0.11024978647E+04  0.10100000352E+00 0.  1.
</event>
<event>
 5   0  0.3259968E-03  0.1334737E+04  0.7818609E-02  0.9002463E-01
       -2   -1    0    0    0  501  0.00000000000E+00  0.00000000000E+00  0.11432678132E+04  0.11432678133E+04  0.25500000920E-02 0. -1.
        2   -1    0    0  501    0  0.00000000000E+00  0.00000000000E+00 -0.38956824954E+03  0.38956824955E+03  0.25500000920E-02 0.  1.
    10030    2    1    2    0    0  0.00000000000E+00  0.00000000000E+00  0.75369956371E+03  0.15328360628E+04  0.13347371888E+04 0.  0.
        4    1    3    3  502    0  0.58382521129E+02 -0.60113466558E+03  0.50796523723E+02  0.60609677829E+03  0.12699999809E+01 0.  1.
       -4    1    3    3    0  502 -0.58382521129E+02  0.60113466558E+03  0.70290303999E+03  0.92673928451E+03  0.12699999809E+01 0. -1.
</event>
<event>
 5   0  0.1814770E-03  0.1293688E+04  0.7818609E-02  0.9034586E-01
       -1   -1    0    0    0  501  0.00000000000E+00  0.00000000000E+00  0.48502634401E+03  0.48502634404E+03  0.50400001928E-02 0.  1.
        1   -1    0    0  501    0  0.00000000000E+00  0.00000000000E+00 -0.86264847566E+03  0.86264847567E+03  0.50400001928E-02 0. -1.
    10030    2    1    2    0    0  0.00000000000E+00  0.00000000000E+00 -0.37762213165E+03  0.13476748197E+04  0.12936881175E+04 0.  0.
        5    1    3    3  502    0  0.25875580684E+03 -0.44878455952E+03 -0.59230261636E+03  0.78689683427E+03  0.46999998093E+01 0. -1.
       -5    1    3    3    0  502 -0.25875580684E+03  0.44878455952E+03  0.21468048471E+03  0.56077798544E+03  0.46999998093E+01 0.  1.
</event>
<event>
 5   0  0.3262927E-03  0.1304553E+04  0.7818609E-02  0.9025962E-01
        2   -1    0    0  501    0  0.00000000000E+00  0.00000000000E+00  0.54495128961E+03  0.54495128961E+03  0.25500000920E-02 0. -1.
       -2   -1    0    0    0  501  0.00000000000E+00  0.00000000000E+00 -0.78073942339E+03  0.78073942340E+03  0.25500000920E-02 0.  1.
    10030    2    1    2    0    0  0.00000000000E+00  0.00000000000E+00 -0.23578813378E+03  0.13256907130E+04  0.13045534955E+04 0.  0.
        3    1    3    3  502    0  0.39357881547E+03  0.20309896691E+03  0.36872958245E+03  0.57629418661E+03  0.10100000352E+00 0. -1.
       -3    1    3    3    0  502 -0.39357881547E+03 -0.20309896691E+03 -0.60451771623E+03  0.74939652640E+03  0.10100000352E+00 0.  1.
</event>
<event>
 5   0  0.3259968E-03  0.1272131E+04  0.7818609E-02  0.9051963E-01
       -2   -1    0    0    0  501  0.00000000000E+00  0.00000000000E+00  0.95951114718E+03  0.95951114718E+03  0.25500000920E-02 0. -1.
        2   -1    0    0  501    0  0.00000000000E+00  0.00000000000E+00 -0.42165117889E+03  0.42165117889E+03  0.25500000920E-02 0.  1.
    10030    2    1    2    0    0  0.00000000000E+00  0.00000000000E+00  0.53785996829E+03  0.13811623261E+04  0.12721305065E+04 0.  0.
        4    1    3    3  502    0  0.45248115025E+03 -0.38105225328E+03  0.52271033802E+03  0.78940972976E+03  0.12699999809E+01 0. -1.
       -4    1    3    3    0  502 -0.45248115025E+03  0.38105225328E+03  0.15149630268E+02  0.59175259632E+03  0.12699999809E+01 0.  1.
</event>
<event>
 5   0  0.3336609E-03  0.1383042E+04  0.7818609E-02  0.8966186E-01
        2   -1    0    0  501    0  0.00000000000E+00  0.00000000000E+00  0.10716058775E+04  0.10716058775E+04  0.25500000920E-02 0. -1.
       -2   -1    0    0    0  501  0.00000000000E+00  0.00000000000E+00 -0.44624712553E+03  0.44624712554E+03  0.25500000920E-02 0.  1.
    10030    2    1    2    0    0  0.00000000000E+00  0.00000000000E+00  0.62535875194E+03  0.15178530030E+04  0.13830416372E+04 0.  0.
        1    1    3    3  502    0 -0.31839550365E+03 -0.57413822118E+03  0.55108825904E+03  0.85715148197E+03  0.50400001928E-02 0. -1.
       -1    1    3    3    0  502  0.31839550365E+03  0.57413822118E+03  0.74270492899E+02  0.66070152104E+03  0.50400001928E-02 0.  1.
</event>
<event>
 5   0  0.1803959E-03  0.1348654E+04  0.7818609E-02  0.8991848E-01
       -1   -1    0    0    0  501  0.00000000000E+00  0.00000000000E+00  0.25143821300E+03  0.25143821305E+03  0.50400001928E-02 0.  1.
        1   -1    0    0  501    0  0.00000000000E+00  0.00000000000E+00 -0.18084641356E+04  0.18084641356E+04  0.50400001928E-02 0. -1.
    10030    2    1    2    0    0  0.00000000000E+00  0.00000000000E+00 -0.15570259226E+04  0.20599023486E+04  0.13486541300E+04 0.  0.
        4    1    3    3  502    0  0.61961691447E+03  0.97812166116E+02 -0.40058982401E+03  0.74428903024E+03  0.12699999809E+01 0.  1.
       -4    1    3    3    0  502 -0.61961691447E+03 -0.97812166116E+02 -0.11564360986E+04  0.13156133184E+04  0.12699999809E+01 0. -1.
</event>
<event>
 5   0  0.3262927E-03  0.1291486E+04  0.7818609E-02  0.9036344E-01
        2   -1    0    0  501    0  0.00000000000E+00  0.00000000000E+00  0.10129409146E+04  0.10129409146E+04  0.25500000920E-02 0.  1.
       -2   -1    0    0    0  501  0.00000000000E+00  0.00000000000E+00 -0.41165665678E+03  0.41165665679E+03  0.25500000920E-02 0. -1.
    10030    2    1    2    0    0  0.00000000000E+00  0.00000000000E+00  0.60128425785E+03  0.14245975714E+04  0.12914857652E+04 0.  0.
        3    1    3    3  502    0  0.57715771576E+03  0.92250455377E+01 -0.18653363806E+02  0.57753275969E+03  0.10100000352E+00 0. -1.
       -3    1    3    3    0  502 -0.57715771576E+03 -0.92250455377E+01  0.61993762165E+03  0.84706481173E+03  0.10100000352E+00 0.  1.
</event>
<event>
 5   0  0.3294720E-03  0.1302344E+04  0.7818609E-02  0.9027708E-01
       -2   -1    0    0    0  501  0.00000000000E+00  0.00000000000E+00  0.15901576102E+04  0.15901576102E+04  0.25500000920E-02 0.  1.
        2   -1    0    0  501    0  0.00000000000E+00  0.00000000000E+00 -0.26665608348E+03  0.26665608349E+03  0.25500000920E-02 0. -1.
    10030    2    1    2    0    0  0.00000000000E+00  0.00000000000E+00  0.13235015267E+04  0.18568136937E+04  0.13023443484E+04 0.  0.
        5    1    3    3  502    0  0.24715348625E+03 -0.57168252389E+03  0.93263279648E+03  0.11214864141E+04  0.46999998093E+01 0.  1.
       -5    1    3    3    0  502 -0.24715348625E+03  0.57168252389E+03  0.39086873026E+03  0.73532727964E+03  0.46999998093E+01 0. -1.
</event>
<event>
 5   0  0.1873488E-03  0.1306594E+04  0.7818609E-02  0.9024352E-01
       -1   -1    0    0    0  501  0.00000000000E+00  0.00000000000E+00  0.77277531366E+03  0.77277531367E+03  0.50400001928E-02 0.  1.
        1   -1    0    0  501    0  0.00000000000E+00  0.00000000000E+00 -0.55229142902E+03  0.55229142904E+03  0.50400001928E-02 0. -1.
    10030    2    1    2    0    0  0.00000000000E+00  0.00000000000E+00  0.22048388464E+03  0.13250667427E+04  0.13065943247E+04 0.  0.
        3    1    3    3  502    0 -0.64345551275E+03 -0.94615679953E+02  0.17284019766E+03  0.67294937990E+03  0.10100000352E+00 0. -1.
       -3    1    3    3    0  502  0.64345551275E+03  0.94615679953E+02  0.47643686979E+02  0.65211736282E+03  0.10100000352E+00 0.  1.
</event>
<event>
 5   0  0.1254125E-03  0.1272435E+04  0.7818609E-02  0.9051714E-01
        3   -1    0    0  501    0  0.00000000000E+00  0.00000000000E+00  0.63943158971E+03  0.63943159768E+03  0.10100000352E+00 0.  1.
       -3   -1    0    0    0  501  0.00000000000E+00  0.00000000000E+00 -0.63301991635E+03  0.63301992441E+03  0.10100000352E+00 0. -1.
    10030    2    1    2    0    0  0.00000000000E+00  0.00000000000E+00  0.64116733578E+01  0.12724515221E+04  0.12724353683E+04 0.  0.
        3    1    3    3  502    0 -0.60683461058E+03  0.46427059767E+02 -0.18218587728E+03  0.63529160277E+03  0.10100000352E+00 0. -1.
       -3    1    3    3    0  502  0.60683461058E+03 -0.46427059767E+02  0.18859755064E+03  0.63715991932E+03  0.10100000352E+00 0.  1.
</event>
<event>
 5   0  0.1803959E-03  0.1338345E+04  0.7818609E-02  0.8999698E-01
        1   -1    0    0  501    0  0.00000000000E+00  0.00000000000E+00  0.17455637375E+04  0.17455637375E+04  0.50400001928E-02 0.  1.
       -1   -1    0    0    0  501  0.00000000000E+00  0.00000000000E+00 -0.25653130934E+03  0.25653130939E+03  0.50400001928E-02 0. -1.
    10030    2    1    2    0    0  0.00000000000E+00  0.00000000000E+00  0.14890324281E+04  0.20020950469E+04  0.13383448751E+04 0.  0.
        4    1    3    3  502    0 -0.62033252870E+03  0.24192648033E+03  0.64473218348E+03  0.92683443471E+03  0.12699999809E+01 0. -1.
       -4    1    3    3    0  502  0.62033252870E+03 -0.24192648033E+03  0.84430024467E+03  0.10752606122E+04  0.12699999809E+01 0.  1.
</event>
<event>
 5   0  0.3259968E-03  0.1283594E+04  0.7818609E-02  0.9042678E-01
       -2   -1    0    0    0  501  0.00000000000E+00  0.00000000000E+00  0.20029422348E+03  0.20029422350E+03  0.25500000920E-02 0. -1.
        2   -1    0    0  501    0  0.00000000000E+00  0.00000000000E+00 -0.20564904911E+04  0.20564904911E+04  0.25500000920E-02 0.  1.
    10030    2    1    2    0    0  0.00000000000E+00  0.00000000000E+00 -0.18561962676E+04  0.22567847146E+04  0.12835936523E+04 0.  0.
        4    1    3    3  502    0 -0.19623753115E+03 -0.84965618006E+02 -0.19920105208E+04  0.20034559773E+04  0.12699999809E+01 0.  1.
       -4    1    3    3    0  502  0.19623753115E+03  0.84965618006E+02  0.13581425322E+03  0.25332873732E+03  0.12699999809E+01 0. -1.
</event>
<event>
 5   0  0.1873488E-03  0.1304266E+04  0.7818609E-02  0.9026189E-01
        1   -1    0    0  501    0  0.00000000000E+00  0.00000000000E+00  0.85588719658E+03  0.85588719660E+03  0.50400001928E-02 0. -1.
       -1   -1    0    0    0  501  0.00000000000E+00  0.00000000000E+00 -0.49688463422E+03  0.49688463424E+03  0.50400001928E-02 0.  1.
    10030    2    1    2    0    0  0.00000000000E+00  0.00000000000E+00  0.35900256236E+03  0.13527718308E+04  0.13042656120E+04 0.  0.
        3    1    3    3  502    0  0.44796189914E+03  0.47088713614E+03  0.12391108201E+03  0.66163322506E+03  0.10100000352E+00 0. -1.
       -3    1    3    3    0  502 -0.44796189914E+03 -0.47088713614E+03  0.23509148036E+03  0.69113860578E+03  0.10100000352E+00 0.  1.
</event>
<event>
 5   0  0.3294720E-03  0.1289988E+04  0.7818609E-02  0.9037543E-01
       -2   -1    0    0    0  501  0.00000000000E+00  0.00000000000E+00  0.55785053328E+03  0.55785053329E+03  0.25500000920E-02 0.  1.
        2   -1    0    0  501    0  0.00000000000E+00  0.00000000000E+00 -0.74575032772E+03  0.74575032772E+03  0.25500000920E-02 0. -1.
    10030    2    1    2    0    0  0.00000000000E+00  0.00000000000E+00 -0.18789979444E+03  0.13036008610E+04  0.12899879349E+04 0.  0.
        5    1    3    3  502    0 -0.37572649921E+03 -0.33368143833E+03 -0.50254503622E+03  0.71069494717E+03  0.46999998093E+01 0. -1.
       -5    1    3    3    0  502  0.37572649921E+03  0.33368143833E+03  0.31464524178E+03  0.59290591385E+03  0.46999998093E+01 0.  1.
</event>
<event>
 5   0  0.3299104E-03  0.1209751E+04  0.7818609E-02  0.9104364E-01
        2   -1    0    0  501    0  0.00000000000E+00  0.00000000000E+00  0.27010445232E+03  0.27010445234E+03  0.25500000920E-02 0. -1.
       -2   -1    0    0    0  501  0.00000000000E+00  0.00000000000E+00 -0.13545660239E+04  0.13545660239E+04  0.25500000920E-02 0.  1.
    10030    2    1    2    0    0  0.00000000000E+00  0.00000000000E+00 -0.10844615715E+04  0.16246704762E+04  0.12097509066E+04 0.  0.
        2    1    3    3  502    0  0.24361192132E+03  0.55158152688E+03 -0.60643257321E+03  0.85518969525E+03  0.25500000920E-02 0.  1.
       -2    1    3    3    0  502 -0.24361192132E+03 -0.55158152688E+03 -0.47802899833E+03  0.76948078096E+03  0.25500000920E-02 0. -1.
</event>
<event>
 5   0  0.3294720E-03  0.1299608E+04  0.7818609E-02  0.9029876E-01
       -2   -1    0    0    0  501  0.00000000000E+00  0.00000000000E+00  0.80329685658E+03  0.80329685658E+03  0.25500000920E-02 0.  1.
        2   -1    0    0  501    0  0.00000000000E+00  0.00000000000E+00 -0.52564075002E+03  0.52564075002E+03  0.25500000920E-02 0. -1.
    10030    2    1    2    0    0  0.00000000000E+00  0.00000000000E+00  0.27765610656E+03  0.13289376066E+04  0.12996084983E+04 0.  0.
        5    1    3    3  502    0  0.10890249758E+03 -0.63822081608E+03  0.19518914111E+03  0.67624437511E+03  0.46999998093E+01 0.  1.
       -5    1    3    3    0  502 -0.10890249758E+03  0.63822081608E+03  0.82466965452E+02  0.65269323150E+03  0.46999998093E+01 0. -1.
</event>
<event>
 5   0  0.1814770E-03  0.1404508E+04  0.7818609E-02  0.8950562E-01
        1   -1    0    0  501    0  0.00000000000E+00  0.00000000000E+00  0.99081602164E+03  0.99081602166E+03  0.50400001928E-02 0. -1.
       -1   -1    0    0    0  501  0.00000000000E+00  0.00000000000E+00 -0.49773178530E+03  0.49773178533E+03  0.50400001928E-02 0.  1.
    10030    2    1    2    0    0  0.00000000000E+00  0.00000000000E+00  0.49308423634E+03  0.14885478070E+04  0.14045079243E+04 0.  0.
        5    1    3    3  502    0 -0.11594011053E+02 -0.56132571309E+02 -0.49523185421E+03  0.49855989216E+03  0.46999998093E+01 0.  1.
       -5    1    3    3    0  502  0.11594011053E+02  0.56132571309E+02  0.98831609055E+03  0.98998791482E+03  0.46999998093E+01 0. -1.
</event>
<event>
 5   0  0.1803959E-03  0.1271440E+04  0.7818609E-02  0.9052525E-01
       -1   -1    0    0    0  501  0.00000000000E+00  0.00000000000E+00  0.36113698052E+03  0.36113698056E+03  0.50400001928E-02 0. -1.
        1   -1    0    0  501    0  0.00000000000E+00  0.00000000000E+00 -0.11190763378E+04  0.11190763378E+04  0.50400001928E-02 0.  1.
    10030    2    1    2    0    0  0.00000000000E+00  0.00000000000E+00 -0.75793935730E+03  0.14802133184E+04  0.12714398919E+04 0.  0.
        4    1    3    3  502    0  0.25979747361E+03  0.33802251108E+03 -0.92798002304E+03  0.10212259698E+04  0.12699999809E+01 0.  1.
       -4    1    3    3    0  502 -0.25979747361E+03 -0.33802251108E+03  0.17004066574E+03  0.45898734862E+03  0.12699999809E+01 0. -1.
</event>
<event>
 5   0  0.3262927E-03  0.1312055E+04  0.7818609E-02  0.9020059E-01
       -2   -1    0    0    0  501  0.00000000000E+00  0.00000000000E+00  0.40282696779E+03  0.40282696780E+03  0.25500000920E-02 0.  1.
        2   -1    0    0  501    0  0.00000000000E+00  0.00000000000E+00 -0.10683802924E+04  0.10683802924E+04  0.25500000920E-02 0. -1.
    10030    2    1    2    0    0  0.00000000000E+00  0.00000000000E+00 -0.66555332465E+03  0.14712072602E+04  0.13120554770E+04 0.  0.
        3    1    3    3  502    0  0.23355385375E+03  0.40091773416E+03  0.18725731693E+03  0.50034762426E+03  0.10100000352E+00 0.  1.
       -3    1    3    3    0  502 -0.23355385375E+03 -0.40091773416E+03 -0.85281064158E+03  0.97085963597E+03  0.10100000352E+00 0. -1.
</event>
<event>
 5   0  0.1823154E-03  0.1413602E+04  0.7818609E-02  0.8944031E-01
        1   -1    0    0  501    0  0.00000000000E+00  0.00000000000E+00  0.57816615856E+03  0.57816615858E+03  0.50400001928E-02 0.  1.
       -1   -1    0    0    0  501  0.00000000000E+00  0.00000000000E+00 -0.86405554370E+03  0.86405554371E+03  0.50400001928E-02 0. -1.
    10030    2    1    2    0    0  0.00000000000E+00  0.00000000000E+00 -0.28588938514E+03  0.14422217023E+04  0.14136020296E+04 0.  0.
        2    1    3    3  502    0  0.36455919307E+03  0.59458902396E+03 -0.25984262431E+03  0.74428334798E+03  0.25500000920E-02 0. -1.
       -2    1    3    3    0  502 -0.36455919307E+03 -0.59458902396E+03 -0.26046760830E+02  0.69793835431E+03  0.25500000920E-02 0.  1.
</event>
<event>
 5   0  0.3259968E-03  0.1270610E+04  0.7818609E-02  0.9053202E-01
       -2   -1    0    0    0  501  0.00000000000E+00  0.00000000000E+00  0.45673551188E+03  0.45673551189E+03  0.25500000920E-02 0.  1.
        2   -1    0    0  501    0  0.00000000000E+00  0.00000000000E+00 -0.88368923188E+03  0.88368923189E+03  0.25500000920E-02 0. -1.
    10030    2    1    2    0    0  0.00000000000E+00  0.00000000000E+00 -0.42695372000E+03  0.13404247438E+04  0.12706097020E+04 0.  0.
        4    1    3    3  502    0  0.29224116631E+01 -0.63451487055E+03 -0.18023384727E+03  0.65962376703E+03  0.12699999809E+01 0.  1.
       -4    1    3    3    0  502 -0.29224116631E+01  0.63451487055E+03 -0.24671987274E+03  0.68080097674E+03  0.12699999809E+01 0. -1.
</event>
<event>
 5   0  0.1803959E-03  0.1654956E+04  0.7818609E-02  0.8787480E-01
       -1   -1    0    0    0  501  0.00000000000E+00  0.00000000000E+00  0.47860963540E+03  0.47860963542E+03  0.50400001928E-02 0. -1.
        1   -1    0    0  501    0  0.00000000000E+00  0.00000000000E+00 -0.14306431593E+04  0.14306431593E+04  0.50400001928E-02 0.  1.
    10030    2    1    2    0    0  0.00000000000E+00  0.00000000000E+00 -0.95203352387E+03  0.19092527947E+04  0.16549557104E+04 0.  0.
        4    1    3    3  502    0  0.52940155495E+03  0.42944752148E+03  0.65129743530E+02  0.68478805223E+03  0.12699999809E+01 0.  1.
       -4    1    3    3    0  502 -0.52940155495E+03 -0.42944752148E+03 -0.10171632674E+04  0.12244647425E+04  0.12699999809E+01 0. -1.
</event>
<event>
 5   0  0.1857986E-03  0.1313207E+04  0.7818609E-02  0.9019157E-01
       -1   -1    0    0    0  501  0.00000000000E+00  0.00000000000E+00  0.87938544967E+03  0.87938544968E+03  0.50400001928E-02 0. -1.
        1   -1    0    0  501    0  0.00000000000E+00  0.00000000000E+00 -0.49026067401E+03  0.49026067404E+03  0.50400001928E-02 0.  1.
    10030    2    1    2    0    0  0.00000000000E+00  0.00000000000E+00  0.38912477566E+03  0.13696461237E+04  0.13132069194E+04 0.  0.
        1    1    3    3  502    0  0.61319186186E+03  0.22743385796E+03  0.13376754953E+03  0.66755087936E+03  0.50400001928E-02 0.  1.
       -1    1    3    3    0  502 -0.61319186186E+03 -0.22743385796E+03  0.25535722613E+03  0.70209524436E+03  0.50400001928E-02 0. -1.
</event>
<event>
 5   0  0.1814770E-03  0.1302400E+04  0.7818609E-02  0.9027664E-01
       -1   -1    0    0    0  501  0.00000000000E+00  0.00000000000E+00  0.14782758891E+03  0.14782758899E+03  0.50400001928E-02 0.  1.
        1   -1    0    0  501    0  0.00000000000E+00  0.00000000000E+00 -0.28686203023E+04  0.28686203023E+04  0.50400001928E-02 0. -1.
    10030    2    1    2    0    0  0.00000000000E+00  0.00000000000E+00 -0.27207927134E+04  0.30164478913E+04  0.13023996666E+04 0.  0.
        5    1    3    3  502    0 -0.22336578322E+03  0.27095103706E+03 -0.90285414141E+02  0.36260210094E+03  0.46999998093E+01 0.  1.
       -5    1    3    3    0  502  0.22336578322E+03 -0.27095103706E+03 -0.26305072992E+04  0.26538457903E+04  0.46999998093E+01 0. -1.
</event>
<event>
 5   0  0.1873488E-03  0.1042484E+04  0.7818609E-02  0.9263138E-01
       -1   -1    0    0    0  501  0.00000000000E+00  0.00000000000E+00  0.25163611606E+03  0.25163611611E+03  0.50400001928E-02 0. -1.
        1   -1    0    0  501    0  0.00000000000E+00  0.00000000000E+00 -0.10797077295E+04  0.10797077295E+04  0.50400001928E-02 0.  1.
    10030    2    1    2    0    0  0.00000000000E+00  0.00000000000E+00 -0.82807161348E+03  0.13313438457E+04  0.10424844547E+04 0.  0.
        3    1    3    3  502    0 -0.72494331458E+02  0.25502873156E+03 -0.98715983972E+03  0.10221446284E+04  0.10100000352E+00 0.  1.
       -3    1    3    3    0  502  0.72494331458E+02 -0.25502873156E+03  0.15908822624E+03  0.30919921725E+03  0.10100000352E+00 0. -1.
</event>
<event>
 5   0  0.3299104E-03  0.1300329E+04  0.7818609E-02  0.9029304E-01
       -2   -1    0    0    0  501  0.00000000000E+00  0.00000000000E+00  0.36050125750E+03  0.36050125751E+03  0.25500000920E-02 0.  1.
        2   -1    0    0  501    0  0.00000000000E+00  0.00000000000E+00 -0.11725726336E+04  0.11725726336E+04  0.25500000920E-02 0. -1.
    10030    2    1    2    0    0  0.00000000000E+00  0.00000000000E+00 -0.81207137614E+03  0.15330738912E+04  0.13003290491E+04 0.  0.
        2    1    3    3  502    0  0.21760552753E+03  0.46499610606E+03 -0.87636278157E+03  0.10156698623E+04  0.25500000920E-02 0. -1.
       -2    1    3    3    0  502 -0.21760552753E+03 -0.46499610606E+03  0.64291405431E+02  0.51740402886E+03  0.25500000920E-02 0.  1.
</event>
<event>
 5   0  0.1803959E-03  0.1322502E+04  0.7818609E-02  0.9011909E-01
        1   -1    0    0  501    0  0.00000000000E+00  0.00000000000E+00  0.14773375582E+04  0.14773375582E+04  0.50400001928E-02 0.  1.
       -1   -1    0    0    0  501  0.00000000000E+00  0.00000000000E+00 -0.29597337831E+03  0.29597337835E+03  0.50400001928E-02 0. -1.
    10030    2    1    2    0    0  0.00000000000E+00  0.00000000000E+00  0.11813641799E+04  0.17733109366E+04  0.13225015509E+04 0.  0.
        4    1    3    3  502    0 -0.61901088821E+03 -0.12897212101E+03  0.33122101759E+03  0.71380477942E+03  0.12699999809E+01 0. -1.
       -4    1    3    3    0  502  0.61901088821E+03  0.12897212101E+03  0.85014316232E+03  0.10595061572E+04  0.12699999809E+01 0.  1.
</event>
<event>
 5   0  0.3262927E-03  0.1314924E+04  0.7818609E-02  0.9017813E-01
        2   -1    0    0  501    0  0.00000000000E+00  0.00000000000E+00  0.12497817193E+04  0.12497817193E+04  0.25500000920E-02 0. -1.
       -2   -1    0    0    0  501  0.00000000000E+00  0.00000000000E+00 -0.34586565744E+03  0.34586565745E+03  0.25500000920E-02 0.  1.
    10030    2    1    2    0    0  0.00000000000E+00  0.00000000000E+00  0.90391606189E+03  0.15956473768E+04  0.13149244481E+04 0.  0.
        3    1    3    3  502    0  0.43025928292E+03  0.40782425973E+03  0.79692414564E+03  0.99324306263E+03  0.10100000352E+00 0. -1.
       -3    1    3    3    0  502 -0.43025928292E+03 -0.40782425973E+03  0.10699191625E+03  0.60240431415E+03  0.10100000352E+00 0.  1.
</event>
<event>
 5   0  0.1254125E-03  0.1302820E+04  0.7818609E-02  0.9027332E-01
       -3   -1    0    0    0  501  0.00000000000E+00  0.00000000000E+00  0.59045536192E+03  0.59045537056E+03  0.10100000352E+00 0.  1.
        3   -1    0    0  501    0  0.00000000000E+00  0.00000000000E+00 -0.71865667306E+03  0.71865668016E+03  0.10100000352E+00 0. -1.
    10030    2    1    2    0    0  0.00000000000E+00  0.00000000000E+00 -0.12820131114E+03  0.13091120507E+04  0.13028195520E+04 0.  0.
        3    1    3    3  502    0  0.14642664447E+03  0.36316191175E+03 -0.58719868937E+03  0.70578300303E+03  0.10100000352E+00 0. -1.
       -3    1    3    3    0  502 -0.14642664447E+03 -0.36316191175E+03  0.45899737823E+03  0.60332904769E+03  0.10100000352E+00 0.  1.
</event>
<event>
 5   0  0.3259968E-03  0.1372934E+04  0.7818609E-02  0.8973646E-01
        2   -1    0    0  501    0  0.00000000000E+00  0.00000000000E+00  0.17266383661E+04  0.17266383661E+04  0.25500000920E-02 0. -1.
       -2   -1    0    0    0  501  0.00000000000E+00  0.00000000000E+00 -0.27292171952E+03  0.27292171954E+03  0.25500000920E-02 0.  1.
    10030    2    1    2    0    0  0.00000000000E+00  0.00000000000E+00  0.14537166466E+04  0.19995600856E+04  0.13729342473E+04 0.  0.
        4    1    3    3  502    0 -0.39937759140E+03 -0.18531210864E+03  0.14939231116E+04  0.15574501323E+04  0.12699999809E+01 0. -1.
       -4    1    3    3    0  502  0.39937759140E+03  0.18531210864E+03 -0.40206465072E+02  0.44210995336E+03  0.12699999809E+01 0.  1.
</event>
<event>
 5   0  0.1857986E-03  0.1288287E+04  0.7818609E-02  0.9038906E-01
       -1   -1    0    0    0  501  0.00000000000E+00  0.00000000000E+00  0.97765862954E+03  0.97765862956E+03  0.50400001928E-02 0.  1.
        1   -1    0    0  501    0  0.00000000000E+00  0.00000000000E+00 -0.42440230224E+03  0.42440230227E+03  0.50400001928E-02 0. -1.
    10030    2    1    2    0    0  0.00000000000E+00  0.00000000000E+00  0.55325632730E+03  0.14020609318E+04  0.12882865725E+04 0.  0.
        1    1    3    3  502    0 -0.54565251970E+03  0.31719343294E+03  0.13652599917E+03  0.64574584368E+03  0.50400001928E-02 0. -1.
       -1    1    3    3    0  502  0.54565251970E+03 -0.31719343294E+03  0.41673032813E+03  0.75631508815E+03  0.50400001928E-02 0.  1.
</event>
<event>
 5   0  0.3294720E-03  0.1308653E+04  0.7818609E-02  0.9022731E-01
       -2   -1    0    0    0  501  0.00000000000E+00  0.00000000000E+00  0.68758706175E+03  0.68758706175E+03  0.25500000920E-02 0. -1.
        2   -1    0    0  501    0  0.00000000000E+00  0.00000000000E+00 -0.62267459614E+03  0.62267459614E+03  0.25500000920E-02 0.  1.
    10030    2    1    2    0    0  0.00000000000E+00  0.00000000000E+00  0.64912465607E+02  0.13102616579E+04  0.13086527362E+04 0.  0.
        5    1    3    3  502    0 -0.23153901416E+03  0.47223891924E+03 -0.35725359326E+03  0.63582397865E+03  0.46999998093E+01 0.  1.
       -5    1    3    3    0  502  0.23153901416E+03 -0.47223891924E+03  0.42216605887E+03  0.67443767925E+03  0.46999998093E+01 0. -1.
</event>
<event>
 5   0  0.1254125E-03  0.1304926E+04  0.7818609E-02  0.9025668E-01
        3   -1    0    0  501    0  0.00000000000E+00  0.00000000000E+00  0.48035647964E+03  0.48035649026E+03  0.10100000352E+00 0. -1.
       -3   -1    0    0    0  501  0.00000000000E+00  0.00000000000E+00 -0.88623376666E+03  0.88623377241E+03  0.10100000352E+00 0.  1.
    10030    2    1    2    0    0  0.00000000000E+00  0.00000000000E+00 -0.40587728702E+03  0.13665902627E+04  0.13049262714E+04 0.  0.
        1    1    3    3  502    0  0.39560052050E+03  0.28020625145E+03  0.25438065360E+03  0.54747130712E+03  0.50400001928E-02 0. -1.
       -1    1    3    3    0  502 -0.39560052050E+03 -0.28020625145E+03 -0.66025794062E+03  0.81911895555E+03  0.50400001928E-02 0.  1.
</event>
<event>
 5   0  0.3336609E-03  0.1326654E+04  0.7818609E-02  0.9008691E-01
       -2   -1    0    0    0  501  0.00000000000E+00  0.00000000000E+00  0.61139686328E+03  0.61139686329E+03  0.25500000920E-02 0. -1.
        2   -1    0    0  501    0  0.00000000000E+00  0.00000000000E+00 -0.71966779183E+03  0.71966779184E+03  0.25500000920E-02 0.  1.
    10030    2    1    2    0    0  0.00000000000E+00  0.00000000000E+00 -0.10827092855E+03  0.13310646551E+04  0.13266538818E+04 0.  0.
        1    1    3    3  502    0  0.31889388477E+02  0.45129945002E+03 -0.54084053097E+03  0.70512169634E+03  0.50400001928E-02 0.  1.
       -1    1    3    3    0  502 -0.31889388477E+02 -0.45129945002E+03  0.43256960242E+03  0.62594295878E+03  0.50400001928E-02 0. -1.
</event>
<event>
 5   0  0.3262927E-03  0.1293787E+04  0.7818609E-02  0.9034507E-01
       -2   -1    0    0    0  501  0.00000000000E+00  0.00000000000E+00  0.84884712900E+03  0.84884712901E+03  0.25500000920E-02 0. -1.
        2   -1    0    0  501    0  0.00000000000E+00  0.00000000000E+00 -0.49298737854E+03  0.49298737855E+03  0.25500000920E-02 0.  1.
    10030    2    1    2    0    0  0.00000000000E+00  0.00000000000E+00  0.35585975046E+03  0.13418345076E+04  0.12937865681E+04 0.  0.
        3    1    3    3  502    0  0.51061562024E+03  0.74194828035E+02  0.58259657095E+03  0.77823644146E+03  0.10100000352E+00 0. -1.
       -3    1    3    3    0  502 -0.51061562024E+03 -0.74194828035E+02 -0.22673682049E+03  0.56359806609E+03  0.10100000352E+00 0.  1.
</event>
<event>
 5   0  0.1857986E-03  0.1214754E+04  0.7818609E-02  0.9100039E-01
        1   -1    0    0  501    0  0.00000000000E+00  0.00000000000E+00  0.82203106342E+03  0.82203106343E+03  0.50400001928E-02 0.  1.
       -1   -1    0    0    0  501  0.00000000000E+00  0.00000000000E+00 -0.44877487421E+03  0.44877487424E+03  0.50400001928E-02 0. -1.
    10030    2    1    2    0    0  0.00000000000E+00  0.00000000000E+00  0.37325618921E+03  0.12708059377E+04  0.12147541103E+04 0.  0.
        1    1    3    3  502    0  0.30620943885E+03 -0.36261111850E+03  0.58313659864E+03  0.75186390817E+03  0.50400001928E-02 0.  1.
       -1    1    3    3    0  502 -0.30620943885E+03  0.36261111850E+03 -0.20988040944E+03  0.51894202951E+03  0.50400001928E-02 0. -1.
</event>
<event>
 5   0  0.1823154E-03  0.1355154E+04  0.7818609E-02  0.8986936E-01
        1   -1    0    0  501    0  0.00000000000E+00  0.00000000000E+00  0.81246282998E+03  0.81246283000E+03  0.50400001928E-02 0. -1.
       -1   -1    0    0    0  501  0.00000000000E+00  0.00000000000E+00 -0.56508466943E+03  0.56508466945E+03  0.50400001928E-02 0.  1.
    10030    2    1    2    0    0  0.00000000000E+00  0.00000000000E+00  0.24737816056E+03  0.13775474994E+04  0.13551535555E+04 0.  0.
        2    1    3    3  502    0  0.32219161203E+03  0.57702068781E+03  0.27565865568E+03  0.71606424536E+03  0.25500000920E-02 0. -1.
       -2    1    3    3    0  502 -0.32219161203E+03 -0.57702068781E+03 -0.28280495129E+02  0.66148325409E+03  0.25500000920E-02 0.  1.
</event>
<event>
 5   0  0.3336609E-03  0.1296391E+04  0.7818609E-02  0.9032432E-01
       -2   -1    0    0    0  501  0.00000000000E+00  0.00000000000E+00  0.19097198940E+04  0.19097198940E+04  0.25500000920E-02 0. -1.
        2   -1    0    0  501    0  0.00000000000E+00  0.00000000000E+00 -0.22000982306E+03  0.22000982307E+03  0.25500000920E-02 0.  1.
    10030    2    1    2    0    0  0.00000000000E+00  0.00000000000E+00  0.16897100709E+04  0.21297297171E+04  0.12963905831E+04 0.  0.
        1    1    3    3  502    0 -0.17023889533E+02  0.88234480856E+02 -0.20972718525E+03  0.22816798348E+03  0.50400001928E-02 0.  1.
       -1    1    3    3    0  502  0.17023889533E+02 -0.88234480856E+02  0.18994372562E+04  0.19015617336E+04  0.50400001928E-02 0. -1.
</event>
<event>
 5   0  0.3262927E-03  0.1306915E+04  0.7818609E-02  0.9024099E-01
       -2   -1    0    0    0  501  0.00000000000E+00  0.00000000000E+00  0.22781398894E+03  0.22781398895E+03  0.25500000920E-02 0.  1.
        2   -1    0    0  501    0  0.00000000000E+00  0.00000000000E+00 -0.18743659151E+04  0.18743659151E+04  0.25500000920E-02 0. -1.
    10030    2    1    2    0    0  0.00000000000E+00  0.00000000000E+00 -0.16465519262E+04  0.21021799041E+04  0.13069151095E+04 0.  0.
        3    1    3    3  502    0 -0.31809939244E+03 -0.56424507431E+03 -0.68446802748E+03  0.94236734780E+03  0.10100000352E+00 0.  1.
       -3    1    3    3    0  502  0.31809939244E+03  0.56424507431E+03 -0.96208389872E+03  0.11598125563E+04  0.10100000352E+00 0. -1.
</event>
<event>
 5   0  0.1814770E-03  0.1310263E+04  0.7818609E-02  0.9021466E-01
        1   -1    0    0  501    0  0.00000000000E+00  0.00000000000E+00  0.54864116154E+03  0.54864116156E+03  0.50400001928E-02 0.  1.
       -1   -1    0    0    0  501  0.00000000000E+00  0.00000000000E+00 -0.78229135505E+03  0.78229135507E+03  0.50400001928E-02 0. -1.
    10030    2    1    2    0    0  0.00000000000E+00  0.00000000000E+00 -0.23365019352E+03  0.13309325166E+04  0.13102629320E+04 0.  0.
        5    1    3    3  502    0  0.34914834797E+03  0.12660287626E+03  0.43135693966E+03  0.56923084646E+03  0.46999998093E+01 0.  1.
       -5    1    3    3    0  502 -0.34914834797E+03 -0.12660287626E+03 -0.66500713317E+03  0.76170167017E+03  0.46999998093E+01 0. -1.
</event>
<event>
 5   0  0.3262927E-03  0.1257014E+04  0.7818609E-02  0.9064366E-01
        2   -1    0    0  501    0  0.00000000000E+00  0.00000000000E+00  0.32558654676E+03  0.32558654677E+03  0.25500000920E-02 0.  1.
       -2   -1    0    0    0  501  0.00000000000E+00  0.00000000000E+00 -0.12132597593E+04  0.12132597593E+04  0.25500000920E-02 0. -1.
    10030    2    1    2    0    0  0.00000000000E+00  0.00000000000E+00 -0.88767321253E+03  0.15388463061E+04  0.12570140101E+04 0.  0.
        3    1    3    3  502    0  0.50458805528E+03 -0.23208932643E+02 -0.90168586530E+03  0.10335304398E+04  0.10100000352E+00 0. -1.
       -3    1    3    3    0  502 -0.50458805528E+03  0.23208932643E+02  0.14012652771E+02  0.50531586628E+03  0.10100000352E+00 0.  1.
</event>
<event>
 5   0  0.1823154E-03  0.1323498E+04  0.7818609E-02  0.9011136E-01
        1   -1    0    0  501    0  0.00000000000E+00  0.00000000000E+00  0.75816799650E+03  0.75816799652E+03  0.50400001928E-02 0.  1.
       -1   -1    0    0    0  501  0.00000000000E+00  0.00000000000E+00 -0.57759227671E+03  0.57759227673E+03  0.50400001928E-02 0. -1.
    10030    2    1    2    0    0  0.00000000000E+00  0.00000000000E+00  0.18057571979E+03  0.13357602732E+04  0.13234983631E+04 0.  0.
        2    1    3    3  502    0 -0.41874459161E+03  0.23867191722E+03 -0.36734517705E+03  0.60601468314E+03  0.25500000920E-02 0. -1.
       -2    1    3    3    0  502  0.41874459161E+03 -0.23867191722E+03  0.54792089685E+03  0.72974559011E+03  0.25500000920E-02 0.  1.
</event>
<event>
 5   0  0.1803959E-03  0.1192010E+04  0.7818609E-02  0.9119879E-01
       -1   -1    0    0    0  501  0.00000000000E+00  0.00000000000E+00  0.10297325004E+04  0.10297325004E+04  0.50400001928E-02 0. -1.
        1   -1    0    0  501    0  0.00000000000E+00  0.00000000000E+00 -0.34496514205E+03  0.34496514208E+03  0.50400001928E-02 0.  1.
    10030    2    1    2    0    0  0.00000000000E+00  0.00000000000E+00  0.68476735835E+03  0.13746976425E+04  0.11920097622E+04 0.  0.
        4    1    3    3  502    0 -0.47472993682E+02 -0.61090433002E+02  0.10239151782E+04  0.10268347633E+04  0.12699999809E+01 0. -1.
       -4    1    3    3    0  502  0.47472993682E+02  0.61090433002E+02 -0.33914781982E+03  0.34786287920E+03  0.12699999809E+01 0.  1.
</event>
<event>
 5   0  0.3262927E-03  0.1215662E+04  0.7818609E-02  0.9099257E-01
       -2   -1    0    0    0  501  0.00000000000E+00  0.00000000000E+00  0.18409315962E+03  0.18409315964E+03  0.25500000920E-02 0.  1.
        2   -1    0    0  501    0  0.00000000000E+00  0.00000000000E+00 -0.20069117336E+04  0.20069117336E+04  0.25500000920E-02 0. -1.
    10030    2    1    2    0    0  0.00000000000E+00  0.00000000000E+00 -0.18228185739E+04  0.21910048932E+04  0.12156623250E+04 0.  0.
        3    1    3    3  502    0  0.20233192772E+03  0.22693617457E+03 -0.18600162872E+04  0.18847012589E+04  0.10100000352E+00 0. -1.
       -3    1    3    3    0  502 -0.20233192772E+03 -0.22693617457E+03  0.37197713301E+02  0.30630363429E+03  0.10100000352E+00 0.  1.
</event>
<event>
 5   0  0.1873488E-03  0.1337881E+04  0.7818609E-02  0.9000053E-01
        1   -1    0    0  501    0  0.00000000000E+00  0.00000000000E+00  0.74967334702E+03  0.74967334704E+03  0.50400001928E-02 0.  1.
       -1   -1    0    0    0  501  0.00000000000E+00  0.00000000000E+00 -0.59690211037E+03  0.59690211039E+03  0.50400001928E-02 0. -1.
    10030    2    1    2    0    0  0.00000000000E+00  0.00000000000E+00  0.15277123666E+03  0.13465754574E+04  0.13378813145E+04 0.  0.
        3    1    3    3  502    0  0.59714836965E+03  0.14529299179E+02  0.37948091654E+03  0.70767439697E+03  0.10100000352E+00 0.  1.
       -3    1    3    3    0  502 -0.59714836965E+03 -0.14529299179E+02 -0.22670967988E+03  0.63890106046E+03  0.10100000352E+00 0. -1.
</event>
<event>
 5   0  0.1857986E-03  0.1271814E+04  0.7818609E-02  0.9052221E-01
        1   -1    0    0  501    0  0.00000000000E+00  0.00000000000E+00  0.22448419715E+04  0.22448419715E+04  0.50400001928E-02 0.  1.
       -1   -1    0    0    0  501  0.00000000000E+00  0.00000000000E+00 -0.18013624285E+03  0.18013624292E+03  0.50400001928E-02 0. -1.
    10030    2    1    2    0    0  0.00000000000E+00  0.00000000000E+00  0.20647057286E+04  0.24249782144E+04  0.12718135062E+04 0.  0.
        1    1    3    3  502    0 -0.30055272231E+03  0.55979647597E+03  0.10818305920E+04  0.12546160620E+04  0.50400001928E-02 0. -1.
       -1    1    3    3    0  502  0.30055272231E+03 -0.55979647597E+03  0.98287513670E+03  0.11703621524E+04  0.50400001928E-02 0.  1.
</event>
<event>
 5   0  0.1803959E-03  0.1304630E+04  0.7818609E-02  0.9025902E-01
        1   -1    0    0  501    0  0.00000000000E+00  0.00000000000E+00  0.78293552247E+03  0.78293552249E+03  0.50400001928E-02 0.  1.
       -1   -1    0    0    0  501  0.00000000000E+00  0.00000000000E+00 -0.54348650567E+03  0.54348650570E+03  0.50400001928E-02 0. -1.
    10030    2    1    2    0    0  0.00000000000E+00  0.00000000000E+00  0.23944901680E+03  0.13264220282E+04  0.13046300492E+04 0.  0.
        4    1    3    3  502    0 -0.25160759564E+03 -0.92953709391E+02 -0.48482226231E+03  0.55407672140E+03  0.12699999809E+01 0. -1.
       -4    1    3    3    0  502  0.25160759564E+03  0.92953709391E+02  0.72427127910E+03  0.77234530678E+03  0.12699999809E+01 0.  1.
</event>
<event>
 5   0  0.3299104E-03  0.1328603E+04  0.7818609E-02  0.9007185E-01
       -2   -1    0    0    0  501  0.00000000000E+00  0.00000000000E+00  0.40159212150E+03  0.40159212151E+03  0.25500000920E-02 0. -1.
        2   -1    0    0  501    0  0.00000000000E+00  0.00000000000E+00 -0.10988677244E+04  0.10988677244E+04  0.25500000920E-02 0.  1.
    10030    2    1    2    0    0  0.00000000000E+00  0.00000000000E+00 -0.69727560289E+03  0.15004598459E+04  0.13286032074E+04 0.  0.
        2    1    3    3  502    0  0.15112740098E+03 -0.58909729630E+03 -0.46820883856E+02  0.60997320515E+03  0.25500000920E-02 0. -1.
       -2    1    3    3    0  502 -0.15112740098E+03  0.58909729630E+03 -0.65045471903E+03  0.89048664075E+03  0.25500000920E-02 0.  1.
</event>
<event>
 5   0  0.3299104E-03  0.1210313E+04  0.7818609E-02  0.9103877E-01
        2   -1    0    0  501    0  0.00000000000E+00  0.00000000000E+00  0.91665485426E+03  0.91665485427E+03  0.25500000920E-02 0. -1.
       -2   -1    0    0    0  501  0.00000000000E+00  0.00000000000E+00 -0.39951176040E+03  0.39951176041E+03  0.25500000920E-02 0.  1.
    10030    2    1    2    0    0  0.00000000000E+00  0.00000000000E+00  0.51714309386E+03  0.13161666147E+04  0.12103130083E+04 0.  0.
        2    1    3    3  502    0  0.16371778720E+03 -0.15674642514E+03 -0.35161006192E+03  0.41833311044E+03  0.25500000920E-02 0.  1.
       -2    1    3    3    0  502 -0.16371778720E+03  0.15674642514E+03  0.86875315578E+03  0.89783350424E+03  0.25500000920E-02 0. -1.
</event>
<event>
 5   0  0.3299104E-03  0.1287393E+04  0.7818609E-02  0.9039623E-01
       -2   -1    0    0    0  501  0.00000000000E+00  0.00000000000E+00  0.39917861122E+03  0.39917861123E+03  0.25500000920E-02 0. -1.
        2   -1    0    0  501    0  0.00000000000E+00  0.00000000000E+00 -0.10379942935E+04  0.10379942935E+04  0.25500000920E-02 0.  1.
    10030    2    1    2    0    0  0.00000000000E+00  0.00000000000E+00 -0.63881568228E+03  0.14371729047E+04  0.12873929012E+04 0.  0.
        2    1    3    3  502    0  0.37886298699E+03  0.17017284642E+02  0.26121790761E+03  0.46050140733E+03  0.25500000920E-02 0. -1.
       -2    1    3    3    0  502 -0.37886298699E+03 -0.17017284642E+02 -0.90003358989E+03  0.97667149740E+03  0.25500000920E-02 0.  1.
</event>
<event>
 5   0  0.1823154E-03  0.1371328E+04  0.7818609E-02  0.8974838E-01
       -1   -1    0    0    0  501  0.00000000000E+00  0.00000000000E+00  0.37585870130E+03  0.37585870133E+03  0.50400001928E-02 0.  1.
        1   -1    0    0  501    0  0.00000000000E+00  0.00000000000E+00 -0.12508290303E+04  0.12508290303E+04  0.50400001928E-02 0. -1.
    10030    2    1    2    0    0  0.00000000000E+00  0.00000000000E+00 -0.87497032902E+03  0.16266877317E+04  0.13713277871E+04 0.  0.
        2    1    3    3  502    0  0.56470301140E+03 -0.31367216213E+03 -0.71019890230E+03  0.96003239383E+03  0.25500000920E-02 0.  1.
       -2    1    3    3    0  502 -0.56470301140E+03  0.31367216213E+03 -0.16477142671E+03  0.66665533782E+03  0.25500000920E-02 0. -1.
</event>
<event>
 5   0  0.1803959E-03  0.1302213E+04  0.7818609E-02  0.9027812E-01
       -1   -1    0    0    0  501  0.00000000000E+00  0.00000000000E+00  0.43446750908E+03  0.43446750911E+03  0.50400001928E-02 0.  1.
        1   -1    0    0  501    0  0.00000000000E+00  0.00000000000E+00 -0.97576768309E+03  0.97576768310E+03  0.50400001928E-02 0. -1.
    10030    2    1    2    0    0  0.00000000000E+00  0.00000000000E+00 -0.54130017401E+03  0.14102351922E+04  0.13022125092E+04 0.  0.
        4    1    3    3  502    0  0.33088741588E+03  0.55665751994E+03 -0.19733115389E+03  0.67697509089E+03  0.12699999809E+01 0. -1.
       -4    1    3    3    0  502 -0.33088741588E+03 -0.55665751994E+03 -0.34396902012E+03  0.73326010132E+03  0.12699999809E+01 0.  1.
</event>
<event>
 5   0  0.1873488E-03  0.1314410E+04  0.7818609E-02  0.9018215E-01
        1   -1    0    0  501    0  0.00000000000E+00  0.00000000000E+00  0.72081837451E+03  0.72081837453E+03  0.50400001928E-02 0. -1.
       -1   -1    0    0    0  501  0.00000000000E+00  0.00000000000E+00 -0.59920559872E+03  0.59920559874E+03  0.50400001928E-02 0.  1.
    10030    2    1    2    0    0  0.00000000000E+00  0.00000000000E+00  0.12161277579E+03  0.13200239733E+04  0.13144099904E+04 0.  0.
        3    1    3    3  502    0 -0.12826732347E+03 -0.29973068461E+03 -0.51226858428E+03  0.60721503786E+03  0.10100000352E+00 0.  1.
       -3    1    3    3    0  502  0.12826732347E+03  0.29973068461E+03  0.63388136007E+03  0.71280893541E+03  0.10100000352E+00 0. -1.
</event>
<event>
 5   0  0.3294720E-03  0.1318570E+04  0.7818609E-02  0.9014967E-01
       -2   -1    0    0    0  501  0.00000000000E+00  0.00000000000E+00  0.56024300524E+03  0.56024300525E+03  0.25500000920E-02 0.  1.
        2   -1    0    0  501    0  0.00000000000E+00  0.00000000000E+00 -0.77583590931E+03  0.77583590932E+03  0.25500000920E-02 0. -1.
    10030    2    1    2    0    0  0.00000000000E+00  0.00000000000E+00 -0.21559290407E+03  0.13360789146E+04  0.13185698941E+04 0.  0.
        5    1    3    3  502    0 -0.60190423781E+02 -0.28444820155E+03  0.49175375715E+03  0.57129459489E+03  0.46999998093E+01 0.  1.
       -5    1    3    3    0  502  0.60190423781E+02  0.28444820155E+03 -0.70734666122E+03  0.76478431967E+03  0.46999998093E+01 0. -1.
</event>
<event>
 5   0  0.1803959E-03  0.1300620E+04  0.7818609E-02  0.9029074E-01
        1   -1    0    0  501    0  0.00000000000E+00  0.00000000000E+00  0.94134225144E+03  0.94134225145E+03  0.50400001928E-02 0.  1.
       -1   -1    0    0    0  501  0.00000000000E+00  0.00000000000E+00 -0.44925506794E+03  0.44925506796E+03  0.50400001928E-02 0. -1.
    10030    2    1    2    0    0  0.00000000000E+00  0.00000000000E+00  0.49208718351E+03  0.13905973194E+04  0.13006195095E+04 0.  0.
        4    1    3    3  502    0 -0.56827239496E+03  0.38939565131E+01 -0.91980710386E+02  0.57568284824E+03  0.12699999809E+01 0. -1.
       -4    1    3    3    0  502  0.56827239496E+03 -0.38939565131E+01  0.58406789389E+03  0.81491447118E+03  0.12699999809E+01 0.  1.
</event>
<event>
 5   0  0.3294720E-03  0.1295255E+04  0.7818609E-02  0.9033337E-01
        2   -1    0    0  501    0  0.00000000000E+00  0.00000000000E+00  0.34045452807E+03  0.34045452808E+03  0.25500000920E-02 0. -1.
       -2   -1    0    0    0  501  0.00000000000E+00  0.00000000000E+00 -0.12319446316E+04  0.12319446316E+04  0.25500000920E-02 0.  1.
    10030    2    1    2    0    0  0.00000000000E+00  0.00000000000E+00 -0.89149010350E+03  0.15723991597E+04  0.12952546131E+04 0.  0.
        5    1    3    3  502    0 -0.47683495958E+03 -0.43806760323E+03 -0.43221408803E+03  0.77852804161E+03  0.46999998093E+01 0. -1.
       -5    1    3    3    0  502  0.47683495958E+03  0.43806760323E+03 -0.45927601547E+03  0.79387111805E+03  0.46999998093E+01 0.  1.
</event>
<event>
 5   0  0.1803959E-03  0.1231658E+04  0.7818609E-02  0.9085589E-01
       -1   -1    0    0    0  501  0.00000000000E+00  0.00000000000E+00  0.90372271530E+03  0.90372271531E+03  0.50400001928E-02 0. -1.
        1   -1    0    0  501    0  0.00000000000E+00  0.00000000000E+00 -0.41964809480E+03  0.41964809483E+03  0.50400001928E-02 0.  1.
    10030    2    1    2    0    0  0.00000000000E+00  0.00000000000E+00  0.48407462050E+03  0.13233708101E+04  0.12316582574E+04 0.  0.
        4    1    3    3  502    0  0.23513289269E+03  0.53425834574E+03  0.45292902939E+03  0.73882729767E+03  0.12699999809E+01 0. -1.
       -4    1    3    3    0  502 -0.23513289269E+03 -0.53425834574E+03  0.31145591113E+02  0.58454351247E+03  0.12699999809E+01 0.  1.
</event>
<event>
 5   0  0.1814770E-03  0.1282500E+04  0.7818609E-02  0.9043559E-01
       -1   -1    0    0    0  501  0.00000000000E+00  0.00000000000E+00  0.31029073131E+03  0.31029073135E+03  0.50400001928E-02 0. -1.
        1   -1    0    0  501    0  0.00000000000E+00  0.00000000000E+00 -0.13252131742E+04  0.13252131742E+04  0.50400001928E-02 0.  1.
    10030    2    1    2    0    0  0.00000000000E+00  0.00000000000E+00 -0.10149224429E+04  0.16355039056E+04  0.12824996920E+04 0.  0.
        5    1    3    3  502    0  0.74780521251E+02  0.54387292368E+03 -0.93000771796E+03  0.10799658925E+04  0.46999998093E+01 0.  1.
       -5    1    3    3    0  502 -0.74780521251E+02 -0.54387292368E+03 -0.84914724932E+02  0.55553801308E+03  0.46999998093E+01 0. -1.
</event>
<event>
 5   0  0.1873488E-03  0.1294182E+04  0.7818609E-02  0.9034191E-01
       -1   -1    0    0    0  501  0.00000000000E+00  0.00000000000E+00  0.78154924575E+03  0.78154924576E+03  0.50400001928E-02 0.  1.
        1   -1    0    0  501    0  0.00000000000E+00  0.00000000000E+00 -0.53576537757E+03  0.53576537760E+03  0.50400001928E-02 0. -1.
    10030    2    1    2    0    0  0.00000000000E+00  0.00000000000E+00  0.24578386817E+03  0.13173146234E+04  0.12941824087E+04 0.  0.
        3    1    3    3  502    0 -0.10235167915E+03  0.24282489350E+02 -0.52700408320E+03  0.53740005528E+03  0.10100000352E+00 0. -1.
       -3    1    3    3    0  502  0.10235167915E+03 -0.24282489350E+02  0.77278795137E+03  0.77991456807E+03  0.10100000352E+00 0.  1.
</event>
<event>
 5   0  0.1857986E-03  0.1293531E+04  0.7818609E-02  0.9034711E-01
        1   -1    0    0  501    0  0.00000000000E+00  0.00000000000E+00  0.56749192245E+03  0.56749192247E+03  0.50400001928E-02 0.  1.
       -1   -1    0    0    0  501  0.00000000000E+00  0.00000000000E+00 -0.73711278717E+03  0.73711278719E+03  0.50400001928E-02 0. -1.
    10030    2    1    2    0    0  0.00000000000E+00  0.00000000000E+00 -0.16962086472E+03  0.13046047097E+04  0.12935309083E+04 0.  0.
        1    1    3    3  502    0 -0.32169175007E+03  0.46160933204E+02  0.47916284942E+03  0.57897620858E+03  0.50400001928E-02 0.  1.
       -1    1    3    3    0  502  0.32169175007E+03 -0.46160933204E+02 -0.64878371414E+03  0.72562850108E+03  0.50400001928E-02 0. -1.
</event>
<event>
 5   0  0.3259968E-03  0.1129875E+04  0.7818609E-02  0.9176553E-01
       -2   -1    0    0    0  501  0.00000000000E+00  0.00000000000E+00  0.34843604536E+03  0.34843604537E+03  0.25500000920E-02 0. -1.
        2   -1    0    0  501    0  0.00000000000E+00  0.00000000000E+00 -0.91596240186E+03  0.91596240186E+03  0.25500000920E-02 0.  1.
    10030    2    1    2    0    0  0.00000000000E+00  0.00000000000E+00 -0.56752635650E+03  0.12643984472E+04  0.11298748904E+04 0.  0.
        4    1    3    3  502    0  0.41856672258E+03  0.66993346418E+02  0.13415237945E+03  0.44461745752E+03  0.12699999809E+01 0. -1.
       -4    1    3    3    0  502 -0.41856672258E+03 -0.66993346418E+02 -0.70167873595E+03  0.81978098972E+03  0.12699999809E+01 0.  1.
</event>
<event>
 5   0  0.3299104E-03  0.1275496E+04  0.7818609E-02  0.9049226E-01
        2   -1    0    0  501    0  0.00000000000E+00  0.00000000000E+00  0.39732313762E+03  0.39732313763E+03  0.25500000920E-02 0.  1.
       -2   -1    0    0    0  501  0.00000000000E+00  0.00000000000E+00 -0.10236563206E+04  0.10236563206E+04  0.25500000920E-02 0. -1.
    10030    2    1    2    0    0  0.00000000000E+00  0.00000000000E+00 -0.62633318297E+03  0.14209794582E+04  0.12754957329E+04 0.  0.
        2    1    3    3  502    0 -0.28833750780E+03 -0.51949245130E+03 -0.57135818017E+03  0.82429430146E+03  0.25500000920E-02 0. -1.
       -2    1    3    3    0  502  0.28833750780E+03  0.51949245130E+03 -0.54975002802E+02  0.59668515677E+03  0.25500000920E-02 0.  1.
</event>
<event>
 5   0  0.1873488E-03  0.1301080E+04  0.7818609E-02  0.9028709E-01
       -1   -1    0    0    0  501  0.00000000000E+00  0.00000000000E+00  0.51550186468E+03  0.51550186471E+03  0.50400001928E-02 0.  1.
        1   -1    0    0  501    0  0.00000000000E+00  0.00000000000E+00 -0.82095151223E+03  0.82095151225E+03  0.50400001928E-02 0. -1.
    10030    2    1    2    0    0  0.00000000000E+00  0.00000000000E+00 -0.30544964755E+03  0.13364533770E+04  0.13010796062E+04 0.  0.
        3    1    3    3  502    0  0.24727526162E+03  0.31563455046E+03  0.37348405704E+03  0.54796037769E+03  0.10100000352E+00 0.  1.
       -3    1    3    3    0  502 -0.24727526162E+03 -0.31563455046E+03 -0.67893370460E+03  0.78849299926E+03  0.10100000352E+00 0. -1.
</event>
<event>
 5   0  0.3262927E-03  0.1288946E+04  0.7818609E-02  0.9038377E-01
        2   -1    0    0  501    0  0.00000000000E+00  0.00000000000E+00  0.90261332427E+03  0.90261332428E+03  0.25500000920E-02 0. -1.
       -2   -1    0    0    0  501  0.00000000000E+00  0.00000000000E+00 -0.46015879224E+03  0.46015879225E+03  0.25500000920E-02 0.  1.
    10030    2    1    2    0    0  0.00000000000E+00  0.00000000000E+00  0.44245453203E+03  0.13627721165E+04  0.12889460146E+04 0.  0.
        3    1    3    3  502    0  0.23289672355E+03 -0.43770485640E+02  0.85487786287E+03  0.88711493612E+03  0.10100000352E+00 0. -1.
       -3    1    3    3    0  502 -0.23289672355E+03  0.43770485640E+02 -0.41242333084E+03  0.47565718041E+03  0.10100000352E+00 0.  1.
</event>
<event>
 5   0  0.1857986E-03  0.1295811E+04  0.7818609E-02  0.9032894E-01
        1   -1    0    0  501    0  0.00000000000E+00  0.00000000000E+00  0.10407728045E+04  0.10407728045E+04  0.50400001928E-02 0.  1.
       -1   -1    0    0    0  501  0.00000000000E+00  0.00000000000E+00 -0.40333621954E+03  0.40333621958E+03  0.50400001928E-02 0. -1.
    10030    2    1    2    0    0  0.00000000000E+00  0.00000000000E+00  0.63743658494E+03  0.14441090241E+04  0.12958107399E+04 0.  0.
        1    1    3    3  502    0 -0.39562130451E+03  0.30566887902E+02 -0.25208052244E+03  0.47010120297E+03  0.50400001928E-02 0. -1.
       -1    1    3    3    0  502  0.39562130451E+03 -0.30566887902E+02  0.88951710737E+03  0.97400782110E+03  0.50400001928E-02 0.  1.
</event>
<event>
 5   0  0.1803959E-03  0.1291317E+04  0.7818609E-02  0.9036479E-01
        1   -1    0    0  501    0  0.00000000000E+00  0.00000000000E+00  0.17108632089E+04  0.17108632089E+04  0.50400001928E-02 0. -1.
       -1   -1    0    0    0  501  0.00000000000E+00  0.00000000000E+00 -0.24366354962E+03  0.24366354967E+03  0.50400001928E-02 0.  1.
    10030    2    1    2    0    0  0.00000000000E+00  0.00000000000E+00  0.14671996593E+04  0.19545267586E+04  0.12913171608E+04 0.  0.
        4    1    3    3  502    0  0.41524046592E+03 -0.45460819242E+03  0.43940132651E+03  0.75641813291E+03  0.12699999809E+01 0.  1.
       -4    1    3    3    0  502 -0.41524046592E+03  0.45460819242E+03  0.10277983327E+04  0.11981086256E+04  0.12699999809E+01 0. -1.
</event>
<event>
 5   0  0.1814770E-03  0.1271590E+04  0.7818609E-02  0.9052403E-01
        1   -1    0    0  501    0  0.00000000000E+00  0.00000000000E+00  0.51546371119E+03  0.51546371122E+03  0.50400001928E-02 0. -1.
       -1   -1    0    0    0  501  0.00000000000E+00  0.00000000000E+00 -0.78421617897E+03  0.78421617899E+03  0.50400001928E-02 0.  1.
    10030    2    1    2    0    0  0.00000000000E+00  0.00000000000E+00 -0.26875246778E+03  0.12996798902E+04  0.12715895281E+04 0.  0.
        5    1    3    3  502    0  0.21789660102E+03  0.21179393652E+03 -0.70517277615E+03  0.76787130074E+03  0.46999998093E+01 0.  1.
       -5    1    3    3    0  502 -0.21789660102E+03 -0.21179393652E+03  0.43642030837E+03  0.53180858947E+03  0.46999998093E+01 0. -1.
</event>
<event>
 5   0  0.3262927E-03  0.1296707E+04  0.7818609E-02  0.9032180E-01
        2   -1    0    0  501    0  0.00000000000E+00  0.00000000000E+00  0.13705337405E+04  0.13705337405E+04  0.25500000920E-02 0. -1.
       -2   -1    0    0    0  501  0.00000000000E+00  0.00000000000E+00 -0.30671435067E+03  0.30671435068E+03  0.25500000920E-02 0.  1.
    10030    2    1    2    0    0  0.00000000000E+00  0.00000000000E+00  0.10638193899E+04  0.16772480912E+04  0.12967071625E+04 0.  0.
        3    1    3    3  502    0  0.97591080263E+02 -0.91527196322E+01 -0.29707515920E+03  0.31282815033E+03  0.10100000352E+00 0.  1.
       -3    1    3    3    0  502 -0.97591080263E+02  0.91527196322E+01  0.13608945491E+04  0.13644199409E+04  0.10100000352E+00 0. -1.
</event>
<event>
 5   0  0.1857986E-03  0.1294388E+04  0.7818609E-02  0.9034027E-01
        1   -1    0    0  501    0  0.00000000000E+00  0.00000000000E+00  0.14909381056E+04  0.14909381056E+04  0.50400001928E-02 0.  1.
       -1   -1    0    0    0  501  0.00000000000E+00  0.00000000000E+00 -0.28093735863E+03  0.28093735867E+03  0.50400001928E-02 0. -1.
    10030    2    1    2    0    0  0.00000000000E+00  0.00000000000E+00  0.12100007470E+04  0.17718754643E+04  0.12943882158E+04 0.  0.
        1    1    3    3  502    0 -0.38174452363E+03 -0.25791552581E+01 -0.11039992433E+03  0.39739612062E+03  0.50400001928E-02 0. -1.
       -1    1    3    3    0  502  0.38174452363E+03  0.25791552581E+01  0.13204006713E+04  0.13744793437E+04  0.50400001928E-02 0.  1.
</event>
<event>
 5   0  0.3336609E-03  0.1155291E+04  0.7818609E-02  0.9152916E-01
       -2   -1    0    0    0  501  0.00000000000E+00  0.00000000000E+00  0.10740139392E+04  0.10740139392E+04  0.25500000920E-02 0. -1.
        2   -1    0    0  501    0  0.00000000000E+00  0.00000000000E+00 -0.31067976494E+03  0.31067976495E+03  0.25500000920E-02 0.  1.
    10030    2    1    2    0    0  0.00000000000E+00  0.00000000000E+00  0.76333417430E+03  0.13846937042E+04  0.11552911290E+04 0.  0.
        1    1    3    3  502    0  0.54421720575E+03  0.19338322674E+03  0.39394633013E+03  0.69911597784E+03  0.50400001928E-02 0.  1.
       -1    1    3    3    0  502 -0.54421720575E+03 -0.19338322674E+03  0.36938784417E+03  0.68557772635E+03  0.50400001928E-02 0. -1.
</event>
<event>
 5   0  0.1803959E-03  0.1299184E+04  0.7818609E-02  0.9030212E-01
        1   -1    0    0  501    0  0.00000000000E+00  0.00000000000E+00  0.35612944556E+03  0.35612944560E+03  0.50400001928E-02 0. -1.
       -1   -1    0    0    0  501  0.00000000000E+00  0.00000000000E+00 -0.11848778128E+04  0.11848778128E+04  0.50400001928E-02 0.  1.
    10030    2    1    2    0    0  0.00000000000E+00  0.00000000000E+00 -0.82874836723E+03  0.15410072584E+04  0.12991841726E+04 0.  0.
        4    1    3    3  502    0 -0.27919143767E+03  0.29622003631E+03 -0.10148372768E+04  0.10934306014E+04  0.12699999809E+01 0.  1.
       -4    1    3    3    0  502  0.27919143767E+03 -0.29622003631E+03  0.18608890953E+03  0.44757665704E+03  0.12699999809E+01 0. -1.
</event>
<event>
 5   0  0.1814770E-03  0.1320524E+04  0.7818609E-02  0.9013446E-01
        1   -1    0    0  501    0  0.00000000000E+00  0.00000000000E+00  0.11153103815E+04  0.11153103815E+04  0.50400001928E-02 0. -1.
       -1   -1    0    0    0  501  0.00000000000E+00  0.00000000000E+00 -0.39087422822E+03  0.39087422825E+03  0.50400001928E-02 0.  1.
    10030    2    1    2    0    0  0.00000000000E+00  0.00000000000E+00  0.72443615325E+03  0.15061846097E+04  0.13205242665E+04 0.  0.
        5    1    3    3  502    0 -0.83030351257E+02 -0.51364265245E+03  0.82581270273E+03  0.97606942562E+03  0.46999998093E+01 0. -1.
       -5    1    3    3    0  502  0.83030351257E+02  0.51364265245E+03 -0.10137654948E+03  0.53011518411E+03  0.46999998093E+01 0.  1.
</event>
<event>
 5   0  0.1823154E-03  0.1330584E+04  0.7818609E-02  0.9005657E-01
       -1   -1    0    0    0  501  0.00000000000E+00  0.00000000000E+00  0.27726759110E+03  0.27726759114E+03  0.50400001928E-02 0.  1.
        1   -1    0    0  501    0  0.00000000000E+00  0.00000000000E+00 -0.15963413741E+04  0.15963413741E+04  0.50400001928E-02 0. -1.
    10030    2    1    2    0    0  0.00000000000E+00  0.00000000000E+00 -0.13190737830E+04  0.18736089652E+04  0.13305844241E+04 0.  0.
        2    1    3    3  502    0 -0.53295188789E+02  0.55126650086E+03 -0.14048348595E+03  0.57137618251E+03  0.25500000920E-02 0.  1.
       -2    1    3    3    0  502  0.53295188789E+02 -0.55126650086E+03 -0.11785902971E+04  0.13022327827E+04  0.25500000920E-02 0. -1.
</event>
<event>
 5   0  0.1823154E-03  0.1324080E+04  0.7818609E-02  0.9010684E-01
        1   -1    0    0  501    0  0.00000000000E+00  0.00000000000E+00  0.50934814072E+03  0.50934814075E+03  0.50400001928E-02 0.  1.
       -1   -1    0    0    0  501  0.00000000000E+00  0.00000000000E+00 -0.86050614236E+03  0.86050614238E+03  0.50400001928E-02 0. -1.
    10030    2    1    2    0    0  0.00000000000E+00  0.00000000000E+00 -0.35115800164E+03  0.13698542831E+04  0.13240803657E+04 0.  0.
        2    1    3    3  502    0  0.24683726495E+03  0.11665725892E+02 -0.81100439244E+03  0.84781651853E+03  0.25500000920E-02 0. -1.
       -2    1    3    3    0  502 -0.24683726495E+03 -0.11665725892E+02  0.45984639080E+03  0.52203776460E+03  0.25500000920E-02 0.  1.
</event>
<event>
 5   0  0.1814770E-03  0.1291907E+04  0.7818609E-02  0.9036008E-01
       -1   -1    0    0    0  501  0.00000000000E+00  0.00000000000E+00  0.46083338559E+03  0.46083338561E+03  0.50400001928E-02 0. -1.
        1   -1    0    0  501    0  0.00000000000E+00  0.00000000000E+00 -0.90543794773E+03  0.90543794774E+03  0.50400001928E-02 0.  1.
    10030    2    1    2    0    0  0.00000000000E+00  0.00000000000E+00 -0.44460456214E+03  0.13662713334E+04  0.12919071715E+04 0.  0.
        5    1    3    3  502    0  0.44660534216E+03  0.44644445832E+03 -0.36600990872E+03  0.72990021872E+03  0.46999998093E+01 0.  1.
       -5    1    3    3    0  502 -0.44660534216E+03 -0.44644445832E+03 -0.78594653426E+02  0.63637111464E+03  0.46999998093E+01 0. -1.
</event>
<event>
 5   0  0.3299104E-03  0.1312737E+04  0.7818609E-02  0.9019525E-01
        2   -1    0    0  501    0  0.00000000000E+00  0.00000000000E+00  0.83323668490E+03  0.83323668490E+03  0.25500000920E-02 0. -1.
       -2   -1    0    0    0  501  0.00000000000E+00  0.00000000000E+00 -0.51704384001E+03  0.51704384002E+03  0.25500000920E-02 0.  1.
    10030    2    1    2    0    0  0.00000000000E+00  0.00000000000E+00  0.31619284489E+03  0.13502805249E+04  0.13127374379E+04 0.  0.
        2    1    3    3  502    0 -0.44742936136E+03 -0.48008570360E+03  0.17046440124E+03  0.67803645057E+03  0.25500000920E-02 0. -1.
       -2    1    3    3    0  502  0.44742936136E+03  0.48008570360E+03  0.14572844365E+03  0.67224407435E+03  0.25500000920E-02 0.  1.
</event>
<event>
 5   0  0.1803959E-03  0.1132629E+04  0.7818609E-02  0.9173960E-01
       -1   -1    0    0    0  501  0.00000000000E+00  0.00000000000E+00  0.18351617525E+03  0.18351617532E+03  0.50400001928E-02 0.  1.
        1   -1    0    0  501    0  0.00000000000E+00  0.00000000000E+00 -0.17475956391E+04  0.17475956391E+04  0.50400001928E-02 0. -1.
    10030    2    1    2    0    0  0.00000000000E+00  0.00000000000E+00 -0.15640794638E+04  0.19311118144E+04  0.11326289201E+04 0.  0.
        4    1    3    3  502    0  0.14968226890E+03  0.19916300147E+03 -0.16491362228E+04  0.16678496866E+04  0.12699999809E+01 0. -1.
       -4    1    3    3    0  502 -0.14968226890E+03 -0.19916300147E+03  0.85056759000E+02  0.26326212779E+03  0.12699999809E+01 0.  1.
</event>
<event>
 5   0  0.1857986E-03  0.1269648E+04  0.7818609E-02  0.9053987E-01
        1   -1    0    0  501    0  0.00000000000E+00  0.00000000000E+00  0.12215209865E+04  0.12215209865E+04  0.50400001928E-02 0.  1.
       -1   -1    0    0    0  501  0.00000000000E+00  0.00000000000E+00 -0.32991780514E+03  0.32991780518E+03  0.50400001928E-02 0. -1.
    10030    2    1    2    0    0  0.00000000000E+00  0.00000000000E+00  0.89160318132E+03  0.15514387917E+04  0.12696480187E+04 0.  0.
        1    1    3    3  502    0 -0.45359895051E+03  0.18272596778E+03  0.94044104795E+03  0.10599859206E+04  0.50400001928E-02 0.  1.
       -1    1    3    3    0  502  0.45359895051E+03 -0.18272596778E+03 -0.48837866634E+02  0.49145287104E+03  0.50400001928E-02 0. -1.
</event>
<event>
 5   0  0.1857986E-03  0.1294456E+04  0.7818609E-02  0.9033973E-01
       -1   -1    0    0    0  501  0.00000000000E+00  0.00000000000E+00  0.39587697593E+03  0.39587697597E+03  0.50400001928E-02 0. -1.
        1   -1    0    0  501    0  0.00000000000E+00  0.00000000000E+00 -0.10581675737E+04  0.10581675737E+04  0.50400001928E-02 0.  1.
    10030    2    1    2    0    0  0.00000000000E+00  0.00000000000E+00 -0.66229059779E+03  0.14540445497E+04  0.12944561470E+04 0.  0.
        1    1    3    3  502    0 -0.29967049789E+03 -0.55614473626E+03 -0.48922483274E+03  0.79902460036E+03  0.50400001928E-02 0.  1.
       -1    1    3    3    0  502  0.29967049789E+03  0.55614473626E+03 -0.17306576505E+03  0.65501994934E+03  0.50400001928E-02 0. -1.
</event>
<event>
 5   0  0.1254125E-03  0.1295014E+04  0.7818609E-02  0.9033529E-01
        3   -1    0    0  501    0  0.00000000000E+00  0.00000000000E+00  0.22694056044E+03  0.22694058291E+03  0.10100000352E+00 0. -1.
       -3   -1    0    0    0  501  0.00000000000E+00  0.00000000000E+00 -0.18474670365E+04  0.18474670392E+04  0.10100000352E+00 0.  1.
    10030    2    1    2    0    0  0.00000000000E+00  0.00000000000E+00 -0.16205264760E+04  0.20744076221E+04  0.12950138699E+04 0.  0.
        3    1    3    3  502    0 -0.32960124083E+03  0.55728519928E+03 -0.82282001689E+03  0.10470131621E+04  0.10100000352E+00 0. -1.
       -3    1    3    3    0  502  0.32960124083E+03 -0.55728519928E+03 -0.79770645914E+03  0.10273944600E+04  0.10100000352E+00 0.  1.
</event>
<event>
 5   0  0.3259968E-03  0.1291458E+04  0.7818609E-02  0.9036367E-01
        2   -1    0    0  501    0  0.00000000000E+00  0.00000000000E+00  0.16221765484E+04  0.16221765484E+04  0.25500000920E-02 0.  1.
       -2   -1    0    0    0  501  0.00000000000E+00  0.00000000000E+00 -0.25704086178E+03  0.25704086180E+03  0.25500000920E-02 0. -1.
    10030    2    1    2    0    0  0.00000000000E+00  0.00000000000E+00  0.13651356866E+04  0.18792174102E+04  0.12914575610E+04 0.  0.
        4    1    3    3  502    0 -0.22780085711E+03  0.55577725787E+03  0.10274710573E+04  0.11901596436E+04  0.12699999809E+01 0.  1.
       -4    1    3    3    0  502  0.22780085711E+03 -0.55577725787E+03  0.33766462933E+03  0.68905776657E+03  0.12699999809E+01 0. -1.
</event>
<event>
 5   0  0.1857986E-03  0.1323873E+04  0.7818609E-02  0.9010845E-01
       -1   -1    0    0    0  501  0.00000000000E+00  0.00000000000E+00  0.42463340714E+03  0.42463340717E+03  0.50400001928E-02 0. -1.
        1   -1    0    0  501    0  0.00000000000E+00  0.00000000000E+00 -0.10318546264E+04  0.10318546264E+04  0.50400001928E-02 0.  1.
    10030    2    1    2    0    0  0.00000000000E+00  0.00000000000E+00 -0.60722121929E+03  0.14564880336E+04  0.13238730237E+04 0.  0.
        1    1    3    3  502    0 -0.65312059899E+03 -0.10737880373E+03 -0.31235828353E+03  0.73189099026E+03  0.50400001928E-02 0.  1.
       -1    1    3    3    0  502  0.65312059899E+03  0.10737880373E+03 -0.29486293575E+03  0.72459704334E+03  0.50400001928E-02 0. -1.
</event>
<event>
 5   0  0.3259968E-03  0.1301674E+04  0.7818609E-02  0.9028239E-01
       -2   -1    0    0    0  501  0.00000000000E+00  0.00000000000E+00  0.78193214558E+03  0.78193214558E+03  0.25500000920E-02 0. -1.
        2   -1    0    0  501    0  0.00000000000E+00  0.00000000000E+00 -0.54172036358E+03  0.54172036358E+03  0.25500000920E-02 0.  1.
    10030    2    1    2    0    0  0.00000000000E+00  0.00000000000E+00  0.24021178200E+03  0.13236525092E+04  0.13016736399E+04 0.  0.
        4    1    3    3  502    0  0.97868849659E+01 -0.63598772340E+03  0.26031360622E+03  0.68727065550E+03  0.12699999809E+01 0. -1.
       -4    1    3    3    0  502 -0.97868849659E+01  0.63598772340E+03 -0.20101824219E+02  0.63638185366E+03  0.12699999809E+01 0.  1.
</event>
<event>
 5   0  0.3262927E-03  0.1307627E+04  0.7818609E-02  0.9023539E-01
        2   -1    0    0  501    0  0.00000000000E+00  0.00000000000E+00  0.19374823853E+04  0.19374823853E+04  0.25500000920E-02 0. -1.
       -2   -1    0    0    0  501  0.00000000000E+00  0.00000000000E+00 -0.22063269349E+03  0.22063269351E+03  0.25500000920E-02 0.  1.
    10030    2    1    2    0    0  0.00000000000E+00  0.00000000000E+00  0.17168496918E+04  0.21581150788E+04  0.13076267927E+04 0.  0.
        3    1    3    3  502    0  0.31653593323E+03 -0.24312926552E+03  0.17130819860E+04  0.17589646778E+04  0.10100000352E+00 0. -1.
       -3    1    3    3    0  502 -0.31653593323E+03  0.24312926552E+03  0.37677057541E+01  0.39915040096E+03  0.10100000352E+00 0.  1.
</event>
<event>
 5   0  0.3336609E-03  0.1337388E+04  0.7818609E-02  0.9000431E-01
        2   -1    0    0  501    0  0.00000000000E+00  0.00000000000E+00  0.14933369723E+04  0.14933369724E+04  0.25500000920E-02 0.  1.
       -2   -1    0    0    0  501  0.00000000000E+00  0.00000000000E+00 -0.29943112352E+03  0.29943112353E+03  0.25500000920E-02 0. -1.
    10030    2    1    2    0    0  0.00000000000E+00  0.00000000000E+00  0.11939058488E+04  0.17927680959E+04  0.13373878532E+04 0.  0.
        1    1    3    3  502    0 -0.54187755334E+03  0.18277401469E+03  0.10615360746E+04  0.12057762898E+04  0.50400001928E-02 0. -1.
       -1    1    3    3    0  502  0.54187755334E+03 -0.18277401469E+03  0.13236977418E+03  0.58699180608E+03  0.50400001928E-02 0.  1.
</event>
<event>
 5   0  0.3259968E-03  0.1311353E+04  0.7818609E-02  0.9020610E-01
        2   -1    0    0  501    0  0.00000000000E+00  0.00000000000E+00  0.12899650812E+04  0.12899650812E+04  0.25500000920E-02 0.  1.
       -2   -1    0    0    0  501  0.00000000000E+00  0.00000000000E+00 -0.33327408737E+03  0.33327408738E+03  0.25500000920E-02 0. -1.
    10030    2    1    2    0    0  0.00000000000E+00  0.00000000000E+00  0.95669099380E+03  0.16232391686E+04  0.13113534004E+04 0.  0.
        4    1    3    3  502    0  0.52537664069E+03  0.16516652553E+01  0.96392875512E+03  0.10978085445E+04  0.12699999809E+01 0.  1.
       -4    1    3    3    0  502 -0.52537664069E+03 -0.16516652553E+01 -0.72377613193E+01  0.52543062403E+03  0.12699999809E+01 0. -1.
</event>
<event>
 5   0  0.1857986E-03  0.1291367E+04  0.7818609E-02  0.9036439E-01
       -1   -1    0    0    0  501  0.00000000000E+00  0.00000000000E+00  0.82836549361E+03  0.82836549363E+03  0.50400001928E-02 0. -1.
        1   -1    0    0  501    0  0.00000000000E+00  0.00000000000E+00 -0.50328884166E+03  0.50328884169E+03  0.50400001928E-02 0.  1.
    10030    2    1    2    0    0  0.00000000000E+00  0.00000000000E+00  0.32507665195E+03  0.13316543353E+04  0.12913668879E+04 0.  0.
        1    1    3    3  502    0  0.53952568960E+03  0.61190683095E+02  0.52283059498E+03  0.75377987537E+03  0.50400001928E-02 0. -1.
       -1    1    3    3    0  502 -0.53952568960E+03 -0.61190683095E+02 -0.19775394304E+03  0.57787445994E+03  0.50400001928E-02 0.  1.
</event>
<event>
 5   0  0.3262927E-03  0.1264894E+04  0.7818609E-02  0.9057878E-01
        2   -1    0    0  501    0  0.00000000000E+00  0.00000000000E+00  0.16710270300E+04  0.16710270300E+04  0.25500000920E-02 0. -1.
       -2   -1    0    0    0  501  0.00000000000E+00  0.00000000000E+00 -0.23936711330E+03  0.23936711332E+03  0.25500000920E-02 0.  1.
    10030    2    1    2    0    0  0.00000000000E+00  0.00000000000E+00  0.14316599167E+04  0.19103941433E+04  0.12648935393E+04 0.  0.
        3    1    3    3  502    0 -0.29544287205E+03 -0.21180264247E+03 -0.65812944464E+02  0.36942956549E+03  0.10100000352E+00 0.  1.
       -3    1    3    3    0  502  0.29544287205E+03  0.21180264247E+03  0.14974728612E+04  0.15409645778E+04  0.10100000352E+00 0. -1.
</event>
<event>
 5   0  0.1857986E-03  0.1308640E+04  0.7818609E-02  0.9022742E-01
       -1   -1    0    0    0  501  0.00000000000E+00  0.00000000000E+00  0.36403043954E+03  0.36403043957E+03  0.50400001928E-02 0.  1.
        1   -1    0    0  501    0  0.00000000000E+00  0.00000000000E+00 -0.11760955588E+04  0.11760955588E+04  0.50400001928E-02 0. -1.
    10030    2    1    2    0    0  0.00000000000E+00  0.00000000000E+00 -0.81206511929E+03  0.15401259984E+04  0.13086398790E+04 0.  0.
        1    1    3    3  502    0 -0.77240245038E+02  0.64928402368E+03 -0.43483115639E+03  0.78524768924E+03  0.50400001928E-02 0. -1.
       -1    1    3    3    0  502  0.77240245038E+02 -0.64928402368E+03 -0.37723396290E+03  0.75487830917E+03  0.50400001928E-02 0.  1.
</event>
<event>
 5   0  0.3259968E-03  0.1497447E+04  0.7818609E-02  0.8886152E-01
        2   -1    0    0  501    0  0.00000000000E+00  0.00000000000E+00  0.50919093362E+03  0.50919093363E+03  0.25500000920E-02 0.  1.
       -2   -1    0    0    0  501  0.00000000000E+00  0.00000000000E+00 -0.11009372011E+04  0.11009372011E+04  0.25500000920E-02 0. -1.
    10030    2    1    2    0    0  0.00000000000E+00  0.00000000000E+00 -0.59174626743E+03  0.16101281347E+04  0.14974474832E+04 0.  0.
        4    1    3    3  502    0  0.61609943823E+03 -0.25702911739E+03  0.68671217810E+02  0.67108854410E+03  0.12699999809E+01 0.  1.
       -4    1    3    3    0  502 -0.61609943823E+03  0.25702911739E+03 -0.66041748524E+03  0.93903959058E+03  0.12699999809E+01 0. -1.
</event>
<event>
 5   0  0.3299104E-03  0.1298385E+04  0.7818609E-02  0.9030847E-01
       -2   -1    0    0    0  501  0.00000000000E+00  0.00000000000E+00  0.52027941059E+03  0.52027941060E+03  0.25500000920E-02 0. -1.
        2   -1    0    0  501    0  0.00000000000E+00  0.00000000000E+00 -0.81004662807E+03  0.81004662808E+03  0.25500000920E-02 0.  1.
    10030    2    1    2    0    0  0.00000000000E+00  0.00000000000E+00 -0.28976721748E+03  0.13303260387E+04  0.12983845073E+04 0.  0.
        2    1    3    3  502    0 -0.55829653697E+03 -0.12324821021E+03 -0.45996371658E+03  0.73379272625E+03  0.25500000920E-02 0.  1.
       -2    1    3    3    0  502  0.55829653697E+03  0.12324821021E+03  0.17019649910E+03  0.59653331242E+03  0.25500000920E-02 0. -1.
</event>
<event>
 5   0  0.3336609E-03  0.1290616E+04  0.7818609E-02  0.9037040E-01
       -2   -1    0    0    0  501  0.00000000000E+00  0.00000000000E+00  0.41100874206E+03  0.41100874207E+03  0.25500000920E-02 0. -1.
        2   -1    0    0  501    0  0.00000000000E+00  0.00000000000E+00 -0.10131712934E+04  0.10131712934E+04  0.25500000920E-02 0.  1.
    10030    2    1    2    0    0  0.00000000000E+00  0.00000000000E+00 -0.60216255133E+03  0.14241800355E+04  0.12906157581E+04 0.  0.
        1    1    3    3  502    0 -0.27597898706E+03 -0.75535112938E+02  0.33718212625E+03  0.44222363220E+03  0.50400001928E-02 0. -1.
       -1    1    3    3    0  502  0.27597898706E+03  0.75535112938E+02 -0.93934467758E+03  0.98195640326E+03  0.50400001928E-02 0.  1.
</event>
<event>
 5   0  0.3262927E-03  0.1257866E+04  0.7818609E-02  0.9063662E-01
       -2   -1    0    0    0  501  0.00000000000E+00  0.00000000000E+00  0.45440540946E+03  0.45440540947E+03  0.25500000920E-02 0.  1.
        2   -1    0    0  501    0  0.00000000000E+00  0.00000000000E+00 -0.87049245364E+03  0.87049245365E+03  0.25500000920E-02 0. -1.
    10030    2    1    2    0    0  0.00000000000E+00  0.00000000000E+00 -0.41608704418E+03  0.13248978631E+04  0.12578656205E+04 0.  0.
        3    1    3    3  502    0  0.11015268347E+03 -0.48512766954E+03 -0.61335374402E+03  0.78973748482E+03  0.10100000352E+00 0. -1.
       -3    1    3    3    0  502 -0.11015268347E+03  0.48512766954E+03  0.19726669984E+03  0.53516037829E+03  0.10100000352E+00 0.  1.
</event>
<event>
 5   0  0.1254125E-03  0.1326622E+04  0.7818609E-02  0.9008716E-01
       -3   -1    0    0    0  501  0.00000000000E+00  0.00000000000E+00  0.14581808637E+04  0.14581808672E+04  0.10100000352E+00 0. -1.
        3   -1    0    0  501    0  0.00000000000E+00  0.00000000000E+00 -0.30173328877E+03  0.30173330568E+03  0.10100000352E+00 0.  1.
    10030    2    1    2    0    0  0.00000000000E+00  0.00000000000E+00  0.11564475749E+04  0.17599141728E+04  0.13266223661E+04 0.  0.
        5    1    3    3  502    0 -0.32051319827E+03 -0.19456564947E+03  0.13040824027E+04  0.13569220704E+04  0.46999998093E+01 0. -1.
       -5    1    3    3    0  502  0.32051319827E+03  0.19456564947E+03 -0.14763482780E+03  0.40299210241E+03  0.46999998093E+01 0.  1.
</event>
<event>
 5   0  0.3299104E-03  0.1283446E+04  0.7818609E-02  0.9042796E-01
       -2   -1    0    0    0  501  0.00000000000E+00  0.00000000000E+00  0.45085875129E+03  0.45085875129E+03  0.25500000920E-02 0.  1.
        2   -1    0    0  501    0  0.00000000000E+00  0.00000000000E+00 -0.91338697763E+03  0.91338697763E+03  0.25500000920E-02 0. -1.
    10030    2    1    2    0    0  0.00000000000E+00  0.00000000000E+00 -0.46252822634E+03  0.13642457289E+04  0.12834461612E+04 0.  0.
        2    1    3    3  502    0 -0.29423607522E+03 -0.42770244139E+03  0.16971699064E+03  0.54617589039E+03  0.25500000920E-02 0.  1.
       -2    1    3    3    0  502  0.29423607522E+03  0.42770244139E+03 -0.63224521698E+03  0.81806983854E+03  0.25500000920E-02 0. -1.
</event>
<event>
 5   0  0.1823154E-03  0.1382288E+04  0.7818609E-02  0.8966740E-01
        1   -1    0    0  501    0  0.00000000000E+00  0.00000000000E+00  0.12264417603E+04  0.12264417603E+04  0.50400001928E-02 0. -1.
       -1   -1    0    0    0  501  0.00000000000E+00  0.00000000000E+00 -0.38948424364E+03  0.38948424367E+03  0.50400001928E-02 0.  1.
    10030    2    1    2    0    0  0.00000000000E+00  0.00000000000E+00  0.83695751663E+03  0.16159260040E+04  0.13822875843E+04 0.  0.
        2    1    3    3  502    0 -0.12617936502E+03  0.45324065941E+03  0.10103455578E+04  0.11145162510E+04  0.25500000920E-02 0. -1.
       -2    1    3    3    0  502  0.12617936502E+03 -0.45324065941E+03 -0.17338804122E+03  0.50140975294E+03  0.25500000920E-02 0.  1.
</event>
<event>
 5   0  0.1823154E-03  0.1314502E+04  0.7818609E-02  0.9018144E-01
        1   -1    0    0  501    0  0.00000000000E+00  0.00000000000E+00  0.16902280599E+04  0.16902280599E+04  0.50400001928E-02 0.  1.
       -1   -1    0    0    0  501  0.00000000000E+00  0.00000000000E+00 -0.25557421014E+03  0.25557421019E+03  0.50400001928E-02 0. -1.
    10030    2    1    2    0    0  0.00000000000E+00  0.00000000000E+00  0.14346538498E+04  0.19458022701E+04  0.13145017329E+04 0.  0.
        2    1    3    3  502    0  0.15030683128E+03 -0.42691316248E+03  0.14227934771E+04  0.14930466403E+04  0.25500000920E-02 0.  1.
       -2    1    3    3    0  502 -0.15030683128E+03  0.42691316248E+03  0.11860372687E+02  0.45275562976E+03  0.25500000920E-02 0. -1.
</event>
<event>
 5   0  0.1803959E-03  0.1261247E+04  0.7818609E-02  0.9060874E-01
        1   -1    0    0  501    0  0.00000000000E+00  0.00000000000E+00  0.11803188082E+04  0.11803188082E+04  0.50400001928E-02 0.  1.
       -1   -1    0    0    0  501  0.00000000000E+00  0.00000000000E+00 -0.33693120863E+03  0.33693120867E+03  0.50400001928E-02 0. -1.
    10030    2    1    2    0    0  0.00000000000E+00  0.00000000000E+00  0.84338759953E+03  0.15172500168E+04  0.12612473867E+04 0.  0.
        4    1    3    3  502    0  0.39725631382E+03  0.90075921712E+02 -0.15743424173E+03  0.43670745804E+03  0.12699999809E+01 0. -1.
       -4    1    3    3    0  502 -0.39725631382E+03 -0.90075921712E+02  0.10008218413E+04  0.10805425588E+04  0.12699999809E+01 0.  1.
</event>
<event>
 5   0  0.1814770E-03  0.1366174E+04  0.7818609E-02  0.8978674E-01
        1   -1    0    0  501    0  0.00000000000E+00  0.00000000000E+00  0.10586334964E+04  0.10586334964E+04  0.50400001928E-02 0.  1.
       -1   -1    0    0    0  501  0.00000000000E+00  0.00000000000E+00 -0.44076444638E+03  0.44076444641E+03  0.50400001928E-02 0. -1.
    10030    2    1    2    0    0  0.00000000000E+00  0.00000000000E+00  0.61786905003E+03  0.14993979428E+04  0.13661742305E+04 0.  0.
        5    1    3    3  502    0 -0.46334006036E+03 -0.29079096298E+03 -0.14003201486E+03  0.56468969432E+03  0.46999998093E+01 0. -1.
       -5    1    3    3    0  502  0.46334006036E+03  0.29079096298E+03  0.75790106489E+03  0.93470824852E+03  0.46999998093E+01 0.  1.
</event>
<event>
 5   0  0.1814770E-03  0.1316729E+04  0.7818609E-02  0.9016403E-01
       -1   -1    0    0    0  501  0.00000000000E+00  0.00000000000E+00  0.37682332824E+03  0.37682332827E+03  0.50400001928E-02 0. -1.
        1   -1    0    0  501    0  0.00000000000E+00  0.00000000000E+00 -0.11502567187E+04  0.11502567187E+04  0.50400001928E-02 0.  1.
    10030    2    1    2    0    0  0.00000000000E+00  0.00000000000E+00 -0.77343339046E+03  0.15270800470E+04  0.13167286206E+04 0.  0.
        5    1    3    3  502    0  0.45824432408E+03  0.18109195185E+03 -0.89309112445E+03  0.10200078442E+04  0.46999998093E+01 0.  1.
       -5    1    3    3    0  502 -0.45824432408E+03 -0.18109195185E+03  0.11965773399E+03  0.50707220282E+03  0.46999998093E+01 0. -1.
</event>
<event>
 5   0  0.3262927E-03  0.1255243E+04  0.7818609E-02  0.9065830E-01
       -2   -1    0    0    0  501  0.00000000000E+00  0.00000000000E+00  0.24617115129E+03  0.24617115130E+03  0.25500000920E-02 0. -1.
        2   -1    0    0  501    0  0.00000000000E+00  0.00000000000E+00 -0.16001429493E+04  0.16001429494E+04  0.25500000920E-02 0.  1.
    10030    2    1    2    0    0  0.00000000000E+00  0.00000000000E+00 -0.13539717981E+04  0.18463141007E+04  0.12552434538E+04 0.  0.
        3    1    3    3  502    0  0.59332318817E+03 -0.20025055555E+03 -0.61499333459E+03  0.87769556362E+03  0.10100000352E+00 0. -1.
       -3    1    3    3    0  502 -0.59332318817E+03  0.20025055555E+03 -0.73897846347E+03  0.96861853703E+03  0.10100000352E+00 0.  1.
</event>
<event>
 5   0  0.3262927E-03  0.1296068E+04  0.7818609E-02  0.9032689E-01
        2   -1    0    0  501    0  0.00000000000E+00  0.00000000000E+00  0.54782791477E+03  0.54782791477E+03  0.25500000920E-02 0.  1.
       -2   -1    0    0    0  501  0.00000000000E+00  0.00000000000E+00 -0.76656881213E+03  0.76656881214E+03  0.25500000920E-02 0. -1.
    10030    2    1    2    0    0  0.00000000000E+00  0.00000000000E+00 -0.21874089737E+03  0.13143967269E+04  0.12960675814E+04 0.  0.
        3    1    3    3  502    0  0.11445904542E+03 -0.31572907791E+03 -0.67143035541E+03  0.75073594298E+03  0.10100000352E+00 0. -1.
       -3    1    3    3    0  502 -0.11445904542E+03  0.31572907791E+03  0.45268945804E+03  0.56366078393E+03  0.10100000352E+00 0.  1.
</event>
<event>
 5   0  0.1814770E-03  0.1322258E+04  0.7818609E-02  0.9012098E-01
        1   -1    0    0  501    0  0.00000000000E+00  0.00000000000E+00  0.23020840745E+04  0.23020840745E+04  0.50400001928E-02 0. -1.
       -1   -1    0    0    0  501  0.00000000000E+00  0.00000000000E+00 -0.18986790215E+03  0.18986790222E+03  0.50400001928E-02 0.  1.
    10030    2    1    2    0    0  0.00000000000E+00  0.00000000000E+00  0.21122161723E+04  0.24919519767E+04  0.13222584829E+04 0.  0.
        5    1    3    3  502    0  0.47775381055E+03  0.32453663907E+03  0.44980847048E+03  0.73206726720E+03  0.46999998093E+01 0.  1.
       -5    1    3    3    0  502 -0.47775381055E+03 -0.32453663907E+03  0.16624077019E+04  0.17598847095E+04  0.46999998093E+01 0. -1.
</event>
<event>
 5   0  0.3336609E-03  0.1307810E+04  0.7818609E-02  0.9023395E-01
        2   -1    0    0  501    0  0.00000000000E+00  0.00000000000E+00  0.15645608232E+04  0.15645608232E+04  0.25500000920E-02 0.  1.
       -2   -1    0    0    0  501  0.00000000000E+00  0.00000000000E+00 -0.27329806386E+03  0.27329806387E+03  0.25500000920E-02 0. -1.
    10030    2    1    2    0    0  0.00000000000E+00  0.00000000000E+00  0.12912627594E+04  0.18378588871E+04  0.13078095332E+04 0.  0.
        1    1    3    3  502    0  0.13552991939E+03  0.55701065988E+03  0.20354986516E+03  0.60832703532E+03  0.50400001928E-02 0. -1.
       -1    1    3    3    0  502 -0.13552991939E+03 -0.55701065988E+03  0.10877128942E+04  0.12295318518E+04  0.50400001928E-02 0.  1.
</event>
<event>
 5   0  0.1823154E-03  0.1304179E+04  0.7818609E-02  0.9026258E-01
        1   -1    0    0  501    0  0.00000000000E+00  0.00000000000E+00  0.84124613497E+03  0.84124613499E+03  0.50400001928E-02 0. -1.
       -1   -1    0    0    0  501  0.00000000000E+00  0.00000000000E+00 -0.50546535565E+03  0.50546535568E+03  0.50400001928E-02 0.  1.
    10030    2    1    2    0    0  0.00000000000E+00  0.00000000000E+00  0.33578077932E+03  0.13467114907E+04  0.13041790933E+04 0.  0.
        2    1    3    3  502    0  0.15750956406E+03  0.46174450843E+03 -0.27889024479E+03  0.56195820350E+03  0.25500000920E-02 0.  1.
       -2    1    3    3    0  502 -0.15750956406E+03 -0.46174450843E+03  0.61467102411E+03  0.78475328717E+03  0.25500000920E-02 0. -1.
</event>
<event>
 5   0  0.3262927E-03  0.1284173E+04  0.7818609E-02  0.9042211E-01
       -2   -1    0    0    0  501  0.00000000000E+00  0.00000000000E+00  0.35057106268E+03  0.35057106269E+03  0.25500000920E-02 0. -1.
        2   -1    0    0  501    0  0.00000000000E+00  0.00000000000E+00 -0.11760093584E+04  0.11760093584E+04  0.25500000920E-02 0.  1.
    10030    2    1    2    0    0  0.00000000000E+00  0.00000000000E+00 -0.82543829574E+03  0.15265804211E+04  0.12841726527E+04 0.  0.
        3    1    3    3  502    0 -0.29256105634E+03 -0.10204273803E+03  0.25581773499E+03  0.40180519634E+03  0.10100000352E+00 0. -1.
       -3    1    3    3    0  502  0.29256105634E+03  0.10204273803E+03 -0.10812560307E+04  0.11247752248E+04  0.10100000352E+00 0.  1.
</event>
<event>
 5   0  0.3259968E-03  0.1297400E+04  0.7818609E-02  0.9031630E-01
        2   -1    0    0  501    0  0.00000000000E+00  0.00000000000E+00  0.48797439316E+03  0.48797439316E+03  0.25500000920E-02 0. -1.
       -2   -1    0    0    0  501  0.00000000000E+00  0.00000000000E+00 -0.86236402484E+03  0.86236402484E+03  0.25500000920E-02 0.  1.
    10030    2    1    2    0    0  0.00000000000E+00  0.00000000000E+00 -0.37438963168E+03  0.13503384180E+04  0.12973998022E+04 0.  0.
        4    1    3    3  502    0 -0.61970571930E+03 -0.15257044126E+03 -0.30811196926E+03  0.70869423349E+03  0.12699999809E+01 0.  1.
       -4    1    3    3    0  502  0.61970571930E+03  0.15257044126E+03 -0.66277662417E+02  0.64164418451E+03  0.12699999809E+01 0. -1.
</event>
<event>
 5   0  0.3294720E-03  0.1312185E+04  0.7818609E-02  0.9019958E-01
       -2   -1    0    0    0  501  0.00000000000E+00  0.00000000000E+00  0.34023643357E+03  0.34023643358E+03  0.25500000920E-02 0. -1.
        2   -1    0    0  501    0  0.00000000000E+00  0.00000000000E+00 -0.12651710383E+04  0.12651710383E+04  0.25500000920E-02 0.  1.
    10030    2    1    2    0    0  0.00000000000E+00  0.00000000000E+00 -0.92493460475E+03  0.16054074719E+04  0.13121848680E+04 0.  0.
        5    1    3    3  502    0 -0.15993461899E+03  0.11952585876E+03  0.30214189356E+03  0.36218410664E+03  0.46999998093E+01 0. -1.
       -5    1    3    3    0  502  0.15993461899E+03 -0.11952585876E+03 -0.12270764983E+04  0.12432233653E+04  0.46999998093E+01 0.  1.
</event>
<event>
 5   0  0.1857986E-03  0.1302860E+04  0.7818609E-02  0.9027300E-01
       -1   -1    0    0    0  501  0.00000000000E+00  0.00000000000E+00  0.39423052498E+03  0.39423052501E+03  0.50400001928E-02 0. -1.
        1   -1    0    0  501    0  0.00000000000E+00  0.00000000000E+00 -0.10764290884E+04  0.10764290884E+04  0.50400001928E-02 0.  1.
    10030    2    1    2    0    0  0.00000000000E+00  0.00000000000E+00 -0.68219856341E+03  0.14706596134E+04  0.13028602452E+04 0.  0.
        1    1    3    3  502    0 -0.25461509182E+03  0.28780850818E+03  0.25267014519E+03  0.45989649342E+03  0.50400001928E-02 0. -1.
       -1    1    3    3    0  502  0.25461509182E+03 -0.28780850818E+03 -0.93486870860E+03  0.10107631200E+04  0.50400001928E-02 0.  1.
</event>
<event>
 5   0  0.1873488E-03  0.1307485E+04  0.7818609E-02  0.9023650E-01
       -1   -1    0    0    0  501  0.00000000000E+00  0.00000000000E+00  0.58738776261E+03  0.58738776263E+03  0.50400001928E-02 0. -1.
        1   -1    0    0  501    0  0.00000000000E+00  0.00000000000E+00 -0.72759310987E+03  0.72759310988E+03  0.50400001928E-02 0.  1.
    10030    2    1    2    0    0  0.00000000000E+00  0.00000000000E+00 -0.14020534726E+03  0.13149808725E+04  0.13074850499E+04 0.  0.
        3    1    3    3  502    0 -0.16717139615E+03  0.49942708220E+02 -0.70374538155E+03  0.72505042725E+03  0.10100000352E+00 0.  1.
       -3    1    3    3    0  502  0.16717139615E+03 -0.49942708220E+02  0.56354003430E+03  0.58993044527E+03  0.10100000352E+00 0. -1.
</event>
<event>
 5   0  0.1803959E-03  0.1276995E+04  0.7818609E-02  0.9048010E-01
       -1   -1    0    0    0  501  0.00000000000E+00  0.00000000000E+00  0.34275896968E+03  0.34275896972E+03  0.50400001928E-02 0.  1.
        1   -1    0    0  501    0  0.00000000000E+00  0.00000000000E+00 -0.11894039762E+04  0.11894039762E+04  0.50400001928E-02 0. -1.
    10030    2    1    2    0    0  0.00000000000E+00  0.00000000000E+00 -0.84664500652E+03  0.15321629459E+04  0.12769947243E+04 0.  0.
        4    1    3    3  502    0 -0.36541723519E+03 -0.52286744978E+03 -0.45633700372E+03  0.78432467747E+03  0.12699999809E+01 0.  1.
       -4    1    3    3    0  502  0.36541723519E+03  0.52286744978E+03 -0.39030800280E+03  0.74783826846E+03  0.12699999809E+01 0. -1.
</event>
<event>
 5   0  0.1814770E-03  0.1345340E+04  0.7818609E-02  0.8994363E-01
       -1   -1    0    0    0  501  0.00000000000E+00  0.00000000000E+00  0.10778583144E+04  0.10778583144E+04  0.50400001928E-02 0.  1.
        1   -1    0    0  501    0  0.00000000000E+00  0.00000000000E+00 -0.41980015032E+03  0.41980015035E+03  0.50400001928E-02 0. -1.
    10030    2    1    2    0    0  0.00000000000E+00  0.00000000000E+00  0.65805816406E+03  0.14976584647E+04  0.13453402282E+04 0.  0.
        5    1    3    3  502    0 -0.46020062127E+03 -0.42393219067E+03  0.60388348764E+03  0.86959787876E+03  0.46999998093E+01 0. -1.
       -5    1    3    3    0  502  0.46020062127E+03  0.42393219067E+03  0.54174676420E+02  0.62806058599E+03  0.46999998093E+01 0.  1.
</event>
<event>
 5   0  0.3262927E-03  0.1290591E+04  0.7818609E-02  0.9037060E-01
       -2   -1    0    0    0  501  0.00000000000E+00  0.00000000000E+00  0.35716923020E+03  0.35716923021E+03  0.25500000920E-02 0. -1.
        2   -1    0    0  501    0  0.00000000000E+00  0.00000000000E+00 -0.11658513329E+04  0.11658513329E+04  0.25500000920E-02 0.  1.
    10030    2    1    2    0    0  0.00000000000E+00  0.00000000000E+00 -0.80868210267E+03  0.15230205631E+04  0.12905909082E+04 0.  0.
        3    1    3    3  502    0  0.57463386357E+03 -0.20025684282E+03 -0.15096562943E+03  0.62697488923E+03  0.10100000352E+00 0. -1.
       -3    1    3    3    0  502 -0.57463386357E+03  0.20025684282E+03 -0.65771647324E+03  0.89604567385E+03  0.10100000352E+00 0.  1.
</event>
<event>
 5   0  0.1823154E-03  0.1269661E+04  0.7818609E-02  0.9053976E-01
       -1   -1    0    0    0  501  0.00000000000E+00  0.00000000000E+00  0.52800122707E+03  0.52800122709E+03  0.50400001928E-02 0. -1.
        1   -1    0    0  501    0  0.00000000000E+00  0.00000000000E+00 -0.76327430132E+03  0.76327430134E+03  0.50400001928E-02 0.  1.
    10030    2    1    2    0    0  0.00000000000E+00  0.00000000000E+00 -0.23527307425E+03  0.12912755284E+04  0.12696610063E+04 0.  0.
        2    1    3    3  502    0 -0.26965965390E+03 -0.31613735683E+03 -0.60575566034E+03  0.73457407888E+03  0.25500000920E-02 0.  1.
       -2    1    3    3    0  502  0.26965965390E+03  0.31613735683E+03  0.37048258609E+03  0.55670144955E+03  0.25500000920E-02 0. -1.
</event>
<event>
 5   0  0.1803959E-03  0.1272013E+04  0.7818609E-02  0.9052058E-01
       -1   -1    0    0    0  501  0.00000000000E+00  0.00000000000E+00  0.76680986588E+03  0.76680986589E+03  0.50400001928E-02 0. -1.
        1   -1    0    0  501    0  0.00000000000E+00  0.00000000000E+00 -0.52751556901E+03  0.52751556904E+03  0.50400001928E-02 0.  1.
    10030    2    1    2    0    0  0.00000000000E+00  0.00000000000E+00  0.23929429686E+03  0.12943254349E+04  0.12720128030E+04 0.  0.
        4    1    3    3  502    0 -0.19035002891E+02  0.57267026147E+03 -0.16121813076E+03  0.59523647258E+03  0.12699999809E+01 0.  1.
       -4    1    3    3    0  502  0.19035002891E+02 -0.57267026147E+03  0.40051242762E+03  0.69908896235E+03  0.12699999809E+01 0. -1.
</event>
<event>
 5   0  0.1873488E-03  0.1211482E+04  0.7818609E-02  0.9102865E-01
       -1   -1    0    0    0  501  0.00000000000E+00  0.00000000000E+00  0.57030154360E+03  0.57030154362E+03  0.50400001928E-02 0. -1.
        1   -1    0    0  501    0  0.00000000000E+00  0.00000000000E+00 -0.64338301497E+03  0.64338301499E+03  0.50400001928E-02 0.  1.
    10030    2    1    2    0    0  0.00000000000E+00  0.00000000000E+00 -0.73081471368E+02  0.12136845586E+04  0.12114822765E+04 0.  0.
        3    1    3    3  502    0  0.29389239555E+03  0.48721642721E+03 -0.24469169855E+03  0.61937599618E+03  0.10100000352E+00 0.  1.
       -3    1    3    3    0  502 -0.29389239555E+03 -0.48721642721E+03  0.17161022719E+03  0.59430856243E+03  0.10100000352E+00 0. -1.
</event>
<event>
 5   0  0.1803959E-03  0.1109035E+04  0.7818609E-02  0.9196431E-01
        1   -1    0    0  501    0  0.00000000000E+00  0.00000000000E+00  0.64993784133E+03  0.64993784135E+03  0.50400001928E-02 0.  1.
       -1   -1    0    0    0  501  0.00000000000E+00  0.00000000000E+00 -0.47310600008E+03  0.47310600010E+03  0.50400001928E-02 0. -1.
    10030    2    1    2    0    0  0.00000000000E+00  0.00000000000E+00  0.17683184126E+03  0.11230438415E+04  0.11090347018E+04 0.  0.
        4    1    3    3  502    0 -0.40080283070E+03  0.25991002620E+03 -0.19672895625E+03  0.51662367923E+03  0.12699999809E+01 0. -1.
       -4    1    3    3    0  502  0.40080283070E+03 -0.25991002620E+03  0.37356079750E+03  0.60642016222E+03  0.12699999809E+01 0.  1.
</event>
<event>
 5   0  0.3299104E-03  0.1355050E+04  0.7818609E-02  0.8987014E-01
        2   -1    0    0  501    0  0.00000000000E+00  0.00000000000E+00  0.90948996792E+03  0.90948996792E+03  0.25500000920E-02 0. -1.
       -2   -1    0    0    0  501  0.00000000000E+00  0.00000000000E+00 -0.50472261323E+03  0.50472261324E+03  0.25500000920E-02 0.  1.
    10030    2    1    2    0    0  0.00000000000E+00  0.00000000000E+00  0.40476735468E+03  0.14142125812E+04  0.13550500409E+04 0.  0.
        2    1    3    3  502    0 -0.11148740136E+03 -0.51795076610E+03 -0.23835479668E+03  0.58096079547E+03  0.25500000920E-02 0.  1.
       -2    1    3    3    0  502  0.11148740136E+03  0.51795076610E+03  0.64312215137E+03  0.83325178569E+03  0.25500000920E-02 0. -1.
</event>
<event>
 5   0  0.3294720E-03  0.1297312E+04  0.7818609E-02  0.9031699E-01
        2   -1    0    0  501    0  0.00000000000E+00  0.00000000000E+00  0.12999400880E+04  0.12999400880E+04  0.25500000920E-02 0. -1.
       -2   -1    0    0    0  501  0.00000000000E+00  0.00000000000E+00 -0.32367255284E+03  0.32367255285E+03  0.25500000920E-02 0.  1.
    10030    2    1    2    0    0  0.00000000000E+00  0.00000000000E+00  0.97626753519E+03  0.16236126409E+04  0.12973124941E+04 0.  0.
        5    1    3    3  502    0  0.32945554026E+03  0.41763967831E+03  0.23603999909E+02  0.53248764560E+03  0.46999998093E+01 0. -1.
       -5    1    3    3    0  502 -0.32945554026E+03 -0.41763967831E+03  0.95266353528E+03  0.10911249953E+04  0.46999998093E+01 0.  1.
</event>
<event>
 5   0  0.3262927E-03  0.1321275E+04  0.7818609E-02  0.9012862E-01
       -2   -1    0    0    0  501  0.00000000000E+00  0.00000000000E+00  0.54437612413E+03  0.54437612413E+03  0.25500000920E-02 0.  1.
        2   -1    0    0  501    0  0.00000000000E+00  0.00000000000E+00 -0.80172914169E+03  0.80172914169E+03  0.25500000920E-02 0. -1.
    10030    2    1    2    0    0  0.00000000000E+00  0.00000000000E+00 -0.25735301756E+03  0.13461052658E+04  0.13212754486E+04 0.  0.
        3    1    3    3  502    0  0.32757630977E+03  0.52681060569E+03 -0.36011629921E+03  0.71730008515E+03  0.10100000352E+00 0. -1.
       -3    1    3    3    0  502 -0.32757630977E+03 -0.52681060569E+03  0.10276328164E+03  0.62880518068E+03  0.10100000352E+00 0.  1.
</event>
<event>
 5   0  0.3294720E-03  0.1325685E+04  0.7818609E-02  0.9009441E-01
        2   -1    0    0  501    0  0.00000000000E+00  0.00000000000E+00  0.80894104397E+03  0.80894104397E+03  0.25500000920E-02 0.  1.
       -2   -1    0    0    0  501  0.00000000000E+00  0.00000000000E+00 -0.54312976180E+03  0.54312976181E+03  0.25500000920E-02 0. -1.
    10030    2    1    2    0    0  0.00000000000E+00  0.00000000000E+00  0.26581128217E+03  0.13520708058E+04  0.13256846631E+04 0.  0.
        5    1    3    3  502    0  0.37991402110E+03  0.50783647492E+03  0.32936706237E+03  0.71465886999E+03  0.46999998093E+01 0.  1.
       -5    1    3    3    0  502 -0.37991402110E+03 -0.50783647492E+03 -0.63555780199E+02  0.63741193579E+03  0.46999998093E+01 0. -1.
</event>
<event>
 5   0  0.1803959E-03  0.1286097E+04  0.7818609E-02  0.9040664E-01
        1   -1    0    0  501    0  0.00000000000E+00  0.00000000000E+00  0.92130090677E+03  0.92130090679E+03  0.50400001928E-02 0. -1.
       -1   -1    0    0    0  501  0.00000000000E+00  0.00000000000E+00 -0.44883418495E+03  0.44883418498E+03  0.50400001928E-02 0.  1.
    10030    2    1    2    0    0  0.00000000000E+00  0.00000000000E+00  0.47246672182E+03  0.13701350918E+04  0.12860969507E+04 0.  0.
        4    1    3    3  502    0  0.15776879419E+03  0.49286628913E+03  0.64288429849E+03  0.82529389040E+03  0.12699999809E+01 0. -1.
       -4    1    3    3    0  502 -0.15776879419E+03 -0.49286628913E+03 -0.17041757667E+03  0.54484120137E+03  0.12699999809E+01 0.  1.
</event>
<event>
 5   0  0.1873488E-03  0.1350959E+04  0.7818609E-02  0.8990102E-01
       -1   -1    0    0    0  501  0.00000000000E+00  0.00000000000E+00  0.73219309631E+03  0.73219309633E+03  0.50400001928E-02 0. -1.
        1   -1    0    0  501    0  0.00000000000E+00  0.00000000000E+00 -0.62315894201E+03  0.62315894203E+03  0.50400001928E-02 0.  1.
    10030    2    1    2    0    0  0.00000000000E+00  0.00000000000E+00  0.10903415430E+03  0.13553520384E+04  0.13509591782E+04 0.  0.
        3    1    3    3  502    0 -0.67349645169E+03  0.51693157433E+02  0.52775891334E+02  0.67753594581E+03  0.10100000352E+00 0. -1.
       -3    1    3    3    0  502  0.67349645169E+03 -0.51693157433E+02  0.56258262967E+02  0.67781609255E+03  0.10100000352E+00 0.  1.
</event>
<event>
 5   0  0.1873488E-03  0.1299709E+04  0.7818609E-02  0.9029796E-01
       -1   -1    0    0    0  501  0.00000000000E+00  0.00000000000E+00  0.26914705860E+03  0.26914705865E+03  0.50400001928E-02 0. -1.
        1   -1    0    0  501    0  0.00000000000E+00  0.00000000000E+00 -0.15690703182E+04  0.15690703182E+04  0.50400001928E-02 0.  1.
    10030    2    1    2    0    0  0.00000000000E+00  0.00000000000E+00 -0.12999232596E+04  0.18382173768E+04  0.12997086765E+04 0.  0.
        3    1    3    3  502    0  0.22347122249E+03  0.15036499531E+03  0.18648248952E+03  0.32760456071E+03  0.10100000352E+00 0. -1.
       -3    1    3    3    0  502 -0.22347122249E+03 -0.15036499531E+03 -0.14864057491E+04  0.15106128161E+04  0.10100000352E+00 0.  1.
</event>
<event>
 5   0  0.1814770E-03  0.1303087E+04  0.7818609E-02  0.9027120E-01
       -1   -1    0    0    0  501  0.00000000000E+00  0.00000000000E+00  0.40230893311E+03  0.40230893314E+03  0.50400001928E-02 0.  1.
        1   -1    0    0  501    0  0.00000000000E+00  0.00000000000E+00 -0.10551821295E+04  0.10551821295E+04  0.50400001928E-02 0. -1.
    10030    2    1    2    0    0  0.00000000000E+00  0.00000000000E+00 -0.65287319636E+03  0.14574910626E+04  0.13030874058E+04 0.  0.
        5    1    3    3  502    0 -0.25947001529E+03  0.59429739871E+03 -0.39693718288E+03  0.76032578813E+03  0.46999998093E+01 0. -1.
       -5    1    3    3    0  502  0.25947001529E+03 -0.59429739871E+03 -0.25593601348E+03  0.69716527448E+03  0.46999998093E+01 0.  1.
</event>
<event>
 5   0  0.3299104E-03  0.1310418E+04  0.7818609E-02  0.9021344E-01
        2   -1    0    0  501    0  0.00000000000E+00  0.00000000000E+00  0.48469819019E+03  0.48469819020E+03  0.25500000920E-02 0. -1.
       -2   -1    0    0    0  501  0.00000000000E+00  0.00000000000E+00 -0.88570316692E+03  0.88570316692E+03  0.25500000920E-02 0.  1.
    10030    2    1    2    0    0  0.00000000000E+00  0.00000000000E+00 -0.40100497673E+03  0.13704013571E+04  0.13104178296E+04 0.  0.
        2    1    3    3  502    0  0.54677352664E+03 -0.32076650540E+03 -0.37375508178E+03  0.73589761624E+03  0.25500000920E-02 0.  1.
       -2    1    3    3    0  502 -0.54677352664E+03  0.32076650540E+03 -0.27249894949E+02  0.63450374089E+03  0.25500000920E-02 0. -1.
</event>
<event>
 5   0  0.3262927E-03  0.1304171E+04  0.7818609E-02  0.9026264E-01
        2   -1    0    0  501    0  0.00000000000E+00  0.00000000000E+00  0.18068067416E+03  0.18068067418E+03  0.25500000920E-02 0.  1.
       -2   -1    0    0    0  501  0.00000000000E+00  0.00000000000E+00 -0.23534090469E+04  0.23534090469E+04  0.25500000920E-02 0. -1.
    10030    2    1    2    0    0  0.00000000000E+00  0.00000000000E+00 -0.21727283727E+04  0.25340897211E+04  0.13041710520E+04 0.  0.
        3    1    3    3  502    0  0.28498793942E+03  0.50290822687E+02  0.49071613306E+02  0.29352227496E+03  0.10100000352E+00 0.  1.
       -3    1    3    3    0  502 -0.28498793942E+03 -0.50290822687E+02 -0.22217999860E+04  0.22405674461E+04  0.10100000352E+00 0. -1.
</event>
<event>
 5   0  0.3262927E-03  0.1338899E+04  0.7818609E-02  0.8999274E-01
        2   -1    0    0  501    0  0.00000000000E+00  0.00000000000E+00  0.31140913517E+03  0.31140913518E+03  0.25500000920E-02 0. -1.
       -2   -1    0    0    0  501  0.00000000000E+00  0.00000000000E+00 -0.14391448947E+04  0.14391448947E+04  0.25500000920E-02 0.  1.
    10030    2    1    2    0    0  0.00000000000E+00  0.00000000000E+00 -0.11277357595E+04  0.17505540299E+04  0.13388993495E+04 0.  0.
        3    1    3    3  502    0 -0.19359119839E+03 -0.12914489973E+03  0.25682280217E+03  0.34657455061E+03  0.10100000352E+00 0. -1.
       -3    1    3    3    0  502  0.19359119839E+03  0.12914489973E+03 -0.13845585617E+04  0.14039794793E+04  0.10100000352E+00 0.  1.
</event>
<event>
 5   0  0.1823154E-03  0.1289066E+04  0.7818609E-02  0.9038281E-01
       -1   -1    0    0    0  501  0.00000000000E+00  0.00000000000E+00  0.82594968496E+03  0.82594968498E+03  0.50400001928E-02 0. -1.
        1   -1    0    0  501    0  0.00000000000E+00  0.00000000000E+00 -0.50296374152E+03  0.50296374155E+03  0.50400001928E-02 0.  1.
    10030    2    1    2    0    0  0.00000000000E+00  0.00000000000E+00  0.32298594344E+03  0.13289134265E+04  0.12890659314E+04 0.  0.
        2    1    3    3  502    0  0.42564431792E+03  0.43861007647E+03 -0.49456040305E+02  0.61318658211E+03  0.25500000920E-02 0. -1.
       -2    1    3    3    0  502 -0.42564431792E+03 -0.43861007647E+03  0.37244198375E+03  0.71572684441E+03  0.25500000920E-02 0.  1.
</event>
<event>
 5   0  0.3259968E-03  0.1250703E+04  0.7818609E-02  0.9069598E-01
       -2   -1    0    0    0  501  0.00000000000E+00  0.00000000000E+00  0.91328048822E+03  0.91328048822E+03  0.25500000920E-02 0.  1.
        2   -1    0    0  501    0  0.00000000000E+00  0.00000000000E+00 -0.42819748822E+03  0.42819748823E+03  0.25500000920E-02 0. -1.
    10030    2    1    2    0    0  0.00000000000E+00  0.00000000000E+00  0.48508300000E+03  0.13414779765E+04  0.12507028602E+04 0.  0.
        4    1    3    3  502    0 -0.60484596358E+03 -0.12807024335E+03  0.14179797388E+03  0.63430978645E+03  0.12699999809E+01 0. -1.
       -4    1    3    3    0  502  0.60484596358E+03  0.12807024335E+03  0.34328502611E+03  0.70716819000E+03  0.12699999809E+01 0.  1.
</event>
<event>
 5   0  0.3262927E-03  0.1272685E+04  0.7818609E-02  0.9051511E-01
       -2   -1    0    0    0  501  0.00000000000E+00  0.00000000000E+00  0.69904329256E+03  0.69904329256E+03  0.25500000920E-02 0.  1.
        2   -1    0    0  501    0  0.00000000000E+00  0.00000000000E+00 -0.57926552145E+03  0.57926552145E+03  0.25500000920E-02 0. -1.
    10030    2    1    2    0    0  0.00000000000E+00  0.00000000000E+00  0.11977777111E+03  0.12783088140E+04  0.12726848430E+04 0.  0.
        3    1    3    3  502    0 -0.46415334539E+02  0.62876602585E+03  0.14647055127E+03  0.64726712502E+03  0.10100000352E+00 0. -1.
       -3    1    3    3    0  502  0.46415334539E+02 -0.62876602585E+03 -0.26692780158E+02  0.63104168900E+03  0.10100000352E+00 0.  1.
</event>
<event>
 5   0  0.3262927E-03  0.1303177E+04  0.7818609E-02  0.9027050E-01
        2   -1    0    0  501    0  0.00000000000E+00  0.00000000000E+00  0.21762392855E+04  0.21762392855E+04  0.25500000920E-02 0. -1.
       -2   -1    0    0    0  501  0.00000000000E+00  0.00000000000E+00 -0.19509232204E+03  0.19509232206E+03  0.25500000920E-02 0.  1.
    10030    2    1    2    0    0  0.00000000000E+00  0.00000000000E+00  0.19811469635E+04  0.23713316076E+04  0.13031770034E+04 0.  0.
        3    1    3    3  502    0  0.35269878668E+03 -0.22353707478E+03  0.80378288254E+02  0.42523633118E+03  0.10100000352E+00 0.  1.
       -3    1    3    3    0  502 -0.35269878668E+03  0.22353707478E+03  0.19007686752E+04  0.19460952764E+04  0.10100000352E+00 0. -1.
</event>
<event>
 5   0  0.1254125E-03  0.1269154E+04  0.7818609E-02  0.9054390E-01
        3   -1    0    0  501    0  0.00000000000E+00  0.00000000000E+00  0.71041986739E+03  0.71041987457E+03  0.10100000352E+00 0. -1.
       -3   -1    0    0    0  501  0.00000000000E+00  0.00000000000E+00 -0.56683120063E+03  0.56683120963E+03  0.10100000352E+00 0.  1.
    10030    2    1    2    0    0  0.00000000000E+00  0.00000000000E+00  0.14358866676E+03  0.12772510842E+04  0.12691542959E+04 0.  0.
        5    1    3    3  502    0  0.41526577530E+03  0.42820560920E+01  0.55464903540E+03  0.69290810546E+03  0.46999998093E+01 0. -1.
       -5    1    3    3    0  502 -0.41526577530E+03 -0.42820560920E+01 -0.41106036864E+03  0.58434297874E+03  0.46999998093E+01 0.  1.
</event>
<event>
 5   0  0.3262927E-03  0.1210665E+04  0.7818609E-02  0.9103573E-01
       -2   -1    0    0    0  501  0.00000000000E+00  0.00000000000E+00  0.24817776545E+03  0.24817776547E+03  0.25500000920E-02 0.  1.
        2   -1    0    0  501    0  0.00000000000E+00  0.00000000000E+00 -0.14764707012E+04  0.14764707012E+04  0.25500000920E-02 0. -1.
    10030    2    1    2    0    0  0.00000000000E+00  0.00000000000E+00 -0.12282929358E+04  0.17246484667E+04  0.12106646099E+04 0.  0.
        3    1    3    3  502    0 -0.18265444130E+03  0.57034944986E+03 -0.48860800364E+03  0.77291586302E+03  0.10100000352E+00 0.  1.
       -3    1    3    3    0  502  0.18265444130E+03 -0.57034944986E+03 -0.73968493214E+03  0.95173260368E+03  0.10100000352E+00 0. -1.
</event>
<event>
 5   0  0.3294720E-03  0.1241565E+04  0.7818609E-02  0.9077233E-01
       -2   -1    0    0    0  501  0.00000000000E+00  0.00000000000E+00  0.63306898483E+03  0.63306898483E+03  0.25500000920E-02 0.  1.
        2   -1    0    0  501    0  0.00000000000E+00  0.00000000000E+00 -0.60873488520E+03  0.60873488520E+03  0.25500000920E-02 0. -1.
    10030    2    1    2    0    0  0.00000000000E+00  0.00000000000E+00  0.24334099626E+02  0.12418038700E+04  0.12415654245E+04 0.  0.
        5    1    3    3  502    0  0.45046737805E+03 -0.40943081939E+03  0.13382359296E+03  0.62328588832E+03  0.46999998093E+01 0.  1.
       -5    1    3    3    0  502 -0.45046737805E+03  0.40943081939E+03 -0.10948949334E+03  0.61851798171E+03  0.46999998093E+01 0. -1.
</event>
<event>
 5   0  0.1873488E-03  0.1357513E+04  0.7818609E-02  0.8985160E-01
       -1   -1    0    0    0  501  0.00000000000E+00  0.00000000000E+00  0.77567183346E+03  0.77567183348E+03  0.50400001928E-02 0.  1.
        1   -1    0    0  501    0  0.00000000000E+00  0.00000000000E+00 -0.59395008181E+03  0.59395008183E+03  0.50400001928E-02 0. -1.
    10030    2    1    2    0    0  0.00000000000E+00  0.00000000000E+00  0.18172175165E+03  0.13696219153E+04  0.13575129450E+04 0.  0.
        3    1    3    3  502    0  0.18049817627E+03  0.36718596516E+02 -0.56825233170E+03  0.59735966524E+03  0.10100000352E+00 0. -1.
       -3    1    3    3    0  502 -0.18049817627E+03 -0.36718596516E+02  0.74997408336E+03  0.77226225007E+03  0.10100000352E+00 0.  1.
</event>
<event>
 5   0  0.1254125E-03  0.8796448E+03  0.7818609E-02  0.9451390E-01
       -3   -1    0    0    0  501  0.00000000000E+00  0.00000000000E+00  0.22700975902E+03  0.22700978149E+03  0.10100000352E+00 0. -1.
        3   -1    0    0  501    0  0.00000000000E+00  0.00000000000E+00 -0.85213836175E+03  0.85213836774E+03  0.10100000352E+00 0.  1.
    10030    2    1    2    0    0  0.00000000000E+00  0.00000000000E+00 -0.62512860273E+03  0.10791481492E+04  0.87964479082E+03 0.  0.
        3    1    3    3  502    0  0.33843363382E+03  0.27228400214E+03 -0.22785443850E+03  0.49050337172E+03  0.10100000352E+00 0.  1.
       -3    1    3    3    0  502 -0.33843363382E+03 -0.27228400214E+03 -0.39727416423E+03  0.58864477751E+03  0.10100000352E+00 0. -1.
</event>
<event>
 5   0  0.1823154E-03  0.1312308E+04  0.7818609E-02  0.9019861E-01
        1   -1    0    0  501    0  0.00000000000E+00  0.00000000000E+00  0.29666076235E+03  0.29666076239E+03  0.50400001928E-02 0. -1.
       -1   -1    0    0    0  501  0.00000000000E+00  0.00000000000E+00 -0.14512812702E+04  0.14512812702E+04  0.50400001928E-02 0.  1.
    10030    2    1    2    0    0  0.00000000000E+00  0.00000000000E+00 -0.11546205078E+04  0.17479420326E+04  0.13123082078E+04 0.  0.
        2    1    3    3  502    0 -0.43448950893E+01 -0.41186138209E+02  0.29491816428E+03  0.29781185289E+03  0.25500000920E-02 0. -1.
       -2    1    3    3    0  502  0.43448950893E+01  0.41186138209E+02 -0.14495386721E+04  0.14501301797E+04  0.25500000920E-02 0.  1.
</event>
<event>
 5   0  0.1803959E-03  0.1233060E+04  0.7818609E-02  0.9084402E-01
        1   -1    0    0  501    0  0.00000000000E+00  0.00000000000E+00  0.13838830714E+04  0.13838830714E+04  0.50400001928E-02 0. -1.
       -1   -1    0    0    0  501  0.00000000000E+00  0.00000000000E+00 -0.27466847440E+03  0.27466847445E+03  0.50400001928E-02 0.  1.
    10030    2    1    2    0    0  0.00000000000E+00  0.00000000000E+00  0.11092145970E+04  0.16585515458E+04  0.12330596936E+04 0.  0.
        4    1    3    3  502    0 -0.19113458676E+03 -0.47911104584E+03  0.10088101865E+04  0.11330399065E+04  0.12699999809E+01 0. -1.
       -4    1    3    3    0  502  0.19113458676E+03  0.47911104584E+03  0.10040441048E+03  0.52551163930E+03  0.12699999809E+01 0.  1.
</event>
<event>
 5   0  0.3262927E-03  0.1295792E+04  0.7818609E-02  0.9032908E-01
        2   -1    0    0  501    0  0.00000000000E+00  0.00000000000E+00  0.95820733343E+03  0.95820733344E+03  0.25500000920E-02 0. -1.
       -2   -1    0    0    0  501  0.00000000000E+00  0.00000000000E+00 -0.43807792425E+03  0.43807792426E+03  0.25500000920E-02 0.  1.
    10030    2    1    2    0    0  0.00000000000E+00  0.00000000000E+00  0.52012940918E+03  0.13962852577E+04  0.12957923902E+04 0.  0.
        3    1    3    3  502    0  0.20799268176E+03  0.36946856770E+03 -0.26782804556E+03  0.50149760754E+03  0.10100000352E+00 0.  1.
       -3    1    3    3    0  502 -0.20799268176E+03 -0.36946856770E+03  0.78795745474E+03  0.89478765015E+03  0.10100000352E+00 0. -1.
</event>
<event>
 5   0  0.3262927E-03  0.1289994E+04  0.7818609E-02  0.9037538E-01
        2   -1    0    0  501    0  0.00000000000E+00  0.00000000000E+00  0.25053143032E+03  0.25053143033E+03  0.25500000920E-02 0. -1.
       -2   -1    0    0    0  501  0.00000000000E+00  0.00000000000E+00 -0.16605548189E+04  0.16605548189E+04  0.25500000920E-02 0.  1.
    10030    2    1    2    0    0  0.00000000000E+00  0.00000000000E+00 -0.14100233885E+04  0.19110862492E+04  0.12899940681E+04 0.  0.
        3    1    3    3  502    0  0.38204276259E+03  0.51656547953E+03 -0.62088568810E+03  0.89347390280E+03  0.10100000352E+00 0. -1.
       -3    1    3    3    0  502 -0.38204276259E+03 -0.51656547953E+03 -0.78913770043E+03  0.10176123464E+04  0.10100000352E+00 0.  1.
</event>
<event>
 5   0  0.3336609E-03  0.1288253E+04  0.7818609E-02  0.9038933E-01
       -2   -1    0    0    0  501  0.00000000000E+00  0.00000000000E+00  0.87016802389E+03  0.87016802389E+03  0.25500000920E-02 0.  1.
        2   -1    0    0  501    0  0.00000000000E+00  0.00000000000E+00 -0.47680299930E+03  0.47680299930E+03  0.25500000920E-02 0. -1.
    10030    2    1    2    0    0  0.00000000000E+00  0.00000000000E+00  0.39336502459E+03  0.13469710232E+04  0.12882526518E+04 0.  0.
        1    1    3    3  502    0  0.21634867818E+03 -0.56470428215E+03 -0.35240786461E+02  0.60575538783E+03  0.50400001928E-02 0.  1.
       -1    1    3    3    0  502 -0.21634867818E+03  0.56470428215E+03  0.42860581105E+03  0.74121563537E+03  0.50400001928E-02 0. -1.
</event>
<event>
 5   0  0.1857986E-03  0.1263117E+04  0.7818609E-02  0.9059336E-01
       -1   -1    0    0    0  501  0.00000000000E+00  0.00000000000E+00  0.61291839822E+03  0.61291839824E+03  0.50400001928E-02 0. -1.
        1   -1    0    0  501    0  0.00000000000E+00  0.00000000000E+00 -0.65076569482E+03  0.65076569484E+03  0.50400001928E-02 0.  1.
    10030    2    1    2    0    0  0.00000000000E+00  0.00000000000E+00 -0.37847296602E+02  0.12636840931E+04  0.12631172033E+04 0.  0.
        1    1    3    3  502    0 -0.18892728482E+03 -0.36552952264E+02  0.58287489694E+03  0.61381820010E+03  0.50400001928E-02 0. -1.
       -1    1    3    3    0  502  0.18892728482E+03  0.36552952264E+02 -0.62072219354E+03  0.64986589297E+03  0.50400001928E-02 0.  1.
</event>
<event>
 5   0  0.3299104E-03  0.1311716E+04  0.7818609E-02  0.9020326E-01
        2   -1    0    0  501    0  0.00000000000E+00  0.00000000000E+00  0.22200162282E+04  0.22200162282E+04  0.25500000920E-02 0.  1.
       -2   -1    0    0    0  501  0.00000000000E+00  0.00000000000E+00 -0.19375964983E+03  0.19375964985E+03  0.25500000920E-02 0. -1.
    10030    2    1    2    0    0  0.00000000000E+00  0.00000000000E+00  0.20262565784E+04  0.24137758781E+04  0.13117157726E+04 0.  0.
        2    1    3    3  502    0 -0.47496375044E+03  0.36360572287E+03  0.15080951387E+04  0.16223904072E+04  0.25500000920E-02 0.  1.
       -2    1    3    3    0  502  0.47496375044E+03 -0.36360572287E+03  0.51816143968E+03  0.79138547088E+03  0.25500000920E-02 0. -1.
</event>
<event>
 5   0  0.3262927E-03  0.1276227E+04  0.7818609E-02  0.9048633E-01
        2   -1    0    0  501    0  0.00000000000E+00  0.00000000000E+00  0.13050553731E+04  0.13050553731E+04  0.25500000920E-02 0.  1.
       -2   -1    0    0    0  501  0.00000000000E+00  0.00000000000E+00 -0.31200870083E+03  0.31200870084E+03  0.25500000920E-02 0. -1.
    10030    2    1    2    0    0  0.00000000000E+00  0.00000000000E+00  0.99304667226E+03  0.16170640739E+04  0.12762266750E+04 0.  0.
        3    1    3    3  502    0 -0.11267997380E+03  0.14515668260E+03 -0.27775837635E+03  0.33304198660E+03  0.10100000352E+00 0. -1.
       -3    1    3    3    0  502  0.11267997380E+03 -0.14515668260E+03  0.12708050486E+04  0.12840220873E+04  0.10100000352E+00 0.  1.
</event>
<event>
 5   0  0.1857986E-03  0.1306037E+04  0.7818609E-02  0.9024792E-01
        1   -1    0    0  501    0  0.00000000000E+00  0.00000000000E+00  0.55159463796E+03  0.55159463799E+03  0.50400001928E-02 0.  1.
       -1   -1    0    0    0  501  0.00000000000E+00  0.00000000000E+00 -0.77309098106E+03  0.77309098107E+03  0.50400001928E-02 0. -1.
    10030    2    1    2    0    0  0.00000000000E+00  0.00000000000E+00 -0.22149634309E+03  0.13246856191E+04  0.13060365077E+04 0.  0.
        1    1    3    3  502    0  0.12617915790E+03  0.47451156455E+03  0.32592278700E+03  0.58932848895E+03  0.50400001928E-02 0.  1.
       -1    1    3    3    0  502 -0.12617915790E+03 -0.47451156455E+03 -0.54741913010E+03  0.73535713011E+03  0.50400001928E-02 0. -1.
</event>
<event>
 5   0  0.3259968E-03  0.7991219E+03  0.7818609E-02  0.9561289E-01
       -2   -1    0    0    0  501  0.00000000000E+00  0.00000000000E+00  0.34486848843E+03  0.34486848844E+03  0.25500000920E-02 0. -1.
        2   -1    0    0  501    0  0.00000000000E+00  0.00000000000E+00 -0.46292703818E+03  0.46292703819E+03  0.25500000920E-02 0.  1.
    10030    2    1    2    0    0  0.00000000000E+00  0.00000000000E+00 -0.11805854975E+03  0.80779552663E+03  0.79912188787E+03 0.  0.
        4    1    3    3  502    0 -0.39505692767E+03  0.50223780876E+02 -0.91861505853E+02  0.40869616272E+03  0.12699999809E+01 0. -1.
       -4    1    3    3    0  502  0.39505692767E+03 -0.50223780876E+02 -0.26197043899E+02  0.39909936391E+03  0.12699999809E+01 0.  1.
</event>
<event>
 5   0  0.1814770E-03  0.1215820E+04  0.7818609E-02  0.9099121E-01
        1   -1    0    0  501    0  0.00000000000E+00  0.00000000000E+00  0.88793216296E+03  0.88793216297E+03  0.50400001928E-02 0.  1.
       -1   -1    0    0    0  501  0.00000000000E+00  0.00000000000E+00 -0.41619700973E+03  0.41619700976E+03  0.50400001928E-02 0. -1.
    10030    2    1    2    0    0  0.00000000000E+00  0.00000000000E+00  0.47173515323E+03  0.13041291727E+04  0.12158202352E+04 0.  0.
        5    1    3    3  502    0  0.32400577637E+03 -0.49580025039E+03  0.89050026840E+02  0.59895711757E+03  0.46999998093E+01 0. -1.
       -5    1    3    3    0  502 -0.32400577637E+03  0.49580025039E+03  0.38268512639E+03  0.70517205515E+03  0.46999998093E+01 0.  1.
</event>
<event>
 5   0  0.3294720E-03  0.1151871E+04  0.7818609E-02  0.9156059E-01
        2   -1    0    0  501    0  0.00000000000E+00  0.00000000000E+00  0.17596948109E+04  0.17596948109E+04  0.25500000920E-02 0. -1.
       -2   -1    0    0    0  501  0.00000000000E+00  0.00000000000E+00 -0.18849964019E+03  0.18849964020E+03  0.25500000920E-02 0.  1.
    10030    2    1    2    0    0  0.00000000000E+00  0.00000000000E+00  0.15711951707E+04  0.19481944511E+04  0.11518712406E+04 0.  0.
        5    1    3    3  502    0 -0.18154719718E+03 -0.27677402098E+03  0.15827085494E+04  0.16169575399E+04  0.46999998093E+01 0. -1.
       -5    1    3    3    0  502  0.18154719718E+03  0.27677402098E+03 -0.11513378637E+02  0.33123691126E+03  0.46999998093E+01 0.  1.
</event>
<event>
 5   0  0.3259968E-03  0.1287425E+04  0.7818609E-02  0.9039597E-01
        2   -1    0    0  501    0  0.00000000000E+00  0.00000000000E+00  0.65058371405E+03  0.65058371405E+03  0.25500000920E-02 0. -1.
       -2   -1    0    0    0  501  0.00000000000E+00  0.00000000000E+00 -0.63691418822E+03  0.63691418822E+03  0.25500000920E-02 0.  1.
    10030    2    1    2    0    0  0.00000000000E+00  0.00000000000E+00  0.13669525833E+02  0.12874979023E+04  0.12874253347E+04 0.  0.
        4    1    3    3  502    0  0.68320209518E+02 -0.29624934857E+03 -0.56058866902E+03  0.63772454578E+03  0.12699999809E+01 0.  1.
       -4    1    3    3    0  502 -0.68320209518E+02  0.29624934857E+03  0.57425819485E+03  0.64977335649E+03  0.12699999809E+01 0. -1.
</event>
<event>
 5   0  0.3262927E-03  0.1261959E+04  0.7818609E-02  0.9060288E-01
       -2   -1    0    0    0  501  0.00000000000E+00  0.00000000000E+00  0.67382206972E+03  0.67382206972E+03  0.25500000920E-02 0.  1.
        2   -1    0    0  501    0  0.00000000000E+00  0.00000000000E+00 -0.59086102068E+03  0.59086102068E+03  0.25500000920E-02 0. -1.
    10030    2    1    2    0    0  0.00000000000E+00  0.00000000000E+00  0.82961049040E+02  0.12646830904E+04  0.12619591053E+04 0.  0.
        3    1    3    3  502    0  0.49327886329E+03 -0.34339650210E+03  0.23396278273E+03  0.64496805233E+03  0.10100000352E+00 0. -1.
       -3    1    3    3    0  502 -0.49327886329E+03  0.34339650210E+03 -0.15100173369E+03  0.61971503807E+03  0.10100000352E+00 0.  1.
</event>
<event>
 5   0  0.3262927E-03  0.1336974E+04  0.7818609E-02  0.9000748E-01
       -2   -1    0    0    0  501  0.00000000000E+00  0.00000000000E+00  0.56088110034E+03  0.56088110035E+03  0.25500000920E-02 0. -1.
        2   -1    0    0  501    0  0.00000000000E+00  0.00000000000E+00 -0.79673708065E+03  0.79673708065E+03  0.25500000920E-02 0.  1.
    10030    2    1    2    0    0  0.00000000000E+00  0.00000000000E+00 -0.23585598031E+03  0.13576181810E+04  0.13369738524E+04 0.  0.
        3    1    3    3  502    0  0.30494651117E+03 -0.42241703731E+03  0.30740273312E+03  0.60491733205E+03  0.10100000352E+00 0. -1.
       -3    1    3    3    0  502 -0.30494651117E+03  0.42241703731E+03 -0.54325871342E+03  0.75270084894E+03  0.10100000352E+00 0.  1.
</event>
<event>
 5   0  0.3259968E-03  0.1285554E+04  0.7818609E-02  0.9041100E-01
       -2   -1    0    0    0  501  0.00000000000E+00  0.00000000000E+00  0.33743320456E+03  0.33743320457E+03  0.25500000920E-02 0.  1.
        2   -1    0    0  501    0  0.00000000000E+00  0.00000000000E+00 -0.12244265287E+04  0.12244265287E+04  0.25500000920E-02 0. -1.
    10030    2    1    2    0    0  0.00000000000E+00  0.00000000000E+00 -0.88699332415E+03  0.15618597333E+04  0.12855538376E+04 0.  0.
        4    1    3    3  502    0  0.36412720833E+02  0.32426490134E+03 -0.11163174508E+04  0.11630304710E+04  0.12699999809E+01 0. -1.
       -4    1    3    3    0  502 -0.36412720833E+02 -0.32426490134E+03  0.22932412670E+03  0.39882926230E+03  0.12699999809E+01 0.  1.
</event>
<event>
 5   0  0.3262927E-03  0.1240893E+04  0.7818609E-02  0.9077797E-01
       -2   -1    0    0    0  501  0.00000000000E+00  0.00000000000E+00  0.21786995051E+03  0.21786995052E+03  0.25500000920E-02 0.  1.
        2   -1    0    0  501    0  0.00000000000E+00  0.00000000000E+00 -0.17668986149E+04  0.17668986149E+04  0.25500000920E-02 0. -1.
    10030    2    1    2    0    0  0.00000000000E+00  0.00000000000E+00 -0.15490286644E+04  0.19847685655E+04  0.12408934101E+04 0.  0.
        3    1    3    3  502    0 -0.19915674893E+03  0.54914928851E+03 -0.11089742186E+04  0.12534162036E+04  0.10100000352E+00 0. -1.
       -3    1    3    3    0  502  0.19915674893E+03 -0.54914928851E+03 -0.44005444584E+03  0.73135236188E+03  0.10100000352E+00 0.  1.
</event>
<event>
 5   0  0.1254125E-03  0.1306321E+04  0.7818609E-02  0.9024567E-01
        3   -1    0    0  501    0  0.00000000000E+00  0.00000000000E+00  0.74674852890E+03  0.74674853573E+03  0.10100000352E+00 0. -1.
       -3   -1    0    0    0  501  0.00000000000E+00  0.00000000000E+00 -0.57130166477E+03  0.57130167370E+03  0.10100000352E+00 0.  1.
    10030    2    1    2    0    0  0.00000000000E+00  0.00000000000E+00  0.17544686412E+03  0.13180502094E+04  0.13063210756E+04 0.  0.
        5    1    3    3  502    0 -0.14817043872E+01  0.66734272751E+02  0.74328088176E+03  0.74628695406E+03  0.46999998093E+01 0. -1.
       -5    1    3    3    0  502  0.14817043872E+01 -0.66734272751E+02 -0.56783401764E+03  0.57176325537E+03  0.46999998093E+01 0.  1.
</event>
<event>
 5   0  0.1814770E-03  0.1314896E+04  0.7818609E-02  0.9017835E-01
        1   -1    0    0  501    0  0.00000000000E+00  0.00000000000E+00  0.15098107925E+04  0.15098107925E+04  0.50400001928E-02 0.  1.
       -1   -1    0    0    0  501  0.00000000000E+00  0.00000000000E+00 -0.28628618836E+03  0.28628618841E+03  0.50400001928E-02 0. -1.
    10030    2    1    2    0    0  0.00000000000E+00  0.00000000000E+00  0.12235246041E+04  0.17960969809E+04  0.13148961586E+04 0.  0.
        5    1    3    3  502    0  0.49169566443E+03  0.40601829455E+03  0.39320679975E+03  0.74916564210E+03  0.46999998093E+01 0. -1.
       -5    1    3    3    0  502 -0.49169566443E+03 -0.40601829455E+03  0.83031780439E+03  0.10469313388E+04  0.46999998093E+01 0.  1.
</event>
<event>
 5   0  0.3336609E-03  0.1301718E+04  0.7818609E-02  0.9028204E-01
        2   -1    0    0  501    0  0.00000000000E+00  0.00000000000E+00  0.10186160599E+04  0.10186160599E+04  0.25500000920E-02 0. -1.
       -2   -1    0    0    0  501  0.00000000000E+00  0.00000000000E+00 -0.41587524016E+03  0.41587524017E+03  0.25500000920E-02 0.  1.
    10030    2    1    2    0    0  0.00000000000E+00  0.00000000000E+00  0.60274081978E+03  0.14344913001E+04  0.13017176323E+04 0.  0.
        1    1    3    3  502    0  0.16181873684E+03 -0.56925455132E+03  0.28504393467E+01  0.59181430603E+03  0.50400001928E-02 0.  1.
       -1    1    3    3    0  502 -0.16181873684E+03  0.56925455132E+03  0.59989038043E+03  0.84267699408E+03  0.50400001928E-02 0. -1.
</event>
<event>
 5   0  0.1857986E-03  0.1277085E+04  0.7818609E-02  0.9047937E-01
        1   -1    0    0  501    0  0.00000000000E+00  0.00000000000E+00  0.68121213735E+03  0.68121213737E+03  0.50400001928E-02 0. -1.
       -1   -1    0    0    0  501  0.00000000000E+00  0.00000000000E+00 -0.59854552211E+03  0.59854552214E+03  0.50400001928E-02 0.  1.
    10030    2    1    2    0    0  0.00000000000E+00  0.00000000000E+00  0.82666615234E+02  0.12797576595E+04  0.12770849219E+04 0.  0.
        1    1    3    3  502    0  0.39078192201E+03 -0.43119947211E+01 -0.46470608611E+03  0.60719095049E+03  0.50400001928E-02 0.  1.
       -1    1    3    3    0  502 -0.39078192201E+03  0.43119947211E+01  0.54737270134E+03  0.67256670901E+03  0.50400001928E-02 0. -1.
</event>
<event>
 5   0  0.3259968E-03  0.1273264E+04  0.7818609E-02  0.9051040E-01
       -2   -1    0    0    0  501  0.00000000000E+00  0.00000000000E+00  0.28221483581E+03  0.28221483582E+03  0.25500000920E-02 0. -1.
        2   -1    0    0  501    0  0.00000000000E+00  0.00000000000E+00 -0.14361413262E+04  0.14361413262E+04  0.25500000920E-02 0.  1.
    10030    2    1    2    0    0  0.00000000000E+00  0.00000000000E+00 -0.11539264904E+04  0.17183561620E+04  0.12732641338E+04 0.  0.
        4    1    3    3  502    0 -0.12276496686E+03  0.79724695842E+02  0.25919335122E+03  0.29767443698E+03  0.12699999809E+01 0. -1.
       -4    1    3    3    0  502  0.12276496686E+03 -0.79724695842E+02 -0.14131198416E+04  0.14206817250E+04  0.12699999809E+01 0.  1.
</event>
<event>
 5   0  0.3259968E-03  0.1321437E+04  0.7818609E-02  0.9012736E-01
        2   -1    0    0  501    0  0.00000000000E+00  0.00000000000E+00  0.40524569440E+03  0.40524569441E+03  0.25500000920E-02 0.  1.
       -2   -1    0    0    0  501  0.00000000000E+00  0.00000000000E+00 -0.10772447985E+04  0.10772447985E+04  0.25500000920E-02 0. -1.
    10030    2    1    2    0    0  0.00000000000E+00  0.00000000000E+00 -0.67199910406E+03  0.14824904929E+04  0.13214368186E+04 0.  0.
        4    1    3    3  502    0  0.46794555540E+03 -0.39352820606E+03 -0.61693912366E+03  0.86859253219E+03  0.12699999809E+01 0. -1.
       -4    1    3    3    0  502 -0.46794555540E+03  0.39352820606E+03 -0.55059980404E+02  0.61389796068E+03  0.12699999809E+01 0.  1.
</event>
<event>
 5   0  0.1254125E-03  0.1332594E+04  0.7818609E-02  0.9004110E-01
       -3   -1    0    0    0  501  0.00000000000E+00  0.00000000000E+00  0.10157453167E+04  0.10157453217E+04  0.10100000352E+00 0. -1.
        3   -1    0    0  501    0  0.00000000000E+00  0.00000000000E+00 -0.43706955801E+03  0.43706956968E+03  0.10100000352E+00 0.  1.
    10030    2    1    2    0    0  0.00000000000E+00  0.00000000000E+00  0.57867575870E+03  0.14528148914E+04  0.13325935145E+04 0.  0.
        4    1    3    3  502    0  0.43555824700E+03 -0.39067774054E+03 -0.58182368195E+02  0.58798544570E+03  0.12699999809E+01 0.  1.
       -4    1    3    3    0  502 -0.43555824700E+03  0.39067774054E+03  0.63685812690E+03  0.86482944572E+03  0.12699999809E+01 0. -1.
</event>
<event>
 5   0  0.3259968E-03  0.1293330E+04  0.7818609E-02  0.9034871E-01
       -2   -1    0    0    0  501  0.00000000000E+00  0.00000000000E+00  0.66943695964E+03  0.66943695964E+03  0.25500000920E-02 0.  1.
        2   -1    0    0  501    0  0.00000000000E+00  0.00000000000E+00 -0.62466787001E+03  0.62466787001E+03  0.25500000920E-02 0. -1.
    10030    2    1    2    0    0  0.00000000000E+00  0.00000000000E+00  0.44769089630E+02  0.12941048297E+04  0.12933302126E+04 0.  0.
        4    1    3    3  502    0  0.31737458446E+02  0.11723055343E+03  0.65792153797E+03  0.66903858779E+03  0.12699999809E+01 0.  1.
       -4    1    3    3    0  502 -0.31737458446E+02 -0.11723055343E+03 -0.61315244834E+03  0.62506624187E+03  0.12699999809E+01 0. -1.
</event>
<event>
 5   0  0.3336609E-03  0.1293215E+04  0.7818609E-02  0.9034963E-01
        2   -1    0    0  501    0  0.00000000000E+00  0.00000000000E+00  0.10754770812E+04  0.10754770812E+04  0.25500000920E-02 0.  1.
       -2   -1    0    0    0  501  0.00000000000E+00  0.00000000000E+00 -0.38875867421E+03  0.38875867422E+03  0.25500000920E-02 0. -1.
    10030    2    1    2    0    0  0.00000000000E+00  0.00000000000E+00  0.68671840695E+03  0.14642357554E+04  0.12932146678E+04 0.  0.
        1    1    3    3  502    0  0.37408071549E+03  0.51713194326E+03  0.46069395816E+03  0.78714722356E+03  0.50400001928E-02 0.  1.
       -1    1    3    3    0  502 -0.37408071549E+03 -0.51713194326E+03  0.22602444879E+03  0.67708853182E+03  0.50400001928E-02 0. -1.
</event>
<event>
 5   0  0.1803959E-03  0.1316655E+04  0.7818609E-02  0.9016461E-01
        1   -1    0    0  501    0  0.00000000000E+00  0.00000000000E+00  0.10687820754E+04  0.10687820755E+04  0.50400001928E-02 0.  1.
       -1   -1    0    0    0  501  0.00000000000E+00  0.00000000000E+00 -0.40550382560E+03  0.40550382563E+03  0.50400001928E-02 0. -1.
    10030    2    1    2    0    0  0.00000000000E+00  0.00000000000E+00  0.66327824984E+03  0.14742859011E+04  0.13166551870E+04 0.  0.
        4    1    3    3  502    0  0.57886859665E+03 -0.12611975082E+03  0.10221654590E+02  0.59253787968E+03  0.12699999809E+01 0. -1.
       -4    1    3    3    0  502 -0.57886859665E+03  0.12611975082E+03  0.65305659525E+03  0.88174802140E+03  0.12699999809E+01 0.  1.
</event>
<event>
 5   0  0.1254125E-03  0.1292022E+04  0.7818609E-02  0.9035916E-01
        3   -1    0    0  501    0  0.00000000000E+00  0.00000000000E+00  0.38705802515E+03  0.38705803833E+03  0.10100000352E+00 0.  1.
       -3   -1    0    0    0  501  0.00000000000E+00  0.00000000000E+00 -0.10782106438E+04  0.10782106485E+04  0.10100000352E+00 0. -1.
    10030    2    1    2    0    0  0.00000000000E+00  0.00000000000E+00 -0.69115261865E+03  0.14652686869E+04  0.12920218196E+04 0.  0.
        4    1    3    3  502    0  0.13732901925E+02  0.28867362811E+03 -0.10008087903E+04  0.10417009666E+04  0.12699999809E+01 0. -1.
       -4    1    3    3    0  502 -0.13732901925E+02 -0.28867362811E+03  0.30965617161E+03  0.42356772030E+03  0.12699999809E+01 0.  1.
</event>
<event>
 5   0  0.1814770E-03  0.1296727E+04  0.7818609E-02  0.9032165E-01
       -1   -1    0    0    0  501  0.00000000000E+00  0.00000000000E+00  0.24794182811E+03  0.24794182816E+03  0.50400001928E-02 0. -1.
        1   -1    0    0  501    0  0.00000000000E+00  0.00000000000E+00 -0.16954594972E+04  0.16954594972E+04  0.50400001928E-02 0.  1.
    10030    2    1    2    0    0  0.00000000000E+00  0.00000000000E+00 -0.14475176691E+04  0.19434013254E+04  0.12967271529E+04 0.  0.
        5    1    3    3  502    0  0.59088360153E+03 -0.24117472686E+03 -0.55258847174E+03  0.84420660299E+03  0.46999998093E+01 0. -1.
       -5    1    3    3    0  502 -0.59088360153E+03  0.24117472686E+03 -0.89492919739E+03  0.10991947224E+04  0.46999998093E+01 0.  1.
</event>
<event>
 5   0  0.3259968E-03  0.1286882E+04  0.7818609E-02  0.9040033E-01
        2   -1    0    0  501    0  0.00000000000E+00  0.00000000000E+00  0.10722530856E+04  0.10722530856E+04  0.25500000920E-02 0. -1.
       -2   -1    0    0    0  501  0.00000000000E+00  0.00000000000E+00 -0.38611837973E+03  0.38611837974E+03  0.25500000920E-02 0.  1.
    10030    2    1    2    0    0  0.00000000000E+00  0.00000000000E+00  0.68613470582E+03  0.14583714653E+04  0.12868824718E+04 0.  0.
        4    1    3    3  502    0  0.16037410037E+03  0.15816378124E+03  0.10261128695E+04  0.10505450336E+04  0.12699999809E+01 0. -1.
       -4    1    3    3    0  502 -0.16037410037E+03 -0.15816378124E+03 -0.33997816364E+03  0.40782643173E+03  0.12699999809E+01 0.  1.
</event>
<event>
 5   0  0.3336609E-03  0.1004586E+04  0.7818609E-02  0.9303529E-01
       -2   -1    0    0    0  501  0.00000000000E+00  0.00000000000E+00  0.22382427673E+03  0.22382427675E+03  0.25500000920E-02 0.  1.
        2   -1    0    0  501    0  0.00000000000E+00  0.00000000000E+00 -0.11272166574E+04  0.11272166574E+04  0.25500000920E-02 0. -1.
    10030    2    1    2    0    0  0.00000000000E+00  0.00000000000E+00 -0.90339238068E+03  0.13510409342E+04  0.10045863887E+04 0.  0.
        1    1    3    3  502    0  0.13211498217E+03  0.30400809784E+03  0.55845273887E+02  0.33614578193E+03  0.50400001928E-02 0.  1.
       -1    1    3    3    0  502 -0.13211498217E+03 -0.30400809784E+03 -0.95923765457E+03  0.10148951522E+04  0.50400001928E-02 0. -1.
</event>
<event>
 5   0  0.3299104E-03  0.1203953E+04  0.7818609E-02  0.9109404E-01
        2   -1    0    0  501    0  0.00000000000E+00  0.00000000000E+00  0.26762694234E+04  0.26762694234E+04  0.25500000920E-02 0. -1.
       -2   -1    0    0    0  501  0.00000000000E+00  0.00000000000E+00 -0.13540322025E+03  0.13540322028E+03  0.25500000920E-02 0.  1.
    10030    2    1    2    0    0  0.00000000000E+00  0.00000000000E+00  0.25408662032E+04  0.28116726437E+04  0.12039526539E+04 0.  0.
        2    1    3    3  502    0  0.44995840554E+03  0.23415208003E+03  0.51337845396E+03  0.72169744373E+03  0.25500000920E-02 0. -1.
       -2    1    3    3    0  502 -0.44995840554E+03 -0.23415208003E+03  0.20274877492E+04  0.20899752000E+04  0.25500000920E-02 0.  1.
</event>
<event>
 5   0  0.3294720E-03  0.1389174E+04  0.7818609E-02  0.8961692E-01
        2   -1    0    0  501    0  0.00000000000E+00  0.00000000000E+00  0.22816294855E+04  0.22816294855E+04  0.25500000920E-02 0. -1.
       -2   -1    0    0    0  501  0.00000000000E+00  0.00000000000E+00 -0.21145030005E+03  0.21145030007E+03  0.25500000920E-02 0.  1.
    10030    2    1    2    0    0  0.00000000000E+00  0.00000000000E+00  0.20701791854E+04  0.24930797856E+04  0.13891741998E+04 0.  0.
        5    1    3    3  502    0  0.29060045897E+03 -0.49176270794E+03  0.17442596811E+04  0.18354136081E+04  0.46999998093E+01 0. -1.
       -5    1    3    3    0  502 -0.29060045897E+03  0.49176270794E+03  0.32591950436E+03  0.65766617747E+03  0.46999998093E+01 0.  1.
</event>
<event>
 5   0  0.3299104E-03  0.1296825E+04  0.7818609E-02  0.9032087E-01
       -2   -1    0    0    0  501  0.00000000000E+00  0.00000000000E+00  0.93672383952E+03  0.93672383952E+03  0.25500000920E-02 0. -1.
        2   -1    0    0  501    0  0.00000000000E+00  0.00000000000E+00 -0.44883938411E+03  0.44883938412E+03  0.25500000920E-02 0.  1.
    10030    2    1    2    0    0  0.00000000000E+00  0.00000000000E+00  0.48788445541E+03  0.13855632236E+04  0.12968246624E+04 0.  0.
        2    1    3    3  502    0  0.49254595189E+02 -0.62572842910E+03  0.41779239776E+03  0.75399772531E+03  0.25500000920E-02 0. -1.
       -2    1    3    3    0  502 -0.49254595189E+02  0.62572842910E+03  0.70092057646E+02  0.63156549834E+03  0.25500000920E-02 0.  1.
</event>
<event>
 5   0  0.1873488E-03  0.1314958E+04  0.7818609E-02  0.9017787E-01
       -1   -1    0    0    0  501  0.00000000000E+00  0.00000000000E+00  0.30274716100E+03  0.30274716104E+03  0.50400001928E-02 0.  1.
        1   -1    0    0  501    0  0.00000000000E+00  0.00000000000E+00 -0.14278526176E+04  0.14278526176E+04  0.50400001928E-02 0. -1.
    10030    2    1    2    0    0  0.00000000000E+00  0.00000000000E+00 -0.11251054566E+04  0.17305997787E+04  0.13149575299E+04 0.  0.
        3    1    3    3  502    0 -0.29825983693E+03 -0.65835973156E+02  0.20370552412E+03  0.36713656376E+03  0.10100000352E+00 0.  1.
       -3    1    3    3    0  502  0.29825983693E+03  0.65835973156E+02 -0.13288109808E+04  0.13634632149E+04  0.10100000352E+00 0. -1.
</event>
<event>
 5   0  0.3336609E-03  0.1298900E+04  0.7818609E-02  0.9030438E-01
       -2   -1    0    0    0  501  0.00000000000E+00  0.00000000000E+00  0.36509664993E+03  0.36509664994E+03  0.25500000920E-02 0.  1.
        2   -1    0    0  501    0  0.00000000000E+00  0.00000000000E+00 -0.11552694210E+04  0.11552694210E+04  0.25500000920E-02 0. -1.
    10030    2    1    2    0    0  0.00000000000E+00  0.00000000000E+00 -0.79017277108E+03  0.15203660710E+04  0.12988995271E+04 0.  0.
        1    1    3    3  502    0  0.23594300958E+03 -0.30980559961E+03  0.21327851555E+03  0.44400038124E+03  0.50400001928E-02 0.  1.
       -1    1    3    3    0  502 -0.23594300958E+03  0.30980559961E+03 -0.10034512866E+04  0.10763656897E+04  0.50400001928E-02 0. -1.
</event>
<event>
 5   0  0.1823154E-03  0.8035008E+03  0.7818609E-02  0.9554964E-01
       -1   -1    0    0    0  501  0.00000000000E+00  0.00000000000E+00  0.13823536097E+03  0.13823536106E+03  0.50400001928E-02 0. -1.
        1   -1    0    0  501    0  0.00000000000E+00  0.00000000000E+00 -0.11675983937E+04  0.11675983937E+04  0.50400001928E-02 0.  1.
    10030    2    1    2    0    0  0.00000000000E+00  0.00000000000E+00 -0.10293630328E+04  0.13058337548E+04  0.80350080396E+03 0.  0.
        2    1    3    3  502    0  0.31495887252E+03  0.22556848488E+03 -0.34174557684E+03  0.51659488194E+03  0.25500000920E-02 0. -1.
       -2    1    3    3    0  502 -0.31495887252E+03 -0.22556848488E+03 -0.68761745593E+03  0.78923887287E+03  0.25500000920E-02 0.  1.
</event>
<event>
 5   0  0.1803959E-03  0.1337958E+04  0.7818609E-02  0.8999994E-01
        1   -1    0    0  501    0  0.00000000000E+00  0.00000000000E+00  0.10597422301E+04  0.10597422301E+04  0.50400001928E-02 0. -1.
       -1   -1    0    0    0  501  0.00000000000E+00  0.00000000000E+00 -0.42230349909E+03  0.42230349912E+03  0.50400001928E-02 0.  1.
    10030    2    1    2    0    0  0.00000000000E+00  0.00000000000E+00  0.63743873096E+03  0.14820457292E+04  0.13379579245E+04 0.  0.
        4    1    3    3  502    0 -0.59475711510E+03  0.20418158312E+03  0.65871529720E+02  0.63227115715E+03  0.12699999809E+01 0. -1.
       -4    1    3    3    0  502  0.59475711510E+03 -0.20418158312E+03  0.57156720124E+03  0.84977457203E+03  0.12699999809E+01 0.  1.
</event>
<event>
 5   0  0.3262927E-03  0.1285228E+04  0.7818609E-02  0.9041362E-01
       -2   -1    0    0    0  501  0.00000000000E+00  0.00000000000E+00  0.39067164863E+03  0.39067164864E+03  0.25500000920E-02 0. -1.
        2   -1    0    0  501    0  0.00000000000E+00  0.00000000000E+00 -0.10570326309E+04  0.10570326309E+04  0.25500000920E-02 0.  1.
    10030    2    1    2    0    0  0.00000000000E+00  0.00000000000E+00 -0.66636098224E+03  0.14477042795E+04  0.12852278873E+04 0.  0.
        3    1    3    3  502    0  0.12793398049E+03 -0.44940078688E+03  0.16375323475E+03  0.49511948326E+03  0.10100000352E+00 0. -1.
       -3    1    3    3    0  502 -0.12793398049E+03  0.44940078688E+03 -0.83011421700E+03  0.95258479626E+03  0.10100000352E+00 0.  1.
</event>
<event>
 5   0  0.3294720E-03  0.1304867E+04  0.7818609E-02  0.9025714E-01
        2   -1    0    0  501    0  0.00000000000E+00  0.00000000000E+00  0.14953855668E+04  0.14953855669E+04  0.25500000920E-02 0. -1.
       -2   -1    0    0    0  501  0.00000000000E+00  0.00000000000E+00 -0.28465551309E+03  0.28465551310E+03  0.25500000920E-02 0.  1.
    10030    2    1    2    0    0  0.00000000000E+00  0.00000000000E+00  0.12107300538E+04  0.17800410799E+04  0.13048674198E+04 0.  0.
        5    1    3    3  502    0 -0.13331384049E+03  0.50688739488E+03  0.75376873370E+02  0.52953864277E+03  0.46999998093E+01 0.  1.
       -5    1    3    3    0  502  0.13331384049E+03 -0.50688739488E+03  0.11353531804E+04  0.12505024372E+04  0.46999998093E+01 0. -1.
</event>
<event>
 5   0  0.1254125E-03  0.1288303E+04  0.7818609E-02  0.9038893E-01
       -3   -1    0    0    0  501  0.00000000000E+00  0.00000000000E+00  0.36214744569E+03  0.36214745977E+03  0.10100000352E+00 0. -1.
        3   -1    0    0  501    0  0.00000000000E+00  0.00000000000E+00 -0.11457516412E+04  0.11457516457E+04  0.10100000352E+00 0.  1.
    10030    2    1    2    0    0  0.00000000000E+00  0.00000000000E+00 -0.78360419556E+03  0.15078991055E+04  0.12883028281E+04 0.  0.
        5    1    3    3  502    0  0.23328899003E+03  0.39299164590E+02 -0.10930405504E+04  0.11183594735E+04  0.46999998093E+01 0.  1.
       -5    1    3    3    0  502 -0.23328899003E+03 -0.39299164590E+02  0.30943635481E+03  0.38953963198E+03  0.46999998093E+01 0. -1.
</event>
<event>
 5   0  0.1254125E-03  0.1358461E+04  0.7818609E-02  0.8984448E-01
        3   -1    0    0  501    0  0.00000000000E+00  0.00000000000E+00  0.12267885045E+04  0.12267885087E+04  0.10100000352E+00 0. -1.
       -3   -1    0    0    0  501  0.00000000000E+00  0.00000000000E+00 -0.37606674056E+03  0.37606675412E+03  0.10100000352E+00 0.  1.
    10030    2    1    2    0    0  0.00000000000E+00  0.00000000000E+00  0.85072176399E+03  0.16028552628E+04  0.13584614363E+04 0.  0.
        4    1    3    3  502    0 -0.33976545291E+03  0.25430324002E+02 -0.26794291699E+03  0.43345390070E+03  0.12699999809E+01 0.  1.
       -4    1    3    3    0  502  0.33976545291E+03 -0.25430324002E+02  0.11186646810E+04  0.11694013621E+04  0.12699999809E+01 0. -1.
</event>
<event>
 5   0  0.3294720E-03  0.9727014E+03  0.7818609E-02  0.9339003E-01
        2   -1    0    0  501    0  0.00000000000E+00  0.00000000000E+00  0.92104029368E+03  0.92104029368E+03  0.25500000920E-02 0. -1.
       -2   -1    0    0    0  501  0.00000000000E+00  0.00000000000E+00 -0.25681504073E+03  0.25681504075E+03  0.25500000920E-02 0.  1.
    10030    2    1    2    0    0  0.00000000000E+00  0.00000000000E+00  0.66422525294E+03  0.11778553344E+04  0.97270139416E+03 0.  0.
        5    1    3    3  502    0 -0.42303507234E+03 -0.83124966553E+02  0.59599742499E+02  0.43525010258E+03  0.46999998093E+01 0.  1.
       -5    1    3    3    0  502  0.42303507234E+03  0.83124966553E+02  0.60462551044E+03  0.74260523185E+03  0.46999998093E+01 0. -1.
</event>
<event>
 5   0  0.3336609E-03  0.1294393E+04  0.7818609E-02  0.9034023E-01
       -2   -1    0    0    0  501  0.00000000000E+00  0.00000000000E+00  0.52357282668E+03  0.52357282668E+03  0.25500000920E-02 0. -1.
        2   -1    0    0  501    0  0.00000000000E+00  0.00000000000E+00 -0.80001004734E+03  0.80001004735E+03  0.25500000920E-02 0.  1.
    10030    2    1    2    0    0  0.00000000000E+00  0.00000000000E+00 -0.27643722067E+03  0.13235828740E+04  0.12943933280E+04 0.  0.
        1    1    3    3  502    0  0.17858425285E+03  0.90237482208E+02 -0.76758874232E+03  0.79323868786E+03  0.50400001928E-02 0.  1.
       -1    1    3    3    0  502 -0.17858425285E+03 -0.90237482208E+02  0.49115152165E+03  0.53034418617E+03  0.50400001928E-02 0. -1.
</event>
<event>
 5   0  0.1803959E-03  0.1302302E+04  0.7818609E-02  0.9027742E-01
       -1   -1    0    0    0  501  0.00000000000E+00  0.00000000000E+00  0.45663692952E+03  0.45663692955E+03  0.50400001928E-02 0.  1.
        1   -1    0    0  501    0  0.00000000000E+00  0.00000000000E+00 -0.92852175709E+03  0.92852175710E+03  0.50400001928E-02 0. -1.
    10030    2    1    2    0    0  0.00000000000E+00  0.00000000000E+00 -0.47188482757E+03  0.13851586867E+04  0.13023015383E+04 0.  0.
        4    1    3    3  502    0  0.25166664621E+03 -0.20771221030E+03 -0.83527828207E+03  0.89675631279E+03  0.12699999809E+01 0. -1.
       -4    1    3    3    0  502 -0.25166664621E+03  0.20771221030E+03  0.36339345451E+03  0.48840237387E+03  0.12699999809E+01 0.  1.
</event>
<event>
 5   0  0.1814770E-03  0.1285950E+04  0.7818609E-02  0.9040782E-01
       -1   -1    0    0    0  501  0.00000000000E+00  0.00000000000E+00  0.95217803027E+03  0.95217803029E+03  0.50400001928E-02 0. -1.
        1   -1    0    0  501    0  0.00000000000E+00  0.00000000000E+00 -0.43418006104E+03  0.43418006107E+03  0.50400001928E-02 0.  1.
    10030    2    1    2    0    0  0.00000000000E+00  0.00000000000E+00  0.51799796923E+03  0.13863580914E+04  0.12859497896E+04 0.  0.
        5    1    3    3  502    0 -0.40502287948E+02 -0.16942595149E+03 -0.40823567416E+03  0.44387390554E+03  0.46999998093E+01 0.  1.
       -5    1    3    3    0  502  0.40502287948E+02  0.16942595149E+03  0.92623364339E+03  0.94248418581E+03  0.46999998093E+01 0. -1.
</event>
<event>
 5   0  0.3294720E-03  0.1298815E+04  0.7818609E-02  0.9030506E-01
        2   -1    0    0  501    0  0.00000000000E+00  0.00000000000E+00  0.13337896465E+04  0.13337896465E+04  0.25500000920E-02 0. -1.
       -2   -1    0    0    0  501  0.00000000000E+00  0.00000000000E+00 -0.31618930010E+03  0.31618930011E+03  0.25500000920E-02 0.  1.
    10030    2    1    2    0    0  0.00000000000E+00  0.00000000000E+00  0.10176003464E+04  0.16499789466E+04  0.12988148672E+04 0.  0.
        5    1    3    3  502    0  0.55456031376E+03 -0.84358835268E+02  0.92445550120E+03  0.10813388083E+04  0.46999998093E+01 0. -1.
       -5    1    3    3    0  502 -0.55456031376E+03  0.84358835268E+02  0.93144845196E+02  0.56864013829E+03  0.46999998093E+01 0.  1.
</event>
<event>
 5   0  0.3299104E-03  0.1241286E+04  0.7818609E-02  0.9077467E-01
       -2   -1    0    0    0  501  0.00000000000E+00  0.00000000000E+00  0.16341761225E+03  0.16341761227E+03  0.25500000920E-02 0.  1.
        2   -1    0    0  501    0  0.00000000000E+00  0.00000000000E+00 -0.23571383918E+04  0.23571383918E+04  0.25500000920E-02 0. -1.
    10030    2    1    2    0    0  0.00000000000E+00  0.00000000000E+00 -0.21937207796E+04  0.25205560041E+04  0.12412863131E+04 0.  0.
        2    1    3    3  502    0  0.47274388353E+03  0.51108877833E+02 -0.19068102819E+04  0.19652033859E+04  0.25500000920E-02 0. -1.
       -2    1    3    3    0  502 -0.47274388353E+03 -0.51108877833E+02 -0.28691049762E+03  0.55535261812E+03  0.25500000920E-02 0.  1.
</event>
<event>
 5   0  0.3262927E-03  0.1314291E+04  0.7818609E-02  0.9018309E-01
        2   -1    0    0  501    0  0.00000000000E+00  0.00000000000E+00  0.50752549736E+03  0.50752549737E+03  0.25500000920E-02 0. -1.
       -2   -1    0    0    0  501  0.00000000000E+00  0.00000000000E+00 -0.85087352592E+03  0.85087352593E+03  0.25500000920E-02 0.  1.
    10030    2    1    2    0    0  0.00000000000E+00  0.00000000000E+00 -0.34334802856E+03  0.13583990233E+04  0.13142906976E+04 0.  0.
        3    1    3    3  502    0 -0.42052930507E+03 -0.17637701342E+03  0.31737190522E+03  0.55558859214E+03  0.10100000352E+00 0. -1.
       -3    1    3    3    0  502  0.42052930507E+03  0.17637701342E+03 -0.66071993378E+03  0.80281043116E+03  0.10100000352E+00 0.  1.
</event>
<event>
 5   0  0.1857986E-03  0.1244594E+04  0.7818609E-02  0.9074695E-01
       -1   -1    0    0    0  501  0.00000000000E+00  0.00000000000E+00  0.48383872732E+03  0.48383872734E+03  0.50400001928E-02 0.  1.
        1   -1    0    0  501    0  0.00000000000E+00  0.00000000000E+00 -0.80037731285E+03  0.80037731287E+03  0.50400001928E-02 0. -1.
    10030    2    1    2    0    0  0.00000000000E+00  0.00000000000E+00 -0.31653858553E+03  0.12842160402E+04  0.12445939747E+04 0.  0.
        1    1    3    3  502    0 -0.19483083232E+03  0.65333646315E+02  0.44781957706E+03  0.49271686818E+03  0.50400001928E-02 0.  1.
       -1    1    3    3    0  502  0.19483083232E+03 -0.65333646315E+02 -0.76435816260E+03  0.79149917203E+03  0.50400001928E-02 0. -1.
</event>
<event>
 5   0  0.3262927E-03  0.1287731E+04  0.7818609E-02  0.9039352E-01
        2   -1    0    0  501    0  0.00000000000E+00  0.00000000000E+00  0.57345908942E+03  0.57345908942E+03  0.25500000920E-02 0. -1.
       -2   -1    0    0    0  501  0.00000000000E+00  0.00000000000E+00 -0.72291557678E+03  0.72291557679E+03  0.25500000920E-02 0.  1.
    10030    2    1    2    0    0  0.00000000000E+00  0.00000000000E+00 -0.14945648737E+03  0.12963746662E+04  0.12877305749E+04 0.  0.
        3    1    3    3  502    0 -0.29045979164E+03  0.51504943010E+03 -0.33123201454E+03  0.67775914871E+03  0.10100000352E+00 0.  1.
       -3    1    3    3    0  502  0.29045979164E+03 -0.51504943010E+03  0.18177552717E+03  0.61861551750E+03  0.10100000352E+00 0. -1.
</event>
<event>
 5   0  0.3294720E-03  0.1230008E+04  0.7818609E-02  0.9086989E-01
       -2   -1    0    0    0  501  0.00000000000E+00  0.00000000000E+00  0.32069320787E+03  0.32069320788E+03  0.25500000920E-02 0.  1.
        2   -1    0    0  501    0  0.00000000000E+00  0.00000000000E+00 -0.11794126474E+04  0.11794126474E+04  0.25500000920E-02 0. -1.
    10030    2    1    2    0    0  0.00000000000E+00  0.00000000000E+00 -0.85871943951E+03  0.15001058553E+04  0.12300075208E+04 0.  0.
        5    1    3    3  502    0 -0.60387692990E+02 -0.33924207858E+03 -0.10506040864E+04  0.11056775740E+04  0.46999998093E+01 0. -1.
       -5    1    3    3    0  502  0.60387692990E+02  0.33924207858E+03  0.19188464687E+03  0.39442828125E+03  0.46999998093E+01 0.  1.
</event>
<event>
 5   0  0.1857986E-03  0.1317513E+04  0.7818609E-02  0.9015792E-01
        1   -1    0    0  501    0  0.00000000000E+00  0.00000000000E+00  0.17714517475E+04  0.17714517475E+04  0.50400001928E-02 0. -1.
       -1   -1    0    0    0  501  0.00000000000E+00  0.00000000000E+00 -0.24497414378E+03  0.24497414383E+03  0.50400001928E-02 0.  1.
    10030    2    1    2    0    0  0.00000000000E+00  0.00000000000E+00  0.15264776037E+04  0.20164258914E+04  0.13175126188E+04 0.  0.
        1    1    3    3  502    0 -0.14216084262E+03  0.10358846174E+03  0.17348456472E+04  0.17437401452E+04  0.50400001928E-02 0. -1.
       -1    1    3    3    0  502  0.14216084262E+03 -0.10358846174E+03 -0.20836804344E+03  0.27268574612E+03  0.50400001928E-02 0.  1.
</event>
<event>
 5   0  0.1823154E-03  0.1296824E+04  0.7818609E-02  0.9032088E-01
       -1   -1    0    0    0  501  0.00000000000E+00  0.00000000000E+00  0.62236990404E+03  0.62236990406E+03  0.50400001928E-02 0. -1.
        1   -1    0    0  501    0  0.00000000000E+00  0.00000000000E+00 -0.67554367323E+03  0.67554367325E+03  0.50400001928E-02 0.  1.
    10030    2    1    2    0    0  0.00000000000E+00  0.00000000000E+00 -0.53173769196E+02  0.12979135773E+04  0.12968238911E+04 0.  0.
        2    1    3    3  502    0 -0.25103208529E+02 -0.64769791277E+03 -0.93883300325E+01  0.64825218706E+03  0.25500000920E-02 0. -1.
       -2    1    3    3    0  502  0.25103208529E+02  0.64769791277E+03 -0.43785439163E+02  0.64966139025E+03  0.25500000920E-02 0.  1.
</event>
<event>
 5   0  0.3259968E-03  0.1271682E+04  0.7818609E-02  0.9052328E-01
        2   -1    0    0  501    0  0.00000000000E+00  0.00000000000E+00  0.11886533537E+04  0.11886533537E+04  0.25500000920E-02 0. -1.
       -2   -1    0    0    0  501  0.00000000000E+00  0.00000000000E+00 -0.34012762291E+03  0.34012762292E+03  0.25500000920E-02 0.  1.
    10030    2    1    2    0    0  0.00000000000E+00  0.00000000000E+00  0.84852573080E+03  0.15287809766E+04  0.12716820981E+04 0.  0.
        4    1    3    3  502    0 -0.31787980921E+02  0.20454068527E+03  0.11470122630E+04  0.11655411241E+04  0.12699999809E+01 0. -1.
       -4    1    3    3    0  502  0.31787980921E+02 -0.20454068527E+03 -0.29848653219E+03  0.36323985252E+03  0.12699999809E+01 0.  1.
</event>
<event>
 5   0  0.3259968E-03  0.9874015E+03  0.7818609E-02  0.9322472E-01
        2   -1    0    0  501    0  0.00000000000E+00  0.00000000000E+00  0.23256597321E+03  0.23256597323E+03  0.25500000920E-02 0.  1.
       -2   -1    0    0    0  501  0.00000000000E+00  0.00000000000E+00 -0.10480486360E+04  0.10480486360E+04  0.25500000920E-02 0. -1.
    10030    2    1    2    0    0  0.00000000000E+00  0.00000000000E+00 -0.81548266279E+03  0.12806146092E+04  0.98740154146E+03 0.  0.
        4    1    3    3  502    0 -0.26063420330E+03  0.36103174676E+03 -0.68428387286E+03  0.81640684812E+03  0.12699999809E+01 0. -1.
       -4    1    3    3    0  502  0.26063420330E+03 -0.36103174676E+03 -0.13119878993E+03  0.46420776111E+03  0.12699999809E+01 0.  1.
</event>
<event>
 5   0  0.3299104E-03  0.1295665E+04  0.7818609E-02  0.9033010E-01
       -2   -1    0    0    0  501  0.00000000000E+00  0.00000000000E+00  0.17325469043E+03  0.17325469045E+03  0.25500000920E-02 0. -1.
        2   -1    0    0  501    0  0.00000000000E+00  0.00000000000E+00 -0.24223716873E+04  0.24223716873E+04  0.25500000920E-02 0.  1.
    10030    2    1    2    0    0  0.00000000000E+00  0.00000000000E+00 -0.22491169969E+04  0.25956263778E+04  0.12956654766E+04 0.  0.
        2    1    3    3  502    0 -0.64537684789E+03  0.41191568654E+02 -0.12016076713E+04  0.13645764972E+04  0.25500000920E-02 0.  1.
       -2    1    3    3    0  502  0.64537684789E+03 -0.41191568654E+02 -0.10475093256E+04  0.12310498805E+04  0.25500000920E-02 0. -1.
</event>
<event>
 5   0  0.3336609E-03  0.1309409E+04  0.7818609E-02  0.9022137E-01
       -2   -1    0    0    0  501  0.00000000000E+00  0.00000000000E+00  0.21969948414E+03  0.21969948415E+03  0.25500000920E-02 0.  1.
        2   -1    0    0  501    0  0.00000000000E+00  0.00000000000E+00 -0.19510206638E+04  0.19510206638E+04  0.25500000920E-02 0. -1.
    10030    2    1    2    0    0  0.00000000000E+00  0.00000000000E+00 -0.17313211797E+04  0.21707201480E+04  0.13094093835E+04 0.  0.
        1    1    3    3  502    0  0.23365438566E+03 -0.37955232198E+03 -0.16606788470E+04  0.17194500778E+04  0.50400001928E-02 0. -1.
       -1    1    3    3    0  502 -0.23365438566E+03  0.37955232198E+03 -0.70642332668E+02  0.45127007019E+03  0.50400001928E-02 0.  1.
</event>
<event>
 5   0  0.3259968E-03  0.1293999E+04  0.7818609E-02  0.9034338E-01
        2   -1    0    0  501    0  0.00000000000E+00  0.00000000000E+00  0.12931802161E+04  0.12931802161E+04  0.25500000920E-02 0. -1.
       -2   -1    0    0    0  501  0.00000000000E+00  0.00000000000E+00 -0.32370456422E+03  0.32370456423E+03  0.25500000920E-02 0.  1.
    10030    2    1    2    0    0  0.00000000000E+00  0.00000000000E+00  0.96947565190E+03  0.16168847803E+04  0.12939989773E+04 0.  0.
        4    1    3    3  502    0  0.24612657342E+03  0.26144658650E+03  0.11572497459E+04  0.12116770176E+04  0.12699999809E+01 0. -1.
       -4    1    3    3    0  502 -0.24612657342E+03 -0.26144658650E+03 -0.18777409396E+03  0.40520776276E+03  0.12699999809E+01 0.  1.
</event>
<event>
 5   0  0.3262927E-03  0.1294508E+04  0.7818609E-02  0.9033932E-01
        2   -1    0    0  501    0  0.00000000000E+00  0.00000000000E+00  0.82044273215E+03  0.82044273216E+03  0.25500000920E-02 0.  1.
       -2   -1    0    0    0  501  0.00000000000E+00  0.00000000000E+00 -0.51062362563E+03  0.51062362564E+03  0.25500000920E-02 0. -1.
    10030    2    1    2    0    0  0.00000000000E+00  0.00000000000E+00  0.30981910652E+03  0.13310663578E+04  0.12945075396E+04 0.  0.
        3    1    3    3  502    0  0.14164603393E+03  0.44420152852E+03  0.61654169863E+03  0.77298271211E+03  0.10100000352E+00 0.  1.
       -3    1    3    3    0  502 -0.14164603393E+03 -0.44420152852E+03 -0.30672259211E+03  0.55808364568E+03  0.10100000352E+00 0. -1.
</event>
<event>
 5   0  0.1857986E-03  0.1293245E+04  0.7818609E-02  0.9034939E-01
       -1   -1    0    0    0  501  0.00000000000E+00  0.00000000000E+00  0.15682286120E+04  0.15682286120E+04  0.50400001928E-02 0.  1.
        1   -1    0    0  501    0  0.00000000000E+00  0.00000000000E+00 -0.26661991223E+03  0.26661991228E+03  0.50400001928E-02 0. -1.
    10030    2    1    2    0    0  0.00000000000E+00  0.00000000000E+00  0.13016086997E+04  0.18348485243E+04  0.12932454909E+04 0.  0.
        1    1    3    3  502    0 -0.34900202243E+03 -0.65992085284E+02 -0.11582175741E+03  0.37359342406E+03  0.50400001928E-02 0. -1.
       -1    1    3    3    0  502  0.34900202243E+03  0.65992085284E+02  0.14174304571E+04  0.14612551002E+04  0.50400001928E-02 0.  1.
</event>
<event>
 5   0  0.1857986E-03  0.1339540E+04  0.7818609E-02  0.8998784E-01
        1   -1    0    0  501    0  0.00000000000E+00  0.00000000000E+00  0.48805407871E+03  0.48805407873E+03  0.50400001928E-02 0. -1.
       -1   -1    0    0    0  501  0.00000000000E+00  0.00000000000E+00 -0.91914439338E+03  0.91914439339E+03  0.50400001928E-02 0.  1.
    10030    2    1    2    0    0  0.00000000000E+00  0.00000000000E+00 -0.43109031467E+03  0.14071984721E+04  0.13395404737E+04 0.  0.
        1    1    3    3  502    0  0.33222759648E+03 -0.32156420979E+03 -0.72459581453E+03  0.85954511885E+03  0.50400001928E-02 0.  1.
       -1    1    3    3    0  502 -0.33222759648E+03  0.32156420979E+03  0.29350549986E+03  0.54765335327E+03  0.50400001928E-02 0. -1.
</event>
<event>
 5   0  0.1803959E-03  0.1267277E+04  0.7818609E-02  0.9055925E-01
        1   -1    0    0  501    0  0.00000000000E+00  0.00000000000E+00  0.19104487331E+04  0.19104487331E+04  0.50400001928E-02 0. -1.
       -1   -1    0    0    0  501  0.00000000000E+00  0.00000000000E+00 -0.21015899457E+03  0.21015899463E+03  0.50400001928E-02 0.  1.
    10030    2    1    2    0    0  0.00000000000E+00  0.00000000000E+00  0.17002897385E+04  0.21206077278E+04  0.12672773730E+04 0.  0.
        4    1    3    3  502    0 -0.59055699412E+03 -0.22964600590E+03  0.85220845210E+03  0.10619584314E+04  0.12699999809E+01 0.  1.
       -4    1    3    3    0  502  0.59055699412E+03  0.22964600590E+03  0.84808128644E+03  0.10586492963E+04  0.12699999809E+01 0. -1.
</event>
<event>
 5   0  0.1857986E-03  0.1258821E+04  0.7818609E-02  0.9062873E-01
        1   -1    0    0  501    0  0.00000000000E+00  0.00000000000E+00  0.10745126727E+04  0.10745126727E+04  0.50400001928E-02 0.  1.
       -1   -1    0    0    0  501  0.00000000000E+00  0.00000000000E+00 -0.36868609571E+03  0.36868609575E+03  0.50400001928E-02 0. -1.
    10030    2    1    2    0    0  0.00000000000E+00  0.00000000000E+00  0.70582657696E+03  0.14431987684E+04  0.12588214840E+04 0.  0.
        1    1    3    3  502    0 -0.42343808838E+01 -0.30171828535E+03 -0.28035449954E+03  0.41188651244E+03  0.50400001928E-02 0. -1.
       -1    1    3    3    0  502  0.42343808838E+01  0.30171828535E+03  0.98618107650E+03  0.10313122560E+04  0.50400001928E-02 0.  1.
</event>
<event>
 5   0  0.3336609E-03  0.1262561E+04  0.7818609E-02  0.9059793E-01
       -2   -1    0    0    0  501  0.00000000000E+00  0.00000000000E+00  0.41422303543E+03  0.41422303543E+03  0.25500000920E-02 0.  1.
        2   -1    0    0  501    0  0.00000000000E+00  0.00000000000E+00 -0.96207906685E+03  0.96207906685E+03  0.25500000920E-02 0. -1.
    10030    2    1    2    0    0  0.00000000000E+00  0.00000000000E+00 -0.54785603142E+03  0.13763021023E+04  0.12625613829E+04 0.  0.
        1    1    3    3  502    0  0.47514165647E+03 -0.21218533696E+02  0.17856390682E+03  0.50803040138E+03  0.50400001928E-02 0.  1.
       -1    1    3    3    0  502 -0.47514165647E+03  0.21218533696E+02 -0.72641993824E+03  0.86827170090E+03  0.50400001928E-02 0. -1.
</event>
<event>
 5   0  0.3259968E-03  0.1313296E+04  0.7818609E-02  0.9019087E-01
        2   -1    0    0  501    0  0.00000000000E+00  0.00000000000E+00  0.17369662865E+04  0.17369662865E+04  0.25500000920E-02 0.  1.
       -2   -1    0    0    0  501  0.00000000000E+00  0.00000000000E+00 -0.24824124457E+03  0.24824124459E+03  0.25500000920E-02 0. -1.
    10030    2    1    2    0    0  0.00000000000E+00  0.00000000000E+00  0.14887250419E+04  0.19852075311E+04  0.13132961170E+04 0.  0.
        4    1    3    3  502    0 -0.32648932631E+03  0.52305855992E+03  0.10857332731E+04  0.12486007731E+04  0.12699999809E+01 0.  1.
       -4    1    3    3    0  502  0.32648932631E+03 -0.52305855992E+03  0.40299176880E+03  0.73660675799E+03  0.12699999809E+01 0. -1.
</event>
<event>
 5   0  0.3299104E-03  0.8264453E+03  0.7818609E-02  0.9522508E-01
        2   -1    0    0  501    0  0.00000000000E+00  0.00000000000E+00  0.85366246749E+03  0.85366246749E+03  0.25500000920E-02 0. -1.
       -2   -1    0    0    0  501  0.00000000000E+00  0.00000000000E+00 -0.20002395576E+03  0.20002395578E+03  0.25500000920E-02 0.  1.
    10030    2    1    2    0    0  0.00000000000E+00  0.00000000000E+00  0.65363851173E+03  0.10536864233E+04  0.82644526411E+03 0.  0.
        2    1    3    3  502    0 -0.27656188209E+03 -0.27776702848E+03  0.16003809176E+03  0.42338302701E+03  0.25500000920E-02 0.  1.
       -2    1    3    3    0  502  0.27656188209E+03  0.27776702848E+03  0.49360041996E+03  0.63030339626E+03  0.25500000920E-02 0. -1.
</event>
<event>
 5   0  0.1814770E-03  0.1274513E+04  0.7818609E-02  0.9050024E-01
       -1   -1    0    0    0  501  0.00000000000E+00  0.00000000000E+00  0.40584542253E+03  0.40584542256E+03  0.50400001928E-02 0. -1.
        1   -1    0    0  501    0  0.00000000000E+00  0.00000000000E+00 -0.10006172509E+04  0.10006172509E+04  0.50400001928E-02 0.  1.
    10030    2    1    2    0    0  0.00000000000E+00  0.00000000000E+00 -0.59477182837E+03  0.14064626735E+04  0.12745131322E+04 0.  0.
        5    1    3    3  502    0 -0.43620249146E+03  0.21492907651E+02  0.21470317994E+03  0.48667659088E+03  0.46999998093E+01 0. -1.
       -5    1    3    3    0  502  0.43620249146E+03 -0.21492907651E+02 -0.80947500831E+03  0.91978608258E+03  0.46999998093E+01 0.  1.
</event>
<event>
 5   0  0.1873488E-03  0.1259638E+04  0.7818609E-02  0.9062200E-01
       -1   -1    0    0    0  501  0.00000000000E+00  0.00000000000E+00  0.47030048944E+03  0.47030048946E+03  0.50400001928E-02 0. -1.
        1   -1    0    0  501    0  0.00000000000E+00  0.00000000000E+00 -0.84344341999E+03  0.84344342000E+03  0.50400001928E-02 0.  1.
    10030    2    1    2    0    0  0.00000000000E+00  0.00000000000E+00 -0.37314293055E+03  0.13137439095E+04  0.12596378103E+04 0.  0.
        3    1    3    3  502    0  0.38295375622E+03  0.36007182643E+03  0.17526965719E+03  0.55409815243E+03  0.10100000352E+00 0. -1.
       -3    1    3    3    0  502 -0.38295375622E+03 -0.36007182643E+03 -0.54841258774E+03  0.75964575704E+03  0.10100000352E+00 0.  1.
</event>
<event>
 5   0  0.3336609E-03  0.1331722E+04  0.7818609E-02  0.9004781E-01
       -2   -1    0    0    0  501  0.00000000000E+00  0.00000000000E+00  0.48431023892E+03  0.48431023892E+03  0.25500000920E-02 0. -1.
        2   -1    0    0  501    0  0.00000000000E+00  0.00000000000E+00 -0.91546839982E+03  0.91546839983E+03  0.25500000920E-02 0.  1.
    10030    2    1    2    0    0  0.00000000000E+00  0.00000000000E+00 -0.43115816091E+03  0.13997786388E+04  0.13317217719E+04 0.  0.
        1    1    3    3  502    0 -0.27669067345E+03 -0.58846209087E+03 -0.64990778975E+02  0.65350528884E+03  0.50400001928E-02 0.  1.
       -1    1    3    3    0  502  0.27669067345E+03  0.58846209087E+03 -0.36616738193E+03  0.74627334991E+03  0.50400001928E-02 0. -1.
</event>
<event>
 5   0  0.1803959E-03  0.1445887E+04  0.7818609E-02  0.8921257E-01
       -1   -1    0    0    0  501  0.00000000000E+00  0.00000000000E+00  0.11309534415E+04  0.11309534415E+04  0.50400001928E-02 0. -1.
        1   -1    0    0  501    0  0.00000000000E+00  0.00000000000E+00 -0.46213011989E+03  0.46213011992E+03  0.50400001928E-02 0.  1.
    10030    2    1    2    0    0  0.00000000000E+00  0.00000000000E+00  0.66882332159E+03  0.15930835614E+04  0.14458874777E+04 0.  0.
        4    1    3    3  502    0 -0.33298044019E+03 -0.36920038799E+03 -0.24386308634E+03  0.55376503846E+03  0.12699999809E+01 0.  1.
       -4    1    3    3    0  502  0.33298044019E+03  0.36920038799E+03  0.91268640792E+03  0.10393185229E+04  0.12699999809E+01 0. -1.
</event>
<event>
 5   0  0.1873488E-03  0.1261734E+04  0.7818609E-02  0.9060474E-01
       -1   -1    0    0    0  501  0.00000000000E+00  0.00000000000E+00  0.45034281998E+03  0.45034282001E+03  0.50400001928E-02 0.  1.
        1   -1    0    0  501    0  0.00000000000E+00  0.00000000000E+00 -0.88375546651E+03  0.88375546652E+03  0.50400001928E-02 0. -1.
    10030    2    1    2    0    0  0.00000000000E+00  0.00000000000E+00 -0.43341264653E+03  0.13340982865E+04  0.12617336153E+04 0.  0.
        3    1    3    3  502    0  0.26380204986E+03  0.13201240683E+03 -0.80633999652E+03  0.85860526277E+03  0.10100000352E+00 0. -1.
       -3    1    3    3    0  502 -0.26380204986E+03 -0.13201240683E+03  0.37292734999E+03  0.47549302376E+03  0.10100000352E+00 0.  1.
</event>
<event>
 5   0  0.1857986E-03  0.1372645E+04  0.7818609E-02  0.8973861E-01
       -1   -1    0    0    0  501  0.00000000000E+00  0.00000000000E+00  0.34047274729E+03  0.34047274733E+03  0.50400001928E-02 0. -1.
        1   -1    0    0  501    0  0.00000000000E+00  0.00000000000E+00 -0.13834848487E+04  0.13834848487E+04  0.50400001928E-02 0.  1.
    10030    2    1    2    0    0  0.00000000000E+00  0.00000000000E+00 -0.10430121014E+04  0.17239575960E+04  0.13726454565E+04 0.  0.
        1    1    3    3  502    0  0.23533930567E+03 -0.29661321271E+03  0.19742922021E+03  0.42701555448E+03  0.50400001928E-02 0. -1.
       -1    1    3    3    0  502 -0.23533930567E+03  0.29661321271E+03 -0.12404413216E+04  0.12969420415E+04  0.50400001928E-02 0.  1.
</event>
<event>
 5   0  0.1254125E-03  0.1249654E+04  0.7818609E-02  0.9070472E-01
       -3   -1    0    0    0  501  0.00000000000E+00  0.00000000000E+00  0.23632793521E+03  0.23632795680E+03  0.10100000352E+00 0.  1.
        3   -1    0    0  501    0  0.00000000000E+00  0.00000000000E+00 -0.16519777561E+04  0.16519777592E+04  0.10100000352E+00 0. -1.
    10030    2    1    2    0    0  0.00000000000E+00  0.00000000000E+00 -0.14156498209E+04  0.18883057160E+04  0.12496535766E+04 0.  0.
        5    1    3    3  502    0 -0.13961904008E+03 -0.33431492704E+03  0.61373836120E+02  0.36748984279E+03  0.46999998093E+01 0.  1.
       -5    1    3    3    0  502  0.13961904008E+03  0.33431492704E+03 -0.14770236570E+04  0.15208158732E+04  0.46999998093E+01 0. -1.
</event>
<event>
 5   0  0.1814770E-03  0.1316294E+04  0.7818609E-02  0.9016742E-01
        1   -1    0    0  501    0  0.00000000000E+00  0.00000000000E+00  0.10399991357E+04  0.10399991357E+04  0.50400001928E-02 0.  1.
       -1   -1    0    0    0  501  0.00000000000E+00  0.00000000000E+00 -0.41649814945E+03  0.41649814948E+03  0.50400001928E-02 0. -1.
    10030    2    1    2    0    0  0.00000000000E+00  0.00000000000E+00  0.62350098628E+03  0.14564972852E+04  0.13162943675E+04 0.  0.
        5    1    3    3  502    0  0.20683236698E+03 -0.26026598111E+03  0.94024385599E+03  0.99729564708E+03  0.46999998093E+01 0.  1.
       -5    1    3    3    0  502 -0.20683236698E+03  0.26026598111E+03 -0.31674286972E+03  0.45920163814E+03  0.46999998093E+01 0. -1.
</event>
<event>
 5   0  0.1873488E-03  0.1304238E+04  0.7818609E-02  0.9026211E-01
        1   -1    0    0  501    0  0.00000000000E+00  0.00000000000E+00  0.19853901841E+04  0.19853901841E+04  0.50400001928E-02 0.  1.
       -1   -1    0    0    0  501  0.00000000000E+00  0.00000000000E+00 -0.21419437782E+03  0.21419437788E+03  0.50400001928E-02 0. -1.
    10030    2    1    2    0    0  0.00000000000E+00  0.00000000000E+00  0.17711958063E+04  0.21995845620E+04  0.13042383452E+04 0.  0.
        3    1    3    3  502    0  0.41600791793E+03 -0.50014636938E+03  0.80923089074E+03  0.10382984269E+04  0.10100000352E+00 0. -1.
       -3    1    3    3    0  502 -0.41600791793E+03  0.50014636938E+03  0.96196491556E+03  0.11612861351E+04  0.10100000352E+00 0.  1.
</event>
<event>
 5   0  0.3259968E-03  0.1301899E+04  0.7818609E-02  0.9028060E-01
        2   -1    0    0  501    0  0.00000000000E+00  0.00000000000E+00  0.93816426068E+03  0.93816426069E+03  0.25500000920E-02 0. -1.
       -2   -1    0    0    0  501  0.00000000000E+00  0.00000000000E+00 -0.45166457416E+03  0.45166457417E+03  0.25500000920E-02 0.  1.
    10030    2    1    2    0    0  0.00000000000E+00  0.00000000000E+00  0.48649968652E+03  0.13898288349E+04  0.13018994758E+04 0.  0.
        4    1    3    3  502    0 -0.29257693611E+03  0.53792978514E+03  0.75091501311E+01  0.61239506653E+03  0.12699999809E+01 0. -1.
       -4    1    3    3    0  502  0.29257693611E+03 -0.53792978514E+03  0.47899053639E+03  0.77743376832E+03  0.12699999809E+01 0.  1.
</event>
<event>
 5   0  0.3336609E-03  0.1321559E+04  0.7818609E-02  0.9012642E-01
        2   -1    0    0  501    0  0.00000000000E+00  0.00000000000E+00  0.14053907065E+04  0.14053907065E+04  0.25500000920E-02 0. -1.
       -2   -1    0    0    0  501  0.00000000000E+00  0.00000000000E+00 -0.31068177203E+03  0.31068177204E+03  0.25500000920E-02 0.  1.
    10030    2    1    2    0    0  0.00000000000E+00  0.00000000000E+00  0.10947089344E+04  0.17160724785E+04  0.13215585876E+04 0.  0.
        1    1    3    3  502    0  0.40858765396E+03 -0.51905623756E+03  0.56853376367E+03  0.87154683705E+03  0.50400001928E-02 0. -1.
       -1    1    3    3    0  502 -0.40858765396E+03  0.51905623756E+03  0.52617517075E+03  0.84452564145E+03  0.50400001928E-02 0.  1.
</event>
<event>
 5   0  0.1803959E-03  0.1299435E+04  0.7818609E-02  0.9030013E-01
       -1   -1    0    0    0  501  0.00000000000E+00  0.00000000000E+00  0.83293772734E+03  0.83293772736E+03  0.50400001928E-02 0.  1.
        1   -1    0    0  501    0  0.00000000000E+00  0.00000000000E+00 -0.50680012349E+03  0.50680012351E+03  0.50400001928E-02 0. -1.
    10030    2    1    2    0    0  0.00000000000E+00  0.00000000000E+00  0.32613760386E+03  0.13397378509E+04  0.12994351744E+04 0.  0.
        4    1    3    3  502    0 -0.30623396285E+03  0.57246594853E+03  0.13709154823E+03  0.66354518138E+03  0.12699999809E+01 0.  1.
       -4    1    3    3    0  502  0.30623396285E+03 -0.57246594853E+03  0.18904605562E+03  0.67619266949E+03  0.12699999809E+01 0. -1.
</event>
<event>
 5   0  0.3294720E-03  0.1306449E+04  0.7818609E-02  0.9024467E-01
        2   -1    0    0  501    0  0.00000000000E+00  0.00000000000E+00  0.88575618567E+03  0.88575618567E+03  0.25500000920E-02 0. -1.
       -2   -1    0    0    0  501  0.00000000000E+00  0.00000000000E+00 -0.48173756586E+03  0.48173756587E+03  0.25500000920E-02 0.  1.
    10030    2    1    2    0    0  0.00000000000E+00  0.00000000000E+00  0.40401861981E+03  0.13674937515E+04  0.13064486654E+04 0.  0.
        5    1    3    3  502    0 -0.14915352244E+03 -0.13233291015E+03 -0.44908551766E+03  0.49138443660E+03  0.46999998093E+01 0.  1.
       -5    1    3    3    0  502  0.14915352244E+03  0.13233291015E+03  0.85310413746E+03  0.87610931494E+03  0.46999998093E+01 0. -1.
</event>
<event>
 5   0  0.1803959E-03  0.1315597E+04  0.7818609E-02  0.9017287E-01
        1   -1    0    0  501    0  0.00000000000E+00  0.00000000000E+00  0.11830467324E+04  0.11830467324E+04  0.50400001928E-02 0.  1.
       -1   -1    0    0    0  501  0.00000000000E+00  0.00000000000E+00 -0.36574949588E+03  0.36574949591E+03  0.50400001928E-02 0. -1.
    10030    2    1    2    0    0  0.00000000000E+00  0.00000000000E+00  0.81729723652E+03  0.15487962283E+04  0.13155968167E+04 0.  0.
        4    1    3    3  502    0  0.59103072711E+03  0.24927867459E+03  0.23707588664E+03  0.68385946430E+03  0.12699999809E+01 0.  1.
       -4    1    3    3    0  502 -0.59103072711E+03 -0.24927867459E+03  0.58022134988E+03  0.86493676401E+03  0.12699999809E+01 0. -1.
</event>
<event>
 5   0  0.1857986E-03  0.1295252E+04  0.7818609E-02  0.9033339E-01
       -1   -1    0    0    0  501  0.00000000000E+00  0.00000000000E+00  0.68592591893E+03  0.68592591895E+03  0.50400001928E-02 0. -1.
        1   -1    0    0  501    0  0.00000000000E+00  0.00000000000E+00 -0.61146493850E+03  0.61146493852E+03  0.50400001928E-02 0.  1.
    10030    2    1    2    0    0  0.00000000000E+00  0.00000000000E+00  0.74460980432E+02  0.12973908575E+04  0.12952523304E+04 0.  0.
        1    1    3    3  502    0 -0.29735851296E+02 -0.51995008061E+03 -0.34835617474E+03  0.62656550470E+03  0.50400001928E-02 0. -1.
       -1    1    3    3    0  502  0.29735851296E+02  0.51995008061E+03  0.42281715517E+03  0.67082535276E+03  0.50400001928E-02 0.  1.
</event>
<event>
 5   0  0.1857986E-03  0.1320909E+04  0.7818609E-02  0.9013147E-01
        1   -1    0    0  501    0  0.00000000000E+00  0.00000000000E+00  0.39343166511E+03  0.39343166514E+03  0.50400001928E-02 0.  1.
       -1   -1    0    0    0  501  0.00000000000E+00  0.00000000000E+00 -0.11087062576E+04  0.11087062576E+04  0.50400001928E-02 0. -1.
    10030    2    1    2    0    0  0.00000000000E+00  0.00000000000E+00 -0.71527459245E+03  0.15021379227E+04  0.13209090038E+04 0.  0.
        1    1    3    3  502    0  0.94372659734E+02 -0.30222817904E+03  0.30149952876E+03  0.43720708707E+03  0.50400001928E-02 0.  1.
       -1    1    3    3    0  502 -0.94372659734E+02  0.30222817904E+03 -0.10167741212E+04  0.10649308356E+04  0.50400001928E-02 0. -1.
</event>
<event>
 5   0  0.1873488E-03  0.1299318E+04  0.7818609E-02  0.9030107E-01
        1   -1    0    0  501    0  0.00000000000E+00  0.00000000000E+00  0.14594941750E+04  0.14594941750E+04  0.50400001928E-02 0.  1.
       -1   -1    0    0    0  501  0.00000000000E+00  0.00000000000E+00 -0.28917999292E+03  0.28917999297E+03  0.50400001928E-02 0. -1.
    10030    2    1    2    0    0  0.00000000000E+00  0.00000000000E+00  0.11703141820E+04  0.17486741679E+04  0.12993175366E+04 0.  0.
        3    1    3    3  502    0 -0.30165235501E+02  0.10494758969E+03 -0.27674061059E+03  0.29750514914E+03  0.10100000352E+00 0. -1.
       -3    1    3    3    0  502  0.30165235501E+02 -0.10494758969E+03  0.14470547926E+04  0.14511690188E+04  0.10100000352E+00 0.  1.
</event>
<event>
 5   0  0.3294720E-03  0.1286216E+04  0.7818609E-02  0.9040568E-01
       -2   -1    0    0    0  501  0.00000000000E+00  0.00000000000E+00  0.85448023628E+03  0.85448023629E+03  0.25500000920E-02 0. -1.
        2   -1    0    0  501    0  0.00000000000E+00  0.00000000000E+00 -0.48402296003E+03  0.48402296003E+03  0.25500000920E-02 0.  1.
    10030    2    1    2    0    0  0.00000000000E+00  0.00000000000E+00  0.37045727626E+03  0.13385031963E+04  0.12862162388E+04 0.  0.
        5    1    3    3  502    0  0.60047665268E+03  0.21233373358E+02  0.42376930562E+03  0.73527245354E+03  0.46999998093E+01 0. -1.
       -5    1    3    3    0  502 -0.60047665268E+03 -0.21233373358E+02 -0.53312029365E+02  0.60323074278E+03  0.46999998093E+01 0.  1.
</event>
<event>
 5   0  0.3336609E-03  0.1308674E+04  0.7818609E-02  0.9022714E-01
       -2   -1    0    0    0  501  0.00000000000E+00  0.00000000000E+00  0.70359023836E+03  0.70359023837E+03  0.25500000920E-02 0.  1.
        2   -1    0    0  501    0  0.00000000000E+00  0.00000000000E+00 -0.60853205087E+03  0.60853205087E+03  0.25500000920E-02 0. -1.
    10030    2    1    2    0    0  0.00000000000E+00  0.00000000000E+00  0.95058187498E+02  0.13121222892E+04  0.13086744602E+04 0.  0.
        1    1    3    3  502    0 -0.24963518077E+03  0.24345712740E+01  0.65396437217E+03  0.69999503620E+03  0.50400001928E-02 0.  1.
       -1    1    3    3    0  502  0.24963518077E+03 -0.24345712740E+01 -0.55890618467E+03  0.61212725303E+03  0.50400001928E-02 0. -1.
</event>
<event>
 5   0  0.1803959E-03  0.1264455E+04  0.7818609E-02  0.9058238E-01
        1   -1    0    0  501    0  0.00000000000E+00  0.00000000000E+00  0.10432420369E+04  0.10432420369E+04  0.50400001928E-02 0. -1.
       -1   -1    0    0    0  501  0.00000000000E+00  0.00000000000E+00 -0.38314354560E+03  0.38314354563E+03  0.50400001928E-02 0.  1.
    10030    2    1    2    0    0  0.00000000000E+00  0.00000000000E+00  0.66009849132E+03  0.14263855826E+04  0.12644547488E+04 0.  0.
        4    1    3    3  502    0 -0.39847307767E+03  0.42788561820E+03  0.58743592116E+02  0.58763876523E+03  0.12699999809E+01 0. -1.
       -4    1    3    3    0  502  0.39847307767E+03 -0.42788561820E+03  0.60135489920E+03  0.83874681733E+03  0.12699999809E+01 0.  1.
</event>
<event>
 5   0  0.1873488E-03  0.1311137E+04  0.7818609E-02  0.9020780E-01
        1   -1    0    0  501    0  0.00000000000E+00  0.00000000000E+00  0.10023107534E+04  0.10023107534E+04  0.50400001928E-02 0.  1.
       -1   -1    0    0    0  501  0.00000000000E+00  0.00000000000E+00 -0.42877917277E+03  0.42877917280E+03  0.50400001928E-02 0. -1.
    10030    2    1    2    0    0  0.00000000000E+00  0.00000000000E+00  0.57353158059E+03  0.14310899262E+04  0.13111368742E+04 0.  0.
        3    1    3    3  502    0  0.58189451191E+02  0.25478857009E+03 -0.36945964991E+03  0.45255239564E+03  0.10100000352E+00 0. -1.
       -3    1    3    3    0  502 -0.58189451191E+02 -0.25478857009E+03  0.94299123051E+03  0.97853753055E+03  0.10100000352E+00 0.  1.
</event>
<event>
 5   0  0.3294720E-03  0.1326942E+04  0.7818609E-02  0.9008469E-01
        2   -1    0    0  501    0  0.00000000000E+00  0.00000000000E+00  0.54989014471E+03  0.54989014471E+03  0.25500000920E-02 0. -1.
       -2   -1    0    0    0  501  0.00000000000E+00  0.00000000000E+00 -0.80051169240E+03  0.80051169241E+03  0.25500000920E-02 0.  1.
    10030    2    1    2    0    0  0.00000000000E+00  0.00000000000E+00 -0.25062154769E+03  0.13504018371E+04  0.13269415818E+04 0.  0.
        5    1    3    3  502    0 -0.30691764449E+03  0.19012709801E+03 -0.69177070850E+03  0.78033041530E+03  0.46999998093E+01 0.  1.
       -5    1    3    3    0  502  0.30691764449E+03 -0.19012709801E+03  0.44114916081E+03  0.57007142182E+03  0.46999998093E+01 0. -1.
</event>
<event>
 5   0  0.1873488E-03  0.1042389E+04  0.7818609E-02  0.9263238E-01
       -1   -1    0    0    0  501  0.00000000000E+00  0.00000000000E+00  0.34362382649E+03  0.34362382652E+03  0.50400001928E-02 0.  1.
        1   -1    0    0  501    0  0.00000000000E+00  0.00000000000E+00 -0.79052608596E+03  0.79052608598E+03  0.50400001928E-02 0. -1.
    10030    2    1    2    0    0  0.00000000000E+00  0.00000000000E+00 -0.44690225947E+03  0.11341499125E+04  0.10423887924E+04 0.  0.
        3    1    3    3  502    0  0.25570789651E+03  0.43578876371E+03 -0.36255398011E+03  0.62188726761E+03  0.10100000352E+00 0. -1.
       -3    1    3    3    0  502 -0.25570789651E+03 -0.43578876371E+03 -0.84348279369E+02  0.51226264489E+03  0.10100000352E+00 0.  1.
</event>
<event>
 5   0  0.1857986E-03  0.1312201E+04  0.7818609E-02  0.9019945E-01
       -1   -1    0    0    0  501  0.00000000000E+00  0.00000000000E+00  0.21017573897E+03  0.21017573903E+03  0.50400001928E-02 0. -1.
        1   -1    0    0  501    0  0.00000000000E+00  0.00000000000E+00 -0.20481332645E+04  0.20481332645E+04  0.50400001928E-02 0.  1.
    10030    2    1    2    0    0  0.00000000000E+00  0.00000000000E+00 -0.18379575255E+04  0.22583090035E+04  0.13122010859E+04 0.  0.
        1    1    3    3  502    0  0.56937196065E+03 -0.32121274078E+03 -0.82306642621E+03  0.10510948560E+04  0.50400001928E-02 0.  1.
       -1    1    3    3    0  502 -0.56937196065E+03  0.32121274078E+03 -0.10148910993E+04  0.12072141475E+04  0.50400001928E-02 0. -1.
</event>
<event>
 5   0  0.3259968E-03  0.1286832E+04  0.7818609E-02  0.9040073E-01
        2   -1    0    0  501    0  0.00000000000E+00  0.00000000000E+00  0.84754292108E+03  0.84754292108E+03  0.25500000920E-02 0. -1.
       -2   -1    0    0    0  501  0.00000000000E+00  0.00000000000E+00 -0.48845213215E+03  0.48845213216E+03  0.25500000920E-02 0.  1.
    10030    2    1    2    0    0  0.00000000000E+00  0.00000000000E+00  0.35909078892E+03  0.13359950532E+04  0.12868319966E+04 0.  0.
        4    1    3    3  502    0  0.46617022262E+03  0.23903472442E+03  0.56735378208E+03  0.77223325678E+03  0.12699999809E+01 0. -1.
       -4    1    3    3    0  502 -0.46617022262E+03 -0.23903472442E+03 -0.20826299316E+03  0.56376179646E+03  0.12699999809E+01 0.  1.
</event>
<event>
 5   0  0.3299104E-03  0.1288252E+04  0.7818609E-02  0.9038934E-01
        2   -1    0    0  501    0  0.00000000000E+00  0.00000000000E+00  0.82122357169E+03  0.82122357169E+03  0.25500000920E-02 0.  1.
       -2   -1    0    0    0  501  0.00000000000E+00  0.00000000000E+00 -0.50521942809E+03  0.50521942810E+03  0.25500000920E-02 0. -1.
    10030    2    1    2    0    0  0.00000000000E+00  0.00000000000E+00  0.31600414360E+03  0.13264429998E+04  0.12882516885E+04 0.  0.
        2    1    3    3  502    0 -0.53770704735E+03 -0.27192289488E+03  0.39240694417E+03  0.71906476716E+03  0.25500000920E-02 0.  1.
       -2    1    3    3    0  502  0.53770704735E+03  0.27192289488E+03 -0.76402800573E+02  0.60737823263E+03  0.25500000920E-02 0. -1.
</event>
<event>
 5   0  0.1823154E-03  0.1297339E+04  0.7818609E-02  0.9031678E-01
        1   -1    0    0  501    0  0.00000000000E+00  0.00000000000E+00  0.17482673304E+04  0.17482673304E+04  0.50400001928E-02 0. -1.
       -1   -1    0    0    0  501  0.00000000000E+00  0.00000000000E+00 -0.24067961590E+03  0.24067961595E+03  0.50400001928E-02 0.  1.
    10030    2    1    2    0    0  0.00000000000E+00  0.00000000000E+00  0.15075877145E+04  0.19889469463E+04  0.12973392920E+04 0.  0.
        2    1    3    3  502    0 -0.11822873266E+02  0.53685035394E+03  0.19589772564E+03  0.57159776223E+03  0.25500000920E-02 0. -1.
       -2    1    3    3    0  502  0.11822873266E+02 -0.53685035394E+03  0.13116899888E+04  0.14173491841E+04  0.25500000920E-02 0.  1.
</event>
<event>
 5   0  0.3299104E-03  0.1283698E+04  0.7818609E-02  0.9042594E-01
        2   -1    0    0  501    0  0.00000000000E+00  0.00000000000E+00  0.92493890341E+03  0.92493890341E+03  0.25500000920E-02 0.  1.
       -2   -1    0    0    0  501  0.00000000000E+00  0.00000000000E+00 -0.44540221839E+03  0.44540221839E+03  0.25500000920E-02 0. -1.
    10030    2    1    2    0    0  0.00000000000E+00  0.00000000000E+00  0.47953668502E+03  0.13703411218E+04  0.12836975336E+04 0.  0.
        2    1    3    3  502    0  0.23456561915E+03 -0.33298705095E+03 -0.28976576206E+03  0.49986558459E+03  0.25500000920E-02 0. -1.
       -2    1    3    3    0  502 -0.23456561915E+03  0.33298705095E+03  0.76930244709E+03  0.87047553722E+03  0.25500000920E-02 0.  1.
</event>
<event>
 5   0  0.1823154E-03  0.1301777E+04  0.7818609E-02  0.9028157E-01
       -1   -1    0    0    0  501  0.00000000000E+00  0.00000000000E+00  0.49756105233E+03  0.49756105236E+03  0.50400001928E-02 0.  1.
        1   -1    0    0  501    0  0.00000000000E+00  0.00000000000E+00 -0.85146466216E+03  0.85146466217E+03  0.50400001928E-02 0. -1.
    10030    2    1    2    0    0  0.00000000000E+00  0.00000000000E+00 -0.35390360982E+03  0.13490257145E+04  0.13017767141E+04 0.  0.
        2    1    3    3  502    0  0.36242467544E+03 -0.29028753877E+03 -0.64961760518E+03  0.79851207474E+03  0.25500000920E-02 0. -1.
       -2    1    3    3    0  502 -0.36242467544E+03  0.29028753877E+03  0.29571399536E+03  0.55051363979E+03  0.25500000920E-02 0.  1.
</event>
<event>
 5   0  0.1254125E-03  0.1277112E+04  0.7818609E-02  0.9047915E-01
        3   -1    0    0  501    0  0.00000000000E+00  0.00000000000E+00  0.27013740506E+04  0.27013740525E+04  0.10100000352E+00 0.  1.
       -3   -1    0    0    0  501  0.00000000000E+00  0.00000000000E+00 -0.15094308043E+03  0.15094311422E+03  0.10100000352E+00 0. -1.
    10030    2    1    2    0    0  0.00000000000E+00  0.00000000000E+00  0.25504309702E+04  0.28523171667E+04  0.12771120099E+04 0.  0.
        2    1    3    3  502    0 -0.73849941691E+02  0.13721711923E+03  0.26582573531E+04  0.26628207801E+04  0.25500000920E-02 0.  1.
       -2    1    3    3    0  502  0.73849941691E+02 -0.13721711923E+03 -0.10782638288E+03  0.18949638664E+03  0.25500000920E-02 0. -1.
</event>
<event>
 5   0  0.1857986E-03  0.1397811E+04  0.7818609E-02  0.8955404E-01
        1   -1    0    0  501    0  0.00000000000E+00  0.00000000000E+00  0.82661911248E+03  0.82661911250E+03  0.50400001928E-02 0. -1.
       -1   -1    0    0    0  501  0.00000000000E+00  0.00000000000E+00 -0.59092411007E+03  0.59092411009E+03  0.50400001928E-02 0.  1.
    10030    2    1    2    0    0  0.00000000000E+00  0.00000000000E+00  0.23569500241E+03  0.14175432226E+04  0.13978113799E+04 0.  0.
        1    1    3    3  502    0  0.19466457011E+03  0.45432633497E+03 -0.38325569758E+03  0.62545315033E+03  0.50400001928E-02 0.  1.
       -1    1    3    3    0  502 -0.19466457011E+03 -0.45432633497E+03  0.61895070000E+03  0.79209007225E+03  0.50400001928E-02 0. -1.
</event>
<event>
 5   0  0.3299104E-03  0.1305779E+04  0.7818609E-02  0.9024995E-01
       -2   -1    0    0    0  501  0.00000000000E+00  0.00000000000E+00  0.37690836767E+03  0.37690836768E+03  0.25500000920E-02 0. -1.
        2   -1    0    0  501    0  0.00000000000E+00  0.00000000000E+00 -0.11309503897E+04  0.11309503897E+04  0.25500000920E-02 0.  1.
    10030    2    1    2    0    0  0.00000000000E+00  0.00000000000E+00 -0.75404202205E+03  0.15078587574E+04  0.13057789481E+04 0.  0.
        2    1    3    3  502    0 -0.57616138760E+03  0.28087263932E+03 -0.52038449659E+03  0.82562183133E+03  0.25500000920E-02 0.  1.
       -2    1    3    3    0  502  0.57616138760E+03 -0.28087263932E+03 -0.23365752546E+03  0.68223692606E+03  0.25500000920E-02 0. -1.
</event>
<event>
 5   0  0.3259968E-03  0.1298800E+04  0.7818609E-02  0.9030517E-01
       -2   -1    0    0    0  501  0.00000000000E+00  0.00000000000E+00  0.47004967512E+03  0.47004967512E+03  0.25500000920E-02 0. -1.
        2   -1    0    0  501    0  0.00000000000E+00  0.00000000000E+00 -0.89718255811E+03  0.89718255812E+03  0.25500000920E-02 0.  1.
    10030    2    1    2    0    0  0.00000000000E+00  0.00000000000E+00 -0.42713288300E+03  0.13672322332E+04  0.12988000154E+04 0.  0.
        4    1    3    3  502    0  0.38888047289E+03 -0.51644580137E+03 -0.14889270661E+03  0.66341159089E+03  0.12699999809E+01 0. -1.
       -4    1    3    3    0  502 -0.38888047289E+03  0.51644580137E+03 -0.27824017639E+03  0.70382064235E+03  0.12699999809E+01 0.  1.
</event>
<event>
 5   0  0.3336609E-03  0.1360129E+04  0.7818609E-02  0.8983196E-01
        2   -1    0    0  501    0  0.00000000000E+00  0.00000000000E+00  0.10616615350E+04  0.10616615350E+04  0.25500000920E-02 0. -1.
       -2   -1    0    0    0  501  0.00000000000E+00  0.00000000000E+00 -0.43562658072E+03  0.43562658073E+03  0.25500000920E-02 0.  1.
    10030    2    1    2    0    0  0.00000000000E+00  0.00000000000E+00  0.62603495429E+03  0.14972881157E+04  0.13601293827E+04 0.  0.
        1    1    3    3  502    0 -0.22676712448E+03 -0.57078460977E+03  0.63447398996E+03  0.88304906062E+03  0.50400001928E-02 0. -1.
       -1    1    3    3    0  502  0.22676712448E+03  0.57078460977E+03 -0.84390356681E+01  0.61423905513E+03  0.50400001928E-02 0.  1.
</event>
<event>
 5   0  0.3336609E-03  0.1303954E+04  0.7818609E-02  0.9026435E-01
       -2   -1    0    0    0  501  0.00000000000E+00  0.00000000000E+00  0.27321155545E+03  0.27321155546E+03  0.25500000920E-02 0.  1.
        2   -1    0    0  501    0  0.00000000000E+00  0.00000000000E+00 -0.15558430487E+04  0.15558430487E+04  0.25500000920E-02 0. -1.
    10030    2    1    2    0    0  0.00000000000E+00  0.00000000000E+00 -0.12826314933E+04  0.18290546042E+04  0.13039544461E+04 0.  0.
        1    1    3    3  502    0 -0.32615224129E+03 -0.29893039848E+03 -0.13130597635E+04  0.13855903471E+04  0.50400001928E-02 0. -1.
       -1    1    3    3    0  502  0.32615224129E+03  0.29893039848E+03  0.30428270182E+02  0.44346425706E+03  0.50400001928E-02 0.  1.
</event>
<event>
 5   0  0.1823154E-03  0.1281472E+04  0.7818609E-02  0.9044388E-01
       -1   -1    0    0    0  501  0.00000000000E+00  0.00000000000E+00  0.61390884014E+03  0.61390884016E+03  0.50400001928E-02 0.  1.
        1   -1    0    0  501    0  0.00000000000E+00  0.00000000000E+00 -0.66873549378E+03  0.66873549380E+03  0.50400001928E-02 0. -1.
    10030    2    1    2    0    0  0.00000000000E+00  0.00000000000E+00 -0.54826653641E+02  0.12826443340E+04  0.12814720151E+04 0.  0.
        2    1    3    3  502    0 -0.44533283144E+03 -0.25938049199E+03  0.35364884199E+03  0.62503365816E+03  0.25500000920E-02 0.  1.
       -2    1    3    3    0  502  0.44533283144E+03  0.25938049199E+03 -0.40847549563E+03  0.65761067580E+03  0.25500000920E-02 0. -1.
</event>
<event>
 5   0  0.1254125E-03  0.1309980E+04  0.7818609E-02  0.9021688E-01
        4   -1    0    0  501    0  0.00000000000E+00  0.00000000000E+00  0.12951689237E+04  0.12951695464E+04  0.12699999809E+01 0. -1.
       -4   -1    0    0    0  501  0.00000000000E+00  0.00000000000E+00 -0.33123843351E+03  0.33124086815E+03  0.12699999809E+01 0.  1.
    10030    2    1    2    0    0  0.00000000000E+00  0.00000000000E+00  0.96393049020E+03  0.16264104145E+04  0.13099804756E+04 0.  0.
        4    1    3    3  502    0  0.26043656811E+03  0.15135938666E+03  0.12040687602E+04  0.12411768859E+04  0.12699999809E+01 0. -1.
       -4    1    3    3    0  502 -0.26043656811E+03 -0.15135938666E+03 -0.24013827000E+03  0.38523352860E+03  0.12699999809E+01 0.  1.
</event>
<event>
 5   0  0.3336609E-03  0.1186239E+04  0.7818609E-02  0.9124987E-01
        2   -1    0    0  501    0  0.00000000000E+00  0.00000000000E+00  0.10516551766E+04  0.10516551766E+04  0.25500000920E-02 0.  1.
       -2   -1    0    0    0  501  0.00000000000E+00  0.00000000000E+00 -0.33451151237E+03  0.33451151238E+03  0.25500000920E-02 0. -1.
    10030    2    1    2    0    0  0.00000000000E+00  0.00000000000E+00  0.71714366420E+03  0.13861666890E+04  0.11862390377E+04 0.  0.
        1    1    3    3  502    0  0.32693106686E+03 -0.48511744533E+03  0.24427039752E+03  0.63394864569E+03  0.50400001928E-02 0. -1.
       -1    1    3    3    0  502 -0.32693106686E+03  0.48511744533E+03  0.47287326668E+03  0.75221804326E+03  0.50400001928E-02 0.  1.
</event>
<event>
 5   0  0.3294720E-03  0.1292204E+04  0.7818609E-02  0.9035770E-01
       -2   -1    0    0    0  501  0.00000000000E+00  0.00000000000E+00  0.26935732006E+03  0.26935732007E+03  0.25500000920E-02 0. -1.
        2   -1    0    0  501    0  0.00000000000E+00  0.00000000000E+00 -0.15497925720E+04  0.15497925720E+04  0.25500000920E-02 0.  1.
    10030    2    1    2    0    0  0.00000000000E+00  0.00000000000E+00 -0.12804352520E+04  0.18191498921E+04  0.12922042777E+04 0.  0.
        5    1    3    3  502    0  0.17158529158E+03 -0.18545601099E+02 -0.15167174741E+04  0.15265121807E+04  0.46999998093E+01 0.  1.
       -5    1    3    3    0  502 -0.17158529158E+03  0.18545601099E+02  0.23628222216E+03  0.29263771136E+03  0.46999998093E+01 0. -1.
</event>
<event>
 5   0  0.3259968E-03  0.1283109E+04  0.7818609E-02  0.9043068E-01
       -2   -1    0    0    0  501  0.00000000000E+00  0.00000000000E+00  0.10441077129E+04  0.10441077129E+04  0.25500000920E-02 0.  1.
        2   -1    0    0  501    0  0.00000000000E+00  0.00000000000E+00 -0.39420488448E+03  0.39420488448E+03  0.25500000920E-02 0. -1.
    10030    2    1    2    0    0  0.00000000000E+00  0.00000000000E+00  0.64990282840E+03  0.14383125974E+04  0.12831092866E+04 0.  0.
        4    1    3    3  502    0  0.34527482794E+03  0.41976209092E+03  0.70702544803E+03  0.89179679123E+03  0.12699999809E+01 0.  1.
       -4    1    3    3    0  502 -0.34527482794E+03 -0.41976209092E+03 -0.57122619630E+02  0.54651580614E+03  0.12699999809E+01 0. -1.
</event>
<event>
 5   0  0.1857986E-03  0.1274510E+04  0.7818609E-02  0.9050027E-01
        1   -1    0    0  501    0  0.00000000000E+00  0.00000000000E+00  0.15876146742E+04  0.15876146742E+04  0.50400001928E-02 0.  1.
       -1   -1    0    0    0  501  0.00000000000E+00  0.00000000000E+00 -0.25578885179E+03  0.25578885184E+03  0.50400001928E-02 0. -1.
    10030    2    1    2    0    0  0.00000000000E+00  0.00000000000E+00  0.13318258224E+04  0.18434035260E+04  0.12745103133E+04 0.  0.
        1    1    3    3  502    0 -0.26751458264E+03 -0.24806485470E+03  0.14216200758E+04  0.14676865687E+04  0.50400001928E-02 0.  1.
       -1    1    3    3    0  502  0.26751458264E+03  0.24806485470E+03 -0.89794253370E+02  0.37571695734E+03  0.50400001928E-02 0. -1.
</event>
<event>
 5   0  0.3262927E-03  0.1413330E+04  0.7818609E-02  0.8944226E-01
       -2   -1    0    0    0  501  0.00000000000E+00  0.00000000000E+00  0.40769147221E+03  0.40769147222E+03  0.25500000920E-02 0. -1.
        2   -1    0    0  501    0  0.00000000000E+00  0.00000000000E+00 -0.12248856180E+04  0.12248856180E+04  0.25500000920E-02 0.  1.
    10030    2    1    2    0    0  0.00000000000E+00  0.00000000000E+00 -0.81719414581E+03  0.16325770902E+04  0.14133299981E+04 0.  0.
        3    1    3    3  502    0 -0.46891655748E+02  0.58645917648E+03  0.43591241424E+02  0.58994355628E+03  0.10100000352E+00 0. -1.
       -3    1    3    3    0  502  0.46891655748E+02 -0.58645917648E+03 -0.86078538723E+03  0.10426335340E+04  0.10100000352E+00 0.  1.
</event>
<event>
 5   0  0.3336609E-03  0.1309778E+04  0.7818609E-02  0.9021847E-01
       -2   -1    0    0    0  501  0.00000000000E+00  0.00000000000E+00  0.35873803637E+03  0.35873803638E+03  0.25500000920E-02 0.  1.
        2   -1    0    0  501    0  0.00000000000E+00  0.00000000000E+00 -0.11955232825E+04  0.11955232825E+04  0.25500000920E-02 0. -1.
    10030    2    1    2    0    0  0.00000000000E+00  0.00000000000E+00 -0.83678524613E+03  0.15542613189E+04  0.13097781107E+04 0.  0.
        1    1    3    3  502    0  0.35901344524E+03  0.41825586579E+03  0.12407161210E+01  0.55120791225E+03  0.50400001928E-02 0.  1.
       -1    1    3    3    0  502 -0.35901344524E+03 -0.41825586579E+03 -0.83802596226E+03  0.10030534066E+04  0.50400001928E-02 0. -1.
</event>
<event>
 5   0  0.1803959E-03  0.1311053E+04  0.7818609E-02  0.9020846E-01
        1   -1    0    0  501    0  0.00000000000E+00  0.00000000000E+00  0.84977853286E+03  0.84977853288E+03  0.50400001928E-02 0.  1.
       -1   -1    0    0    0  501  0.00000000000E+00  0.00000000000E+00 -0.50567867656E+03  0.50567867658E+03  0.50400001928E-02 0. -1.
    10030    2    1    2    0    0  0.00000000000E+00  0.00000000000E+00  0.34409985631E+03  0.13554572095E+04  0.13110528348E+04 0.  0.
        4    1    3    3  502    0  0.11366858718E+03  0.48065480540E+03  0.61765079033E+03  0.79084998663E+03  0.12699999809E+01 0.  1.
       -4    1    3    3    0  502 -0.11366858718E+03 -0.48065480540E+03 -0.27355093402E+03  0.56460722283E+03  0.12699999809E+01 0. -1.
</event>
<event>
 5   0  0.3262927E-03  0.1323279E+04  0.7818609E-02  0.9011306E-01
        2   -1    0    0  501    0  0.00000000000E+00  0.00000000000E+00  0.80675054545E+03  0.80675054545E+03  0.25500000920E-02 0. -1.
       -2   -1    0    0    0  501  0.00000000000E+00  0.00000000000E+00 -0.54262960648E+03  0.54262960649E+03  0.25500000920E-02 0.  1.
    10030    2    1    2    0    0  0.00000000000E+00  0.00000000000E+00  0.26412093896E+03  0.13493801519E+04  0.13232788535E+04 0.  0.
        3    1    3    3  502    0 -0.41175370457E+03  0.42420303312E+03  0.43503610016E+03  0.73399301439E+03  0.10100000352E+00 0. -1.
       -3    1    3    3    0  502  0.41175370457E+03 -0.42420303312E+03 -0.17091516120E+03  0.61538713755E+03  0.10100000352E+00 0.  1.
</event>
<event>
 5   0  0.3336609E-03  0.1549512E+04  0.7818609E-02  0.8852180E-01
        2   -1    0    0  501    0  0.00000000000E+00  0.00000000000E+00  0.19564720767E+04  0.19564720767E+04  0.25500000920E-02 0. -1.
       -2   -1    0    0    0  501  0.00000000000E+00  0.00000000000E+00 -0.30680052930E+03  0.30680052931E+03  0.25500000920E-02 0.  1.
    10030    2    1    2    0    0  0.00000000000E+00  0.00000000000E+00  0.16496715474E+04  0.22632726060E+04  0.15495117537E+04 0.  0.
        1    1    3    3  502    0 -0.45707655135E+03 -0.45753472510E+03  0.14479466918E+04  0.15858141823E+04  0.50400001928E-02 0. -1.
       -1    1    3    3    0  502  0.45707655135E+03  0.45753472510E+03  0.20172485562E+03  0.67745842372E+03  0.50400001928E-02 0.  1.
</event>
<event>
 5   0  0.1823154E-03  0.1045775E+04  0.7818609E-02  0.9259716E-01
        1   -1    0    0  501    0  0.00000000000E+00  0.00000000000E+00  0.37312346197E+03  0.37312346200E+03  0.50400001928E-02 0.  1.
       -1   -1    0    0    0  501  0.00000000000E+00  0.00000000000E+00 -0.73276441417E+03  0.73276441419E+03  0.50400001928E-02 0. -1.
    10030    2    1    2    0    0  0.00000000000E+00  0.00000000000E+00 -0.35964095220E+03  0.11058878762E+04  0.10457754923E+04 0.  0.
        2    1    3    3  502    0  0.91541871012E+02  0.12916032352E+03  0.34717161786E+03  0.38156314755E+03  0.25500000920E-02 0.  1.
       -2    1    3    3    0  502 -0.91541871012E+02 -0.12916032352E+03 -0.70681257005E+03  0.72432472864E+03  0.25500000920E-02 0. -1.
</event>
<event>
 5   0  0.3294720E-03  0.9800821E+03  0.7818609E-02  0.9330664E-01
       -2   -1    0    0    0  501  0.00000000000E+00  0.00000000000E+00  0.30810212261E+03  0.30810212262E+03  0.25500000920E-02 0. -1.
        2   -1    0    0  501    0  0.00000000000E+00  0.00000000000E+00 -0.77941771537E+03  0.77941771538E+03  0.25500000920E-02 0.  1.
    10030    2    1    2    0    0  0.00000000000E+00  0.00000000000E+00 -0.47131559276E+03  0.10875198380E+04  0.98008214454E+03 0.  0.
        5    1    3    3  502    0 -0.42816875045E+02 -0.46754672899E+03 -0.39134097551E+03  0.61123078922E+03  0.46999998093E+01 0.  1.
       -5    1    3    3    0  502  0.42816875045E+02  0.46754672899E+03 -0.79974617256E+02  0.47628904878E+03  0.46999998093E+01 0. -1.
</event>
<event>
 5   0  0.1857986E-03  0.1277580E+04  0.7818609E-02  0.9047536E-01
       -1   -1    0    0    0  501  0.00000000000E+00  0.00000000000E+00  0.13600797153E+04  0.13600797153E+04  0.50400001928E-02 0. -1.
        1   -1    0    0  501    0  0.00000000000E+00  0.00000000000E+00 -0.30002101665E+03  0.30002101670E+03  0.50400001928E-02 0.  1.
    10030    2    1    2    0    0  0.00000000000E+00  0.00000000000E+00  0.10600586986E+04  0.16601007320E+04  0.12775797415E+04 0.  0.
        1    1    3    3  502    0  0.95065782059E+02 -0.40349937422E+03  0.11615526223E+04  0.12333100755E+04  0.50400001928E-02 0. -1.
       -1    1    3    3    0  502 -0.95065782059E+02  0.40349937422E+03 -0.10149392366E+03  0.42679065651E+03  0.50400001928E-02 0.  1.
</event>
<event>
 5   0  0.3336609E-03  0.1281806E+04  0.7818609E-02  0.9044119E-01
       -2   -1    0    0    0  501  0.00000000000E+00  0.00000000000E+00  0.80483112325E+03  0.80483112325E+03  0.25500000920E-02 0. -1.
        2   -1    0    0  501    0  0.00000000000E+00  0.00000000000E+00 -0.51036399246E+03  0.51036399246E+03  0.25500000920E-02 0.  1.
    10030    2    1    2    0    0  0.00000000000E+00  0.00000000000E+00  0.29446713079E+03  0.13151951157E+04  0.12818062651E+04 0.  0.
        1    1    3    3  502    0 -0.58889346930E+02  0.37182448347E+03 -0.38496356782E+03  0.53844066550E+03  0.50400001928E-02 0.  1.
       -1    1    3    3    0  502  0.58889346930E+02 -0.37182448347E+03  0.67943069862E+03  0.77675445022E+03  0.50400001928E-02 0. -1.
</event>
<event>
 5   0  0.3299104E-03  0.1307535E+04  0.7818609E-02  0.9023611E-01
       -2   -1    0    0    0  501  0.00000000000E+00  0.00000000000E+00  0.20704717368E+03  0.20704717370E+03  0.25500000920E-02 0. -1.
        2   -1    0    0  501    0  0.00000000000E+00  0.00000000000E+00 -0.20643209857E+04  0.20643209857E+04  0.25500000920E-02 0.  1.
    10030    2    1    2    0    0  0.00000000000E+00  0.00000000000E+00 -0.18572738120E+04  0.22713681594E+04  0.13075348189E+04 0.  0.
        2    1    3    3  502    0  0.13039237089E+03 -0.17988618114E+03 -0.19967303427E+04  0.20090528291E+04  0.25500000920E-02 0.  1.
       -2    1    3    3    0  502 -0.13039237089E+03  0.17988618114E+03  0.13945653070E+03  0.26231533031E+03  0.25500000920E-02 0. -1.
</event>
<event>
 5   0  0.1814770E-03  0.1139784E+04  0.7818609E-02  0.9167260E-01
        1   -1    0    0  501    0  0.00000000000E+00  0.00000000000E+00  0.55598157550E+03  0.55598157552E+03  0.50400001928E-02 0.  1.
       -1   -1    0    0    0  501  0.00000000000E+00  0.00000000000E+00 -0.58415067449E+03  0.58415067451E+03  0.50400001928E-02 0. -1.
    10030    2    1    2    0    0  0.00000000000E+00  0.00000000000E+00 -0.28169098986E+02  0.11401322500E+04  0.11397842118E+04 0.  0.
        5    1    3    3  502    0 -0.65328132847E+02  0.97144786272E+02 -0.57197346137E+03  0.58384981369E+03  0.46999998093E+01 0. -1.
       -5    1    3    3    0  502  0.65328132847E+02 -0.97144786272E+02  0.54380436238E+03  0.55628243634E+03  0.46999998093E+01 0.  1.
</event>
<event>
 5   0  0.1873488E-03  0.1270317E+04  0.7818609E-02  0.9053441E-01
        1   -1    0    0  501    0  0.00000000000E+00  0.00000000000E+00  0.16927914254E+04  0.16927914254E+04  0.50400001928E-02 0. -1.
       -1   -1    0    0    0  501  0.00000000000E+00  0.00000000000E+00 -0.23832021315E+03  0.23832021320E+03  0.50400001928E-02 0.  1.
    10030    2    1    2    0    0  0.00000000000E+00  0.00000000000E+00  0.14544712123E+04  0.19311116386E+04  0.12703171468E+04 0.  0.
        3    1    3    3  502    0  0.14086057440E+02  0.29699438808E+03  0.15804651474E+04  0.16081897201E+04  0.10100000352E+00 0. -1.
       -3    1    3    3    0  502 -0.14086057440E+02 -0.29699438808E+03 -0.12599393513E+03  0.32292191851E+03  0.10100000352E+00 0.  1.
</event>
<event>
 5   0  0.3262927E-03  0.1287434E+04  0.7818609E-02  0.9039590E-01
        2   -1    0    0  501    0  0.00000000000E+00  0.00000000000E+00  0.82000529366E+03  0.82000529367E+03  0.25500000920E-02 0.  1.
       -2   -1    0    0    0  501  0.00000000000E+00  0.00000000000E+00 -0.50532790434E+03  0.50532790435E+03  0.25500000920E-02 0. -1.
    10030    2    1    2    0    0  0.00000000000E+00  0.00000000000E+00  0.31467738932E+03  0.13253331980E+04  0.12874339697E+04 0.  0.
        3    1    3    3  502    0 -0.51707682130E+03 -0.27797297275E+03 -0.11450722430E+03  0.59812149880E+03  0.10100000352E+00 0. -1.
       -3    1    3    3    0  502  0.51707682130E+03  0.27797297275E+03  0.42918461362E+03  0.72721169922E+03  0.10100000352E+00 0.  1.
</event>
<event>
 5   0  0.3294720E-03  0.1318470E+04  0.7818609E-02  0.9015045E-01
       -2   -1    0    0    0  501  0.00000000000E+00  0.00000000000E+00  0.29699271617E+03  0.29699271618E+03  0.25500000920E-02 0.  1.
        2   -1    0    0  501    0  0.00000000000E+00  0.00000000000E+00 -0.14633037081E+04  0.14633037082E+04  0.25500000920E-02 0. -1.
    10030    2    1    2    0    0  0.00000000000E+00  0.00000000000E+00 -0.11663109920E+04  0.17602964243E+04  0.13184696324E+04 0.  0.
        5    1    3    3  502    0 -0.19274494344E+03  0.47183154445E+03 -0.24971363657E+02  0.51031488177E+03  0.46999998093E+01 0.  1.
       -5    1    3    3    0  502  0.19274494344E+03 -0.47183154445E+03 -0.11413396283E+04  0.12499815426E+04  0.46999998093E+01 0. -1.
</event>
<event>
 5   0  0.1814770E-03  0.1201244E+04  0.7818609E-02  0.9111768E-01
       -1   -1    0    0    0  501  0.00000000000E+00  0.00000000000E+00  0.54727243562E+03  0.54727243564E+03  0.50400001928E-02 0. -1.
        1   -1    0    0  501    0  0.00000000000E+00  0.00000000000E+00 -0.65917244034E+03  0.65917244036E+03  0.50400001928E-02 0.  1.
    10030    2    1    2    0    0  0.00000000000E+00  0.00000000000E+00 -0.11190000472E+03  0.12064448760E+04  0.12012441999E+04 0.  0.
        5    1    3    3  502    0 -0.29562327714E+03 -0.74929556190E+02 -0.57560410751E+03  0.65142132216E+03  0.46999998093E+01 0.  1.
       -5    1    3    3    0  502  0.29562327714E+03  0.74929556190E+02  0.46370410279E+03  0.55502355385E+03  0.46999998093E+01 0. -1.
</event>
<event>
 5   0  0.3336609E-03  0.1274361E+04  0.7818609E-02  0.9050147E-01
       -2   -1    0    0    0  501  0.00000000000E+00  0.00000000000E+00  0.71926078199E+03  0.71926078199E+03  0.25500000920E-02 0. -1.
        2   -1    0    0  501    0  0.00000000000E+00  0.00000000000E+00 -0.56446745563E+03  0.56446745564E+03  0.25500000920E-02 0.  1.
    10030    2    1    2    0    0  0.00000000000E+00  0.00000000000E+00  0.15479332635E+03  0.12837282376E+04  0.12743614927E+04 0.  0.
        1    1    3    3  502    0 -0.51216419025E+03 -0.62145982914E+02  0.45407695949E+03  0.68728463254E+03  0.50400001928E-02 0. -1.
       -1    1    3    3    0  502  0.51216419025E+03  0.62145982914E+02 -0.29928363313E+03  0.59644360509E+03  0.50400001928E-02 0.  1.
</event>
<event>
 5   0  0.1803959E-03  0.1298515E+04  0.7818609E-02  0.9030743E-01
       -1   -1    0    0    0  501  0.00000000000E+00  0.00000000000E+00  0.41590484690E+03  0.41590484693E+03  0.50400001928E-02 0.  1.
        1   -1    0    0  501    0  0.00000000000E+00  0.00000000000E+00 -0.10135380867E+04  0.10135380867E+04  0.50400001928E-02 0. -1.
    10030    2    1    2    0    0  0.00000000000E+00  0.00000000000E+00 -0.59763323977E+03  0.14294429336E+04  0.12985151563E+04 0.  0.
        4    1    3    3  502    0 -0.40261945304E+03 -0.69811547657E+02  0.25659240184E+03  0.48251150218E+03  0.12699999809E+01 0.  1.
       -4    1    3    3    0  502  0.40261945304E+03  0.69811547657E+02 -0.85422564162E+03  0.94693143144E+03  0.12699999809E+01 0. -1.
</event>
<event>
 5   0  0.3262927E-03  0.1286099E+04  0.7818609E-02  0.9040662E-01
       -2   -1    0    0    0  501  0.00000000000E+00  0.00000000000E+00  0.40240268930E+03  0.40240268931E+03  0.25500000920E-02 0. -1.
        2   -1    0    0  501    0  0.00000000000E+00  0.00000000000E+00 -0.10276097129E+04  0.10276097129E+04  0.25500000920E-02 0.  1.
    10030    2    1    2    0    0  0.00000000000E+00  0.00000000000E+00 -0.62520702363E+03  0.14300124022E+04  0.12860993928E+04 0.  0.
        3    1    3    3  502    0 -0.37667506832E+03 -0.25737305433E+03  0.19130617157E+03  0.49469491373E+03  0.10100000352E+00 0. -1.
       -3    1    3    3    0  502  0.37667506832E+03  0.25737305433E+03 -0.81651319520E+03  0.93531748852E+03  0.10100000352E+00 0.  1.
</event>
<event>
 5   0  0.3259968E-03  0.1300373E+04  0.7818609E-02  0.9029269E-01
       -2   -1    0    0    0  501  0.00000000000E+00  0.00000000000E+00  0.17606785590E+03  0.17606785592E+03  0.25500000920E-02 0. -1.
        2   -1    0    0  501    0  0.00000000000E+00  0.00000000000E+00 -0.24010209499E+04  0.24010209499E+04  0.25500000920E-02 0.  1.
    10030    2    1    2    0    0  0.00000000000E+00  0.00000000000E+00 -0.22249530940E+04  0.25770888058E+04  0.13003731936E+04 0.  0.
        4    1    3    3  502    0  0.14205038078E+03  0.25682109762E+03 -0.22622758784E+04  0.22812341287E+04  0.12699999809E+01 0.  1.
       -4    1    3    3    0  502 -0.14205038078E+03 -0.25682109762E+03  0.37322784413E+02  0.29585467716E+03  0.12699999809E+01 0. -1.
</event>
<event>
 5   0  0.3299104E-03  0.1310036E+04  0.7818609E-02  0.9021644E-01
       -2   -1    0    0    0  501  0.00000000000E+00  0.00000000000E+00  0.79119566569E+03  0.79119566569E+03  0.25500000920E-02 0.  1.
        2   -1    0    0  501    0  0.00000000000E+00  0.00000000000E+00 -0.54227870332E+03  0.54227870332E+03  0.25500000920E-02 0. -1.
    10030    2    1    2    0    0  0.00000000000E+00  0.00000000000E+00  0.24891696237E+03  0.13334743690E+04  0.13100359685E+04 0.  0.
        2    1    3    3  502    0 -0.26435695775E+03  0.18928563363E+03 -0.45434048871E+03  0.55869395191E+03  0.25500000920E-02 0. -1.
       -2    1    3    3    0  502  0.26435695775E+03 -0.18928563363E+03  0.70325745108E+03  0.77478041710E+03  0.25500000920E-02 0.  1.
</event>
<event>
 5   0  0.3299104E-03  0.1314881E+04  0.7818609E-02  0.9017847E-01
        2   -1    0    0  501    0  0.00000000000E+00  0.00000000000E+00  0.41122627602E+03  0.41122627603E+03  0.25500000920E-02 0.  1.
       -2   -1    0    0    0  501  0.00000000000E+00  0.00000000000E+00 -0.10510710360E+04  0.10510710360E+04  0.25500000920E-02 0. -1.
    10030    2    1    2    0    0  0.00000000000E+00  0.00000000000E+00 -0.63984476000E+03  0.14622973121E+04  0.13148810258E+04 0.  0.
        2    1    3    3  502    0 -0.22790395371E+03 -0.52309538578E+03 -0.68312422395E+03  0.89007173874E+03  0.25500000920E-02 0. -1.
       -2    1    3    3    0  502  0.22790395371E+03  0.52309538578E+03  0.43279463952E+02  0.57222557331E+03  0.25500000920E-02 0.  1.
</event>
<event>
 5   0  0.3336609E-03  0.1309343E+04  0.7818609E-02  0.9022189E-01
        2   -1    0    0  501    0  0.00000000000E+00  0.00000000000E+00  0.20873176039E+04  0.20873176039E+04  0.25500000920E-02 0.  1.
       -2   -1    0    0    0  501  0.00000000000E+00  0.00000000000E+00 -0.20533274401E+03  0.20533274402E+03  0.25500000920E-02 0. -1.
    10030    2    1    2    0    0  0.00000000000E+00  0.00000000000E+00  0.18819848599E+04  0.22926503479E+04  0.13093428141E+04 0.  0.
        1    1    3    3  502    0  0.34104464888E+03 -0.37962776491E+03  0.22294439120E+03  0.55689576585E+03  0.50400001928E-02 0. -1.
       -1    1    3    3    0  502 -0.34104464888E+03  0.37962776491E+03  0.16590404686E+04  0.17357545820E+04  0.50400001928E-02 0.  1.
</event>
<event>
 5   0  0.1814770E-03  0.1305150E+04  0.7818609E-02  0.9025491E-01
        1   -1    0    0  501    0  0.00000000000E+00  0.00000000000E+00  0.95549939496E+03  0.95549939497E+03  0.50400001928E-02 0. -1.
       -1   -1    0    0    0  501  0.00000000000E+00  0.00000000000E+00 -0.44568760082E+03  0.44568760085E+03  0.50400001928E-02 0.  1.
    10030    2    1    2    0    0  0.00000000000E+00  0.00000000000E+00  0.50981179414E+03  0.14011869958E+04  0.13051501568E+04 0.  0.
        5    1    3    3  502    0  0.48888205241E+03 -0.34075337160E+03 -0.30581642724E+02  0.59672091324E+03  0.46999998093E+01 0.  1.
       -5    1    3    3    0  502 -0.48888205241E+03  0.34075337160E+03  0.54039343686E+03  0.80446608259E+03  0.46999998093E+01 0. -1.
</event>
<event>
 5   0  0.1857986E-03  0.1287205E+04  0.7818609E-02  0.9039774E-01
        1   -1    0    0  501    0  0.00000000000E+00  0.00000000000E+00  0.90261833206E+03  0.90261833208E+03  0.50400001928E-02 0. -1.
       -1   -1    0    0    0  501  0.00000000000E+00  0.00000000000E+00 -0.45891387765E+03  0.45891387768E+03  0.50400001928E-02 0.  1.
    10030    2    1    2    0    0  0.00000000000E+00  0.00000000000E+00  0.44370445441E+03  0.13615322098E+04  0.12872048459E+04 0.  0.
        1    1    3    3  502    0  0.59616723566E+03 -0.23068189133E+03  0.30096810427E+03  0.70654887140E+03  0.50400001928E-02 0. -1.
       -1    1    3    3    0  502 -0.59616723566E+03  0.23068189133E+03  0.14273635013E+03  0.65498333836E+03  0.50400001928E-02 0.  1.
</event>
<event>
 5   0  0.3336609E-03  0.1300028E+04  0.7818609E-02  0.9029543E-01
        2   -1    0    0  501    0  0.00000000000E+00  0.00000000000E+00  0.53395870867E+03  0.53395870868E+03  0.25500000920E-02 0.  1.
       -2   -1    0    0    0  501  0.00000000000E+00  0.00000000000E+00 -0.79129356703E+03  0.79129356704E+03  0.25500000920E-02 0. -1.
    10030    2    1    2    0    0  0.00000000000E+00  0.00000000000E+00 -0.25733485836E+03  0.13252522757E+04  0.13000278324E+04 0.  0.
        1    1    3    3  502    0 -0.23682943986E+01  0.19496711734E+03  0.50344488813E+03  0.53988382183E+03  0.50400001928E-02 0.  1.
       -1    1    3    3    0  502  0.23682943986E+01 -0.19496711734E+03 -0.76077974649E+03  0.78536845389E+03  0.50400001928E-02 0. -1.
</event>
<event>
 5   0  0.1823154E-03  0.1259506E+04  0.7818609E-02  0.9062309E-01
        1   -1    0    0  501    0  0.00000000000E+00  0.00000000000E+00  0.22737526596E+04  0.22737526596E+04  0.50400001928E-02 0.  1.
       -1   -1    0    0    0  501  0.00000000000E+00  0.00000000000E+00 -0.17442027202E+03  0.17442027210E+03  0.50400001928E-02 0. -1.
    10030    2    1    2    0    0  0.00000000000E+00  0.00000000000E+00  0.20993323875E+04  0.24481729317E+04  0.12595055498E+04 0.  0.
        2    1    3    3  502    0 -0.13261803644E+03 -0.30782537567E+03  0.13360030444E+02  0.33544372988E+03  0.25500000920E-02 0. -1.
       -2    1    3    3    0  502  0.13261803644E+03  0.30782537567E+03  0.20859723571E+04  0.21127292018E+04  0.25500000920E-02 0.  1.
</event>
<event>
 5   0  0.1873488E-03  0.1301120E+04  0.7818609E-02  0.9028678E-01
        1   -1    0    0  501    0  0.00000000000E+00  0.00000000000E+00  0.14343048896E+04  0.14343048896E+04  0.50400001928E-02 0.  1.
       -1   -1    0    0    0  501  0.00000000000E+00  0.00000000000E+00 -0.29507550025E+03  0.29507550029E+03  0.50400001928E-02 0. -1.
    10030    2    1    2    0    0  0.00000000000E+00  0.00000000000E+00  0.11392293894E+04  0.17293803899E+04  0.13011198759E+04 0.  0.
        3    1    3    3  502    0  0.42085718768E+03  0.71399744636E+02  0.12221294304E+04  0.12945342988E+04  0.10100000352E+00 0.  1.
       -3    1    3    3    0  502 -0.42085718768E+03 -0.71399744636E+02 -0.82900041019E+02  0.43484609112E+03  0.10100000352E+00 0. -1.
</event>
<event>
 5   0  0.1803959E-03  0.1315910E+04  0.7818609E-02  0.9017043E-01
       -1   -1    0    0    0  501  0.00000000000E+00  0.00000000000E+00  0.61711144507E+03  0.61711144509E+03  0.50400001928E-02 0. -1.
        1   -1    0    0  501    0  0.00000000000E+00  0.00000000000E+00 -0.70150176780E+03  0.70150176781E+03  0.50400001928E-02 0.  1.
    10030    2    1    2    0    0  0.00000000000E+00  0.00000000000E+00 -0.84390322724E+02  0.13186132129E+04  0.13159099812E+04 0.  0.
        4    1    3    3  502    0  0.13924811288E+03 -0.35167264089E+03  0.49727820450E+03  0.62478068862E+03  0.12699999809E+01 0. -1.
       -4    1    3    3    0  502 -0.13924811288E+03  0.35167264089E+03 -0.58166852723E+03  0.69383252429E+03  0.12699999809E+01 0.  1.
</event>
<event>
 5   0  0.3336609E-03  0.8819970E+03  0.7818609E-02  0.9448370E-01
        2   -1    0    0  501    0  0.00000000000E+00  0.00000000000E+00  0.66056064676E+03  0.66056064676E+03  0.25500000920E-02 0.  1.
       -2   -1    0    0    0  501  0.00000000000E+00  0.00000000000E+00 -0.29441610075E+03  0.29441610076E+03  0.25500000920E-02 0. -1.
    10030    2    1    2    0    0  0.00000000000E+00  0.00000000000E+00  0.36614454601E+03  0.95497674752E+03  0.88199702932E+03 0.  0.
        1    1    3    3  502    0  0.34070269829E+03 -0.25988859905E+03  0.70241870399E+02  0.43422843403E+03  0.50400001928E-02 0. -1.
       -1    1    3    3    0  502 -0.34070269829E+03  0.25988859905E+03  0.29590267562E+03  0.52074831349E+03  0.50400001928E-02 0.  1.
</event>
<event>
 5   0  0.1823154E-03  0.1291677E+04  0.7818609E-02  0.9036191E-01
       -1   -1    0    0    0  501  0.00000000000E+00  0.00000000000E+00  0.32253031687E+03  0.32253031691E+03  0.50400001928E-02 0. -1.
        1   -1    0    0  501    0  0.00000000000E+00  0.00000000000E+00 -0.12932353467E+04  0.12932353467E+04  0.50400001928E-02 0.  1.
    10030    2    1    2    0    0  0.00000000000E+00  0.00000000000E+00 -0.97070502981E+03  0.16157656636E+04  0.12916773687E+04 0.  0.
        2    1    3    3  502    0 -0.18413254548E+03 -0.28332630889E+03  0.20313292525E+03  0.39426079813E+03  0.25500000920E-02 0. -1.
       -2    1    3    3    0  502  0.18413254548E+03  0.28332630889E+03 -0.11738379551E+04  0.12215048655E+04  0.25500000920E-02 0.  1.
</event>
<event>
 5   0  0.1873488E-03  0.1341515E+04  0.7818609E-02  0.8997276E-01
        1   -1    0    0  501    0  0.00000000000E+00  0.00000000000E+00  0.72098121966E+03  0.72098121968E+03  0.50400001928E-02 0.  1.
       -1   -1    0    0    0  501  0.00000000000E+00  0.00000000000E+00 -0.62403229200E+03  0.62403229202E+03  0.50400001928E-02 0. -1.
    10030    2    1    2    0    0  0.00000000000E+00  0.00000000000E+00  0.96948927663E+02  0.13450135117E+04  0.13415149094E+04 0.  0.
        3    1    3    3  502    0 -0.46791327665E+03 -0.13221843415E+03  0.51173033624E+03  0.70589836097E+03  0.10100000352E+00 0.  1.
       -3    1    3    3    0  502  0.46791327665E+03  0.13221843415E+03 -0.41478140857E+03  0.63911515073E+03  0.10100000352E+00 0. -1.
</event>
<event>
 5   0  0.1814770E-03  0.1337504E+04  0.7818609E-02  0.9000342E-01
       -1   -1    0    0    0  501  0.00000000000E+00  0.00000000000E+00  0.22376457990E+03  0.22376457996E+03  0.50400001928E-02 0.  1.
        1   -1    0    0  501    0  0.00000000000E+00  0.00000000000E+00 -0.19986593779E+04  0.19986593780E+04  0.50400001928E-02 0. -1.
    10030    2    1    2    0    0  0.00000000000E+00  0.00000000000E+00 -0.17748947980E+04  0.22224239579E+04  0.13375039083E+04 0.  0.
        5    1    3    3  502    0 -0.24079840896E+03  0.30421332268E+03 -0.17925006473E+04  0.18340147982E+04  0.46999998093E+01 0. -1.
       -5    1    3    3    0  502  0.24079840896E+03 -0.30421332268E+03  0.17605849212E+02  0.38840915976E+03  0.46999998093E+01 0.  1.
</event>
<event>
 5   0  0.3336609E-03  0.1150190E+04  0.7818609E-02  0.9157608E-01
       -2   -1    0    0    0  501  0.00000000000E+00  0.00000000000E+00  0.64831246253E+03  0.64831246253E+03  0.25500000920E-02 0.  1.
        2   -1    0    0  501    0  0.00000000000E+00  0.00000000000E+00 -0.51014617917E+03  0.51014617918E+03  0.25500000920E-02 0. -1.
    10030    2    1    2    0    0  0.00000000000E+00  0.00000000000E+00  0.13816628335E+03  0.11584586417E+04  0.11501897681E+04 0.  0.
        1    1    3    3  502    0  0.41654831293E+03 -0.39651167062E+03  0.68728890629E+02  0.57918707027E+03  0.50400001928E-02 0. -1.
       -1    1    3    3    0  502 -0.41654831293E+03  0.39651167062E+03  0.69437392724E+02  0.57927157144E+03  0.50400001928E-02 0.  1.
</event>
<event>
 5   0  0.1254125E-03  0.1280247E+04  0.7818609E-02  0.9045378E-01
        3   -1    0    0  501    0  0.00000000000E+00  0.00000000000E+00  0.13798783604E+04  0.13798783641E+04  0.10100000352E+00 0.  1.
       -3   -1    0    0    0  501  0.00000000000E+00  0.00000000000E+00 -0.29695216168E+03  0.29695217886E+03  0.10100000352E+00 0. -1.
    10030    2    1    2    0    0  0.00000000000E+00  0.00000000000E+00  0.10829261987E+04  0.16768305430E+04  0.12802466629E+04 0.  0.
        1    1    3    3  502    0  0.42925805728E+03  0.19136632833E+03  0.11106855093E+04  0.12060289598E+04  0.50400001928E-02 0.  1.
       -1    1    3    3    0  502 -0.42925805728E+03 -0.19136632833E+03 -0.27759310552E+02  0.47080158316E+03  0.50400001928E-02 0. -1.
</event>
<event>
 5   0  0.1814770E-03  0.1322596E+04  0.7818609E-02  0.9011836E-01
       -1   -1    0    0    0  501  0.00000000000E+00  0.00000000000E+00  0.70983601600E+03  0.70983601602E+03  0.50400001928E-02 0. -1.
        1   -1    0    0  501    0  0.00000000000E+00  0.00000000000E+00 -0.61607928704E+03  0.61607928706E+03  0.50400001928E-02 0.  1.
    10030    2    1    2    0    0  0.00000000000E+00  0.00000000000E+00  0.93756728959E+02  0.13259153031E+04  0.13225963355E+04 0.  0.
        5    1    3    3  502    0  0.10600185213E+03 -0.49957771629E+03 -0.37426973872E+03  0.63317786963E+03  0.46999998093E+01 0.  1.
       -5    1    3    3    0  502 -0.10600185213E+03  0.49957771629E+03  0.46802646768E+03  0.69273743346E+03  0.46999998093E+01 0. -1.
</event>
<event>
 5   0  0.3299104E-03  0.1280620E+04  0.7818609E-02  0.9045077E-01
        2   -1    0    0  501    0  0.00000000000E+00  0.00000000000E+00  0.49381759738E+03  0.49381759738E+03  0.25500000920E-02 0.  1.
       -2   -1    0    0    0  501  0.00000000000E+00  0.00000000000E+00 -0.83025944191E+03  0.83025944192E+03  0.25500000920E-02 0. -1.
    10030    2    1    2    0    0  0.00000000000E+00  0.00000000000E+00 -0.33644184454E+03  0.13240770393E+04  0.12806197294E+04 0.  0.
        2    1    3    3  502    0 -0.41596086765E+03  0.52405619408E+01  0.33506825138E+03  0.53415507111E+03  0.25500000920E-02 0.  1.
       -2    1    3    3    0  502  0.41596086765E+03 -0.52405619408E+01 -0.67151009591E+03  0.78992196819E+03  0.25500000920E-02 0. -1.
</event>
<event>
 5   0  0.1823154E-03  0.1323329E+04  0.7818609E-02  0.9011267E-01
        1   -1    0    0  501    0  0.00000000000E+00  0.00000000000E+00  0.14002726564E+04  0.14002726564E+04  0.50400001928E-02 0. -1.
       -1   -1    0    0    0  501  0.00000000000E+00  0.00000000000E+00 -0.31265322876E+03  0.31265322880E+03  0.50400001928E-02 0.  1.
    10030    2    1    2    0    0  0.00000000000E+00  0.00000000000E+00  0.10876194276E+04  0.17129258852E+04  0.13233287834E+04 0.  0.
        2    1    3    3  502    0 -0.26502920107E+03  0.36642674175E+02  0.13271308211E+04  0.13538313703E+04  0.25500000920E-02 0. -1.
       -2    1    3    3    0  502  0.26502920107E+03 -0.36642674175E+02 -0.23951139348E+03  0.35909451486E+03  0.25500000920E-02 0.  1.
</event>
<event>
 5   0  0.3294720E-03  0.1326682E+04  0.7818609E-02  0.9008670E-01
        2   -1    0    0  501    0  0.00000000000E+00  0.00000000000E+00  0.15010217546E+04  0.15010217546E+04  0.25500000920E-02 0.  1.
       -2   -1    0    0    0  501  0.00000000000E+00  0.00000000000E+00 -0.29314762348E+03  0.29314762349E+03  0.25500000920E-02 0. -1.
    10030    2    1    2    0    0  0.00000000000E+00  0.00000000000E+00  0.12078741311E+04  0.17941693781E+04  0.13266815144E+04 0.  0.
        5    1    3    3  502    0  0.95233924004E+02  0.58230773548E+03  0.10137912921E+04  0.11730075333E+04  0.46999998093E+01 0.  1.
       -5    1    3    3    0  502 -0.95233924004E+02 -0.58230773548E+03  0.19408283896E+03  0.62116184482E+03  0.46999998093E+01 0. -1.
</event>
<event>
 5   0  0.3259968E-03  0.1316083E+04  0.7818609E-02  0.9016908E-01
        2   -1    0    0  501    0  0.00000000000E+00  0.00000000000E+00  0.64680062547E+03  0.64680062548E+03  0.25500000920E-02 0. -1.
       -2   -1    0    0    0  501  0.00000000000E+00  0.00000000000E+00 -0.66947768210E+03  0.66947768210E+03  0.25500000920E-02 0.  1.
    10030    2    1    2    0    0  0.00000000000E+00  0.00000000000E+00 -0.22677056629E+02  0.13162783076E+04  0.13160829511E+04 0.  0.
        4    1    3    3  502    0 -0.10789630997E+03 -0.72592234798E+02  0.63381979737E+03  0.64702426129E+03  0.12699999809E+01 0. -1.
       -4    1    3    3    0  502  0.10789630997E+03  0.72592234798E+02 -0.65649685400E+03  0.66925404629E+03  0.12699999809E+01 0.  1.
</event>
<event>
 5   0  0.3259968E-03  0.1196876E+04  0.7818609E-02  0.9115595E-01
       -2   -1    0    0    0  501  0.00000000000E+00  0.00000000000E+00  0.31188361253E+03  0.31188361254E+03  0.25500000920E-02 0.  1.
        2   -1    0    0  501    0  0.00000000000E+00  0.00000000000E+00 -0.11482748474E+04  0.11482748474E+04  0.25500000920E-02 0. -1.
    10030    2    1    2    0    0  0.00000000000E+00  0.00000000000E+00 -0.83639123486E+03  0.14601584599E+04  0.11968761132E+04 0.  0.
        4    1    3    3  502    0  0.59314647390E+03 -0.24362540658E+02 -0.51038422986E+03  0.78288565441E+03  0.12699999809E+01 0. -1.
       -4    1    3    3    0  502 -0.59314647390E+03  0.24362540658E+02 -0.32600700500E+03  0.67727280552E+03  0.12699999809E+01 0.  1.
</event>
<event>
 5   0  0.1814770E-03  0.1314823E+04  0.7818609E-02  0.9017893E-01
       -1   -1    0    0    0  501  0.00000000000E+00  0.00000000000E+00  0.47980211826E+03  0.47980211829E+03  0.50400001928E-02 0.  1.
        1   -1    0    0  501    0  0.00000000000E+00  0.00000000000E+00 -0.90076647278E+03  0.90076647280E+03  0.50400001928E-02 0. -1.
    10030    2    1    2    0    0  0.00000000000E+00  0.00000000000E+00 -0.42096435452E+03  0.13805685911E+04  0.13148226675E+04 0.  0.
        5    1    3    3  502    0  0.33865238769E+03  0.11260511741E+03  0.36921324197E+03  0.51352298897E+03  0.46999998093E+01 0.  1.
       -5    1    3    3    0  502 -0.33865238769E+03 -0.11260511741E+03 -0.79017759649E+03  0.86704560212E+03  0.46999998093E+01 0. -1.
</event>
<event>
 5   0  0.1814770E-03  0.1286304E+04  0.7818609E-02  0.9040498E-01
       -1   -1    0    0    0  501  0.00000000000E+00  0.00000000000E+00  0.74362024497E+03  0.74362024499E+03  0.50400001928E-02 0.  1.
        1   -1    0    0  501    0  0.00000000000E+00  0.00000000000E+00 -0.55625738116E+03  0.55625738118E+03  0.50400001928E-02 0. -1.
    10030    2    1    2    0    0  0.00000000000E+00  0.00000000000E+00  0.18736286381E+03  0.12998776262E+04  0.12863036190E+04 0.  0.
        5    1    3    3  502    0  0.56910010963E+03  0.27772140371E+03  0.20719690176E+03  0.66630080216E+03  0.46999998093E+01 0.  1.
       -5    1    3    3    0  502 -0.56910010963E+03 -0.27772140371E+03 -0.19834037950E+02  0.63357682401E+03  0.46999998093E+01 0. -1.
</event>
<event>
 5   0  0.1814770E-03  0.1285453E+04  0.7818609E-02  0.9041181E-01
        1   -1    0    0  501    0  0.00000000000E+00  0.00000000000E+00  0.98653887110E+03  0.98653887112E+03  0.50400001928E-02 0. -1.
       -1   -1    0    0    0  501  0.00000000000E+00  0.00000000000E+00 -0.41873408627E+03  0.41873408630E+03  0.50400001928E-02 0.  1.
    10030    2    1    2    0    0  0.00000000000E+00  0.00000000000E+00  0.56780478483E+03  0.14052729574E+04  0.12854531540E+04 0.  0.
        5    1    3    3  502    0  0.59945945672E+03  0.14815483752E+03  0.89034867472E+02  0.62389966641E+03  0.46999998093E+01 0.  1.
       -5    1    3    3    0  502 -0.59945945672E+03 -0.14815483752E+03  0.47876991736E+03  0.78137329100E+03  0.46999998093E+01 0. -1.
</event>
<event>
 5   0  0.3259968E-03  0.1125589E+04  0.7818609E-02  0.9180604E-01
       -2   -1    0    0    0  501  0.00000000000E+00  0.00000000000E+00  0.10535817868E+04  0.10535817868E+04  0.25500000920E-02 0. -1.
        2   -1    0    0  501    0  0.00000000000E+00  0.00000000000E+00 -0.30062957805E+03  0.30062957806E+03  0.25500000920E-02 0.  1.
    10030    2    1    2    0    0  0.00000000000E+00  0.00000000000E+00  0.75295220872E+03  0.13542113648E+04  0.11255893532E+04 0.  0.
        4    1    3    3  502    0 -0.38032038850E+03 -0.40836276170E+03  0.28862007201E+03  0.62825703491E+03  0.12699999809E+01 0.  1.
       -4    1    3    3    0  502  0.38032038850E+03  0.40836276170E+03  0.46433213672E+03  0.72595432993E+03  0.12699999809E+01 0. -1.
</event>
<event>
 5   0  0.3294720E-03  0.1260158E+04  0.7818609E-02  0.9061771E-01
        2   -1    0    0  501    0  0.00000000000E+00  0.00000000000E+00  0.82477981533E+03  0.82477981533E+03  0.25500000920E-02 0.  1.
       -2   -1    0    0    0  501  0.00000000000E+00  0.00000000000E+00 -0.48134027134E+03  0.48134027135E+03  0.25500000920E-02 0. -1.
    10030    2    1    2    0    0  0.00000000000E+00  0.00000000000E+00  0.34343954399E+03  0.13061200867E+04  0.12601583077E+04 0.  0.
        5    1    3    3  502    0 -0.31784398002E+03 -0.53590541155E+03  0.26871860972E+03  0.67856553624E+03  0.46999998093E+01 0.  1.
       -5    1    3    3    0  502  0.31784398002E+03  0.53590541155E+03  0.74720934273E+02  0.62755455044E+03  0.46999998093E+01 0. -1.
</event>
<event>
 5   0  0.1873488E-03  0.1302759E+04  0.7818609E-02  0.9027380E-01
        1   -1    0    0  501    0  0.00000000000E+00  0.00000000000E+00  0.47457380051E+03  0.47457380054E+03  0.50400001928E-02 0.  1.
       -1   -1    0    0    0  501  0.00000000000E+00  0.00000000000E+00 -0.89405594939E+03  0.89405594941E+03  0.50400001928E-02 0. -1.
    10030    2    1    2    0    0  0.00000000000E+00  0.00000000000E+00 -0.41948214888E+03  0.13686297499E+04  0.13027594249E+04 0.  0.
        3    1    3    3  502    0  0.56779492813E+03 -0.10260268485E+03 -0.52731183185E+03  0.78164964630E+03  0.10100000352E+00 0. -1.
       -3    1    3    3    0  502 -0.56779492813E+03  0.10260268485E+03  0.10782968297E+03  0.58698010365E+03  0.10100000352E+00 0.  1.
</event>
<event>
 5   0  0.3259968E-03  0.1315291E+04  0.7818609E-02  0.9017526E-01
       -2   -1    0    0    0  501  0.00000000000E+00  0.00000000000E+00  0.29596522695E+03  0.29596522697E+03  0.25500000920E-02 0.  1.
        2   -1    0    0  501    0  0.00000000000E+00  0.00000000000E+00 -0.14613123885E+04  0.14613123885E+04  0.25500000920E-02 0. -1.
    10030    2    1    2    0    0  0.00000000000E+00  0.00000000000E+00 -0.11653471616E+04  0.17572776155E+04  0.13152910746E+04 0.  0.
        4    1    3    3  502    0  0.52663199218E+03  0.15495527691E+03 -0.98844317619E+02  0.55778508859E+03  0.12699999809E+01 0.  1.
       -4    1    3    3    0  502 -0.52663199218E+03 -0.15495527691E+03 -0.10665028439E+04  0.11994925269E+04  0.12699999809E+01 0. -1.
</event>
<event>
 5   0  0.3336609E-03  0.1286476E+04  0.7818609E-02  0.9040359E-01
        2   -1    0    0  501    0  0.00000000000E+00  0.00000000000E+00  0.10951923580E+04  0.10951923580E+04  0.25500000920E-02 0.  1.
       -2   -1    0    0    0  501  0.00000000000E+00  0.00000000000E+00 -0.37779229573E+03  0.37779229574E+03  0.25500000920E-02 0. -1.
    10030    2    1    2    0    0  0.00000000000E+00  0.00000000000E+00  0.71740006225E+03  0.14729846537E+04  0.12864761719E+04 0.  0.
        1    1    3    3  502    0  0.48530353125E+03 -0.87491476041E+02 -0.11419173454E+03  0.50617588652E+03  0.50400001928E-02 0. -1.
       -1    1    3    3    0  502 -0.48530353125E+03  0.87491476041E+02  0.83159179679E+03  0.96680876720E+03  0.50400001928E-02 0.  1.
</event>
<event>
 5   0  0.1857986E-03  0.1565199E+04  0.7818609E-02  0.8842217E-01
        1   -1    0    0  501    0  0.00000000000E+00  0.00000000000E+00  0.65843516532E+03  0.65843516533E+03  0.50400001928E-02 0.  1.
       -1   -1    0    0    0  501  0.00000000000E+00  0.00000000000E+00 -0.93017857184E+03  0.93017857186E+03  0.50400001928E-02 0. -1.
    10030    2    1    2    0    0  0.00000000000E+00  0.00000000000E+00 -0.27174340653E+03  0.15886137372E+04  0.15651993889E+04 0.  0.
        1    1    3    3  502    0 -0.16534779728E+03  0.73981614331E+01  0.64046780570E+03  0.66150860691E+03  0.50400001928E-02 0.  1.
       -1    1    3    3    0  502  0.16534779728E+03 -0.73981614331E+01 -0.91221121223E+03  0.92710513028E+03  0.50400001928E-02 0. -1.
</event>
<event>
 5   0  0.3262927E-03  0.1153003E+04  0.7818609E-02  0.9155018E-01
        2   -1    0    0  501    0  0.00000000000E+00  0.00000000000E+00  0.50438611615E+03  0.50438611616E+03  0.25500000920E-02 0. -1.
       -2   -1    0    0    0  501  0.00000000000E+00  0.00000000000E+00 -0.65892754069E+03  0.65892754069E+03  0.25500000920E-02 0.  1.
    10030    2    1    2    0    0  0.00000000000E+00  0.00000000000E+00 -0.15454142454E+03  0.11633136569E+04  0.11530028674E+04 0.  0.
        3    1    3    3  502    0 -0.26105875394E+02  0.38025632822E+02 -0.65706289065E+03  0.65867982962E+03  0.10100000352E+00 0.  1.
       -3    1    3    3    0  502  0.26105875394E+02 -0.38025632822E+02  0.50252146611E+03  0.50463382723E+03  0.10100000352E+00 0. -1.
</event>
<event>
 5   0  0.1873488E-03  0.1284807E+04  0.7818609E-02  0.9041701E-01
        1   -1    0    0  501    0  0.00000000000E+00  0.00000000000E+00  0.70290912435E+03  0.70290912437E+03  0.50400001928E-02 0. -1.
       -1   -1    0    0    0  501  0.00000000000E+00  0.00000000000E+00 -0.58710636993E+03  0.58710636996E+03  0.50400001928E-02 0.  1.
    10030    2    1    2    0    0  0.00000000000E+00  0.00000000000E+00  0.11580275442E+03  0.12900154943E+04  0.12848072609E+04 0.  0.
        3    1    3    3  502    0 -0.43697203032E+03  0.44765627091E+03  0.20458163819E+03  0.65817501400E+03  0.10100000352E+00 0.  1.
       -3    1    3    3    0  502  0.43697203032E+03 -0.44765627091E+03 -0.88778883767E+02  0.63184048033E+03  0.10100000352E+00 0. -1.
</event>
<event>
 5   0  0.1814770E-03  0.1344793E+04  0.7818609E-02  0.8994779E-01
       -1   -1    0    0    0  501  0.00000000000E+00  0.00000000000E+00  0.37845816170E+03  0.37845816173E+03  0.50400001928E-02 0. -1.
        1   -1    0    0  501    0  0.00000000000E+00  0.00000000000E+00 -0.11946294406E+04  0.11946294406E+04  0.50400001928E-02 0.  1.
    10030    2    1    2    0    0  0.00000000000E+00  0.00000000000E+00 -0.81617127890E+03  0.15730876023E+04  0.13447933106E+04 0.  0.
        5    1    3    3  502    0 -0.61346758875E+03 -0.21675155278E+03 -0.60650236257E+03  0.88948913646E+03  0.46999998093E+01 0. -1.
       -5    1    3    3    0  502  0.61346758875E+03  0.21675155278E+03 -0.20966891633E+03  0.68359846588E+03  0.46999998093E+01 0.  1.
</event>
<event>
 5   0  0.1857986E-03  0.1328284E+04  0.7818609E-02  0.9007432E-01
        1   -1    0    0  501    0  0.00000000000E+00  0.00000000000E+00  0.11882655704E+04  0.11882655704E+04  0.50400001928E-02 0.  1.
       -1   -1    0    0    0  501  0.00000000000E+00  0.00000000000E+00 -0.37120030440E+03  0.37120030444E+03  0.50400001928E-02 0. -1.
    10030    2    1    2    0    0  0.00000000000E+00  0.00000000000E+00  0.81706526600E+03  0.15594658748E+04  0.13282839177E+04 0.  0.
        1    1    3    3  502    0  0.45960409917E+02 -0.41733102424E+03  0.10126894644E+04  0.10962743701E+04  0.50400001928E-02 0.  1.
       -1    1    3    3    0  502 -0.45960409917E+02  0.41733102424E+03 -0.19562419843E+03  0.46319150479E+03  0.50400001928E-02 0. -1.
</event>
<event>
 5   0  0.1857986E-03  0.1301951E+04  0.7818609E-02  0.9028019E-01
        1   -1    0    0  501    0  0.00000000000E+00  0.00000000000E+00  0.23766534853E+04  0.23766534853E+04  0.50400001928E-02 0. -1.
       -1   -1    0    0    0  501  0.00000000000E+00  0.00000000000E+00 -0.17830496265E+03  0.17830496272E+03  0.50400001928E-02 0.  1.
    10030    2    1    2    0    0  0.00000000000E+00  0.00000000000E+00  0.21983485227E+04  0.25549584481E+04  0.13019510145E+04 0.  0.
        1    1    3    3  502    0  0.34602986904E+03 -0.11697707180E+03  0.41750125727E+02  0.36764572434E+03  0.50400001928E-02 0.  1.
       -1    1    3    3    0  502 -0.34602986904E+03  0.11697707180E+03  0.21565983970E+04  0.21873127237E+04  0.50400001928E-02 0. -1.
</event>
<event>
 5   0  0.3262927E-03  0.1281379E+04  0.7818609E-02  0.9044463E-01
        2   -1    0    0  501    0  0.00000000000E+00  0.00000000000E+00  0.52171632485E+03  0.52171632485E+03  0.25500000920E-02 0.  1.
       -2   -1    0    0    0  501  0.00000000000E+00  0.00000000000E+00 -0.78679388989E+03  0.78679388989E+03  0.25500000920E-02 0. -1.
    10030    2    1    2    0    0  0.00000000000E+00  0.00000000000E+00 -0.26507756504E+03  0.13085102147E+04  0.12813792829E+04 0.  0.
        3    1    3    3  502    0  0.53113037195E+03  0.69962950742E+02  0.22631160148E+03  0.58155931568E+03  0.10100000352E+00 0.  1.
       -3    1    3    3    0  502 -0.53113037195E+03 -0.69962950742E+02 -0.49138916652E+03  0.72695089907E+03  0.10100000352E+00 0. -1.
</event>
<event>
 5   0  0.1857986E-03  0.1278324E+04  0.7818609E-02  0.9046933E-01
        1   -1    0    0  501    0  0.00000000000E+00  0.00000000000E+00  0.23680017498E+03  0.23680017504E+03  0.50400001928E-02 0.  1.
       -1   -1    0    0    0  501  0.00000000000E+00  0.00000000000E+00 -0.17252017395E+04  0.17252017395E+04  0.50400001928E-02 0. -1.
    10030    2    1    2    0    0  0.00000000000E+00  0.00000000000E+00 -0.14884015645E+04  0.19620019145E+04  0.12783240182E+04 0.  0.
        1    1    3    3  502    0 -0.12726333628E+03  0.40314124608E+03 -0.14799710486E+04  0.15391663736E+04  0.50400001928E-02 0. -1.
       -1    1    3    3    0  502  0.12726333628E+03 -0.40314124608E+03 -0.84305159485E+01  0.42283554093E+03  0.50400001928E-02 0.  1.
</event>
<event>
 5   0  0.1823154E-03  0.1319501E+04  0.7818609E-02  0.9014242E-01
       -1   -1    0    0    0  501  0.00000000000E+00  0.00000000000E+00  0.30933251696E+03  0.30933251700E+03  0.50400001928E-02 0.  1.
        1   -1    0    0  501    0  0.00000000000E+00  0.00000000000E+00 -0.14071291916E+04  0.14071291916E+04  0.50400001928E-02 0. -1.
    10030    2    1    2    0    0  0.00000000000E+00  0.00000000000E+00 -0.10977966746E+04  0.17164617086E+04  0.13195011399E+04 0.  0.
        2    1    3    3  502    0 -0.27730845655E+03  0.14809125655E+03 -0.13034309955E+04  0.13408069811E+04  0.25500000920E-02 0. -1.
       -2    1    3    3    0  502  0.27730845655E+03 -0.14809125655E+03  0.20563432093E+03  0.37565472750E+03  0.25500000920E-02 0.  1.
</event>
<event>
 5   0  0.1814770E-03  0.1287428E+04  0.7818609E-02  0.9039595E-01
       -1   -1    0    0    0  501  0.00000000000E+00  0.00000000000E+00  0.70144741356E+03  0.70144741358E+03  0.50400001928E-02 0.  1.
        1   -1    0    0  501    0  0.00000000000E+00  0.00000000000E+00 -0.59073207967E+03  0.59073207969E+03  0.50400001928E-02 0. -1.
    10030    2    1    2    0    0  0.00000000000E+00  0.00000000000E+00  0.11071533389E+03  0.12921794933E+04  0.12874276514E+04 0.  0.
        5    1    3    3  502    0 -0.49123645359E+02  0.52411981957E+03 -0.31645623354E+03  0.61423233027E+03  0.46999998093E+01 0. -1.
       -5    1    3    3    0  502  0.49123645359E+02 -0.52411981957E+03  0.42717156743E+03  0.67794716300E+03  0.46999998093E+01 0.  1.
</event>
<event>
 5   0  0.3259968E-03  0.1302667E+04  0.7818609E-02  0.9027453E-01
       -2   -1    0    0    0  501  0.00000000000E+00  0.00000000000E+00  0.38473093112E+03  0.38473093113E+03  0.25500000920E-02 0. -1.
        2   -1    0    0  501    0  0.00000000000E+00  0.00000000000E+00 -0.11026797560E+04  0.11026797560E+04  0.25500000920E-02 0.  1.
    10030    2    1    2    0    0  0.00000000000E+00  0.00000000000E+00 -0.71794882490E+03  0.14874106872E+04  0.13026665103E+04 0.  0.
        4    1    3    3  502    0 -0.81975366394E+02 -0.45876327476E+03  0.16058467492E+03  0.49292266501E+03  0.12699999809E+01 0. -1.
       -4    1    3    3    0  502  0.81975366394E+02  0.45876327476E+03 -0.87853349982E+03  0.99448802214E+03  0.12699999809E+01 0.  1.
</event>
<event>
 5   0  0.3262927E-03  0.8843545E+03  0.7818609E-02  0.9445353E-01
        2   -1    0    0  501    0  0.00000000000E+00  0.00000000000E+00  0.65503455937E+03  0.65503455937E+03  0.25500000920E-02 0. -1.
       -2   -1    0    0    0  501  0.00000000000E+00  0.00000000000E+00 -0.29848916931E+03  0.29848916932E+03  0.25500000920E-02 0.  1.
    10030    2    1    2    0    0  0.00000000000E+00  0.00000000000E+00  0.35654539006E+03  0.95352372870E+03  0.88435450246E+03 0.  0.
        3    1    3    3  502    0 -0.37133535538E+03 -0.18872002031E+03  0.18291263458E+02  0.41694097033E+03  0.10100000352E+00 0.  1.
       -3    1    3    3    0  502  0.37133535538E+03  0.18872002031E+03  0.33825412660E+03  0.53658275837E+03  0.10100000352E+00 0. -1.
</event>
<event>
 5   0  0.1803959E-03  0.1316802E+04  0.7818609E-02  0.9016346E-01
        1   -1    0    0  501    0  0.00000000000E+00  0.00000000000E+00  0.19829527999E+04  0.19829527999E+04  0.50400001928E-02 0. -1.
       -1   -1    0    0    0  501  0.00000000000E+00  0.00000000000E+00 -0.21860937673E+03  0.21860937678E+03  0.50400001928E-02 0.  1.
    10030    2    1    2    0    0  0.00000000000E+00  0.00000000000E+00  0.17643434231E+04  0.22015621767E+04  0.13168023021E+04 0.  0.
        4    1    3    3  502    0  0.83654408148E+02  0.55849102340E+02  0.19700294393E+04  0.19725959513E+04  0.12699999809E+01 0. -1.
       -4    1    3    3    0  502 -0.83654408148E+02 -0.55849102340E+02 -0.20568601616E+03  0.22896622541E+03  0.12699999809E+01 0.  1.
</event>
<event>
 5   0  0.1823154E-03  0.1291681E+04  0.7818609E-02  0.9036189E-01
       -1   -1    0    0    0  501  0.00000000000E+00  0.00000000000E+00  0.88071611313E+03  0.88071611314E+03  0.50400001928E-02 0.  1.
        1   -1    0    0  501    0  0.00000000000E+00  0.00000000000E+00 -0.47360286060E+03  0.47360286063E+03  0.50400001928E-02 0. -1.
    10030    2    1    2    0    0  0.00000000000E+00  0.00000000000E+00  0.40711325253E+03  0.13543189738E+04  0.12916805651E+04 0.  0.
        2    1    3    3  502    0  0.23322093183E+03  0.28763733846E+02  0.83430235480E+03  0.86676396709E+03  0.25500000920E-02 0.  1.
       -2    1    3    3    0  502 -0.23322093183E+03 -0.28763733846E+02 -0.42718910227E+03  0.48755500667E+03  0.25500000920E-02 0. -1.
</event>
<event>
 5   0  0.1803959E-03  0.1311937E+04  0.7818609E-02  0.9020152E-01
       -1   -1    0    0    0  501  0.00000000000E+00  0.00000000000E+00  0.46574755607E+03  0.46574755609E+03  0.50400001928E-02 0.  1.
        1   -1    0    0  501    0  0.00000000000E+00  0.00000000000E+00 -0.92387926184E+03  0.92387926185E+03  0.50400001928E-02 0. -1.
    10030    2    1    2    0    0  0.00000000000E+00  0.00000000000E+00 -0.45813170577E+03  0.13896268179E+04  0.13119367490E+04 0.  0.
        4    1    3    3  502    0  0.12211278641E+03 -0.77466225996E+02  0.44865177827E+03  0.47138368642E+03  0.12699999809E+01 0.  1.
       -4    1    3    3    0  502 -0.12211278641E+03  0.77466225996E+02 -0.90678348404E+03  0.91824313153E+03  0.12699999809E+01 0. -1.
</event>
<event>
 5   0  0.1857986E-03  0.1286786E+04  0.7818609E-02  0.9040110E-01
       -1   -1    0    0    0  501  0.00000000000E+00  0.00000000000E+00  0.53965027458E+03  0.53965027460E+03  0.50400001928E-02 0. -1.
        1   -1    0    0  501    0  0.00000000000E+00  0.00000000000E+00 -0.76707920429E+03  0.76707920431E+03  0.50400001928E-02 0.  1.
    10030    2    1    2    0    0  0.00000000000E+00  0.00000000000E+00 -0.22742892972E+03  0.13067294789E+04  0.12867859235E+04 0.  0.
        1    1    3    3  502    0  0.42492550481E+03  0.86791734027E+02 -0.59632751583E+03  0.73736083155E+03  0.50400001928E-02 0.  1.
       -1    1    3    3    0  502 -0.42492550481E+03 -0.86791734027E+02  0.36889858612E+03  0.56936864736E+03  0.50400001928E-02 0. -1.
</event>
<event>
 5   0  0.1254125E-03  0.1289929E+04  0.7818609E-02  0.9037590E-01
       -3   -1    0    0    0  501  0.00000000000E+00  0.00000000000E+00  0.16323880605E+04  0.16323880636E+04  0.10100000352E+00 0.  1.
        3   -1    0    0  501    0  0.00000000000E+00  0.00000000000E+00 -0.25482872798E+03  0.25482874799E+03  0.10100000352E+00 0. -1.
    10030    2    1    2    0    0  0.00000000000E+00  0.00000000000E+00  0.13775593325E+04  0.18872168116E+04  0.12899292924E+04 0.  0.
        4    1    3    3  502    0 -0.20822509288E+03  0.60690917498E+03  0.78450922441E+03  0.10134854573E+04  0.12699999809E+01 0.  1.
       -4    1    3    3    0  502  0.20822509288E+03 -0.60690917498E+03  0.59305010814E+03  0.87373135439E+03  0.12699999809E+01 0. -1.
</event>
<event>
 5   0  0.1803959E-03  0.1310877E+04  0.7818609E-02  0.9020984E-01
        1   -1    0    0  501    0  0.00000000000E+00  0.00000000000E+00  0.14812059304E+04  0.14812059304E+04  0.50400001928E-02 0. -1.
       -1   -1    0    0    0  501  0.00000000000E+00  0.00000000000E+00 -0.29003364163E+03  0.29003364168E+03  0.50400001928E-02 0.  1.
    10030    2    1    2    0    0  0.00000000000E+00  0.00000000000E+00  0.11911722888E+04  0.17712395721E+04  0.13108768822E+04 0.  0.
        4    1    3    3  502    0  0.46605458165E+02 -0.64285731410E+03  0.43479864717E+03  0.77748895266E+03  0.12699999809E+01 0.  1.
       -4    1    3    3    0  502 -0.46605458165E+02  0.64285731410E+03  0.75637364163E+03  0.99375061946E+03  0.12699999809E+01 0. -1.
</event>
<event>
 5   0  0.3259968E-03  0.1308826E+04  0.7818609E-02  0.9022595E-01
        2   -1    0    0  501    0  0.00000000000E+00  0.00000000000E+00  0.11078304968E+04  0.11078304968E+04  0.25500000920E-02 0. -1.
       -2   -1    0    0    0  501  0.00000000000E+00  0.00000000000E+00 -0.38657205298E+03  0.38657205298E+03  0.25500000920E-02 0.  1.
    10030    2    1    2    0    0  0.00000000000E+00  0.00000000000E+00  0.72125844387E+03  0.14944025498E+04  0.13088259006E+04 0.  0.
        4    1    3    3  502    0  0.44653041367E+03 -0.39638056887E+03  0.54792377189E+02  0.59959218074E+03  0.12699999809E+01 0.  1.
       -4    1    3    3    0  502 -0.44653041367E+03  0.39638056887E+03  0.66646606668E+03  0.89481036910E+03  0.12699999809E+01 0. -1.
</event>
<event>
 5   0  0.1254125E-03  0.1267312E+04  0.7818609E-02  0.9055896E-01
       -3   -1    0    0    0  501  0.00000000000E+00  0.00000000000E+00  0.39206529324E+03  0.39206530625E+03  0.10100000352E+00 0.  1.
        3   -1    0    0  501    0  0.00000000000E+00  0.00000000000E+00 -0.10241146895E+04  0.10241146945E+04  0.10100000352E+00 0. -1.
    10030    2    1    2    0    0  0.00000000000E+00  0.00000000000E+00 -0.63204939625E+03  0.14161800007E+04  0.12673118618E+04 0.  0.
        3    1    3    3  502    0 -0.79998647044E+02  0.25894813997E+03  0.32402766680E+03  0.42243089585E+03  0.10100000352E+00 0.  1.
       -3    1    3    3    0  502  0.79998647044E+02 -0.25894813997E+03 -0.95607706305E+03  0.99374910486E+03  0.10100000352E+00 0. -1.
</event>
<event>
 5   0  0.3259968E-03  0.1311981E+04  0.7818609E-02  0.9020118E-01
       -2   -1    0    0    0  501  0.00000000000E+00  0.00000000000E+00  0.33058528063E+03  0.33058528064E+03  0.25500000920E-02 0. -1.
        2   -1    0    0  501    0  0.00000000000E+00  0.00000000000E+00 -0.13017019352E+04  0.13017019352E+04  0.25500000920E-02 0.  1.
    10030    2    1    2    0    0  0.00000000000E+00  0.00000000000E+00 -0.97111665461E+03  0.16322872159E+04  0.13119809443E+04 0.  0.
        4    1    3    3  502    0 -0.25729383065E+03  0.22824442084E+03  0.20940937504E+03  0.40267794848E+03  0.12699999809E+01 0. -1.
       -4    1    3    3    0  502  0.25729383065E+03 -0.22824442084E+03 -0.11805260296E+04  0.12296092674E+04  0.12699999809E+01 0.  1.
</event>
<event>
 5   0  0.1857986E-03  0.1295290E+04  0.7818609E-02  0.9033309E-01
       -1   -1    0    0    0  501  0.00000000000E+00  0.00000000000E+00  0.39207795036E+03  0.39207795039E+03  0.50400001928E-02 0.  1.
        1   -1    0    0  501    0  0.00000000000E+00  0.00000000000E+00 -0.10697971747E+04  0.10697971747E+04  0.50400001928E-02 0. -1.
    10030    2    1    2    0    0  0.00000000000E+00  0.00000000000E+00 -0.67771922435E+03  0.14618751251E+04  0.12952897492E+04 0.  0.
        1    1    3    3  502    0 -0.17234729800E+03 -0.60744342417E+03 -0.50144498716E+03  0.80631146579E+03  0.50400001928E-02 0.  1.
       -1    1    3    3    0  502  0.17234729800E+03  0.60744342417E+03 -0.17627423720E+03  0.65556365932E+03  0.50400001928E-02 0. -1.
</event>
<event>
 5   0  0.1803959E-03  0.1316790E+04  0.7818609E-02  0.9016356E-01
       -1   -1    0    0    0  501  0.00000000000E+00  0.00000000000E+00  0.66291170253E+03  0.66291170255E+03  0.50400001928E-02 0. -1.
        1   -1    0    0  501    0  0.00000000000E+00  0.00000000000E+00 -0.65390872000E+03  0.65390872002E+03  0.50400001928E-02 0.  1.
    10030    2    1    2    0    0  0.00000000000E+00  0.00000000000E+00  0.90029825324E+01  0.13168204226E+04  0.13167896459E+04 0.  0.
        4    1    3    3  502    0 -0.45799716065E+03  0.19954718542E+03  0.43334907281E+03  0.66134220354E+03  0.12699999809E+01 0. -1.
       -4    1    3    3    0  502  0.45799716065E+03 -0.19954718542E+03 -0.42434609028E+03  0.65547821902E+03  0.12699999809E+01 0.  1.
</event>
<event>
 5   0  0.3259968E-03  0.1280144E+04  0.7818609E-02  0.9045461E-01
       -2   -1    0    0    0  501  0.00000000000E+00  0.00000000000E+00  0.56107759831E+03  0.56107759832E+03  0.25500000920E-02 0.  1.
        2   -1    0    0  501    0  0.00000000000E+00  0.00000000000E+00 -0.73018861362E+03  0.73018861362E+03  0.25500000920E-02 0. -1.
    10030    2    1    2    0    0  0.00000000000E+00  0.00000000000E+00 -0.16911101531E+03  0.12912662119E+04  0.12801444819E+04 0.  0.
        4    1    3    3  502    0 -0.35127742488E+03  0.29282636224E+03  0.36716072655E+03  0.58647397187E+03  0.12699999809E+01 0.  1.
       -4    1    3    3    0  502  0.35127742488E+03 -0.29282636224E+03 -0.53627174185E+03  0.70479224007E+03  0.12699999809E+01 0. -1.
</event>
<event>
 5   0  0.3259968E-03  0.1321129E+04  0.7818609E-02  0.9012975E-01
       -2   -1    0    0    0  501  0.00000000000E+00  0.00000000000E+00  0.39818531261E+03  0.39818531262E+03  0.25500000920E-02 0.  1.
        2   -1    0    0  501    0  0.00000000000E+00  0.00000000000E+00 -0.10958350959E+04  0.10958350959E+04  0.25500000920E-02 0. -1.
    10030    2    1    2    0    0  0.00000000000E+00  0.00000000000E+00 -0.69764978330E+03  0.14940204085E+04  0.13211289721E+04 0.  0.
        4    1    3    3  502    0 -0.42476002937E+03  0.28256829181E+03  0.12570518583E+03  0.52542299981E+03  0.12699999809E+01 0.  1.
       -4    1    3    3    0  502  0.42476002937E+03 -0.28256829181E+03 -0.82335496913E+03  0.96859740871E+03  0.12699999809E+01 0. -1.
</event>
<event>
 5   0  0.3294720E-03  0.1304612E+04  0.7818609E-02  0.9025916E-01
        2   -1    0    0  501    0  0.00000000000E+00  0.00000000000E+00  0.55065762068E+03  0.55065762068E+03  0.25500000920E-02 0.  1.
       -2   -1    0    0    0  501  0.00000000000E+00  0.00000000000E+00 -0.77271797588E+03  0.77271797588E+03  0.25500000920E-02 0. -1.
    10030    2    1    2    0    0  0.00000000000E+00  0.00000000000E+00 -0.22206035520E+03  0.13233755966E+04  0.13046118841E+04 0.  0.
        5    1    3    3  502    0  0.43246923193E+03 -0.23789128631E+03 -0.54361298242E+03  0.73427451632E+03  0.46999998093E+01 0. -1.
       -5    1    3    3    0  502 -0.43246923193E+03  0.23789128631E+03  0.32155262722E+03  0.58910108024E+03  0.46999998093E+01 0.  1.
</event>
<event>
 5   0  0.3336609E-03  0.1263824E+04  0.7818609E-02  0.9058756E-01
        2   -1    0    0  501    0  0.00000000000E+00  0.00000000000E+00  0.52890812514E+03  0.52890812515E+03  0.25500000920E-02 0.  1.
       -2   -1    0    0    0  501  0.00000000000E+00  0.00000000000E+00 -0.75497528353E+03  0.75497528353E+03  0.25500000920E-02 0. -1.
    10030    2    1    2    0    0  0.00000000000E+00  0.00000000000E+00 -0.22606715839E+03  0.12838834087E+04  0.12638236613E+04 0.  0.
        1    1    3    3  502    0  0.20072018330E+03  0.59712034042E+03 -0.62532681579E+02  0.63304946822E+03  0.50400001928E-02 0.  1.
       -1    1    3    3    0  502 -0.20072018330E+03 -0.59712034042E+03 -0.16353447681E+03  0.65083394046E+03  0.50400001928E-02 0. -1.
</event>
<event>
 5   0  0.1814770E-03  0.1289087E+04  0.7818609E-02  0.9038265E-01
       -1   -1    0    0    0  501  0.00000000000E+00  0.00000000000E+00  0.18980822525E+03  0.18980822531E+03  0.50400001928E-02 0. -1.
        1   -1    0    0  501    0  0.00000000000E+00  0.00000000000E+00 -0.21887151001E+04  0.21887151001E+04  0.50400001928E-02 0.  1.
    10030    2    1    2    0    0  0.00000000000E+00  0.00000000000E+00 -0.19989068748E+04  0.23785233254E+04  0.12890866981E+04 0.  0.
        5    1    3    3  502    0  0.18592941813E+03 -0.15186786648E+03 -0.21031090736E+04  0.21167719440E+04  0.46999998093E+01 0.  1.
       -5    1    3    3    0  502 -0.18592941813E+03  0.15186786648E+03  0.10420219883E+03  0.26175138135E+03  0.46999998093E+01 0. -1.
</event>
<event>
 5   0  0.3294720E-03  0.1297665E+04  0.7818609E-02  0.9031419E-01
       -2   -1    0    0    0  501  0.00000000000E+00  0.00000000000E+00  0.58490252729E+03  0.58490252730E+03  0.25500000920E-02 0.  1.
        2   -1    0    0  501    0  0.00000000000E+00  0.00000000000E+00 -0.71975001863E+03  0.71975001863E+03  0.25500000920E-02 0. -1.
    10030    2    1    2    0    0  0.00000000000E+00  0.00000000000E+00 -0.13484749133E+03  0.13046525459E+04  0.12976649875E+04 0.  0.
        5    1    3    3  502    0  0.37143579992E+03  0.17196560125E+03  0.43870013545E+03  0.60001385010E+03  0.46999998093E+01 0.  1.
       -5    1    3    3    0  502 -0.37143579992E+03 -0.17196560125E+03 -0.57354762678E+03  0.70463869583E+03  0.46999998093E+01 0. -1.
</event>
<event>
 5   0  0.1823154E-03  0.1289452E+04  0.7818609E-02  0.9037972E-01
        1   -1    0    0  501    0  0.00000000000E+00  0.00000000000E+00  0.14730663495E+04  0.14730663495E+04  0.50400001928E-02 0. -1.
       -1   -1    0    0    0  501  0.00000000000E+00  0.00000000000E+00 -0.28218111314E+03  0.28218111318E+03  0.50400001928E-02 0.  1.
    10030    2    1    2    0    0  0.00000000000E+00  0.00000000000E+00  0.11908852364E+04  0.17552474627E+04  0.12894518250E+04 0.  0.
        2    1    3    3  502    0  0.25940041263E+03  0.59002457683E+03  0.61713401990E+03  0.89234072745E+03  0.25500000920E-02 0.  1.
       -2    1    3    3    0  502 -0.25940041263E+03 -0.59002457683E+03  0.57375121647E+03  0.86290673525E+03  0.25500000920E-02 0. -1.
</event>
<event>
 5   0  0.3294720E-03  0.1318585E+04  0.7818609E-02  0.9014956E-01
       -2   -1    0    0    0  501  0.00000000000E+00  0.00000000000E+00  0.84257290096E+03  0.84257290096E+03  0.25500000920E-02 0.  1.
        2   -1    0    0  501    0  0.00000000000E+00  0.00000000000E+00 -0.51587975534E+03  0.51587975535E+03  0.25500000920E-02 0. -1.
    10030    2    1    2    0    0  0.00000000000E+00  0.00000000000E+00  0.32669314561E+03  0.13584526563E+04  0.13185845472E+04 0.  0.
        5    1    3    3  502    0  0.61000004876E+03 -0.18896588676E+03 -0.54236371558E+01  0.63863892121E+03  0.46999998093E+01 0.  1.
       -5    1    3    3    0  502 -0.61000004876E+03  0.18896588676E+03  0.33211678277E+03  0.71981373510E+03  0.46999998093E+01 0. -1.
</event>
<event>
 5   0  0.1873488E-03  0.1313429E+04  0.7818609E-02  0.9018983E-01
       -1   -1    0    0    0  501  0.00000000000E+00  0.00000000000E+00  0.84959817344E+03  0.84959817345E+03  0.50400001928E-02 0. -1.
        1   -1    0    0  501    0  0.00000000000E+00  0.00000000000E+00 -0.50762079703E+03  0.50762079705E+03  0.50400001928E-02 0.  1.
    10030    2    1    2    0    0  0.00000000000E+00  0.00000000000E+00  0.34197737641E+03  0.13572189705E+04  0.13134286459E+04 0.  0.
        3    1    3    3  502    0  0.21554615401E+03  0.28370544106E+03 -0.39906018105E+03  0.53497472847E+03  0.10100000352E+00 0.  1.
       -3    1    3    3    0  502 -0.21554615401E+03 -0.28370544106E+03  0.74103755746E+03  0.82224424204E+03  0.10100000352E+00 0. -1.
</event>
<event>
 5   0  0.1803959E-03  0.1310198E+04  0.7818609E-02  0.9021517E-01
       -1   -1    0    0    0  501  0.00000000000E+00  0.00000000000E+00  0.48850336521E+03  0.48850336524E+03  0.50400001928E-02 0.  1.
        1   -1    0    0  501    0  0.00000000000E+00  0.00000000000E+00 -0.87850881463E+03  0.87850881465E+03  0.50400001928E-02 0. -1.
    10030    2    1    2    0    0  0.00000000000E+00  0.00000000000E+00 -0.39000544942E+03  0.13670121799E+04  0.13101977138E+04 0.  0.
        4    1    3    3  502    0 -0.56522590582E+03 -0.31389802471E+03 -0.84876707414E+02  0.65208738900E+03  0.12699999809E+01 0. -1.
       -4    1    3    3    0  502  0.56522590582E+03  0.31389802471E+03 -0.30512874201E+03  0.71492479089E+03  0.12699999809E+01 0.  1.
</event>
<event>
 5   0  0.1873488E-03  0.1703450E+04  0.7818609E-02  0.8759399E-01
       -1   -1    0    0    0  501  0.00000000000E+00  0.00000000000E+00  0.10010867615E+04  0.10010867616E+04  0.50400001928E-02 0.  1.
        1   -1    0    0  501    0  0.00000000000E+00  0.00000000000E+00 -0.72464806559E+03  0.72464806560E+03  0.50400001928E-02 0. -1.
    10030    2    1    2    0    0  0.00000000000E+00  0.00000000000E+00  0.27643869596E+03  0.17257348272E+04  0.17034501287E+04 0.  0.
        3    1    3    3  502    0 -0.67676171015E+03  0.45676092289E+02 -0.38363384019E+03  0.77927379737E+03  0.10100000352E+00 0. -1.
       -3    1    3    3    0  502  0.67676171015E+03 -0.45676092289E+02  0.66007253615E+03  0.94646102979E+03  0.10100000352E+00 0.  1.
</event>
<event>
 5   0  0.1873488E-03  0.1292203E+04  0.7818609E-02  0.9035771E-01
       -1   -1    0    0    0  501  0.00000000000E+00  0.00000000000E+00  0.40991533235E+03  0.40991533238E+03  0.50400001928E-02 0. -1.
        1   -1    0    0  501    0  0.00000000000E+00  0.00000000000E+00 -0.10183740985E+04  0.10183740985E+04  0.50400001928E-02 0.  1.
    10030    2    1    2    0    0  0.00000000000E+00  0.00000000000E+00 -0.60845876615E+03  0.14282894309E+04  0.12922030136E+04 0.  0.
        3    1    3    3  502    0 -0.23148686603E+03 -0.49720427588E+03  0.73278278702E+02  0.55332447752E+03  0.10100000352E+00 0. -1.
       -3    1    3    3    0  502  0.23148686603E+03  0.49720427588E+03 -0.68173704486E+03  0.87496495337E+03  0.10100000352E+00 0.  1.
</event>
<event>
 5   0  0.3299104E-03  0.1276885E+04  0.7818609E-02  0.9048099E-01
       -2   -1    0    0    0  501  0.00000000000E+00  0.00000000000E+00  0.77466116414E+03  0.77466116414E+03  0.25500000920E-02 0. -1.
        2   -1    0    0  501    0  0.00000000000E+00  0.00000000000E+00 -0.52617663269E+03  0.52617663270E+03  0.25500000920E-02 0.  1.
    10030    2    1    2    0    0  0.00000000000E+00  0.00000000000E+00  0.24848453144E+03  0.13008377968E+04  0.12768846508E+04 0.  0.
        2    1    3    3  502    0  0.26676796770E+03  0.21371308690E+03  0.67358882217E+03  0.75535444227E+03  0.25500000920E-02 0. -1.
       -2    1    3    3    0  502 -0.26676796770E+03 -0.21371308690E+03 -0.42510429073E+03  0.54548335457E+03  0.25500000920E-02 0.  1.
</event>
<event>
 5   0  0.1814770E-03  0.1227904E+04  0.7818609E-02  0.9088777E-01
       -1   -1    0    0    0  501  0.00000000000E+00  0.00000000000E+00  0.60629469252E+03  0.60629469254E+03  0.50400001928E-02 0. -1.
        1   -1    0    0  501    0  0.00000000000E+00  0.00000000000E+00 -0.62170603728E+03  0.62170603730E+03  0.50400001928E-02 0.  1.
    10030    2    1    2    0    0  0.00000000000E+00  0.00000000000E+00 -0.15411344761E+02  0.12280007298E+04  0.12279040202E+04 0.  0.
        5    1    3    3  502    0 -0.46950355296E+03 -0.38795878670E+03 -0.84973483601E+02  0.61497007190E+03  0.46999998093E+01 0.  1.
       -5    1    3    3    0  502  0.46950355296E+03  0.38795878670E+03  0.69562138839E+02  0.61303065794E+03  0.46999998093E+01 0. -1.
</event>
<event>
 5   0  0.1823154E-03  0.1262220E+04  0.7818609E-02  0.9060074E-01
        1   -1    0    0  501    0  0.00000000000E+00  0.00000000000E+00  0.64936239739E+03  0.64936239741E+03  0.50400001928E-02 0.  1.
       -1   -1    0    0    0  501  0.00000000000E+00  0.00000000000E+00 -0.61337034492E+03  0.61337034494E+03  0.50400001928E-02 0. -1.
    10030    2    1    2    0    0  0.00000000000E+00  0.00000000000E+00  0.35992052472E+02  0.12627327423E+04  0.12622196920E+04 0.  0.
        2    1    3    3  502    0 -0.10669938159E+03  0.52719727336E+02 -0.60204256137E+03  0.61369322417E+03  0.25500000920E-02 0. -1.
       -2    1    3    3    0  502  0.10669938159E+03 -0.52719727336E+02  0.63803461385E+03  0.64903951818E+03  0.25500000920E-02 0.  1.
</event>
<event>
 5   0  0.1873488E-03  0.1266953E+04  0.7818609E-02  0.9056191E-01
       -1   -1    0    0    0  501  0.00000000000E+00  0.00000000000E+00  0.75233956979E+03  0.75233956981E+03  0.50400001928E-02 0. -1.
        1   -1    0    0  501    0  0.00000000000E+00  0.00000000000E+00 -0.53339234295E+03  0.53339234297E+03  0.50400001928E-02 0.  1.
    10030    2    1    2    0    0  0.00000000000E+00  0.00000000000E+00  0.21894722684E+03  0.12857319128E+04  0.12669525103E+04 0.  0.
        3    1    3    3  502    0  0.38037619899E+03  0.10962545619E+03 -0.39241573839E+03  0.55739924232E+03  0.10100000352E+00 0.  1.
       -3    1    3    3    0  502 -0.38037619899E+03 -0.10962545619E+03  0.61136296523E+03  0.72833267046E+03  0.10100000352E+00 0. -1.
</event>
<event>
 5   0  0.3336609E-03  0.1285148E+04  0.7818609E-02  0.9041427E-01
       -2   -1    0    0    0  501  0.00000000000E+00  0.00000000000E+00  0.52960896470E+03  0.52960896470E+03  0.25500000920E-02 0.  1.
        2   -1    0    0  501    0  0.00000000000E+00  0.00000000000E+00 -0.77963406949E+03  0.77963406950E+03  0.25500000920E-02 0. -1.
    10030    2    1    2    0    0  0.00000000000E+00  0.00000000000E+00 -0.25002510479E+03  0.13092430342E+04  0.12851477618E+04 0.  0.
        1    1    3    3  502    0  0.47042157829E+03  0.33924014700E+03 -0.40682301382E+03  0.70843863761E+03  0.50400001928E-02 0. -1.
       -1    1    3    3    0  502 -0.47042157829E+03 -0.33924014700E+03  0.15679790903E+03  0.60080439659E+03  0.50400001928E-02 0.  1.
</event>
<event>
 5   0  0.3299104E-03  0.1258520E+04  0.7818609E-02  0.9063121E-01
        2   -1    0    0  501    0  0.00000000000E+00  0.00000000000E+00  0.76219554851E+03  0.76219554851E+03  0.25500000920E-02 0.  1.
       -2   -1    0    0    0  501  0.00000000000E+00  0.00000000000E+00 -0.51951028132E+03  0.51951028132E+03  0.25500000920E-02 0. -1.
    10030    2    1    2    0    0  0.00000000000E+00  0.00000000000E+00  0.24268526719E+03  0.12817058298E+04  0.12585204390E+04 0.  0.
        2    1    3    3  502    0 -0.17730508818E+03 -0.53964141747E+03 -0.15441959718E+03  0.58863856971E+03  0.25500000920E-02 0. -1.
       -2    1    3    3    0  502  0.17730508818E+03  0.53964141747E+03  0.39710486437E+03  0.69306726013E+03  0.25500000920E-02 0.  1.
</event>
<event>
 5   0  0.1873488E-03  0.1210468E+04  0.7818609E-02  0.9103743E-01
        1   -1    0    0  501    0  0.00000000000E+00  0.00000000000E+00  0.71052011298E+03  0.71052011300E+03  0.50400001928E-02 0.  1.
       -1   -1    0    0    0  501  0.00000000000E+00  0.00000000000E+00 -0.51554910966E+03  0.51554910968E+03  0.50400001928E-02 0. -1.
    10030    2    1    2    0    0  0.00000000000E+00  0.00000000000E+00  0.19497100332E+03  0.12260692227E+04  0.12104676975E+04 0.  0.
        3    1    3    3  502    0  0.34301329359E+03 -0.21151414532E+03  0.55487143490E+03  0.68576867289E+03  0.10100000352E+00 0.  1.
       -3    1    3    3    0  502 -0.34301329359E+03  0.21151414532E+03 -0.35990043158E+03  0.54030054979E+03  0.10100000352E+00 0. -1.
</event>
<event>
 5   0  0.3336609E-03  0.1283476E+04  0.7818609E-02  0.9042772E-01
       -2   -1    0    0    0  501  0.00000000000E+00  0.00000000000E+00  0.19315295766E+03  0.19315295768E+03  0.25500000920E-02 0. -1.
        2   -1    0    0  501    0  0.00000000000E+00  0.00000000000E+00 -0.21321329179E+04  0.21321329179E+04  0.25500000920E-02 0.  1.
    10030    2    1    2    0    0  0.00000000000E+00  0.00000000000E+00 -0.19389799602E+04  0.23252858755E+04  0.12834761848E+04 0.  0.
        1    1    3    3  502    0 -0.45864802178E+03 -0.28379462442E+03 -0.15995127593E+04  0.16879983602E+04  0.50400001928E-02 0.  1.
       -1    1    3    3    0  502  0.45864802178E+03  0.28379462442E+03 -0.33946720088E+03  0.63728751536E+03  0.50400001928E-02 0. -1.
</event>
<event>
 5   0  0.1857986E-03  0.1315567E+04  0.7818609E-02  0.9017311E-01
        1   -1    0    0  501    0  0.00000000000E+00  0.00000000000E+00  0.81699077770E+03  0.81699077772E+03  0.50400001928E-02 0. -1.
       -1   -1    0    0    0  501  0.00000000000E+00  0.00000000000E+00 -0.52960071815E+03  0.52960071818E+03  0.50400001928E-02 0.  1.
    10030    2    1    2    0    0  0.00000000000E+00  0.00000000000E+00  0.28739005955E+03  0.13465914959E+04  0.13155666500E+04 0.  0.
        1    1    3    3  502    0 -0.28024000649E+03  0.97143708319E+01 -0.46535834749E+03  0.54331134890E+03  0.50400001928E-02 0.  1.
       -1    1    3    3    0  502  0.28024000649E+03 -0.97143708319E+01  0.75274840704E+03  0.80328014700E+03  0.50400001928E-02 0. -1.
</event>
<event>
 5   0  0.1873488E-03  0.1290886E+04  0.7818609E-02  0.9036824E-01
        1   -1    0    0  501    0  0.00000000000E+00  0.00000000000E+00  0.10048102378E+04  0.10048102378E+04  0.50400001928E-02 0.  1.
       -1   -1    0    0    0  501  0.00000000000E+00  0.00000000000E+00 -0.41460210769E+03  0.41460210772E+03  0.50400001928E-02 0. -1.
    10030    2    1    2    0    0  0.00000000000E+00  0.00000000000E+00  0.59020813013E+03  0.14194123456E+04  0.12908856533E+04 0.  0.
        3    1    3    3  502    0  0.29830534274E+03  0.97200081328E+02  0.91532339669E+03  0.96760057051E+03  0.10100000352E+00 0.  1.
       -3    1    3    3    0  502 -0.29830534274E+03 -0.97200081328E+02 -0.32511526656E+03  0.45181177505E+03  0.10100000352E+00 0. -1.
</event>
<event>
 5   0  0.3259968E-03  0.1296576E+04  0.7818609E-02  0.9032285E-01
        2   -1    0    0  501    0  0.00000000000E+00  0.00000000000E+00  0.11804075277E+04  0.11804075277E+04  0.25500000920E-02 0. -1.
       -2   -1    0    0    0  501  0.00000000000E+00  0.00000000000E+00 -0.35604436831E+03  0.35604436832E+03  0.25500000920E-02 0.  1.
    10030    2    1    2    0    0  0.00000000000E+00  0.00000000000E+00  0.82436315943E+03  0.15364518961E+04  0.12965761876E+04 0.  0.
        4    1    3    3  502    0  0.27180862391E+02  0.36025888805E+03 -0.22568974484E+03  0.42598443578E+03  0.12699999809E+01 0.  1.
       -4    1    3    3    0  502 -0.27180862391E+02 -0.36025888805E+03  0.10500529043E+04  0.11104674603E+04  0.12699999809E+01 0. -1.
</event>
<event>
 5   0  0.3294720E-03  0.8410905E+03  0.7818609E-02  0.9502374E-01
       -2   -1    0    0    0  501  0.00000000000E+00  0.00000000000E+00  0.88585923672E+02  0.88585923709E+02  0.25500000920E-02 0. -1.
        2   -1    0    0  501    0  0.00000000000E+00  0.00000000000E+00 -0.19964608253E+04  0.19964608253E+04  0.25500000920E-02 0.  1.
    10030    2    1    2    0    0  0.00000000000E+00  0.00000000000E+00 -0.19078749017E+04  0.20850467490E+04  0.84109054525E+03 0.  0.
        5    1    3    3  502    0  0.10290365076E+03  0.23825636681E+03 -0.17741801645E+04  0.17930679306E+04  0.46999998093E+01 0.  1.
       -5    1    3    3    0  502 -0.10290365076E+03 -0.23825636681E+03 -0.13369473713E+03  0.29197881841E+03  0.46999998093E+01 0. -1.
</event>
<event>
 5   0  0.1254125E-03  0.1308588E+04  0.7818609E-02  0.9022783E-01
        3   -1    0    0  501    0  0.00000000000E+00  0.00000000000E+00  0.52581144708E+03  0.52581145678E+03  0.10100000352E+00 0. -1.
       -3   -1    0    0    0  501  0.00000000000E+00  0.00000000000E+00 -0.81417089773E+03  0.81417090399E+03  0.10100000352E+00 0.  1.
    10030    2    1    2    0    0  0.00000000000E+00  0.00000000000E+00 -0.28835945065E+03  0.13399823608E+04  0.13085876182E+04 0.  0.
        1    1    3    3  502    0 -0.61854169606E+03  0.16839072314E+03 -0.27828398026E+03  0.69884994033E+03  0.50400001928E-02 0.  1.
       -1    1    3    3    0  502  0.61854169606E+03 -0.16839072314E+03 -0.10075470387E+02  0.64113242044E+03  0.50400001928E-02 0. -1.
</event>
<event>
 5   0  0.3336609E-03  0.1285037E+04  0.7818609E-02  0.9041516E-01
       -2   -1    0    0    0  501  0.00000000000E+00  0.00000000000E+00  0.37763266270E+03  0.37763266271E+03  0.25500000920E-02 0.  1.
        2   -1    0    0  501    0  0.00000000000E+00  0.00000000000E+00 -0.10932045227E+04  0.10932045227E+04  0.25500000920E-02 0. -1.
    10030    2    1    2    0    0  0.00000000000E+00  0.00000000000E+00 -0.71557186004E+03  0.14708371854E+04  0.12850365517E+04 0.  0.
        1    1    3    3  502    0 -0.60521374235E+03  0.20927933750E+03 -0.29778266982E+03  0.70622661625E+03  0.50400001928E-02 0.  1.
       -1    1    3    3    0  502  0.60521374235E+03 -0.20927933750E+03 -0.41778919022E+03  0.76461056920E+03  0.50400001928E-02 0. -1.
</event>
<event>
 5   0  0.3294720E-03  0.1314788E+04  0.7818609E-02  0.9017920E-01
        2   -1    0    0  501    0  0.00000000000E+00  0.00000000000E+00  0.49121705074E+03  0.49121705074E+03  0.25500000920E-02 0.  1.
       -2   -1    0    0    0  501  0.00000000000E+00  0.00000000000E+00 -0.87978820552E+03  0.87978820552E+03  0.25500000920E-02 0. -1.
    10030    2    1    2    0    0  0.00000000000E+00  0.00000000000E+00 -0.38857115478E+03  0.13710052563E+04  0.13147881466E+04 0.  0.
        5    1    3    3  502    0  0.40005685600E+03 -0.52161344126E+03 -0.18976339146E+03  0.68422094741E+03  0.46999998093E+01 0. -1.
       -5    1    3    3    0  502 -0.40005685600E+03  0.52161344126E+03 -0.19880776332E+03  0.68678430886E+03  0.46999998093E+01 0.  1.
</event>
<event>
 5   0  0.3259968E-03  0.1647592E+04  0.7818609E-02  0.8791832E-01
        2   -1    0    0  501    0  0.00000000000E+00  0.00000000000E+00  0.99321528327E+03  0.99321528327E+03  0.25500000920E-02 0. -1.
       -2   -1    0    0    0  501  0.00000000000E+00  0.00000000000E+00 -0.68327554963E+03  0.68327554963E+03  0.25500000920E-02 0.  1.
    10030    2    1    2    0    0  0.00000000000E+00  0.00000000000E+00  0.30993973364E+03  0.16764908329E+04  0.16475918409E+04 0.  0.
        4    1    3    3  502    0 -0.80788294531E+03  0.15557936226E+03  0.11230210951E+03  0.83035725323E+03  0.12699999809E+01 0.  1.
       -4    1    3    3    0  502  0.80788294531E+03 -0.15557936226E+03  0.19763762413E+03  0.84613357968E+03  0.12699999809E+01 0. -1.
</event>
<event>
 5   0  0.1873488E-03  0.1300747E+04  0.7818609E-02  0.9028973E-01
        1   -1    0    0  501    0  0.00000000000E+00  0.00000000000E+00  0.17137191746E+04  0.17137191747E+04  0.50400001928E-02 0. -1.
       -1   -1    0    0    0  501  0.00000000000E+00  0.00000000000E+00 -0.24682331960E+03  0.24682331965E+03  0.50400001928E-02 0.  1.
    10030    2    1    2    0    0  0.00000000000E+00  0.00000000000E+00  0.14668958551E+04  0.19605424943E+04  0.13007472554E+04 0.  0.
        3    1    3    3  502    0 -0.80275025963E+02 -0.25114535176E+03 -0.16265574377E+03  0.30979827095E+03  0.10100000352E+00 0.  1.
       -3    1    3    3    0  502  0.80275025963E+02  0.25114535176E+03  0.16295515988E+04  0.16507442233E+04  0.10100000352E+00 0. -1.
</event>
<event>
 5   0  0.1873488E-03  0.1387716E+04  0.7818609E-02  0.8962759E-01
       -1   -1    0    0    0  501  0.00000000000E+00  0.00000000000E+00  0.21434124304E+04  0.21434124305E+04  0.50400001928E-02 0.  1.
        1   -1    0    0  501    0  0.00000000000E+00  0.00000000000E+00 -0.22461314498E+03  0.22461314504E+03  0.50400001928E-02 0. -1.
    10030    2    1    2    0    0  0.00000000000E+00  0.00000000000E+00  0.19187992855E+04  0.23680255755E+04  0.13877155430E+04 0.  0.
        3    1    3    3  502    0  0.31786950167E+03  0.19023662310E+03  0.19605427603E+04  0.19952340510E+04  0.10100000352E+00 0.  1.
       -3    1    3    3    0  502 -0.31786950167E+03 -0.19023662310E+03 -0.41743474875E+02  0.37279152452E+03  0.10100000352E+00 0. -1.
</event>
<event>
 5   0  0.3262927E-03  0.1325253E+04  0.7818609E-02  0.9009776E-01
        2   -1    0    0  501    0  0.00000000000E+00  0.00000000000E+00  0.86553703297E+03  0.86553703298E+03  0.25500000920E-02 0.  1.
       -2   -1    0    0    0  501  0.00000000000E+00  0.00000000000E+00 -0.50728461977E+03  0.50728461977E+03  0.25500000920E-02 0. -1.
    10030    2    1    2    0    0  0.00000000000E+00  0.00000000000E+00  0.35825241321E+03  0.13728216528E+04  0.13252526169E+04 0.  0.
        3    1    3    3  502    0 -0.18586169093E+03 -0.25021355766E+02  0.83747186767E+03  0.85821312956E+03  0.10100000352E+00 0.  1.
       -3    1    3    3    0  502  0.18586169093E+03  0.25021355766E+02 -0.47921945447E+03  0.51460852319E+03  0.10100000352E+00 0. -1.
</event>
<event>
 5   0  0.3259968E-03  0.1287972E+04  0.7818609E-02  0.9039158E-01
        2   -1    0    0  501    0  0.00000000000E+00  0.00000000000E+00  0.11512979376E+04  0.11512979376E+04  0.25500000920E-02 0.  1.
       -2   -1    0    0    0  501  0.00000000000E+00  0.00000000000E+00 -0.36021772232E+03  0.36021772233E+03  0.25500000920E-02 0. -1.
    10030    2    1    2    0    0  0.00000000000E+00  0.00000000000E+00  0.79108021528E+03  0.15115156599E+04  0.12879719264E+04 0.  0.
        4    1    3    3  502    0  0.35798981060E+03  0.39445566224E+03  0.82024060868E+03  0.97803284352E+03  0.12699999809E+01 0.  1.
       -4    1    3    3    0  502 -0.35798981060E+03 -0.39445566224E+03 -0.29160393398E+02  0.53348281641E+03  0.12699999809E+01 0. -1.
</event>
<event>
 5   0  0.1823154E-03  0.1269197E+04  0.7818609E-02  0.9054355E-01
       -1   -1    0    0    0  501  0.00000000000E+00  0.00000000000E+00  0.53383538907E+03  0.53383538909E+03  0.50400001928E-02 0.  1.
        1   -1    0    0  501    0  0.00000000000E+00  0.00000000000E+00 -0.75438146701E+03  0.75438146703E+03  0.50400001928E-02 0. -1.
    10030    2    1    2    0    0  0.00000000000E+00  0.00000000000E+00 -0.22054607794E+03  0.12882168561E+04  0.12691974220E+04 0.  0.
        2    1    3    3  502    0 -0.37183913707E+02 -0.19291930342E+03 -0.72273496409E+03  0.74896350338E+03  0.25500000920E-02 0. -1.
       -2    1    3    3    0  502  0.37183913707E+02  0.19291930342E+03  0.50218888615E+03  0.53925335274E+03  0.25500000920E-02 0.  1.
</event>
<event>
 5   0  0.1857986E-03  0.1292529E+04  0.7818609E-02  0.9035511E-01
        1   -1    0    0  501    0  0.00000000000E+00  0.00000000000E+00  0.79762474620E+03  0.79762474622E+03  0.50400001928E-02 0. -1.
       -1   -1    0    0    0  501  0.00000000000E+00  0.00000000000E+00 -0.52362715985E+03  0.52362715987E+03  0.50400001928E-02 0.  1.
    10030    2    1    2    0    0  0.00000000000E+00  0.00000000000E+00  0.27399758636E+03  0.13212519061E+04  0.12925292732E+04 0.  0.
        1    1    3    3  502    0 -0.26298442659E+03  0.59033308038E+03  0.13904988626E+03  0.66105130309E+03  0.50400001928E-02 0. -1.
       -1    1    3    3    0  502  0.26298442659E+03 -0.59033308038E+03  0.13494770010E+03  0.66020060300E+03  0.50400001928E-02 0.  1.
</event>
<event>
 5   0  0.1823154E-03  0.1289264E+04  0.7818609E-02  0.9038123E-01
       -1   -1    0    0    0  501  0.00000000000E+00  0.00000000000E+00  0.77013731581E+03  0.77013731583E+03  0.50400001928E-02 0.  1.
        1   -1    0    0  501    0  0.00000000000E+00  0.00000000000E+00 -0.53957941976E+03  0.53957941978E+03  0.50400001928E-02 0. -1.
    10030    2    1    2    0    0  0.00000000000E+00  0.00000000000E+00  0.23055789606E+03  0.13097167356E+04  0.12892637372E+04 0.  0.
        2    1    3    3  502    0  0.10018028324E+03  0.25473395263E+03  0.70816839842E+03  0.75922852706E+03  0.25500000920E-02 0.  1.
       -2    1    3    3    0  502 -0.10018028324E+03 -0.25473395263E+03 -0.47761050237E+03  0.55048820855E+03  0.25500000920E-02 0. -1.
</event>
<event>
 5   0  0.1254125E-03  0.1436556E+04  0.7818609E-02  0.8927774E-01
       -3   -1    0    0    0  501  0.00000000000E+00  0.00000000000E+00  0.23834391085E+04  0.23834391106E+04  0.10100000352E+00 0.  1.
        3   -1    0    0  501    0  0.00000000000E+00  0.00000000000E+00 -0.21646166862E+03  0.21646169219E+03  0.10100000352E+00 0. -1.
    10030    2    1    2    0    0  0.00000000000E+00  0.00000000000E+00  0.21669774399E+04  0.25999008028E+04  0.14365559368E+04 0.  0.
        3    1    3    3  502    0  0.71091832249E+03 -0.53111933263E+02  0.12422734852E+04  0.14322950677E+04  0.10100000352E+00 0.  1.
       -3    1    3    3    0  502 -0.71091832249E+03  0.53111933263E+02  0.92470395469E+03  0.11676057351E+04  0.10100000352E+00 0. -1.
</event>
<event>
 5   0  0.3259968E-03  0.1229644E+04  0.7818609E-02  0.9087297E-01
       -2   -1    0    0    0  501  0.00000000000E+00  0.00000000000E+00  0.61080084589E+03  0.61080084589E+03  0.25500000920E-02 0. -1.
        2   -1    0    0  501    0  0.00000000000E+00  0.00000000000E+00 -0.61886998571E+03  0.61886998572E+03  0.25500000920E-02 0.  1.
    10030    2    1    2    0    0  0.00000000000E+00  0.00000000000E+00 -0.80691398270E+01  0.12296708316E+04  0.12296443563E+04 0.  0.
        4    1    3    3  502    0 -0.17339911514E+03 -0.27858938441E+02 -0.59325123108E+03  0.61870187462E+03  0.12699999809E+01 0.  1.
       -4    1    3    3    0  502  0.17339911514E+03  0.27858938441E+02  0.58518209125E+03  0.61096895699E+03  0.12699999809E+01 0. -1.
</event>
<event>
 5   0  0.3259968E-03  0.1328372E+04  0.7818609E-02  0.9007364E-01
        2   -1    0    0  501    0  0.00000000000E+00  0.00000000000E+00  0.65692938756E+03  0.65692938757E+03  0.25500000920E-02 0. -1.
       -2   -1    0    0    0  501  0.00000000000E+00  0.00000000000E+00 -0.67152272628E+03  0.67152272629E+03  0.25500000920E-02 0.  1.
    10030    2    1    2    0    0  0.00000000000E+00  0.00000000000E+00 -0.14593338720E+02  0.13284521139E+04  0.13283719559E+04 0.  0.
        4    1    3    3  502    0  0.46646010261E+03  0.18287588449E+02  0.46519552927E+03  0.65903562618E+03  0.12699999809E+01 0. -1.
       -4    1    3    3    0  502 -0.46646010261E+03 -0.18287588449E+02 -0.47978886799E+03  0.66941648767E+03  0.12699999809E+01 0.  1.
</event>
<event>
 5   0  0.3294720E-03  0.1241246E+04  0.7818609E-02  0.9077501E-01
        2   -1    0    0  501    0  0.00000000000E+00  0.00000000000E+00  0.11355240629E+04  0.11355240629E+04  0.25500000920E-02 0.  1.
       -2   -1    0    0    0  501  0.00000000000E+00  0.00000000000E+00 -0.33920272705E+03  0.33920272706E+03  0.25500000920E-02 0. -1.
    10030    2    1    2    0    0  0.00000000000E+00  0.00000000000E+00  0.79632133586E+03  0.14747267900E+04  0.12412459205E+04 0.  0.
        5    1    3    3  502    0 -0.13320534144E+03 -0.58465043805E+03  0.20809786985E+03  0.63473349615E+03  0.46999998093E+01 0.  1.
       -5    1    3    3    0  502  0.13320534144E+03  0.58465043805E+03  0.58822346601E+03  0.83999329382E+03  0.46999998093E+01 0. -1.
</event>
<event>
 5   0  0.1873488E-03  0.1100329E+04  0.7818609E-02  0.9204871E-01
        1   -1    0    0  501    0  0.00000000000E+00  0.00000000000E+00  0.37756508846E+03  0.37756508849E+03  0.50400001928E-02 0.  1.
       -1   -1    0    0    0  501  0.00000000000E+00  0.00000000000E+00 -0.80166554571E+03  0.80166554572E+03  0.50400001928E-02 0. -1.
    10030    2    1    2    0    0  0.00000000000E+00  0.00000000000E+00 -0.42410045725E+03  0.11792306342E+04  0.11003289012E+04 0.  0.
        3    1    3    3  502    0  0.73484868560E+02  0.44070668837E+03 -0.55609752081E+03  0.71334905476E+03  0.10100000352E+00 0. -1.
       -3    1    3    3    0  502 -0.73484868560E+02 -0.44070668837E+03  0.13199706356E+03  0.46588157945E+03  0.10100000352E+00 0.  1.
</event>
<event>
 5   0  0.1823154E-03  0.1297841E+04  0.7818609E-02  0.9031279E-01
        1   -1    0    0  501    0  0.00000000000E+00  0.00000000000E+00  0.62972597237E+03  0.62972597239E+03  0.50400001928E-02 0. -1.
       -1   -1    0    0    0  501  0.00000000000E+00  0.00000000000E+00 -0.66870033933E+03  0.66870033935E+03  0.50400001928E-02 0.  1.
    10030    2    1    2    0    0  0.00000000000E+00  0.00000000000E+00 -0.38974366962E+02  0.12984263117E+04  0.12978412406E+04 0.  0.
        2    1    3    3  502    0 -0.27572212007E+03  0.42576278134E+03 -0.42439341415E+03  0.66136707163E+03  0.25500000920E-02 0. -1.
       -2    1    3    3    0  502  0.27572212007E+03 -0.42576278134E+03  0.38541904718E+03  0.63705924011E+03  0.25500000920E-02 0.  1.
</event>
<event>
 5   0  0.3336609E-03  0.1296730E+04  0.7818609E-02  0.9032162E-01
       -2   -1    0    0    0  501  0.00000000000E+00  0.00000000000E+00  0.23429570567E+03  0.23429570569E+03  0.25500000920E-02 0. -1.
        2   -1    0    0  501    0  0.00000000000E+00  0.00000000000E+00 -0.17942171224E+04  0.17942171224E+04  0.25500000920E-02 0.  1.
    10030    2    1    2    0    0  0.00000000000E+00  0.00000000000E+00 -0.15599214168E+04  0.20285128281E+04  0.12967302986E+04 0.  0.
        1    1    3    3  502    0 -0.49812855670E+03 -0.92737625188E+02 -0.14127797290E+04  0.15008926973E+04  0.50400001928E-02 0.  1.
       -1    1    3    3    0  502  0.49812855670E+03  0.92737625188E+02 -0.14714168774E+03  0.52762013079E+03  0.50400001928E-02 0. -1.
</event>
<event>
 5   0  0.1803959E-03  0.1298901E+04  0.7818609E-02  0.9030437E-01
        1   -1    0    0  501    0  0.00000000000E+00  0.00000000000E+00  0.52181974476E+03  0.52181974479E+03  0.50400001928E-02 0. -1.
       -1   -1    0    0    0  501  0.00000000000E+00  0.00000000000E+00 -0.80829836904E+03  0.80829836906E+03  0.50400001928E-02 0.  1.
    10030    2    1    2    0    0  0.00000000000E+00  0.00000000000E+00 -0.28647862428E+03  0.13301181138E+04  0.12989011489E+04 0.  0.
        4    1    3    3  502    0  0.38607710476E+03  0.36812427131E+03  0.23608651249E+03  0.58336049252E+03  0.12699999809E+01 0. -1.
       -4    1    3    3    0  502 -0.38607710476E+03 -0.36812427131E+03 -0.52256513677E+03  0.74675762133E+03  0.12699999809E+01 0.  1.
</event>
<event>
 5   0  0.3259968E-03  0.1373126E+04  0.7818609E-02  0.8973504E-01
        2   -1    0    0  501    0  0.00000000000E+00  0.00000000000E+00  0.10317189437E+04  0.10317189437E+04  0.25500000920E-02 0. -1.
       -2   -1    0    0    0  501  0.00000000000E+00  0.00000000000E+00 -0.45687700004E+03  0.45687700005E+03  0.25500000920E-02 0.  1.
    10030    2    1    2    0    0  0.00000000000E+00  0.00000000000E+00  0.57484194361E+03  0.14885959437E+04  0.13731258586E+04 0.  0.
        4    1    3    3  502    0 -0.11464387313E+03  0.64848867580E+03  0.76966566563E+02  0.66302808806E+03  0.12699999809E+01 0. -1.
       -4    1    3    3    0  502  0.11464387313E+03 -0.64848867580E+03  0.49787537705E+03  0.82556785564E+03  0.12699999809E+01 0.  1.
</event>
<event>
 5   0  0.1254125E-03  0.1295495E+04  0.7818609E-02  0.9033145E-01
        3   -1    0    0  501    0  0.00000000000E+00  0.00000000000E+00  0.32648139192E+03  0.32648140754E+03  0.10100000352E+00 0.  1.
       -3   -1    0    0    0  501  0.00000000000E+00  0.00000000000E+00 -0.12851472352E+04  0.12851472392E+04  0.10100000352E+00 0. -1.
    10030    2    1    2    0    0  0.00000000000E+00  0.00000000000E+00 -0.95866584326E+03  0.16116286467E+04  0.12954947687E+04 0.  0.
        4    1    3    3  502    0 -0.94979205808E+02 -0.58696222091E+03 -0.15966587573E+03  0.61566265364E+03  0.12699999809E+01 0.  1.
       -4    1    3    3    0  502  0.94979205808E+02  0.58696222091E+03 -0.79899996753E+03  0.99596599306E+03  0.12699999809E+01 0. -1.
</event>
<event>
 5   0  0.3299104E-03  0.1315925E+04  0.7818609E-02  0.9017031E-01
       -2   -1    0    0    0  501  0.00000000000E+00  0.00000000000E+00  0.40598760034E+03  0.40598760035E+03  0.25500000920E-02 0. -1.
        2   -1    0    0  501    0  0.00000000000E+00  0.00000000000E+00 -0.10663254101E+04  0.10663254101E+04  0.25500000920E-02 0.  1.
    10030    2    1    2    0    0  0.00000000000E+00  0.00000000000E+00 -0.66033780972E+03  0.14723130104E+04  0.13159253694E+04 0.  0.
        2    1    3    3  502    0 -0.11818615188E+03 -0.53645322187E+03 -0.73537657228E+03  0.91789363698E+03  0.25500000920E-02 0.  1.
       -2    1    3    3    0  502  0.11818615188E+03  0.53645322187E+03  0.75038762556E+02  0.55441937344E+03  0.25500000920E-02 0. -1.
</event>
<event>
 5   0  0.1803959E-03  0.1296991E+04  0.7818609E-02  0.9031955E-01
       -1   -1    0    0    0  501  0.00000000000E+00  0.00000000000E+00  0.36448623425E+03  0.36448623428E+03  0.50400001928E-02 0. -1.
        1   -1    0    0  501    0  0.00000000000E+00  0.00000000000E+00 -0.11538058763E+04  0.11538058764E+04  0.50400001928E-02 0.  1.
    10030    2    1    2    0    0  0.00000000000E+00  0.00000000000E+00 -0.78931964210E+03  0.15182921106E+04  0.12969909159E+04 0.  0.
        4    1    3    3  502    0  0.41305871196E+02 -0.10980901219E+03  0.35195824027E+03  0.37099920478E+03  0.12699999809E+01 0. -1.
       -4    1    3    3    0  502 -0.41305871196E+02  0.10980901219E+03 -0.11412778824E+04  0.11472929059E+04  0.12699999809E+01 0.  1.
</event>
<event>
 5   0  0.3259968E-03  0.1412140E+04  0.7818609E-02  0.8945078E-01
       -2   -1    0    0    0  501  0.00000000000E+00  0.00000000000E+00  0.62241109802E+03  0.62241109802E+03  0.25500000920E-02 0. -1.
        2   -1    0    0  501    0  0.00000000000E+00  0.00000000000E+00 -0.80097340366E+03  0.80097340367E+03  0.25500000920E-02 0.  1.
    10030    2    1    2    0    0  0.00000000000E+00  0.00000000000E+00 -0.17856230564E+03  0.14233845017E+04  0.14121398453E+04 0.  0.
        4    1    3    3  502    0 -0.18801733943E+03 -0.22128325644E+03 -0.73800241157E+03  0.79307374934E+03  0.12699999809E+01 0.  1.
       -4    1    3    3    0  502  0.18801733943E+03  0.22128325644E+03  0.55944010593E+03  0.63031075235E+03  0.12699999809E+01 0. -1.
</event>
<event>
 5   0  0.1873488E-03  0.1292484E+04  0.7818609E-02  0.9035547E-01
        1   -1    0    0  501    0  0.00000000000E+00  0.00000000000E+00  0.83684173061E+03  0.83684173063E+03  0.50400001928E-02 0. -1.
       -1   -1    0    0    0  501  0.00000000000E+00  0.00000000000E+00 -0.49905353035E+03  0.49905353038E+03  0.50400001928E-02 0.  1.
    10030    2    1    2    0    0  0.00000000000E+00  0.00000000000E+00  0.33778820026E+03  0.13358952610E+04  0.12924841508E+04 0.  0.
        3    1    3    3  502    0 -0.22887441791E+03 -0.36026655923E+03 -0.33263898689E+03  0.54113233010E+03  0.10100000352E+00 0.  1.
       -3    1    3    3    0  502  0.22887441791E+03  0.36026655923E+03  0.67042718715E+03  0.79476293091E+03  0.10100000352E+00 0. -1.
</event>
<event>
 5   0  0.3294720E-03  0.1363485E+04  0.7818609E-02  0.8980682E-01
        2   -1    0    0  501    0  0.00000000000E+00  0.00000000000E+00  0.46800056661E+03  0.46800056661E+03  0.25500000920E-02 0.  1.
       -2   -1    0    0    0  501  0.00000000000E+00  0.00000000000E+00 -0.99310330326E+03  0.99310330326E+03  0.25500000920E-02 0. -1.
    10030    2    1    2    0    0  0.00000000000E+00  0.00000000000E+00 -0.52510273665E+03  0.14611038699E+04  0.13634851061E+04 0.  0.
        5    1    3    3  502    0 -0.36432408698E+01  0.67081268204E+03 -0.13241590789E+03  0.68378285314E+03  0.46999998093E+01 0.  1.
       -5    1    3    3    0  502  0.36432408698E+01 -0.67081268204E+03 -0.39268682876E+03  0.77732101674E+03  0.46999998093E+01 0. -1.
</event>
<event>
 5   0  0.3294720E-03  0.1296120E+04  0.7818609E-02  0.9032648E-01
       -2   -1    0    0    0  501  0.00000000000E+00  0.00000000000E+00  0.63320991331E+03  0.63320991332E+03  0.25500000920E-02 0. -1.
        2   -1    0    0  501    0  0.00000000000E+00  0.00000000000E+00 -0.66325840492E+03  0.66325840493E+03  0.25500000920E-02 0.  1.
    10030    2    1    2    0    0  0.00000000000E+00  0.00000000000E+00 -0.30048491609E+02  0.12964683182E+04  0.12961200517E+04 0.  0.
        5    1    3    3  502    0  0.35217627828E+03 -0.18683341730E+02  0.52879684226E+03  0.63562991483E+03  0.46999998093E+01 0. -1.
       -5    1    3    3    0  502 -0.35217627828E+03  0.18683341730E+02 -0.55884533387E+03  0.66083840341E+03  0.46999998093E+01 0.  1.
</event>
<event>
 5   0  0.3336609E-03  0.1306110E+04  0.7818609E-02  0.9024734E-01
        2   -1    0    0  501    0  0.00000000000E+00  0.00000000000E+00  0.12369980719E+04  0.12369980719E+04  0.25500000920E-02 0. -1.
       -2   -1    0    0    0  501  0.00000000000E+00  0.00000000000E+00 -0.34477078803E+03  0.34477078804E+03  0.25500000920E-02 0.  1.
    10030    2    1    2    0    0  0.00000000000E+00  0.00000000000E+00  0.89222728391E+03  0.15817688600E+04  0.13061099495E+04 0.  0.
        1    1    3    3  502    0 -0.42284897648E+03 -0.45532838159E+03  0.20282869888E+03  0.65365485779E+03  0.50400001928E-02 0.  1.
       -1    1    3    3    0  502  0.42284897648E+03  0.45532838159E+03  0.68939858503E+03  0.92811400219E+03  0.50400001928E-02 0. -1.
</event>
<event>
 5   0  0.1823154E-03  0.1323380E+04  0.7818609E-02  0.9011227E-01
       -1   -1    0    0    0  501  0.00000000000E+00  0.00000000000E+00  0.37535760796E+03  0.37535760799E+03  0.50400001928E-02 0. -1.
        1   -1    0    0  501    0  0.00000000000E+00  0.00000000000E+00 -0.11664447602E+04  0.11664447602E+04  0.50400001928E-02 0.  1.
    10030    2    1    2    0    0  0.00000000000E+00  0.00000000000E+00 -0.79108715222E+03  0.15418023682E+04  0.13233803913E+04 0.  0.
        2    1    3    3  502    0  0.16963493915E+03 -0.34529513047E+03  0.23166944174E+03  0.44908292102E+03  0.25500000920E-02 0. -1.
       -2    1    3    3    0  502 -0.16963493915E+03  0.34529513047E+03 -0.10227565940E+04  0.10927194472E+04  0.25500000920E-02 0.  1.
</event>
<event>
 5   0  0.1873488E-03  0.1300928E+04  0.7818609E-02  0.9028830E-01
       -1   -1    0    0    0  501  0.00000000000E+00  0.00000000000E+00  0.29347369095E+03  0.29347369100E+03  0.50400001928E-02 0. -1.
        1   -1    0    0  501    0  0.00000000000E+00  0.00000000000E+00 -0.14417082629E+04  0.14417082629E+04  0.50400001928E-02 0.  1.
    10030    2    1    2    0    0  0.00000000000E+00  0.00000000000E+00 -0.11482345720E+04  0.17351819539E+04  0.13009280460E+04 0.  0.
        3    1    3    3  502    0  0.33179935867E+03  0.95011866097E+02  0.16127333088E+03  0.38095559658E+03  0.10100000352E+00 0. -1.
       -3    1    3    3    0  502 -0.33179935867E+03 -0.95011866097E+02 -0.13095079028E+04  0.13542263573E+04  0.10100000352E+00 0.  1.
</event>
<event>
 5   0  0.1857986E-03  0.1306979E+04  0.7818609E-02  0.9024049E-01
       -1   -1    0    0    0  501  0.00000000000E+00  0.00000000000E+00  0.54664722423E+03  0.54664722425E+03  0.50400001928E-02 0.  1.
        1   -1    0    0  501    0  0.00000000000E+00  0.00000000000E+00 -0.78121435946E+03  0.78121435947E+03  0.50400001928E-02 0. -1.
    10030    2    1    2    0    0  0.00000000000E+00  0.00000000000E+00 -0.23456713523E+03  0.13278615837E+04  0.13069792059E+04 0.  0.
        1    1    3    3  502    0 -0.16179494309E+03 -0.18775451359E+03 -0.73160926885E+03  0.77245160578E+03  0.50400001928E-02 0. -1.
       -1    1    3    3    0  502  0.16179494309E+03  0.18775451359E+03  0.49704213362E+03  0.55540997795E+03  0.50400001928E-02 0.  1.
</event>
<event>
 5   0  0.3259968E-03  0.1249102E+04  0.7818609E-02  0.9070931E-01
        2   -1    0    0  501    0  0.00000000000E+00  0.00000000000E+00  0.53203123539E+03  0.53203123540E+03  0.25500000920E-02 0.  1.
       -2   -1    0    0    0  501  0.00000000000E+00  0.00000000000E+00 -0.73315937358E+03  0.73315937359E+03  0.25500000920E-02 0. -1.
    10030    2    1    2    0    0  0.00000000000E+00  0.00000000000E+00 -0.20112813819E+03  0.12651906090E+04  0.12491015768E+04 0.  0.
        4    1    3    3  502    0 -0.38126816576E+03  0.31754049293E+03  0.28361643184E+03  0.57152189126E+03  0.12699999809E+01 0.  1.
       -4    1    3    3    0  502  0.38126816576E+03 -0.31754049293E+03 -0.48474457003E+03  0.69366871773E+03  0.12699999809E+01 0. -1.
</event>
<event>
 5   0  0.1814770E-03  0.1314380E+04  0.7818609E-02  0.9018239E-01
       -1   -1    0    0    0  501  0.00000000000E+00  0.00000000000E+00  0.28677883830E+03  0.28677883835E+03  0.50400001928E-02 0.  1.
        1   -1    0    0  501    0  0.00000000000E+00  0.00000000000E+00 -0.15060342092E+04  0.15060342092E+04  0.50400001928E-02 0. -1.
    10030    2    1    2    0    0  0.00000000000E+00  0.00000000000E+00 -0.12192553709E+04  0.17928130475E+04  0.13143800683E+04 0.  0.
        5    1    3    3  502    0  0.38206266132E+02  0.48229143924E+03 -0.29748293773E+01  0.48383436292E+03  0.46999998093E+01 0.  1.
       -5    1    3    3    0  502 -0.38206266132E+02 -0.48229143924E+03 -0.12162805415E+04  0.13089786846E+04  0.46999998093E+01 0. -1.
</event>
<event>
 5   0  0.1803959E-03  0.1305166E+04  0.7818609E-02  0.9025479E-01
        1   -1    0    0  501    0  0.00000000000E+00  0.00000000000E+00  0.13053202724E+04  0.13053202724E+04  0.50400001928E-02 0.  1.
       -1   -1    0    0    0  501  0.00000000000E+00  0.00000000000E+00 -0.32625278696E+03  0.32625278700E+03  0.50400001928E-02 0. -1.
    10030    2    1    2    0    0  0.00000000000E+00  0.00000000000E+00  0.97906748547E+03  0.16315730594E+04  0.13051657011E+04 0.  0.
        4    1    3    3  502    0  0.36434126266E+03 -0.53842324936E+03  0.41861267939E+03  0.77322851692E+03  0.12699999809E+01 0. -1.
       -4    1    3    3    0  502 -0.36434126266E+03  0.53842324936E+03  0.56045480607E+03  0.85834454252E+03  0.12699999809E+01 0.  1.
</event>
<event>
 5   0  0.1823154E-03  0.1238007E+04  0.7818609E-02  0.9080225E-01
       -1   -1    0    0    0  501  0.00000000000E+00  0.00000000000E+00  0.38369846122E+03  0.38369846125E+03  0.50400001928E-02 0. -1.
        1   -1    0    0  501    0  0.00000000000E+00  0.00000000000E+00 -0.99861033668E+03  0.99861033669E+03  0.50400001928E-02 0.  1.
    10030    2    1    2    0    0  0.00000000000E+00  0.00000000000E+00 -0.61491187547E+03  0.13823087979E+04  0.12380068652E+04 0.  0.
        2    1    3    3  502    0  0.53965393362E+03  0.33305549196E+02  0.29052355827E+02  0.54146067915E+03  0.25500000920E-02 0. -1.
       -2    1    3    3    0  502 -0.53965393362E+03 -0.33305549196E+02 -0.64396423129E+03  0.84084811879E+03  0.25500000920E-02 0.  1.
</event>
<event>
 5   0  0.3262927E-03  0.1289354E+04  0.7818609E-02  0.9038050E-01
        2   -1    0    0  501    0  0.00000000000E+00  0.00000000000E+00  0.78046041698E+03  0.78046041699E+03  0.25500000920E-02 0. -1.
       -2   -1    0    0    0  501  0.00000000000E+00  0.00000000000E+00 -0.53251730411E+03  0.53251730412E+03  0.25500000920E-02 0.  1.
    10030    2    1    2    0    0  0.00000000000E+00  0.00000000000E+00  0.24794311287E+03  0.13129777211E+04  0.12893543768E+04 0.  0.
        3    1    3    3  502    0 -0.60186515003E+02  0.14668748136E+03 -0.51235252128E+03  0.53632522785E+03  0.10100000352E+00 0.  1.
       -3    1    3    3    0  502  0.60186515003E+02 -0.14668748136E+03  0.76029563414E+03  0.77665249325E+03  0.10100000352E+00 0. -1.
</event>
<event>
 5   0  0.3259968E-03  0.1301708E+04  0.7818609E-02  0.9028212E-01
        2   -1    0    0  501    0  0.00000000000E+00  0.00000000000E+00  0.11244619843E+04  0.11244619843E+04  0.25500000920E-02 0. -1.
       -2   -1    0    0    0  501  0.00000000000E+00  0.00000000000E+00 -0.37672301574E+03  0.37672301575E+03  0.25500000920E-02 0.  1.
    10030    2    1    2    0    0  0.00000000000E+00  0.00000000000E+00  0.74773896852E+03  0.15011850000E+04  0.13017076627E+04 0.  0.
        4    1    3    3  502    0 -0.39613983423E+03  0.48676061772E+03  0.17496792934E+03  0.65151980510E+03  0.12699999809E+01 0.  1.
       -4    1    3    3    0  502  0.39613983423E+03 -0.48676061772E+03  0.57277103918E+03  0.84966519492E+03  0.12699999809E+01 0. -1.
</event>
<event>
 5   0  0.3336609E-03  0.1285227E+04  0.7818609E-02  0.9041363E-01
        2   -1    0    0  501    0  0.00000000000E+00  0.00000000000E+00  0.40652750431E+03  0.40652750432E+03  0.25500000920E-02 0.  1.
       -2   -1    0    0    0  501  0.00000000000E+00  0.00000000000E+00 -0.10158038726E+04  0.10158038726E+04  0.25500000920E-02 0. -1.
    10030    2    1    2    0    0  0.00000000000E+00  0.00000000000E+00 -0.60927636827E+03  0.14223313769E+04  0.12852271600E+04 0.  0.
        1    1    3    3  502    0 -0.55824911880E+02  0.34714696651E+03 -0.89990779082E+03  0.96615809739E+03  0.50400001928E-02 0. -1.
       -1    1    3    3    0  502  0.55824911880E+02 -0.34714696651E+03  0.29063142255E+03  0.45617327951E+03  0.50400001928E-02 0.  1.
</event>
<event>
 5   0  0.3262927E-03  0.1313801E+04  0.7818609E-02  0.9018692E-01
        2   -1    0    0  501    0  0.00000000000E+00  0.00000000000E+00  0.47297274966E+03  0.47297274967E+03  0.25500000920E-02 0. -1.
       -2   -1    0    0    0  501  0.00000000000E+00  0.00000000000E+00 -0.91235373815E+03  0.91235373816E+03  0.25500000920E-02 0.  1.
    10030    2    1    2    0    0  0.00000000000E+00  0.00000000000E+00 -0.43938098849E+03  0.13853264878E+04  0.13138012882E+04 0.  0.
        3    1    3    3  502    0  0.62623874859E+03 -0.14463316530E+03 -0.76563041725E+02  0.64726782116E+03  0.10100000352E+00 0.  1.
       -3    1    3    3    0  502 -0.62623874859E+03  0.14463316530E+03 -0.36281794677E+03  0.73805866667E+03  0.10100000352E+00 0. -1.
</event>
<event>
 5   0  0.1814770E-03  0.1311601E+04  0.7818609E-02  0.9020416E-01
       -1   -1    0    0    0  501  0.00000000000E+00  0.00000000000E+00  0.80042255407E+03  0.80042255409E+03  0.50400001928E-02 0.  1.
        1   -1    0    0  501    0  0.00000000000E+00  0.00000000000E+00 -0.53730921732E+03  0.53730921735E+03  0.50400001928E-02 0. -1.
    10030    2    1    2    0    0  0.00000000000E+00  0.00000000000E+00  0.26311333675E+03  0.13377317714E+04  0.13116011834E+04 0.  0.
        5    1    3    3  502    0 -0.51795596184E+03  0.39300693124E+03  0.21881520789E+03  0.68602843353E+03  0.46999998093E+01 0.  1.
       -5    1    3    3    0  502  0.51795596184E+03 -0.39300693124E+03  0.44298128854E+02  0.65170333790E+03  0.46999998093E+01 0. -1.
</event>
<event>
 5   0  0.1803959E-03  0.1309629E+04  0.7818609E-02  0.9021964E-01
        1   -1    0    0  501    0  0.00000000000E+00  0.00000000000E+00  0.96842246974E+03  0.96842246975E+03  0.50400001928E-02 0.  1.
       -1   -1    0    0    0  501  0.00000000000E+00  0.00000000000E+00 -0.44276343265E+03  0.44276343267E+03  0.50400001928E-02 0. -1.
    10030    2    1    2    0    0  0.00000000000E+00  0.00000000000E+00  0.52565903709E+03  0.14111859024E+04  0.13096290421E+04 0.  0.
        4    1    3    3  502    0  0.52784155427E+02  0.25882266514E+03 -0.38280426019E+03  0.46509789676E+03  0.12699999809E+01 0. -1.
       -4    1    3    3    0  502 -0.52784155427E+02 -0.25882266514E+03  0.90846329728E+03  0.94608800567E+03  0.12699999809E+01 0.  1.
</event>
<event>
 5   0  0.1814770E-03  0.1296022E+04  0.7818609E-02  0.9032726E-01
        1   -1    0    0  501    0  0.00000000000E+00  0.00000000000E+00  0.93628030763E+03  0.93628030764E+03  0.50400001928E-02 0. -1.
       -1   -1    0    0    0  501  0.00000000000E+00  0.00000000000E+00 -0.44849597902E+03  0.44849597904E+03  0.50400001928E-02 0.  1.
    10030    2    1    2    0    0  0.00000000000E+00  0.00000000000E+00  0.48778432861E+03  0.13847762867E+04  0.12960215326E+04 0.  0.
        5    1    3    3  502    0  0.51024203489E+03  0.30440719221E+03  0.52022493061E+03  0.78972573800E+03  0.46999998093E+01 0. -1.
       -5    1    3    3    0  502 -0.51024203489E+03 -0.30440719221E+03 -0.32440601996E+02  0.59505054869E+03  0.46999998093E+01 0.  1.
</event>
<event>
 5   0  0.1857986E-03  0.1303788E+04  0.7818609E-02  0.9026567E-01
        1   -1    0    0  501    0  0.00000000000E+00  0.00000000000E+00  0.20967826686E+04  0.20967826686E+04  0.50400001928E-02 0. -1.
       -1   -1    0    0    0  501  0.00000000000E+00  0.00000000000E+00 -0.20267507758E+03  0.20267507764E+03  0.50400001928E-02 0.  1.
    10030    2    1    2    0    0  0.00000000000E+00  0.00000000000E+00  0.18941075910E+04  0.22994577462E+04  0.13037876976E+04 0.  0.
        1    1    3    3  502    0 -0.54366463907E+03  0.33461391406E+03  0.11798848048E+04  0.13415162555E+04  0.50400001928E-02 0. -1.
       -1    1    3    3    0  502  0.54366463907E+03 -0.33461391406E+03  0.71422278625E+03  0.95794149074E+03  0.50400001928E-02 0.  1.
</event>
<event>
 5   0  0.3259968E-03  0.1294250E+04  0.7818609E-02  0.9034137E-01
        2   -1    0    0  501    0  0.00000000000E+00  0.00000000000E+00  0.66176967522E+03  0.66176967522E+03  0.25500000920E-02 0. -1.
       -2   -1    0    0    0  501  0.00000000000E+00  0.00000000000E+00 -0.63280440255E+03  0.63280440255E+03  0.25500000920E-02 0.  1.
    10030    2    1    2    0    0  0.00000000000E+00  0.00000000000E+00  0.28965272672E+02  0.12945740778E+04  0.12942499974E+04 0.  0.
        4    1    3    3  502    0 -0.47056175473E+03  0.37575707951E+03 -0.22253112992E+03  0.64198400642E+03  0.12699999809E+01 0.  1.
       -4    1    3    3    0  502  0.47056175473E+03 -0.37575707951E+03  0.25149640259E+03  0.65259007135E+03  0.12699999809E+01 0. -1.
</event>
<event>
 5   0  0.3336609E-03  0.1313876E+04  0.7818609E-02  0.9018633E-01
        2   -1    0    0  501    0  0.00000000000E+00  0.00000000000E+00  0.11835048502E+04  0.11835048502E+04  0.25500000920E-02 0. -1.
       -2   -1    0    0    0  501  0.00000000000E+00  0.00000000000E+00 -0.36465207953E+03  0.36465207954E+03  0.25500000920E-02 0.  1.
    10030    2    1    2    0    0  0.00000000000E+00  0.00000000000E+00  0.81885277071E+03  0.15481569298E+04  0.13138759527E+04 0.  0.
        1    1    3    3  502    0  0.53264216396E+03 -0.30299369142E+03  0.68840213347E+03  0.92163460724E+03  0.50400001928E-02 0. -1.
       -1    1    3    3    0  502 -0.53264216396E+03  0.30299369142E+03  0.13045063724E+03  0.62652232255E+03  0.50400001928E-02 0.  1.
</event>
<event>
 5   0  0.3299104E-03  0.1245799E+04  0.7818609E-02  0.9073687E-01
        2   -1    0    0  501    0  0.00000000000E+00  0.00000000000E+00  0.32314504012E+04  0.32314504012E+04  0.25500000920E-02 0.  1.
       -2   -1    0    0    0  501  0.00000000000E+00  0.00000000000E+00 -0.12007101213E+03  0.12007101216E+03  0.25500000920E-02 0. -1.
    10030    2    1    2    0    0  0.00000000000E+00  0.00000000000E+00  0.31113793891E+04  0.33515214134E+04  0.12457985718E+04 0.  0.
        2    1    3    3  502    0  0.35058693122E+03 -0.14271184627E+03  0.28865544310E+04  0.29112667948E+04  0.25500000920E-02 0.  1.
       -2    1    3    3    0  502 -0.35058693122E+03  0.14271184627E+03  0.22482495812E+03  0.44025461861E+03  0.25500000920E-02 0. -1.
</event>
<event>
 5   0  0.1873488E-03  0.1288981E+04  0.7818609E-02  0.9038349E-01
        1   -1    0    0  501    0  0.00000000000E+00  0.00000000000E+00  0.27062515687E+04  0.27062515688E+04  0.50400001928E-02 0.  1.
       -1   -1    0    0    0  501  0.00000000000E+00  0.00000000000E+00 -0.15348468556E+03  0.15348468565E+03  0.50400001928E-02 0. -1.
    10030    2    1    2    0    0  0.00000000000E+00  0.00000000000E+00  0.25527668832E+04  0.28597362544E+04  0.12889812585E+04 0.  0.
        3    1    3    3  502    0 -0.58182961302E+03 -0.25558022605E+03  0.15145212945E+04  0.16424438231E+04  0.10100000352E+00 0.  1.
       -3    1    3    3    0  502  0.58182961302E+03  0.25558022605E+03  0.10382455887E+04  0.12172924313E+04  0.10100000352E+00 0. -1.
</event>
<event>
 5   0  0.3262927E-03  0.1315042E+04  0.7818609E-02  0.9017721E-01
        2   -1    0    0  501    0  0.00000000000E+00  0.00000000000E+00  0.16928489793E+04  0.16928489793E+04  0.25500000920E-02 0. -1.
       -2   -1    0    0    0  501  0.00000000000E+00  0.00000000000E+00 -0.25538834876E+03  0.25538834877E+03  0.25500000920E-02 0.  1.
    10030    2    1    2    0    0  0.00000000000E+00  0.00000000000E+00  0.14374606306E+04  0.19482373281E+04  0.13150420610E+04 0.  0.
        3    1    3    3  502    0  0.74361455270E+02  0.39862362099E+02 -0.24733532968E+03  0.26133007759E+03  0.10100000352E+00 0.  1.
       -3    1    3    3    0  502 -0.74361455270E+02 -0.39862362099E+02  0.16847959603E+04  0.16869072505E+04  0.10100000352E+00 0. -1.
</event>
<event>
 5   0  0.3294720E-03  0.1301605E+04  0.7818609E-02  0.9028293E-01
       -2   -1    0    0    0  501  0.00000000000E+00  0.00000000000E+00  0.60552378894E+03  0.60552378894E+03  0.25500000920E-02 0.  1.
        2   -1    0    0  501    0  0.00000000000E+00  0.00000000000E+00 -0.69946715684E+03  0.69946715685E+03  0.25500000920E-02 0. -1.
    10030    2    1    2    0    0  0.00000000000E+00  0.00000000000E+00 -0.93943367907E+02  0.13049909458E+04  0.13016051676E+04 0.  0.
        5    1    3    3  502    0 -0.48859526612E+03 -0.10842152935E+03 -0.46403614366E+03  0.68251900685E+03  0.46999998093E+01 0. -1.
       -5    1    3    3    0  502  0.48859526612E+03  0.10842152935E+03  0.37009277575E+03  0.62247193893E+03  0.46999998093E+01 0.  1.
</event>
<event>
 5   0  0.3336609E-03  0.1290941E+04  0.7818609E-02  0.9036780E-01
        2   -1    0    0  501    0  0.00000000000E+00  0.00000000000E+00  0.14507950168E+04  0.14507950168E+04  0.25500000920E-02 0. -1.
       -2   -1    0    0    0  501  0.00000000000E+00  0.00000000000E+00 -0.28717525408E+03  0.28717525409E+03  0.25500000920E-02 0.  1.
    10030    2    1    2    0    0  0.00000000000E+00  0.00000000000E+00  0.11636197627E+04  0.17379702709E+04  0.12909414047E+04 0.  0.
        1    1    3    3  502    0 -0.51649959827E+03  0.66543100016E+02  0.10952227024E+04  0.12127293956E+04  0.50400001928E-02 0. -1.
       -1    1    3    3    0  502  0.51649959827E+03 -0.66543100016E+02  0.68397060341E+02  0.52524087527E+03  0.50400001928E-02 0.  1.
</event>
<event>
 5   0  0.1873488E-03  0.1310651E+04  0.7818609E-02  0.9021161E-01
       -1   -1    0    0    0  501  0.00000000000E+00  0.00000000000E+00  0.74001455657E+03  0.74001455658E+03  0.50400001928E-02 0. -1.
        1   -1    0    0  501    0  0.00000000000E+00  0.00000000000E+00 -0.58032849850E+03  0.58032849853E+03  0.50400001928E-02 0.  1.
    10030    2    1    2    0    0  0.00000000000E+00  0.00000000000E+00  0.15968605806E+03  0.13203430551E+04  0.13106510390E+04 0.  0.
        3    1    3    3  502    0 -0.60380951018E+03 -0.72306081775E+02 -0.16617060565E+03  0.63041793632E+03  0.10100000352E+00 0.  1.
       -3    1    3    3    0  502  0.60380951018E+03  0.72306081775E+02  0.32585666372E+03  0.68992511879E+03  0.10100000352E+00 0. -1.
</event>
<event>
 5   0  0.1803959E-03  0.1292225E+04  0.7818609E-02  0.9035754E-01
        1   -1    0    0  501    0  0.00000000000E+00  0.00000000000E+00  0.13492291741E+04  0.13492291741E+04  0.50400001928E-02 0. -1.
       -1   -1    0    0    0  501  0.00000000000E+00  0.00000000000E+00 -0.30940735193E+03  0.30940735197E+03  0.50400001928E-02 0.  1.
    10030    2    1    2    0    0  0.00000000000E+00  0.00000000000E+00  0.10398218222E+04  0.16586365261E+04  0.12922250980E+04 0.  0.
        4    1    3    3  502    0 -0.50366464230E+03 -0.38726802714E+02  0.10369795487E+04  0.11534756323E+04  0.12699999809E+01 0. -1.
       -4    1    3    3    0  502  0.50366464230E+03  0.38726802714E+02  0.28422735114E+01  0.50516089374E+03  0.12699999809E+01 0.  1.
</event>
<event>
 5   0  0.1873488E-03  0.1303217E+04  0.7818609E-02  0.9027018E-01
       -1   -1    0    0    0  501  0.00000000000E+00  0.00000000000E+00  0.65943805456E+03  0.65943805458E+03  0.50400001928E-02 0. -1.
        1   -1    0    0  501    0  0.00000000000E+00  0.00000000000E+00 -0.64387229956E+03  0.64387229957E+03  0.50400001928E-02 0.  1.
    10030    2    1    2    0    0  0.00000000000E+00  0.00000000000E+00  0.15565755001E+02  0.13033103542E+04  0.13032173980E+04 0.  0.
        3    1    3    3  502    0 -0.55837244988E+03  0.33412922120E+03 -0.26450503144E+02  0.65124631942E+03  0.10100000352E+00 0.  1.
       -3    1    3    3    0  502  0.55837244988E+03 -0.33412922120E+03  0.42016258145E+02  0.65206403473E+03  0.10100000352E+00 0. -1.
</event>
<event>
 5   0  0.3259968E-03  0.1249512E+04  0.7818609E-02  0.9070590E-01
       -2   -1    0    0    0  501  0.00000000000E+00  0.00000000000E+00  0.29578937195E+03  0.29578937197E+03  0.25500000920E-02 0. -1.
        2   -1    0    0  501    0  0.00000000000E+00  0.00000000000E+00 -0.13195870011E+04  0.13195870011E+04  0.25500000920E-02 0.  1.
    10030    2    1    2    0    0  0.00000000000E+00  0.00000000000E+00 -0.10237976291E+04  0.16153763731E+04  0.12495116011E+04 0.  0.
        4    1    3    3  502    0 -0.27474755231E+03  0.39698673449E+03  0.73351525310E+00  0.48279067494E+03  0.12699999809E+01 0. -1.
       -4    1    3    3    0  502  0.27474755231E+03 -0.39698673449E+03 -0.10245311444E+04  0.11325856981E+04  0.12699999809E+01 0.  1.
</event>
<event>
 5   0  0.3294720E-03  0.1303438E+04  0.7818609E-02  0.9026843E-01
       -2   -1    0    0    0  501  0.00000000000E+00  0.00000000000E+00  0.43545083800E+03  0.43545083801E+03  0.25500000920E-02 0.  1.
        2   -1    0    0  501    0  0.00000000000E+00  0.00000000000E+00 -0.97539716528E+03  0.97539716528E+03  0.25500000920E-02 0. -1.
    10030    2    1    2    0    0  0.00000000000E+00  0.00000000000E+00 -0.53994632727E+03  0.14108480033E+04  0.13034377822E+04 0.  0.
        5    1    3    3  502    0 -0.16328136228E+03 -0.46255603087E+03 -0.73439510883E+03  0.88316315074E+03  0.46999998093E+01 0. -1.
       -5    1    3    3    0  502  0.16328136228E+03  0.46255603087E+03  0.19444878156E+03  0.52768485254E+03  0.46999998093E+01 0.  1.
</event>
<event>
 5   0  0.3299104E-03  0.1279751E+04  0.7818609E-02  0.9045779E-01
       -2   -1    0    0    0  501  0.00000000000E+00  0.00000000000E+00  0.60214659194E+03  0.60214659194E+03  0.25500000920E-02 0. -1.
        2   -1    0    0  501    0  0.00000000000E+00  0.00000000000E+00 -0.67996795630E+03  0.67996795630E+03  0.25500000920E-02 0.  1.
    10030    2    1    2    0    0  0.00000000000E+00  0.00000000000E+00 -0.77821364361E+02  0.12821145482E+04  0.12797505812E+04 0.  0.
        2    1    3    3  502    0  0.63813898279E+03 -0.41008795885E+02 -0.62133336544E+02  0.64246683511E+03  0.25500000920E-02 0. -1.
       -2    1    3    3    0  502 -0.63813898279E+03  0.41008795885E+02 -0.15688027817E+02  0.63964771314E+03  0.25500000920E-02 0.  1.
</event>
<event>
 5   0  0.3262927E-03  0.1291539E+04  0.7818609E-02  0.9036302E-01
       -2   -1    0    0    0  501  0.00000000000E+00  0.00000000000E+00  0.51246353674E+03  0.51246353675E+03  0.25500000920E-02 0. -1.
        2   -1    0    0  501    0  0.00000000000E+00  0.00000000000E+00 -0.81375247844E+03  0.81375247844E+03  0.25500000920E-02 0.  1.
    10030    2    1    2    0    0  0.00000000000E+00  0.00000000000E+00 -0.30128894170E+03  0.13262160152E+04  0.12915393500E+04 0.  0.
        3    1    3    3  502    0  0.26135489448E+03 -0.30398458912E+03 -0.67050344732E+03  0.78120925133E+03  0.10100000352E+00 0.  1.
       -3    1    3    3    0  502 -0.26135489448E+03  0.30398458912E+03  0.36921450562E+03  0.54500676386E+03  0.10100000352E+00 0. -1.
</event>
<event>
 5   0  0.3299104E-03  0.1299646E+04  0.7818609E-02  0.9029846E-01
        2   -1    0    0  501    0  0.00000000000E+00  0.00000000000E+00  0.92496323230E+03  0.92496323231E+03  0.25500000920E-02 0.  1.
       -2   -1    0    0    0  501  0.00000000000E+00  0.00000000000E+00 -0.45652642509E+03  0.45652642509E+03  0.25500000920E-02 0. -1.
    10030    2    1    2    0    0  0.00000000000E+00  0.00000000000E+00  0.46843680722E+03  0.13814896574E+04  0.12996463485E+04 0.  0.
        2    1    3    3  502    0  0.73459612808E+02  0.33210416418E+03  0.82278394162E+03  0.89031618270E+03  0.25500000920E-02 0.  1.
       -2    1    3    3    0  502 -0.73459612808E+02 -0.33210416418E+03 -0.35434713440E+03  0.49117347470E+03  0.25500000920E-02 0. -1.
</event>
<event>
 5   0  0.3262927E-03  0.1293063E+04  0.7818609E-02  0.9035084E-01
        2   -1    0    0  501    0  0.00000000000E+00  0.00000000000E+00  0.81260844419E+03  0.81260844419E+03  0.25500000920E-02 0. -1.
       -2   -1    0    0    0  501  0.00000000000E+00  0.00000000000E+00 -0.51439668298E+03  0.51439668299E+03  0.25500000920E-02 0.  1.
    10030    2    1    2    0    0  0.00000000000E+00  0.00000000000E+00  0.29821176121E+03  0.13270051272E+04  0.12930631667E+04 0.  0.
        3    1    3    3  502    0  0.43539937319E+03 -0.26816221524E+03 -0.25690443911E+03  0.57226173111E+03  0.10100000352E+00 0.  1.
       -3    1    3    3    0  502 -0.43539937319E+03  0.26816221524E+03  0.55511620032E+03  0.75474339607E+03  0.10100000352E+00 0. -1.
</event>
<event>
 5   0  0.3262927E-03  0.1318318E+04  0.7818609E-02  0.9015164E-01
       -2   -1    0    0    0  501  0.00000000000E+00  0.00000000000E+00  0.46018112072E+03  0.46018112072E+03  0.25500000920E-02 0. -1.
        2   -1    0    0  501    0  0.00000000000E+00  0.00000000000E+00 -0.94417291183E+03  0.94417291183E+03  0.25500000920E-02 0.  1.
    10030    2    1    2    0    0  0.00000000000E+00  0.00000000000E+00 -0.48399179111E+03  0.14043540326E+04  0.13183179415E+04 0.  0.
        3    1    3    3  502    0 -0.12039855060E+03  0.28981966503E+03 -0.85947977276E+03  0.91498455681E+03  0.10100000352E+00 0.  1.
       -3    1    3    3    0  502  0.12039855060E+03 -0.28981966503E+03  0.37548798164E+03  0.48936947574E+03  0.10100000352E+00 0. -1.
</event>
<event>
 5   0  0.3259968E-03  0.1307339E+04  0.7818609E-02  0.9023765E-01
        2   -1    0    0  501    0  0.00000000000E+00  0.00000000000E+00  0.79303010531E+03  0.79303010531E+03  0.25500000920E-02 0. -1.
       -2   -1    0    0    0  501  0.00000000000E+00  0.00000000000E+00 -0.53879906269E+03  0.53879906270E+03  0.25500000920E-02 0.  1.
    10030    2    1    2    0    0  0.00000000000E+00  0.00000000000E+00  0.25423104261E+03  0.13318291680E+04  0.13073390952E+04 0.  0.
        4    1    3    3  502    0  0.13010953882E+03  0.51792790836E+03 -0.25691356478E+03  0.59260779865E+03  0.12699999809E+01 0.  1.
       -4    1    3    3    0  502 -0.13010953882E+03 -0.51792790836E+03  0.51114460739E+03  0.73922136936E+03  0.12699999809E+01 0. -1.
</event>
<event>
 5   0  0.1873488E-03  0.1333860E+04  0.7818609E-02  0.9003136E-01
       -1   -1    0    0    0  501  0.00000000000E+00  0.00000000000E+00  0.90599217302E+03  0.90599217304E+03  0.50400001928E-02 0. -1.
        1   -1    0    0  501    0  0.00000000000E+00  0.00000000000E+00 -0.49094890667E+03  0.49094890669E+03  0.50400001928E-02 0.  1.
    10030    2    1    2    0    0  0.00000000000E+00  0.00000000000E+00  0.41504326636E+03  0.13969410797E+04  0.13338603627E+04 0.  0.
        3    1    3    3  502    0  0.11026752926E+03  0.53640361520E+03 -0.19114880919E+03  0.58002210635E+03  0.10100000352E+00 0.  1.
       -3    1    3    3    0  502 -0.11026752926E+03 -0.53640361520E+03  0.60619207555E+03  0.81691897338E+03  0.10100000352E+00 0. -1.
</event>
<event>
 5   0  0.1823154E-03  0.8271662E+03  0.7818609E-02  0.9521507E-01
       -1   -1    0    0    0  501  0.00000000000E+00  0.00000000000E+00  0.27862082066E+03  0.27862082071E+03  0.50400001928E-02 0.  1.
        1   -1    0    0  501    0  0.00000000000E+00  0.00000000000E+00 -0.61392031065E+03  0.61392031067E+03  0.50400001928E-02 0. -1.
    10030    2    1    2    0    0  0.00000000000E+00  0.00000000000E+00 -0.33529948999E+03  0.89254113138E+03  0.82716620048E+03 0.  0.
        2    1    3    3  502    0  0.26417509315E+03 -0.59391890114E+02 -0.50498423698E+03  0.57299647124E+03  0.25500000920E-02 0. -1.
       -2    1    3    3    0  502 -0.26417509315E+03  0.59391890114E+02  0.16968474699E+03  0.31954466014E+03  0.25500000920E-02 0.  1.
</event>
<event>
 5   0  0.1823154E-03  0.1297126E+04  0.7818609E-02  0.9031847E-01
       -1   -1    0    0    0  501  0.00000000000E+00  0.00000000000E+00  0.35919038500E+03  0.35919038503E+03  0.50400001928E-02 0. -1.
        1   -1    0    0  501    0  0.00000000000E+00  0.00000000000E+00 -0.11710610866E+04  0.11710610866E+04  0.50400001928E-02 0.  1.
    10030    2    1    2    0    0  0.00000000000E+00  0.00000000000E+00 -0.81187070159E+03  0.15302514716E+04  0.12971258730E+04 0.  0.
        2    1    3    3  502    0 -0.41020413815E+03  0.65475401024E+02  0.18165689003E+03  0.45338029159E+03  0.25500000920E-02 0. -1.
       -2    1    3    3    0  502  0.41020413815E+03 -0.65475401024E+02 -0.99352759162E+03  0.10768711800E+04  0.25500000920E-02 0.  1.
</event>
<event>
 5   0  0.1873488E-03  0.1329452E+04  0.7818609E-02  0.9006530E-01
        1   -1    0    0  501    0  0.00000000000E+00  0.00000000000E+00  0.12184047109E+04  0.12184047109E+04  0.50400001928E-02 0.  1.
       -1   -1    0    0    0  501  0.00000000000E+00  0.00000000000E+00 -0.36265529671E+03  0.36265529675E+03  0.50400001928E-02 0. -1.
    10030    2    1    2    0    0  0.00000000000E+00  0.00000000000E+00  0.85574941422E+03  0.15810600077E+04  0.13294524016E+04 0.  0.
        3    1    3    3  502    0  0.46549705242E+03 -0.44753647008E+03  0.24027155044E+03  0.68898971401E+03  0.10100000352E+00 0. -1.
       -3    1    3    3    0  502 -0.46549705242E+03  0.44753647008E+03  0.61547786379E+03  0.89207029368E+03  0.10100000352E+00 0.  1.
</event>
<event>
 5   0  0.3336609E-03  0.1324465E+04  0.7818609E-02  0.9010386E-01
       -2   -1    0    0    0  501  0.00000000000E+00  0.00000000000E+00  0.67069861129E+03  0.67069861130E+03  0.25500000920E-02 0. -1.
        2   -1    0    0  501    0  0.00000000000E+00  0.00000000000E+00 -0.65387292661E+03  0.65387292661E+03  0.25500000920E-02 0.  1.
    10030    2    1    2    0    0  0.00000000000E+00  0.00000000000E+00  0.16825684686E+02  0.13245715379E+04  0.13244646675E+04 0.  0.
        1    1    3    3  502    0 -0.59146841926E+03  0.25917446186E+03 -0.13838241735E+03  0.66042106729E+03  0.50400001928E-02 0. -1.
       -1    1    3    3    0  502  0.59146841926E+03 -0.25917446186E+03  0.15520810204E+03  0.66415047062E+03  0.50400001928E-02 0.  1.
</event>
<event>
 5   0  0.1873488E-03  0.9978853E+03  0.7818609E-02  0.9310867E-01
        1   -1    0    0  501    0  0.00000000000E+00  0.00000000000E+00  0.74897026818E+03  0.74897026820E+03  0.50400001928E-02 0. -1.
       -1   -1    0    0    0  501  0.00000000000E+00  0.00000000000E+00 -0.33238139005E+03  0.33238139008E+03  0.50400001928E-02 0.  1.
    10030    2    1    2    0    0  0.00000000000E+00  0.00000000000E+00  0.41658887813E+03  0.10813516583E+04  0.99788532181E+03 0.  0.
        3    1    3    3  502    0 -0.21575360975E+02 -0.47175701054E+03  0.38276973113E+03  0.60789213720E+03  0.10100000352E+00 0. -1.
       -3    1    3    3    0  502  0.21575360975E+02  0.47175701054E+03  0.33819147004E+02  0.47345952108E+03  0.10100000352E+00 0.  1.
</event>
<event>
 5   0  0.3262927E-03  0.1239134E+04  0.7818609E-02  0.9079276E-01
        2   -1    0    0  501    0  0.00000000000E+00  0.00000000000E+00  0.70027057993E+03  0.70027057994E+03  0.25500000920E-02 0.  1.
       -2   -1    0    0    0  501  0.00000000000E+00  0.00000000000E+00 -0.54816390851E+03  0.54816390852E+03  0.25500000920E-02 0. -1.
    10030    2    1    2    0    0  0.00000000000E+00  0.00000000000E+00  0.15210667142E+03  0.12484344885E+04  0.12391336621E+04 0.  0.
        3    1    3    3  502    0  0.28973775402E+03  0.15446178391E+03  0.60540794715E+03  0.68871271331E+03  0.10100000352E+00 0.  1.
       -3    1    3    3    0  502 -0.28973775402E+03 -0.15446178391E+03 -0.45330127573E+03  0.55972177515E+03  0.10100000352E+00 0. -1.
</event>
<event>
 5   0  0.1857986E-03  0.1296088E+04  0.7818609E-02  0.9032673E-01
       -1   -1    0    0    0  501  0.00000000000E+00  0.00000000000E+00  0.32196181699E+03  0.32196181703E+03  0.50400001928E-02 0. -1.
        1   -1    0    0  501    0  0.00000000000E+00  0.00000000000E+00 -0.13043824236E+04  0.13043824236E+04  0.50400001928E-02 0.  1.
    10030    2    1    2    0    0  0.00000000000E+00  0.00000000000E+00 -0.98242060660E+03  0.16263442406E+04  0.12960884772E+04 0.  0.
        1    1    3    3  502    0 -0.13489848633E+02 -0.36209855410E+03  0.18296701361E+03  0.40592396701E+03  0.50400001928E-02 0. -1.
       -1    1    3    3    0  502  0.13489848633E+02  0.36209855410E+03 -0.11653876202E+04  0.12204202736E+04  0.50400001928E-02 0.  1.
</event>
<event>
 5   0  0.3259968E-03  0.1280476E+04  0.7818609E-02  0.9045192E-01
        2   -1    0    0  501    0  0.00000000000E+00  0.00000000000E+00  0.31884785858E+03  0.31884785859E+03  0.25500000920E-02 0.  1.
       -2   -1    0    0    0  501  0.00000000000E+00  0.00000000000E+00 -0.12855816099E+04  0.12855816099E+04  0.25500000920E-02 0. -1.
    10030    2    1    2    0    0  0.00000000000E+00  0.00000000000E+00 -0.96673375134E+03  0.16044294685E+04  0.12804763853E+04 0.  0.
        4    1    3    3  502    0  0.17414168888E+03 -0.57878184654E+03 -0.74795218775E+03  0.96163810332E+03  0.12699999809E+01 0. -1.
       -4    1    3    3    0  502 -0.17414168888E+03  0.57878184654E+03 -0.21878156359E+03  0.64279136519E+03  0.12699999809E+01 0.  1.
</event>
<event>
 5   0  0.3259968E-03  0.1305332E+04  0.7818609E-02  0.9025348E-01
       -2   -1    0    0    0  501  0.00000000000E+00  0.00000000000E+00  0.60285445728E+03  0.60285445729E+03  0.25500000920E-02 0. -1.
        2   -1    0    0  501    0  0.00000000000E+00  0.00000000000E+00 -0.70659324961E+03  0.70659324962E+03  0.25500000920E-02 0.  1.
    10030    2    1    2    0    0  0.00000000000E+00  0.00000000000E+00 -0.10373879233E+03  0.13094477069E+04  0.13053319731E+04 0.  0.
        4    1    3    3  502    0 -0.51526255676E+03 -0.12816107386E+03 -0.43260596304E+03  0.68488706763E+03  0.12699999809E+01 0.  1.
       -4    1    3    3    0  502  0.51526255676E+03  0.12816107386E+03  0.32886717071E+03  0.62456063927E+03  0.12699999809E+01 0. -1.
</event>
<event>
 5   0  0.1814770E-03  0.1299338E+04  0.7818609E-02  0.9030090E-01
        1   -1    0    0  501    0  0.00000000000E+00  0.00000000000E+00  0.85598882773E+03  0.85598882774E+03  0.50400001928E-02 0.  1.
       -1   -1    0    0    0  501  0.00000000000E+00  0.00000000000E+00 -0.49307878588E+03  0.49307878591E+03  0.50400001928E-02 0. -1.
    10030    2    1    2    0    0  0.00000000000E+00  0.00000000000E+00  0.36291004184E+03  0.13490676137E+04  0.12993381884E+04 0.  0.
        5    1    3    3  502    0  0.43040171617E+03  0.40557085947E+03 -0.97750598802E+02  0.59942524880E+03  0.46999998093E+01 0. -1.
       -5    1    3    3    0  502 -0.43040171617E+03 -0.40557085947E+03  0.46066064064E+03  0.74964236485E+03  0.46999998093E+01 0.  1.
</event>
<event>
 5   0  0.1873488E-03  0.1222480E+04  0.7818609E-02  0.9093404E-01
        1   -1    0    0  501    0  0.00000000000E+00  0.00000000000E+00  0.69287242798E+03  0.69287242800E+03  0.50400001928E-02 0.  1.
       -1   -1    0    0    0  501  0.00000000000E+00  0.00000000000E+00 -0.53922533302E+03  0.53922533305E+03  0.50400001928E-02 0. -1.
    10030    2    1    2    0    0  0.00000000000E+00  0.00000000000E+00  0.15364709495E+03  0.12320977610E+04  0.12224800460E+04 0.  0.
        3    1    3    3  502    0 -0.45540199763E+03 -0.35261001125E+03  0.28310314160E+03  0.64177270000E+03  0.10100000352E+00 0.  1.
       -3    1    3    3    0  502  0.45540199763E+03  0.35261001125E+03 -0.12945604665E+03  0.59032506104E+03  0.10100000352E+00 0. -1.
</event>
<event>
 5   0  0.1823154E-03  0.1301870E+04  0.7818609E-02  0.9028083E-01
        1   -1    0    0  501    0  0.00000000000E+00  0.00000000000E+00  0.62082220844E+03  0.62082220846E+03  0.50400001928E-02 0.  1.
       -1   -1    0    0    0  501  0.00000000000E+00  0.00000000000E+00 -0.68250863484E+03  0.68250863486E+03  0.50400001928E-02 0. -1.
    10030    2    1    2    0    0  0.00000000000E+00  0.00000000000E+00 -0.61686426399E+02  0.13033308433E+04  0.13018702209E+04 0.  0.
        2    1    3    3  502    0  0.26919278326E+03  0.27092248862E+03 -0.55855202262E+03  0.67664178956E+03  0.25500000920E-02 0. -1.
       -2    1    3    3    0  502 -0.26919278326E+03 -0.27092248862E+03  0.49686559622E+03  0.62668905377E+03  0.25500000920E-02 0.  1.
</event>
<event>
 5   0  0.3259968E-03  0.1292311E+04  0.7818609E-02  0.9035685E-01
       -2   -1    0    0    0  501  0.00000000000E+00  0.00000000000E+00  0.88696320368E+03  0.88696320368E+03  0.25500000920E-02 0. -1.
        2   -1    0    0  501    0  0.00000000000E+00  0.00000000000E+00 -0.47072598524E+03  0.47072598524E+03  0.25500000920E-02 0.  1.
    10030    2    1    2    0    0  0.00000000000E+00  0.00000000000E+00  0.41623721844E+03  0.13576891889E+04  0.12923105322E+04 0.  0.
        4    1    3    3  502    0 -0.45309009362E+03 -0.36493505156E+03  0.50349487509E+03  0.76940036842E+03  0.12699999809E+01 0. -1.
       -4    1    3    3    0  502  0.45309009362E+03  0.36493505156E+03 -0.87257656647E+02  0.58828882050E+03  0.12699999809E+01 0.  1.
</event>
<event>
 5   0  0.1873488E-03  0.1253454E+04  0.7818609E-02  0.9067314E-01
        1   -1    0    0  501    0  0.00000000000E+00  0.00000000000E+00  0.77717556226E+03  0.77717556227E+03  0.50400001928E-02 0.  1.
       -1   -1    0    0    0  501  0.00000000000E+00  0.00000000000E+00 -0.50540253249E+03  0.50540253251E+03  0.50400001928E-02 0. -1.
    10030    2    1    2    0    0  0.00000000000E+00  0.00000000000E+00  0.27177302977E+03  0.12825780948E+04  0.12534536248E+04 0.  0.
        3    1    3    3  502    0  0.16593048249E+02  0.27889191910E+03  0.70993018549E+03  0.76292654317E+03  0.10100000352E+00 0.  1.
       -3    1    3    3    0  502 -0.16593048249E+02 -0.27889191910E+03 -0.43815715572E+03  0.51965155162E+03  0.10100000352E+00 0. -1.
</event>
<event>
 5   0  0.3299104E-03  0.1278263E+04  0.7818609E-02  0.9046983E-01
       -2   -1    0    0    0  501  0.00000000000E+00  0.00000000000E+00  0.57426738082E+03  0.57426738083E+03  0.25500000920E-02 0. -1.
        2   -1    0    0  501    0  0.00000000000E+00  0.00000000000E+00 -0.71132164992E+03  0.71132164993E+03  0.25500000920E-02 0.  1.
    10030    2    1    2    0    0  0.00000000000E+00  0.00000000000E+00 -0.13705426910E+03  0.12855890308E+04  0.12782626034E+04 0.  0.
        2    1    3    3  502    0  0.68746257911E+02 -0.30265269616E+03  0.49339166946E+03  0.58288939085E+03  0.25500000920E-02 0. -1.
       -2    1    3    3    0  502 -0.68746257911E+02  0.30265269616E+03 -0.63044593856E+03  0.70269963991E+03  0.25500000920E-02 0.  1.
</event>
<event>
 5   0  0.3259968E-03  0.1301552E+04  0.7818609E-02  0.9028336E-01
        2   -1    0    0  501    0  0.00000000000E+00  0.00000000000E+00  0.63226850906E+03  0.63226850906E+03  0.25500000920E-02 0.  1.
       -2   -1    0    0    0  501  0.00000000000E+00  0.00000000000E+00 -0.66982486858E+03  0.66982486858E+03  0.25500000920E-02 0. -1.
    10030    2    1    2    0    0  0.00000000000E+00  0.00000000000E+00 -0.37556359521E+02  0.13020933776E+04  0.13015516448E+04 0.  0.
        4    1    3    3  502    0  0.30641280433E+03  0.55850878879E+03 -0.15182482750E+03  0.65488416148E+03  0.12699999809E+01 0. -1.
       -4    1    3    3    0  502 -0.30641280433E+03 -0.55850878879E+03  0.11426846798E+03  0.64720921617E+03  0.12699999809E+01 0.  1.
</event>
<event>
 5   0  0.1814770E-03  0.1276840E+04  0.7818609E-02  0.9048136E-01
        1   -1    0    0  501    0  0.00000000000E+00  0.00000000000E+00  0.24708578799E+04  0.24708578799E+04  0.50400001928E-02 0.  1.
       -1   -1    0    0    0  501  0.00000000000E+00  0.00000000000E+00 -0.16495487792E+03  0.16495487800E+03  0.50400001928E-02 0. -1.
    10030    2    1    2    0    0  0.00000000000E+00  0.00000000000E+00  0.23059030020E+04  0.26358127579E+04  0.12768399431E+04 0.  0.
        5    1    3    3  502    0  0.58566584747E+03 -0.15437715986E+03  0.15695217601E+04  0.16823368978E+04  0.46999998093E+01 0.  1.
       -5    1    3    3    0  502 -0.58566584747E+03  0.15437715986E+03  0.73638124196E+03  0.95347586015E+03  0.46999998093E+01 0. -1.
</event>
<event>
 5   0  0.1254125E-03  0.1290532E+04  0.7818609E-02  0.9037107E-01
       -4   -1    0    0    0  501  0.00000000000E+00  0.00000000000E+00  0.89160165030E+03  0.89160255480E+03  0.12699999809E+01 0.  1.
        4   -1    0    0  501    0  0.00000000000E+00  0.00000000000E+00 -0.46698697433E+03  0.46698870125E+03  0.12699999809E+01 0. -1.
    10030    2    1    2    0    0  0.00000000000E+00  0.00000000000E+00  0.42461467597E+03  0.13585912561E+04  0.12905318973E+04 0.  0.
        3    1    3    3  502    0  0.87551181175E+01  0.41211135433E+03  0.73493154014E+03  0.84263681344E+03  0.10100000352E+00 0.  1.
       -3    1    3    3    0  502 -0.87551181175E+01 -0.41211135433E+03 -0.31031686417E+03  0.51595444262E+03  0.10100000352E+00 0. -1.
</event>
<event>
 5   0  0.3299104E-03  0.1165397E+04  0.7818609E-02  0.9143696E-01
        2   -1    0    0  501    0  0.00000000000E+00  0.00000000000E+00  0.11124155555E+04  0.11124155556E+04  0.25500000920E-02 0.  1.
       -2   -1    0    0    0  501  0.00000000000E+00  0.00000000000E+00 -0.30522522652E+03  0.30522522653E+03  0.25500000920E-02 0. -1.
    10030    2    1    2    0    0  0.00000000000E+00  0.00000000000E+00  0.80719032903E+03  0.14176407821E+04  0.11653965676E+04 0.  0.
        2    1    3    3  502    0  0.11129469340E+02  0.43212536335E+03  0.87891407934E+03  0.97946217569E+03  0.25500000920E-02 0.  1.
       -2    1    3    3    0  502 -0.11129469340E+02 -0.43212536335E+03 -0.71723750318E+02  0.43817860639E+03  0.25500000920E-02 0. -1.
</event>
<event>
 5   0  0.3262927E-03  0.1315150E+04  0.7818609E-02  0.9017637E-01
        2   -1    0    0  501    0  0.00000000000E+00  0.00000000000E+00  0.53847624086E+03  0.53847624087E+03  0.25500000920E-02 0. -1.
       -2   -1    0    0    0  501  0.00000000000E+00  0.00000000000E+00 -0.80301562973E+03  0.80301562973E+03  0.25500000920E-02 0.  1.
    10030    2    1    2    0    0  0.00000000000E+00  0.00000000000E+00 -0.26453938887E+03  0.13414918706E+04  0.13151499347E+04 0.  0.
        3    1    3    3  502    0  0.29013354466E+03  0.18649696156E+03  0.43880682996E+03  0.55813084007E+03  0.10100000352E+00 0. -1.
       -3    1    3    3    0  502 -0.29013354466E+03 -0.18649696156E+03 -0.70334621883E+03  0.78336103053E+03  0.10100000352E+00 0.  1.
</event>
<event>
 5   0  0.3294720E-03  0.1309105E+04  0.7818609E-02  0.9022376E-01
        2   -1    0    0  501    0  0.00000000000E+00  0.00000000000E+00  0.42488405755E+03  0.42488405755E+03  0.25500000920E-02 0. -1.
       -2   -1    0    0    0  501  0.00000000000E+00  0.00000000000E+00 -0.10083668840E+04  0.10083668841E+04  0.25500000920E-02 0.  1.
    10030    2    1    2    0    0  0.00000000000E+00  0.00000000000E+00 -0.58348282650E+03  0.14332509416E+04  0.13091050580E+04 0.  0.
        5    1    3    3  502    0 -0.49063063564E+03 -0.14833166318E+03 -0.73740180306E+03  0.89805579564E+03  0.46999998093E+01 0.  1.
       -5    1    3    3    0  502  0.49063063564E+03  0.14833166318E+03  0.15391897655E+03  0.53519514597E+03  0.46999998093E+01 0. -1.
</event>
<event>
 5   0  0.1823154E-03  0.1253895E+04  0.7818609E-02  0.9066948E-01
        1   -1    0    0  501    0  0.00000000000E+00  0.00000000000E+00  0.35541784682E+03  0.35541784686E+03  0.50400001928E-02 0.  1.
       -1   -1    0    0    0  501  0.00000000000E+00  0.00000000000E+00 -0.11059181208E+04  0.11059181208E+04  0.50400001928E-02 0. -1.
    10030    2    1    2    0    0  0.00000000000E+00  0.00000000000E+00 -0.75050027400E+03  0.14613359677E+04  0.12538947919E+04 0.  0.
        2    1    3    3  502    0 -0.40365930959E+03  0.43773549890E+02  0.18149005674E+03  0.44474217541E+03  0.25500000920E-02 0.  1.
       -2    1    3    3    0  502  0.40365930959E+03 -0.43773549890E+02 -0.93199033074E+03  0.10165937923E+04  0.25500000920E-02 0. -1.
</event>
<event>
 5   0  0.3299104E-03  0.1264142E+04  0.7818609E-02  0.9058495E-01
        2   -1    0    0  501    0  0.00000000000E+00  0.00000000000E+00  0.13358712011E+04  0.13358712011E+04  0.25500000920E-02 0.  1.
       -2   -1    0    0    0  501  0.00000000000E+00  0.00000000000E+00 -0.29906589298E+03  0.29906589299E+03  0.25500000920E-02 0. -1.
    10030    2    1    2    0    0  0.00000000000E+00  0.00000000000E+00  0.10368053081E+04  0.16349370941E+04  0.12641416276E+04 0.  0.
        2    1    3    3  502    0  0.58937473001E+03 -0.31626298189E+02  0.22589907521E+03  0.63197562239E+03  0.25500000920E-02 0. -1.
       -2    1    3    3    0  502 -0.58937473001E+03  0.31626298189E+02  0.81090623288E+03  0.10029614717E+04  0.25500000920E-02 0.  1.
</event>
<event>
 5   0  0.1823154E-03  0.1319347E+04  0.7818609E-02  0.9014362E-01
        1   -1    0    0  501    0  0.00000000000E+00  0.00000000000E+00  0.15407307800E+04  0.15407307800E+04  0.50400001928E-02 0. -1.
       -1   -1    0    0    0  501  0.00000000000E+00  0.00000000000E+00 -0.28244324792E+03  0.28244324797E+03  0.50400001928E-02 0.  1.
    10030    2    1    2    0    0  0.00000000000E+00  0.00000000000E+00  0.12582875321E+04  0.18231740280E+04  0.13193468168E+04 0.  0.
        2    1    3    3  502    0 -0.51578770270E+03 -0.28809960567E+03  0.22359035236E+03  0.63168899209E+03  0.25500000920E-02 0.  1.
       -2    1    3    3    0  502  0.51578770270E+03  0.28809960567E+03  0.10346971797E+04  0.11914850359E+04  0.25500000920E-02 0. -1.
</event>
<event>
 5   0  0.3294720E-03  0.1303902E+04  0.7818609E-02  0.9026476E-01
        2   -1    0    0  501    0  0.00000000000E+00  0.00000000000E+00  0.15995409877E+04  0.15995409877E+04  0.25500000920E-02 0. -1.
       -2   -1    0    0    0  501  0.00000000000E+00  0.00000000000E+00 -0.26572634205E+03  0.26572634206E+03  0.25500000920E-02 0.  1.
    10030    2    1    2    0    0  0.00000000000E+00  0.00000000000E+00  0.13338146456E+04  0.18652673297E+04  0.13039021062E+04 0.  0.
        5    1    3    3  502    0 -0.46049990964E+03  0.45377145719E+03  0.78701524811E+03  0.10185203940E+04  0.46999998093E+01 0.  1.
       -5    1    3    3    0  502  0.46049990964E+03 -0.45377145719E+03  0.54679939749E+03  0.84674693577E+03  0.46999998093E+01 0. -1.
</event>
<event>
 5   0  0.1803959E-03  0.9177215E+03  0.7818609E-02  0.9403696E-01
       -1   -1    0    0    0  501  0.00000000000E+00  0.00000000000E+00  0.13293736387E+04  0.13293736387E+04  0.50400001928E-02 0.  1.
        1   -1    0    0  501    0  0.00000000000E+00  0.00000000000E+00 -0.15838525523E+03  0.15838525531E+03  0.50400001928E-02 0. -1.
    10030    2    1    2    0    0  0.00000000000E+00  0.00000000000E+00  0.11709883835E+04  0.14877588941E+04  0.91772148964E+03 0.  0.
        4    1    3    3  502    0 -0.38549199535E+03 -0.71593304170E+02  0.19905648741E+03  0.43972125007E+03  0.12699999809E+01 0. -1.
       -4    1    3    3    0  502  0.38549199535E+03  0.71593304170E+02  0.97193189609E+03  0.10480376440E+04  0.12699999809E+01 0.  1.
</event>
<event>
 5   0  0.1823154E-03  0.1234376E+04  0.7818609E-02  0.9083288E-01
        1   -1    0    0  501    0  0.00000000000E+00  0.00000000000E+00  0.15890589808E+04  0.15890589808E+04  0.50400001928E-02 0.  1.
       -1   -1    0    0    0  501  0.00000000000E+00  0.00000000000E+00 -0.23971489797E+03  0.23971489802E+03  0.50400001928E-02 0. -1.
    10030    2    1    2    0    0  0.00000000000E+00  0.00000000000E+00  0.13493440828E+04  0.18287738788E+04  0.12343761364E+04 0.  0.
        2    1    3    3  502    0  0.37483564275E+03 -0.12273264862E+03 -0.28638461595E+02  0.39545571636E+03  0.25500000920E-02 0. -1.
       -2    1    3    3    0  502 -0.37483564275E+03  0.12273264862E+03  0.13779825444E+04  0.14333181624E+04  0.25500000920E-02 0.  1.
</event>
<event>
 5   0  0.1857986E-03  0.1242794E+04  0.7818609E-02  0.9076202E-01
       -1   -1    0    0    0  501  0.00000000000E+00  0.00000000000E+00  0.35699891539E+03  0.35699891542E+03  0.50400001928E-02 0.  1.
        1   -1    0    0  501    0  0.00000000000E+00  0.00000000000E+00 -0.10816126113E+04  0.10816126114E+04  0.50400001928E-02 0. -1.
    10030    2    1    2    0    0  0.00000000000E+00  0.00000000000E+00 -0.72461369596E+03  0.14386115268E+04  0.12427944788E+04 0.  0.
        1    1    3    3  502    0 -0.56755214793E+03  0.16064835733E+03 -0.58858338498E+03  0.83327890675E+03  0.50400001928E-02 0. -1.
       -1    1    3    3    0  502  0.56755214793E+03 -0.16064835733E+03 -0.13603031098E+03  0.60533262003E+03  0.50400001928E-02 0.  1.
</event>
<event>
 5   0  0.3294720E-03  0.1328803E+04  0.7818609E-02  0.9007031E-01
       -2   -1    0    0    0  501  0.00000000000E+00  0.00000000000E+00  0.41885564319E+03  0.41885564320E+03  0.25500000920E-02 0.  1.
        2   -1    0    0  501    0  0.00000000000E+00  0.00000000000E+00 -0.10538932180E+04  0.10538932180E+04  0.25500000920E-02 0. -1.
    10030    2    1    2    0    0  0.00000000000E+00  0.00000000000E+00 -0.63503757483E+03  0.14727488612E+04  0.13288026516E+04 0.  0.
        5    1    3    3  502    0  0.40440530202E+03  0.53204571139E+02  0.26372770051E+03  0.48574557610E+03  0.46999998093E+01 0.  1.
       -5    1    3    3    0  502 -0.40440530202E+03 -0.53204571139E+02 -0.89876527534E+03  0.98700328512E+03  0.46999998093E+01 0. -1.
</event>
<event>
 5   0  0.1814770E-03  0.1204334E+04  0.7818609E-02  0.9109071E-01
        1   -1    0    0  501    0  0.00000000000E+00  0.00000000000E+00  0.79474789030E+03  0.79474789032E+03  0.50400001928E-02 0. -1.
       -1   -1    0    0    0  501  0.00000000000E+00  0.00000000000E+00 -0.45625171772E+03  0.45625171775E+03  0.50400001928E-02 0.  1.
    10030    2    1    2    0    0  0.00000000000E+00  0.00000000000E+00  0.33849617259E+03  0.12509996081E+04  0.12043339904E+04 0.  0.
        5    1    3    3  502    0 -0.52007125970E+02  0.42653545801E+03  0.60742960320E+03  0.74406320358E+03  0.46999998093E+01 0. -1.
       -5    1    3    3    0  502  0.52007125970E+02 -0.42653545801E+03 -0.26893343061E+03  0.50693640448E+03  0.46999998093E+01 0.  1.
</event>
<event>
 5   0  0.1873488E-03  0.1289137E+04  0.7818609E-02  0.9038224E-01
       -1   -1    0    0    0  501  0.00000000000E+00  0.00000000000E+00  0.34922294533E+03  0.34922294536E+03  0.50400001928E-02 0.  1.
        1   -1    0    0  501    0  0.00000000000E+00  0.00000000000E+00 -0.11896944654E+04  0.11896944654E+04  0.50400001928E-02 0. -1.
    10030    2    1    2    0    0  0.00000000000E+00  0.00000000000E+00 -0.84047152005E+03  0.15389174108E+04  0.12891370839E+04 0.  0.
        3    1    3    3  502    0  0.37901864809E+03  0.49185510086E+03 -0.21384329507E+03  0.65673856358E+03  0.10100000352E+00 0.  1.
       -3    1    3    3    0  502 -0.37901864809E+03 -0.49185510086E+03 -0.62662822499E+03  0.88217884717E+03  0.10100000352E+00 0. -1.
</event>
<event>
 5   0  0.3336609E-03  0.1287844E+04  0.7818609E-02  0.9039261E-01
        2   -1    0    0  501    0  0.00000000000E+00  0.00000000000E+00  0.10877720051E+04  0.10877720051E+04  0.25500000920E-02 0. -1.
       -2   -1    0    0    0  501  0.00000000000E+00  0.00000000000E+00 -0.38117890367E+03  0.38117890368E+03  0.25500000920E-02 0.  1.
    10030    2    1    2    0    0  0.00000000000E+00  0.00000000000E+00  0.70659310145E+03  0.14689509088E+04  0.12878443079E+04 0.  0.
        1    1    3    3  502    0  0.64826023217E+01 -0.61528788787E+03  0.56975911690E+03  0.83859803268E+03  0.50400001928E-02 0. -1.
       -1    1    3    3    0  502 -0.64826023217E+01  0.61528788787E+03  0.13683398456E+03  0.63035287614E+03  0.50400001928E-02 0.  1.
</event>
<event>
 5   0  0.1857986E-03  0.1267273E+04  0.7818609E-02  0.9055928E-01
       -1   -1    0    0    0  501  0.00000000000E+00  0.00000000000E+00  0.38605604504E+03  0.38605604507E+03  0.50400001928E-02 0.  1.
        1   -1    0    0  501    0  0.00000000000E+00  0.00000000000E+00 -0.10399916595E+04  0.10399916595E+04  0.50400001928E-02 0. -1.
    10030    2    1    2    0    0  0.00000000000E+00  0.00000000000E+00 -0.65393561443E+03  0.14260477046E+04  0.12672727677E+04 0.  0.
        1    1    3    3  502    0  0.10758609761E+03 -0.12779463264E+03 -0.10147657825E+04  0.10284239543E+04  0.50400001928E-02 0. -1.
       -1    1    3    3    0  502 -0.10758609761E+03  0.12779463264E+03  0.36083016806E+03  0.39762375021E+03  0.50400001928E-02 0.  1.
</event>
<event>
 5   0  0.3262927E-03  0.1256381E+04  0.7818609E-02  0.9064889E-01
        2   -1    0    0  501    0  0.00000000000E+00  0.00000000000E+00  0.38558777584E+03  0.38558777585E+03  0.25500000920E-02 0.  1.
       -2   -1    0    0    0  501  0.00000000000E+00  0.00000000000E+00 -0.10234326056E+04  0.10234326056E+04  0.25500000920E-02 0. -1.
    10030    2    1    2    0    0  0.00000000000E+00  0.00000000000E+00 -0.63784482978E+03  0.14090203815E+04  0.12563806782E+04 0.  0.
        3    1    3    3  502    0 -0.44450244508E+03  0.29731717855E+03 -0.68857796239E+03  0.87184835197E+03  0.10100000352E+00 0.  1.
       -3    1    3    3    0  502  0.44450244508E+03 -0.29731717855E+03  0.50733132604E+02  0.53717202951E+03  0.10100000352E+00 0. -1.
</event>
<event>
 5   0  0.1857986E-03  0.1345483E+04  0.7818609E-02  0.8994255E-01
       -1   -1    0    0    0  501  0.00000000000E+00  0.00000000000E+00  0.48344224127E+03  0.48344224130E+03  0.50400001928E-02 0.  1.
        1   -1    0    0  501    0  0.00000000000E+00  0.00000000000E+00 -0.93616357497E+03  0.93616357498E+03  0.50400001928E-02 0. -1.
    10030    2    1    2    0    0  0.00000000000E+00  0.00000000000E+00 -0.45272133370E+03  0.14196058163E+04  0.13454828381E+04 0.  0.
        1    1    3    3  502    0  0.14390287663E+03 -0.20112537905E+03  0.43374274828E+03  0.49929172606E+03  0.50400001928E-02 0.  1.
       -1    1    3    3    0  502 -0.14390287663E+03  0.20112537905E+03 -0.88646408197E+03  0.92031409022E+03  0.50400001928E-02 0. -1.
</event>
<event>
 5   0  0.1803959E-03  0.1306495E+04  0.7818609E-02  0.9024430E-01
       -1   -1    0    0    0  501  0.00000000000E+00  0.00000000000E+00  0.40765750564E+03  0.40765750567E+03  0.50400001928E-02 0.  1.
        1   -1    0    0  501    0  0.00000000000E+00  0.00000000000E+00 -0.10467915059E+04  0.10467915059E+04  0.50400001928E-02 0. -1.
    10030    2    1    2    0    0  0.00000000000E+00  0.00000000000E+00 -0.63913400027E+03  0.14544490116E+04  0.13064951806E+04 0.  0.
        4    1    3    3  502    0  0.18159648565E+03  0.46124778165E+03  0.15405817299E+03  0.51909761437E+03  0.12699999809E+01 0.  1.
       -4    1    3    3    0  502 -0.18159648565E+03 -0.46124778165E+03 -0.79319217326E+03  0.93535139723E+03  0.12699999809E+01 0. -1.
</event>
<event>
 5   0  0.3336609E-03  0.1302895E+04  0.7818609E-02  0.9027272E-01
        2   -1    0    0  501    0  0.00000000000E+00  0.00000000000E+00  0.19563929467E+04  0.19563929467E+04  0.25500000920E-02 0.  1.
       -2   -1    0    0    0  501  0.00000000000E+00  0.00000000000E+00 -0.21692169007E+03  0.21692169008E+03  0.25500000920E-02 0. -1.
    10030    2    1    2    0    0  0.00000000000E+00  0.00000000000E+00  0.17394712566E+04  0.21733146367E+04  0.13028953365E+04 0.  0.
        1    1    3    3  502    0 -0.58761722064E+01  0.41966912841E+03  0.17008061872E+04  0.17518271585E+04  0.50400001928E-02 0.  1.
       -1    1    3    3    0  502  0.58761722064E+01 -0.41966912841E+03  0.38665069416E+02  0.42148747829E+03  0.50400001928E-02 0. -1.
</event>
<event>
 5   0  0.1857986E-03  0.1261783E+04  0.7818609E-02  0.9060433E-01
       -1   -1    0    0    0  501  0.00000000000E+00  0.00000000000E+00  0.48348747323E+03  0.48348747326E+03  0.50400001928E-02 0.  1.
        1   -1    0    0  501    0  0.00000000000E+00  0.00000000000E+00 -0.82323524765E+03  0.82323524767E+03  0.50400001928E-02 0. -1.
    10030    2    1    2    0    0  0.00000000000E+00  0.00000000000E+00 -0.33974777442E+03  0.13067227209E+04  0.12617827543E+04 0.  0.
        1    1    3    3  502    0  0.60479573175E+03  0.17894390187E+03 -0.18541270774E+03  0.65740145222E+03  0.50400001928E-02 0.  1.
       -1    1    3    3    0  502 -0.60479573175E+03 -0.17894390187E+03 -0.15433506668E+03  0.64932126871E+03  0.50400001928E-02 0. -1.
</event>
<event>
 5   0  0.1857986E-03  0.1300196E+04  0.7818609E-02  0.9029409E-01
       -1   -1    0    0    0  501  0.00000000000E+00  0.00000000000E+00  0.13065760659E+04  0.13065760659E+04  0.50400001928E-02 0.  1.
        1   -1    0    0  501    0  0.00000000000E+00  0.00000000000E+00 -0.32346195769E+03  0.32346195773E+03  0.50400001928E-02 0. -1.
    10030    2    1    2    0    0  0.00000000000E+00  0.00000000000E+00  0.98311410824E+03  0.16300380237E+04  0.13001963732E+04 0.  0.
        1    1    3    3  502    0 -0.57664432564E+03 -0.23738516003E+03  0.72189865307E+03  0.95394342485E+03  0.50400001928E-02 0.  1.
       -1    1    3    3    0  502  0.57664432564E+03  0.23738516003E+03  0.26121545517E+03  0.67609459881E+03  0.50400001928E-02 0. -1.
</event>
<event>
 5   0  0.3262927E-03  0.1301905E+04  0.7818609E-02  0.9028056E-01
        2   -1    0    0  501    0  0.00000000000E+00  0.00000000000E+00  0.13601727974E+04  0.13601727974E+04  0.25500000920E-02 0. -1.
       -2   -1    0    0    0  501  0.00000000000E+00  0.00000000000E+00 -0.31153328146E+03  0.31153328147E+03  0.25500000920E-02 0.  1.
    10030    2    1    2    0    0  0.00000000000E+00  0.00000000000E+00  0.10486395159E+04  0.16717060789E+04  0.13019049043E+04 0.  0.
        3    1    3    3  502    0  0.60051863247E+03 -0.24837344392E+03  0.47581255736E+03  0.80542510237E+03  0.10100000352E+00 0.  1.
       -3    1    3    3    0  502 -0.60051863247E+03  0.24837344392E+03  0.57282695859E+03  0.86628097651E+03  0.10100000352E+00 0. -1.
</event>
<event>
 5   0  0.3294720E-03  0.1338469E+04  0.7818609E-02  0.8999603E-01
       -2   -1    0    0    0  501  0.00000000000E+00  0.00000000000E+00  0.28032788388E+03  0.28032788389E+03  0.25500000920E-02 0.  1.
        2   -1    0    0  501    0  0.00000000000E+00  0.00000000000E+00 -0.15976828700E+04  0.15976828700E+04  0.25500000920E-02 0. -1.
    10030    2    1    2    0    0  0.00000000000E+00  0.00000000000E+00 -0.13173549861E+04  0.18780107539E+04  0.13384693617E+04 0.  0.
        5    1    3    3  502    0  0.58692720850E+03 -0.13092016610E+02 -0.11094166841E+04  0.12551822250E+04  0.46999998093E+01 0. -1.
       -5    1    3    3    0  502 -0.58692720850E+03  0.13092016610E+02 -0.20793830203E+03  0.62282852891E+03  0.46999998093E+01 0.  1.
</event>
<event>
 5   0  0.3299104E-03  0.1302461E+04  0.7818609E-02  0.9027615E-01
        2   -1    0    0  501    0  0.00000000000E+00  0.00000000000E+00  0.62551498489E+03  0.62551498490E+03  0.25500000920E-02 0. -1.
       -2   -1    0    0    0  501  0.00000000000E+00  0.00000000000E+00 -0.67800366421E+03  0.67800366422E+03  0.25500000920E-02 0.  1.
    10030    2    1    2    0    0  0.00000000000E+00  0.00000000000E+00 -0.52488679321E+02  0.13035186491E+04  0.13024614417E+04 0.  0.
        2    1    3    3  502    0 -0.35641351123E+03 -0.96615825307E+02  0.51060158185E+03  0.63014219354E+03  0.25500000920E-02 0. -1.
       -2    1    3    3    0  502  0.35641351123E+03  0.96615825307E+02 -0.56309026118E+03  0.67337645557E+03  0.25500000920E-02 0.  1.
</event>
<event>
 5   0  0.3299104E-03  0.1310528E+04  0.7818609E-02  0.9021258E-01
        2   -1    0    0  501    0  0.00000000000E+00  0.00000000000E+00  0.12574101849E+04  0.12574101849E+04  0.25500000920E-02 0. -1.
       -2   -1    0    0    0  501  0.00000000000E+00  0.00000000000E+00 -0.34147256066E+03  0.34147256067E+03  0.25500000920E-02 0.  1.
    10030    2    1    2    0    0  0.00000000000E+00  0.00000000000E+00  0.91593762423E+03  0.15988827456E+04  0.13105282533E+04 0.  0.
        2    1    3    3  502    0  0.57799921558E+03 -0.22149566401E+03  0.19565500471E+03  0.64917201361E+03  0.25500000920E-02 0.  1.
       -2    1    3    3    0  502 -0.57799921558E+03  0.22149566401E+03  0.72028261952E+03  0.94971073195E+03  0.25500000920E-02 0. -1.
</event>
<event>
 5   0  0.3262927E-03  0.1299529E+04  0.7818609E-02  0.9029939E-01
        2   -1    0    0  501    0  0.00000000000E+00  0.00000000000E+00  0.15049830889E+04  0.15049830889E+04  0.25500000920E-02 0. -1.
       -2   -1    0    0    0  501  0.00000000000E+00  0.00000000000E+00 -0.28053054206E+03  0.28053054207E+03  0.25500000920E-02 0.  1.
    10030    2    1    2    0    0  0.00000000000E+00  0.00000000000E+00  0.12244525468E+04  0.17855136310E+04  0.12995287172E+04 0.  0.
        3    1    3    3  502    0 -0.35868374111E+03  0.52290018403E+03  0.41735931674E+03  0.75912280829E+03  0.10100000352E+00 0.  1.
       -3    1    3    3    0  502  0.35868374111E+03 -0.52290018403E+03  0.80709323010E+03  0.10263908227E+04  0.10100000352E+00 0. -1.
</event>
<event>
 5   0  0.1823154E-03  0.1324338E+04  0.7818609E-02  0.9010484E-01
       -1   -1    0    0    0  501  0.00000000000E+00  0.00000000000E+00  0.33854009486E+03  0.33854009489E+03  0.50400001928E-02 0. -1.
        1   -1    0    0  501    0  0.00000000000E+00  0.00000000000E+00 -0.12951725059E+04  0.12951725059E+04  0.50400001928E-02 0.  1.
    10030    2    1    2    0    0  0.00000000000E+00  0.00000000000E+00 -0.95663241104E+03  0.16337126008E+04  0.13243380581E+04 0.  0.
        2    1    3    3  502    0 -0.16571256618E+03  0.63357027017E+03 -0.35747383661E+03  0.74609616384E+03  0.25500000920E-02 0. -1.
       -2    1    3    3    0  502  0.16571256618E+03 -0.63357027017E+03 -0.59915857443E+03  0.88761643696E+03  0.25500000920E-02 0.  1.
</event>
<event>
 5   0  0.3336609E-03  0.1290662E+04  0.7818609E-02  0.9037003E-01
       -2   -1    0    0    0  501  0.00000000000E+00  0.00000000000E+00  0.61953280842E+03  0.61953280843E+03  0.25500000920E-02 0. -1.
        2   -1    0    0  501    0  0.00000000000E+00  0.00000000000E+00 -0.67220357450E+03  0.67220357450E+03  0.25500000920E-02 0.  1.
    10030    2    1    2    0    0  0.00000000000E+00  0.00000000000E+00 -0.52670766076E+02  0.12917363829E+04  0.12906621066E+04 0.  0.
        1    1    3    3  502    0 -0.37811213245E+03 -0.68667935590E+02  0.49252461742E+03  0.62471158856E+03  0.50400001928E-02 0. -1.
       -1    1    3    3    0  502  0.37811213245E+03  0.68667935590E+02 -0.54519538350E+03  0.66702479437E+03  0.50400001928E-02 0.  1.
</event>
<event>
 5   0  0.1857986E-03  0.1299949E+04  0.7818609E-02  0.9029606E-01
       -1   -1    0    0    0  501  0.00000000000E+00  0.00000000000E+00  0.56300250515E+03  0.56300250517E+03  0.50400001928E-02 0.  1.
        1   -1    0    0  501    0  0.00000000000E+00  0.00000000000E+00 -0.75038197095E+03  0.75038197097E+03  0.50400001928E-02 0. -1.
    10030    2    1    2    0    0  0.00000000000E+00  0.00000000000E+00 -0.18737946581E+03  0.13133844761E+04  0.12999491213E+04 0.  0.
        1    1    3    3  502    0 -0.49619645312E+03  0.14016725095E+03 -0.49351854969E+03  0.71373548128E+03  0.50400001928E-02 0. -1.
       -1    1    3    3    0  502  0.49619645312E+03 -0.14016725095E+03  0.30613908388E+03  0.59964899486E+03  0.50400001928E-02 0.  1.
</event>
<event>
 5   0  0.1873488E-03  0.1336455E+04  0.7818609E-02  0.9001145E-01
        1   -1    0    0  501    0  0.00000000000E+00  0.00000000000E+00  0.13812331176E+04  0.13812331176E+04  0.50400001928E-02 0. -1.
       -1   -1    0    0    0  501  0.00000000000E+00  0.00000000000E+00 -0.32328221498E+03  0.32328221502E+03  0.50400001928E-02 0.  1.
    10030    2    1    2    0    0  0.00000000000E+00  0.00000000000E+00  0.10579509026E+04  0.17045153326E+04  0.13364551645E+04 0.  0.
        3    1    3    3  502    0 -0.26064168766E+03  0.47785471105E+03  0.34605419588E+02  0.54541430077E+03  0.10100000352E+00 0.  1.
       -3    1    3    3    0  502  0.26064168766E+03 -0.47785471105E+03  0.10233454830E+04  0.11591010318E+04  0.10100000352E+00 0. -1.
</event>
<event>
 5   0  0.1803959E-03  0.1320060E+04  0.7818609E-02  0.9013807E-01
        1   -1    0    0  501    0  0.00000000000E+00  0.00000000000E+00  0.63964767573E+03  0.63964767575E+03  0.50400001928E-02 0. -1.
       -1   -1    0    0    0  501  0.00000000000E+00  0.00000000000E+00 -0.68106180538E+03  0.68106180540E+03  0.50400001928E-02 0.  1.
    10030    2    1    2    0    0  0.00000000000E+00  0.00000000000E+00 -0.41414129652E+02  0.13207094811E+04  0.13200599999E+04 0.  0.
        4    1    3    3  502    0 -0.28353196221E+03 -0.31237662740E+03  0.48715322080E+03  0.64442951855E+03  0.12699999809E+01 0. -1.
       -4    1    3    3    0  502  0.28353196221E+03  0.31237662740E+03 -0.52856735046E+03  0.67627996260E+03  0.12699999809E+01 0.  1.
</event>
<event>
 5   0  0.3259968E-03  0.1271656E+04  0.7818609E-02  0.9052349E-01
       -2   -1    0    0    0  501  0.00000000000E+00  0.00000000000E+00  0.36871885876E+03  0.36871885877E+03  0.25500000920E-02 0.  1.
        2   -1    0    0  501    0  0.00000000000E+00  0.00000000000E+00 -0.10964379486E+04  0.10964379486E+04  0.25500000920E-02 0. -1.
    10030    2    1    2    0    0  0.00000000000E+00  0.00000000000E+00 -0.72771908986E+03  0.14651568074E+04  0.12716561628E+04 0.  0.
        4    1    3    3  502    0 -0.21393099649E+02  0.38830448843E+03  0.21571195209E+03  0.44471485204E+03  0.12699999809E+01 0.  1.
       -4    1    3    3    0  502  0.21393099649E+02 -0.38830448843E+03 -0.94343104195E+03  0.10204419554E+04  0.12699999809E+01 0. -1.
</event>
<event>
 5   0  0.1873488E-03  0.1337173E+04  0.7818609E-02  0.9000595E-01
        1   -1    0    0  501    0  0.00000000000E+00  0.00000000000E+00  0.22878778746E+04  0.22878778746E+04  0.50400001928E-02 0. -1.
       -1   -1    0    0    0  501  0.00000000000E+00  0.00000000000E+00 -0.19538091771E+03  0.19538091777E+03  0.50400001928E-02 0.  1.
    10030    2    1    2    0    0  0.00000000000E+00  0.00000000000E+00  0.20924969569E+04  0.24832587924E+04  0.13371726573E+04 0.  0.
        3    1    3    3  502    0 -0.51596753738E+03 -0.20144957792E+03  0.17416145777E+04  0.18275737412E+04  0.10100000352E+00 0. -1.
       -3    1    3    3    0  502  0.51596753738E+03  0.20144957792E+03  0.35088237914E+03  0.65568505112E+03  0.10100000352E+00 0.  1.
</event>
<event>
 5   0  0.3294720E-03  0.1320386E+04  0.7818609E-02  0.9013553E-01
       -2   -1    0    0    0  501  0.00000000000E+00  0.00000000000E+00  0.62816594873E+03  0.62816594874E+03  0.25500000920E-02 0.  1.
        2   -1    0    0  501    0  0.00000000000E+00  0.00000000000E+00 -0.69385279280E+03  0.69385279280E+03  0.25500000920E-02 0. -1.
    10030    2    1    2    0    0  0.00000000000E+00  0.00000000000E+00 -0.65686844068E+02  0.13220187415E+04  0.13203858495E+04 0.  0.
        5    1    3    3  502    0 -0.13062019280E+03 -0.39457134763E+03  0.48070845315E+03  0.63549263573E+03  0.46999998093E+01 0.  1.
       -5    1    3    3    0  502  0.13062019280E+03  0.39457134763E+03 -0.54639529722E+03  0.68652610581E+03  0.46999998093E+01 0. -1.
</event>
<event>
 5   0  0.1873488E-03  0.1273956E+04  0.7818609E-02  0.9050477E-01
        1   -1    0    0  501    0  0.00000000000E+00  0.00000000000E+00  0.46373708499E+03  0.46373708501E+03  0.50400001928E-02 0.  1.
       -1   -1    0    0    0  501  0.00000000000E+00  0.00000000000E+00 -0.87493720083E+03  0.87493720085E+03  0.50400001928E-02 0. -1.
    10030    2    1    2    0    0  0.00000000000E+00  0.00000000000E+00 -0.41120011584E+03  0.13386742859E+04  0.12739557717E+04 0.  0.
        3    1    3    3  502    0 -0.20424173230E+02  0.39093762696E+03  0.32241207454E+03  0.50714783943E+03  0.10100000352E+00 0.  1.
       -3    1    3    3    0  502  0.20424173230E+02 -0.39093762696E+03 -0.73361219039E+03  0.83152644643E+03  0.10100000352E+00 0. -1.
</event>
<event>
 5   0  0.3336609E-03  0.1304793E+04  0.7818609E-02  0.9025773E-01
       -2   -1    0    0    0  501  0.00000000000E+00  0.00000000000E+00  0.58587381381E+03  0.58587381382E+03  0.25500000920E-02 0.  1.
        2   -1    0    0  501    0  0.00000000000E+00  0.00000000000E+00 -0.72647202264E+03  0.72647202264E+03  0.25500000920E-02 0. -1.
    10030    2    1    2    0    0  0.00000000000E+00  0.00000000000E+00 -0.14059820883E+03  0.13123458365E+04  0.13047926035E+04 0.  0.
        1    1    3    3  502    0  0.37125707024E+03  0.53255431446E+03 -0.53106327763E+01  0.64921037646E+03  0.50400001928E-02 0.  1.
       -1    1    3    3    0  502 -0.37125707024E+03 -0.53255431446E+03 -0.13528757605E+03  0.66313546000E+03  0.50400001928E-02 0. -1.
</event>
<event>
 5   0  0.1873488E-03  0.1316565E+04  0.7818609E-02  0.9016531E-01
       -1   -1    0    0    0  501  0.00000000000E+00  0.00000000000E+00  0.58887997840E+03  0.58887997842E+03  0.50400001928E-02 0. -1.
        1   -1    0    0  501    0  0.00000000000E+00  0.00000000000E+00 -0.73586485413E+03  0.73586485414E+03  0.50400001928E-02 0.  1.
    10030    2    1    2    0    0  0.00000000000E+00  0.00000000000E+00 -0.14698487573E+03  0.13247448326E+04  0.13165653488E+04 0.  0.
        3    1    3    3  502    0 -0.52042145102E+03  0.40300803975E+03 -0.82609771455E+02  0.66338401498E+03  0.10100000352E+00 0.  1.
       -3    1    3    3    0  502  0.52042145102E+03 -0.40300803975E+03 -0.64375104274E+02  0.66136081759E+03  0.10100000352E+00 0. -1.
</event>
<event>
 5   0  0.3294720E-03  0.8783170E+03  0.7818609E-02  0.9453100E-01
       -2   -1    0    0    0  501  0.00000000000E+00  0.00000000000E+00  0.11896157565E+03  0.11896157568E+03  0.25500000920E-02 0.  1.
        2   -1    0    0  501    0  0.00000000000E+00  0.00000000000E+00 -0.16211973194E+04  0.16211973194E+04  0.25500000920E-02 0. -1.
    10030    2    1    2    0    0  0.00000000000E+00  0.00000000000E+00 -0.15022357438E+04  0.17401588951E+04  0.87831699878E+03 0.  0.
        5    1    3    3  502    0 -0.42551348136E+03 -0.10668775977E+03 -0.71178650772E+03  0.83612566249E+03  0.46999998093E+01 0.  1.
       -5    1    3    3    0  502  0.42551348136E+03  0.10668775977E+03 -0.79044923604E+03  0.90403323261E+03  0.46999998093E+01 0. -1.
</event>
<event>
 5   0  0.3262927E-03  0.1280626E+04  0.7818609E-02  0.9045072E-01
       -2   -1    0    0    0  501  0.00000000000E+00  0.00000000000E+00  0.15575924585E+03  0.15575924588E+03  0.25500000920E-02 0. -1.
        2   -1    0    0  501    0  0.00000000000E+00  0.00000000000E+00 -0.26322717796E+04  0.26322717796E+04  0.25500000920E-02 0.  1.
    10030    2    1    2    0    0  0.00000000000E+00  0.00000000000E+00 -0.24765125338E+04  0.27880310255E+04  0.12806258897E+04 0.  0.
        3    1    3    3  502    0 -0.25156485448E+03 -0.24251580383E+03 -0.70109087334E+02  0.35639035543E+03  0.10100000352E+00 0. -1.
       -3    1    3    3    0  502  0.25156485448E+03  0.24251580383E+03 -0.24064034465E+04  0.24316406701E+04  0.10100000352E+00 0.  1.
</event>
<event>
 5   0  0.3262927E-03  0.1327657E+04  0.7818609E-02  0.9007916E-01
        2   -1    0    0  501    0  0.00000000000E+00  0.00000000000E+00  0.84159092243E+03  0.84159092243E+03  0.25500000920E-02 0.  1.
       -2   -1    0    0    0  501  0.00000000000E+00  0.00000000000E+00 -0.52361371563E+03  0.52361371564E+03  0.25500000920E-02 0. -1.
    10030    2    1    2    0    0  0.00000000000E+00  0.00000000000E+00  0.31797720680E+03  0.13652046381E+04  0.13276574105E+04 0.  0.
        3    1    3    3  502    0 -0.44163372196E+03  0.27153204468E+03  0.58532050408E+03  0.78190159122E+03  0.10100000352E+00 0.  1.
       -3    1    3    3    0  502  0.44163372196E+03 -0.27153204468E+03 -0.26734329728E+03  0.58330304685E+03  0.10100000352E+00 0. -1.
</event>
<event>
 5   0  0.1803959E-03  0.1298339E+04  0.7818609E-02  0.9030884E-01
       -1   -1    0    0    0  501  0.00000000000E+00  0.00000000000E+00  0.25750567012E+03  0.25750567017E+03  0.50400001928E-02 0. -1.
        1   -1    0    0  501    0  0.00000000000E+00  0.00000000000E+00 -0.16365493796E+04  0.16365493796E+04  0.50400001928E-02 0.  1.
    10030    2    1    2    0    0  0.00000000000E+00  0.00000000000E+00 -0.13790437094E+04  0.18940550497E+04  0.12983385456E+04 0.  0.
        4    1    3    3  502    0  0.75356539620E+02  0.33528728693E+03 -0.14929689567E+04  0.15320098209E+04  0.12699999809E+01 0.  1.
       -4    1    3    3    0  502 -0.75356539620E+02 -0.33528728693E+03  0.11392524726E+03  0.36204522881E+03  0.12699999809E+01 0. -1.
</event>
<event>
 5   0  0.1803959E-03  0.1195628E+04  0.7818609E-02  0.9116692E-01
       -1   -1    0    0    0  501  0.00000000000E+00  0.00000000000E+00  0.30373107919E+03  0.30373107923E+03  0.50400001928E-02 0. -1.
        1   -1    0    0  501    0  0.00000000000E+00  0.00000000000E+00 -0.11766390019E+04  0.11766390019E+04  0.50400001928E-02 0.  1.
    10030    2    1    2    0    0  0.00000000000E+00  0.00000000000E+00 -0.87290792270E+03  0.14803700811E+04  0.11956284271E+04 0.  0.
        4    1    3    3  502    0 -0.48167521088E+03 -0.14030191970E+03 -0.33940983722E+02  0.50284116848E+03  0.12699999809E+01 0. -1.
       -4    1    3    3    0  502  0.48167521088E+03  0.14030191970E+03 -0.83896693898E+03  0.97752891264E+03  0.12699999809E+01 0.  1.
</event>
<event>
 5   0  0.1857986E-03  0.1282261E+04  0.7818609E-02  0.9043752E-01
        1   -1    0    0  501    0  0.00000000000E+00  0.00000000000E+00  0.12663647728E+04  0.12663647728E+04  0.50400001928E-02 0. -1.
       -1   -1    0    0    0  501  0.00000000000E+00  0.00000000000E+00 -0.32458909397E+03  0.32458909401E+03  0.50400001928E-02 0.  1.
    10030    2    1    2    0    0  0.00000000000E+00  0.00000000000E+00  0.94177567882E+03  0.15909538668E+04  0.12822608070E+04 0.  0.
        1    1    3    3  502    0 -0.13035010575E+03 -0.33872288498E+03  0.11266332040E+04  0.11836497452E+04  0.50400001928E-02 0. -1.
       -1    1    3    3    0  502  0.13035010575E+03  0.33872288498E+03 -0.18485752516E+03  0.40730412165E+03  0.50400001928E-02 0.  1.
</event>
<event>
 5   0  0.1814770E-03  0.1306567E+04  0.7818609E-02  0.9024373E-01
        1   -1    0    0  501    0  0.00000000000E+00  0.00000000000E+00  0.92142020168E+03  0.92142020170E+03  0.50400001928E-02 0.  1.
       -1   -1    0    0    0  501  0.00000000000E+00  0.00000000000E+00 -0.46317573172E+03  0.46317573175E+03  0.50400001928E-02 0. -1.
    10030    2    1    2    0    0  0.00000000000E+00  0.00000000000E+00  0.45824446996E+03  0.13845959334E+04  0.13065672216E+04 0.  0.
        5    1    3    3  502    0 -0.57891335448E+03  0.12051043419E+03  0.52336205101E+03  0.78967927869E+03  0.46999998093E+01 0.  1.
       -5    1    3    3    0  502  0.57891335448E+03 -0.12051043419E+03 -0.65117581052E+02  0.59491665476E+03  0.46999998093E+01 0. -1.
</event>
<event>
 5   0  0.1873488E-03  0.1279616E+04  0.7818609E-02  0.9045888E-01
        1   -1    0    0  501    0  0.00000000000E+00  0.00000000000E+00  0.81780003860E+03  0.81780003862E+03  0.50400001928E-02 0.  1.
       -1   -1    0    0    0  501  0.00000000000E+00  0.00000000000E+00 -0.50055581830E+03  0.50055581832E+03  0.50400001928E-02 0. -1.
    10030    2    1    2    0    0  0.00000000000E+00  0.00000000000E+00  0.31724422030E+03  0.13183558569E+04  0.12796164543E+04 0.  0.
        3    1    3    3  502    0  0.63950639330E+02  0.34187366654E+03 -0.39465267639E+03  0.52603995412E+03  0.10100000352E+00 0. -1.
       -3    1    3    3    0  502 -0.63950639330E+02 -0.34187366654E+03  0.71189689669E+03  0.79231590282E+03  0.10100000352E+00 0.  1.
</event>
<event>
 5   0  0.1803959E-03  0.1264639E+04  0.7818609E-02  0.9058086E-01
        1   -1    0    0  501    0  0.00000000000E+00  0.00000000000E+00  0.14066609740E+03  0.14066609749E+03  0.50400001928E-02 0. -1.
       -1   -1    0    0    0  501  0.00000000000E+00  0.00000000000E+00 -0.28423908937E+04  0.28423908937E+04  0.50400001928E-02 0.  1.
    10030    2    1    2    0    0  0.00000000000E+00  0.00000000000E+00 -0.27017247963E+04  0.29830569912E+04  0.12646391334E+04 0.  0.
        4    1    3    3  502    0 -0.49931783165E+03  0.68457645417E+01 -0.43589149946E+03  0.66284852998E+03  0.12699999809E+01 0. -1.
       -4    1    3    3    0  502  0.49931783165E+03 -0.68457645417E+01 -0.22658332969E+04  0.23202084613E+04  0.12699999809E+01 0.  1.
</event>
<event>
 5   0  0.1823154E-03  0.1305966E+04  0.7818609E-02  0.9024848E-01
       -1   -1    0    0    0  501  0.00000000000E+00  0.00000000000E+00  0.33643033096E+03  0.33643033100E+03  0.50400001928E-02 0.  1.
        1   -1    0    0  501    0  0.00000000000E+00  0.00000000000E+00 -0.12673842587E+04  0.12673842587E+04  0.50400001928E-02 0. -1.
    10030    2    1    2    0    0  0.00000000000E+00  0.00000000000E+00 -0.93095392772E+03  0.16038145897E+04  0.13059655518E+04 0.  0.
        2    1    3    3  502    0  0.16835507107E+03 -0.34300089632E+03  0.18481199299E+03  0.42443906228E+03  0.25500000920E-02 0.  1.
       -2    1    3    3    0  502 -0.16835507107E+03  0.34300089632E+03 -0.11157659207E+04  0.11793755274E+04  0.25500000920E-02 0. -1.
</event>
<event>
 5   0  0.3299104E-03  0.1320010E+04  0.7818609E-02  0.9013845E-01
       -2   -1    0    0    0  501  0.00000000000E+00  0.00000000000E+00  0.31746091203E+03  0.31746091205E+03  0.25500000920E-02 0. -1.
        2   -1    0    0  501    0  0.00000000000E+00  0.00000000000E+00 -0.13721592461E+04  0.13721592461E+04  0.25500000920E-02 0.  1.
    10030    2    1    2    0    0  0.00000000000E+00  0.00000000000E+00 -0.10546983341E+04  0.16896201581E+04  0.13200104935E+04 0.  0.
        2    1    3    3  502    0 -0.34136989290E+03 -0.22898198560E+03  0.13361052885E+03  0.43222439419E+03  0.25500000920E-02 0. -1.
       -2    1    3    3    0  502  0.34136989290E+03  0.22898198560E+03 -0.11883088629E+04  0.12573957640E+04  0.25500000920E-02 0.  1.
</event>
<event>
 5   0  0.1814770E-03  0.1240232E+04  0.7818609E-02  0.9078352E-01
        1   -1    0    0  501    0  0.00000000000E+00  0.00000000000E+00  0.19178465363E+04  0.19178465363E+04  0.50400001928E-02 0.  1.
       -1   -1    0    0    0  501  0.00000000000E+00  0.00000000000E+00 -0.20050828338E+03  0.20050828344E+03  0.50400001928E-02 0. -1.
    10030    2    1    2    0    0  0.00000000000E+00  0.00000000000E+00  0.17173382529E+04  0.21183548197E+04  0.12402324247E+04 0.  0.
        5    1    3    3  502    0  0.15219759194E+03 -0.58855306525E+03  0.64973566553E+03  0.88979623660E+03  0.46999998093E+01 0. -1.
       -5    1    3    3    0  502 -0.15219759194E+03  0.58855306525E+03  0.10676025874E+04  0.12285585831E+04  0.46999998093E+01 0.  1.
</event>
<event>
 5   0  0.1873488E-03  0.1299863E+04  0.7818609E-02  0.9029674E-01
       -1   -1    0    0    0  501  0.00000000000E+00  0.00000000000E+00  0.46514238573E+03  0.46514238576E+03  0.50400001928E-02 0. -1.
        1   -1    0    0  501    0  0.00000000000E+00  0.00000000000E+00 -0.90813304473E+03  0.90813304475E+03  0.50400001928E-02 0.  1.
    10030    2    1    2    0    0  0.00000000000E+00  0.00000000000E+00 -0.44299065900E+03  0.13732754305E+04  0.12998633328E+04 0.  0.
        3    1    3    3  502    0 -0.63000140136E+02 -0.27256636885E+03 -0.84126977546E+03  0.88656431712E+03  0.10100000352E+00 0.  1.
       -3    1    3    3    0  502  0.63000140136E+02  0.27256636885E+03  0.39827911646E+03  0.48671111338E+03  0.10100000352E+00 0. -1.
</event>
<event>
 5   0  0.3299104E-03  0.1308523E+04  0.7818609E-02  0.9022834E-01
       -2   -1    0    0    0  501  0.00000000000E+00  0.00000000000E+00  0.33676230391E+03  0.33676230392E+03  0.25500000920E-02 0.  1.
        2   -1    0    0  501    0  0.00000000000E+00  0.00000000000E+00 -0.12710979136E+04  0.12710979136E+04  0.25500000920E-02 0. -1.
    10030    2    1    2    0    0  0.00000000000E+00  0.00000000000E+00 -0.93433560969E+03  0.16078602175E+04  0.13085226202E+04 0.  0.
        2    1    3    3  502    0  0.65314637278E+03  0.36989109593E+02 -0.45554426969E+03  0.79717561438E+03  0.25500000920E-02 0. -1.
       -2    1    3    3    0  502 -0.65314637278E+03 -0.36989109593E+02 -0.47879134000E+03  0.81068460314E+03  0.25500000920E-02 0.  1.
</event>
<event>
 5   0  0.1823154E-03  0.1326809E+04  0.7818609E-02  0.9008571E-01
       -1   -1    0    0    0  501  0.00000000000E+00  0.00000000000E+00  0.36579811424E+03  0.36579811428E+03  0.50400001928E-02 0. -1.
        1   -1    0    0  501    0  0.00000000000E+00  0.00000000000E+00 -0.12031380176E+04  0.12031380176E+04  0.50400001928E-02 0.  1.
    10030    2    1    2    0    0  0.00000000000E+00  0.00000000000E+00 -0.83733990334E+03  0.15689361319E+04  0.13268091318E+04 0.  0.
        2    1    3    3  502    0 -0.58135304539E+03 -0.20264940801E+03 -0.71088446633E+03  0.94042270838E+03  0.25500000920E-02 0.  1.
       -2    1    3    3    0  502  0.58135304539E+03  0.20264940801E+03 -0.12645543701E+03  0.62851342349E+03  0.25500000920E-02 0. -1.
</event>
<event>
 5   0  0.1814770E-03  0.1291754E+04  0.7818609E-02  0.9036130E-01
       -1   -1    0    0    0  501  0.00000000000E+00  0.00000000000E+00  0.10316198476E+04  0.10316198476E+04  0.50400001928E-02 0.  1.
        1   -1    0    0  501    0  0.00000000000E+00  0.00000000000E+00 -0.40437116891E+03  0.40437116894E+03  0.50400001928E-02 0. -1.
    10030    2    1    2    0    0  0.00000000000E+00  0.00000000000E+00  0.62724867871E+03  0.14359910166E+04  0.12917543477E+04 0.  0.
        5    1    3    3  502    0 -0.32978908349E+03  0.29023057991E+02  0.93010149385E+03  0.98727607909E+03  0.46999998093E+01 0.  1.
       -5    1    3    3    0  502  0.32978908349E+03 -0.29023057991E+02 -0.30285281514E+03  0.44871493748E+03  0.46999998093E+01 0. -1.
</event>
<event>
 5   0  0.3336609E-03  0.1324800E+04  0.7818609E-02  0.9010126E-01
        2   -1    0    0  501    0  0.00000000000E+00  0.00000000000E+00  0.64072708400E+03  0.64072708401E+03  0.25500000920E-02 0.  1.
       -2   -1    0    0    0  501  0.00000000000E+00  0.00000000000E+00 -0.68480623355E+03  0.68480623356E+03  0.25500000920E-02 0. -1.
    10030    2    1    2    0    0  0.00000000000E+00  0.00000000000E+00 -0.44079149549E+02  0.13255333176E+04  0.13248002131E+04 0.  0.
        1    1    3    3  502    0  0.24793375032E+03 -0.44067629545E+03 -0.45018659068E+03  0.67700421592E+03  0.50400001928E-02 0. -1.
       -1    1    3    3    0  502 -0.24793375032E+03  0.44067629545E+03  0.40610744113E+03  0.64852910165E+03  0.50400001928E-02 0.  1.
</event>
<event>
 5   0  0.3299104E-03  0.1261663E+04  0.7818609E-02  0.9060532E-01
       -2   -1    0    0    0  501  0.00000000000E+00  0.00000000000E+00  0.24426626318E+03  0.24426626319E+03  0.25500000920E-02 0.  1.
        2   -1    0    0  501    0  0.00000000000E+00  0.00000000000E+00 -0.16291573418E+04  0.16291573418E+04  0.25500000920E-02 0. -1.
    10030    2    1    2    0    0  0.00000000000E+00  0.00000000000E+00 -0.13848910786E+04  0.18734236050E+04  0.12616626745E+04 0.  0.
        2    1    3    3  502    0  0.38866936737E+03  0.33117392242E+03 -0.12424708297E+04  0.13433070411E+04  0.25500000920E-02 0. -1.
       -2    1    3    3    0  502 -0.38866936737E+03 -0.33117392242E+03 -0.14242024895E+03  0.53011656392E+03  0.25500000920E-02 0.  1.
</event>
<event>
 5   0  0.3259968E-03  0.1315987E+04  0.7818609E-02  0.9016983E-01
       -2   -1    0    0    0  501  0.00000000000E+00  0.00000000000E+00  0.19221833186E+03  0.19221833188E+03  0.25500000920E-02 0.  1.
        2   -1    0    0  501    0  0.00000000000E+00  0.00000000000E+00 -0.22524137907E+04  0.22524137907E+04  0.25500000920E-02 0. -1.
    10030    2    1    2    0    0  0.00000000000E+00  0.00000000000E+00 -0.20601954589E+04  0.24446321226E+04  0.13159866588E+04 0.  0.
        4    1    3    3  502    0  0.54081437937E+03  0.90211130342E+02 -0.35432604291E+03  0.65281452079E+03  0.12699999809E+01 0.  1.
       -4    1    3    3    0  502 -0.54081437937E+03 -0.90211130342E+02 -0.17058694160E+04  0.17918176018E+04  0.12699999809E+01 0. -1.
</event>
<event>
 5   0  0.3294720E-03  0.1324499E+04  0.7818609E-02  0.9010360E-01
        2   -1    0    0  501    0  0.00000000000E+00  0.00000000000E+00  0.14303136556E+04  0.14303136556E+04  0.25500000920E-02 0. -1.
       -2   -1    0    0    0  501  0.00000000000E+00  0.00000000000E+00 -0.30662814130E+03  0.30662814131E+03  0.25500000920E-02 0.  1.
    10030    2    1    2    0    0  0.00000000000E+00  0.00000000000E+00  0.11236855143E+04  0.17369417969E+04  0.13244990263E+04 0.  0.
        5    1    3    3  502    0 -0.37849932555E+03  0.76500717230E+02 -0.14368087966E+03  0.41204415341E+03  0.46999998093E+01 0.  1.
       -5    1    3    3    0  502  0.37849932555E+03 -0.76500717230E+02  0.12673663940E+04  0.13248976435E+04  0.46999998093E+01 0. -1.
</event>
<event>
 5   0  0.3259968E-03  0.1240364E+04  0.7818609E-02  0.9078242E-01
        2   -1    0    0  501    0  0.00000000000E+00  0.00000000000E+00  0.26447943006E+04  0.26447943006E+04  0.25500000920E-02 0.  1.
       -2   -1    0    0    0  501  0.00000000000E+00  0.00000000000E+00 -0.14542734609E+03  0.14542734611E+03  0.25500000920E-02 0. -1.
    10030    2    1    2    0    0  0.00000000000E+00  0.00000000000E+00  0.24993669545E+04  0.27902216467E+04  0.12403635211E+04 0.  0.
        4    1    3    3  502    0  0.40747284545E+03 -0.32188971808E+03  0.48691168410E+03  0.71185090532E+03  0.12699999809E+01 0. -1.
       -4    1    3    3    0  502 -0.40747284545E+03  0.32188971808E+03  0.20124552704E+04  0.20783707414E+04  0.12699999809E+01 0.  1.
</event>
<event>
 5   0  0.3336609E-03  0.1362861E+04  0.7818609E-02  0.8981150E-01
       -2   -1    0    0    0  501  0.00000000000E+00  0.00000000000E+00  0.55205238787E+03  0.55205238788E+03  0.25500000920E-02 0. -1.
        2   -1    0    0  501    0  0.00000000000E+00  0.00000000000E+00 -0.84112889990E+03  0.84112889990E+03  0.25500000920E-02 0.  1.
    10030    2    1    2    0    0  0.00000000000E+00  0.00000000000E+00 -0.28907651203E+03  0.13931812878E+04  0.13628605471E+04 0.  0.
        1    1    3    3  502    0 -0.66319965391E+03  0.10921189162E+03 -0.25922243719E+03  0.72038690312E+03  0.50400001928E-02 0. -1.
       -1    1    3    3    0  502  0.66319965391E+03 -0.10921189162E+03 -0.29854074840E+02  0.67279438466E+03  0.50400001928E-02 0.  1.
</event>
<event>
 5   0  0.1823154E-03  0.1348305E+04  0.7818609E-02  0.8992112E-01
        1   -1    0    0  501    0  0.00000000000E+00  0.00000000000E+00  0.38535642608E+03  0.38535642611E+03  0.50400001928E-02 0. -1.
       -1   -1    0    0    0  501  0.00000000000E+00  0.00000000000E+00 -0.11793794033E+04  0.11793794033E+04  0.50400001928E-02 0.  1.
    10030    2    1    2    0    0  0.00000000000E+00  0.00000000000E+00 -0.79402297718E+03  0.15647358294E+04  0.13483047606E+04 0.  0.
        2    1    3    3  502    0 -0.81796473748E+02  0.66910821881E+03 -0.40770846095E+03  0.78779607814E+03  0.25500000920E-02 0.  1.
       -2    1    3    3    0  502  0.81796473748E+02 -0.66910821881E+03 -0.38631451624E+03  0.77693975125E+03  0.25500000920E-02 0. -1.
</event>
<event>
 5   0  0.3299104E-03  0.1304064E+04  0.7818609E-02  0.9026349E-01
        2   -1    0    0  501    0  0.00000000000E+00  0.00000000000E+00  0.10754627654E+04  0.10754627655E+04  0.25500000920E-02 0. -1.
       -2   -1    0    0    0  501  0.00000000000E+00  0.00000000000E+00 -0.39531411583E+03  0.39531411584E+03  0.25500000920E-02 0.  1.
    10030    2    1    2    0    0  0.00000000000E+00  0.00000000000E+00  0.68014864961E+03  0.14707768813E+04  0.13040638209E+04 0.  0.
        2    1    3    3  502    0  0.55344347166E+02 -0.31961313504E+03  0.97800791695E+03  0.10303955738E+04  0.25500000920E-02 0. -1.
       -2    1    3    3    0  502 -0.55344347166E+02  0.31961313504E+03 -0.29785926734E+03  0.44038130751E+03  0.25500000920E-02 0.  1.
</event>
<event>
 5   0  0.3262927E-03  0.1312784E+04  0.7818609E-02  0.9019488E-01
        2   -1    0    0  501    0  0.00000000000E+00  0.00000000000E+00  0.62840693638E+03  0.62840693639E+03  0.25500000920E-02 0.  1.
       -2   -1    0    0    0  501  0.00000000000E+00  0.00000000000E+00 -0.68562333824E+03  0.68562333825E+03  0.25500000920E-02 0. -1.
    10030    2    1    2    0    0  0.00000000000E+00  0.00000000000E+00 -0.57216401859E+02  0.13140302746E+04  0.13127840058E+04 0.  0.
        3    1    3    3  502    0 -0.53849457723E+03  0.20314951554E+03  0.28729292437E+03  0.64325995520E+03  0.10100000352E+00 0.  1.
       -3    1    3    3    0  502  0.53849457723E+03 -0.20314951554E+03 -0.34450932623E+03  0.67077031943E+03  0.10100000352E+00 0. -1.
</event>
<event>
 5   0  0.3294720E-03  0.1278245E+04  0.7818609E-02  0.9046997E-01
       -2   -1    0    0    0  501  0.00000000000E+00  0.00000000000E+00  0.38578132536E+03  0.38578132537E+03  0.25500000920E-02 0.  1.
        2   -1    0    0  501    0  0.00000000000E+00  0.00000000000E+00 -0.10588318513E+04  0.10588318513E+04  0.25500000920E-02 0. -1.
    10030    2    1    2    0    0  0.00000000000E+00  0.00000000000E+00 -0.67305052591E+03  0.14446131766E+04  0.12782449764E+04 0.  0.
        5    1    3    3  502    0 -0.31804322022E+03 -0.42357237847E+03  0.67637665710E+02  0.53400561191E+03  0.46999998093E+01 0.  1.
       -5    1    3    3    0  502  0.31804322022E+03  0.42357237847E+03 -0.74068819162E+03  0.91060756473E+03  0.46999998093E+01 0. -1.
</event>
<event>
 5   0  0.3336609E-03  0.1274332E+04  0.7818609E-02  0.9050172E-01
       -2   -1    0    0    0  501  0.00000000000E+00  0.00000000000E+00  0.52197648105E+03  0.52197648105E+03  0.25500000920E-02 0.  1.
        2   -1    0    0  501    0  0.00000000000E+00  0.00000000000E+00 -0.77777490090E+03  0.77777490090E+03  0.25500000920E-02 0. -1.
    10030    2    1    2    0    0  0.00000000000E+00  0.00000000000E+00 -0.25579841985E+03  0.12997513820E+04  0.12743315202E+04 0.  0.
        1    1    3    3  502    0 -0.41801965183E+03  0.37786872225E+03 -0.43124576602E+03  0.70957600813E+03  0.50400001928E-02 0. -1.
       -1    1    3    3    0  502  0.41801965183E+03 -0.37786872225E+03  0.17544734617E+03  0.59017537383E+03  0.50400001928E-02 0.  1.
</event>
<event>
 5   0  0.1857986E-03  0.1296318E+04  0.7818609E-02  0.9032490E-01
       -1   -1    0    0    0  501  0.00000000000E+00  0.00000000000E+00  0.80723587693E+03  0.80723587695E+03  0.50400001928E-02 0. -1.
        1   -1    0    0  501    0  0.00000000000E+00  0.00000000000E+00 -0.52043003888E+03  0.52043003891E+03  0.50400001928E-02 0.  1.
    10030    2    1    2    0    0  0.00000000000E+00  0.00000000000E+00  0.28680583805E+03  0.13276659159E+04  0.12963175519E+04 0.  0.
        1    1    3    3  502    0 -0.61896827293E+03  0.19216545686E+03  0.15137005404E+03  0.66555403912E+03  0.50400001928E-02 0. -1.
       -1    1    3    3    0  502  0.61896827293E+03 -0.19216545686E+03  0.13543578401E+03  0.66211187674E+03  0.50400001928E-02 0.  1.
</event>
<event>
 5   0  0.3299104E-03  0.1348745E+04  0.7818609E-02  0.8991779E-01
        2   -1    0    0  501    0  0.00000000000E+00  0.00000000000E+00  0.15535670257E+04  0.15535670257E+04  0.25500000920E-02 0.  1.
       -2   -1    0    0    0  501  0.00000000000E+00  0.00000000000E+00 -0.29273171335E+03  0.29273171336E+03  0.25500000920E-02 0. -1.
    10030    2    1    2    0    0  0.00000000000E+00  0.00000000000E+00  0.12608353123E+04  0.18462987390E+04  0.13487451016E+04 0.  0.
        2    1    3    3  502    0 -0.40031469379E+03 -0.34020456534E+03  0.12092335799E+04  0.13184221065E+04  0.25500000920E-02 0.  1.
       -2    1    3    3    0  502  0.40031469379E+03  0.34020456534E+03  0.51601732467E+02  0.52787663251E+03  0.25500000920E-02 0. -1.
</event>
<event>
 5   0  0.1873488E-03  0.1293009E+04  0.7818609E-02  0.9035127E-01
        1   -1    0    0  501    0  0.00000000000E+00  0.00000000000E+00  0.19538440565E+04  0.19538440565E+04  0.50400001928E-02 0. -1.
       -1   -1    0    0    0  501  0.00000000000E+00  0.00000000000E+00 -0.21392099295E+03  0.21392099301E+03  0.50400001928E-02 0.  1.
    10030    2    1    2    0    0  0.00000000000E+00  0.00000000000E+00  0.17399230636E+04  0.21677650496E+04  0.12930092973E+04 0.  0.
        3    1    3    3  502    0  0.77876722429E+02  0.19461126221E+03 -0.15536863784E+03  0.26091713455E+03  0.10100000352E+00 0.  1.
       -3    1    3    3    0  502 -0.77876722429E+02 -0.19461126221E+03  0.18952917014E+04  0.19068479150E+04  0.10100000352E+00 0. -1.
</event>
<event>
 5   0  0.3294720E-03  0.8644862E+03  0.7818609E-02  0.9471098E-01
       -2   -1    0    0    0  501  0.00000000000E+00  0.00000000000E+00  0.14466441311E+03  0.14466441313E+03  0.25500000920E-02 0.  1.
        2   -1    0    0  501    0  0.00000000000E+00  0.00000000000E+00 -0.12914999450E+04  0.12914999450E+04  0.25500000920E-02 0. -1.
    10030    2    1    2    0    0  0.00000000000E+00  0.00000000000E+00 -0.11468355319E+04  0.14361643582E+04  0.86448616323E+03 0.  0.
        5    1    3    3  502    0  0.57611540007E+02 -0.42640895094E+03 -0.64127314719E+03  0.77226745515E+03  0.46999998093E+01 0. -1.
       -5    1    3    3    0  502 -0.57611540007E+02  0.42640895094E+03 -0.50556238475E+03  0.66389690303E+03  0.46999998093E+01 0.  1.
</event>
<event>
 5   0  0.1823154E-03  0.1317835E+04  0.7818609E-02  0.9015540E-01
        1   -1    0    0  501    0  0.00000000000E+00  0.00000000000E+00  0.76194961113E+03  0.76194961114E+03  0.50400001928E-02 0. -1.
       -1   -1    0    0    0  501  0.00000000000E+00  0.00000000000E+00 -0.56981758033E+03  0.56981758035E+03  0.50400001928E-02 0.  1.
    10030    2    1    2    0    0  0.00000000000E+00  0.00000000000E+00  0.19213203080E+03  0.13317671915E+04  0.13178350182E+04 0.  0.
        2    1    3    3  502    0 -0.81689947080E+02  0.39349516058E+03  0.62375552073E+03  0.74201255953E+03  0.25500000920E-02 0. -1.
       -2    1    3    3    0  502  0.81689947080E+02 -0.39349516058E+03 -0.43162348993E+03  0.58975463196E+03  0.25500000920E-02 0.  1.
</event>
<event>
 5   0  0.3259968E-03  0.1235753E+04  0.7818609E-02  0.9082125E-01
       -2   -1    0    0    0  501  0.00000000000E+00  0.00000000000E+00  0.21762067179E+03  0.21762067181E+03  0.25500000920E-02 0.  1.
        2   -1    0    0  501    0  0.00000000000E+00  0.00000000000E+00 -0.17542976174E+04  0.17542976174E+04  0.25500000920E-02 0. -1.
    10030    2    1    2    0    0  0.00000000000E+00  0.00000000000E+00 -0.15366769456E+04  0.19719182892E+04  0.12357530919E+04 0.  0.
        4    1    3    3  502    0 -0.20768054022E+03  0.22539678434E+03  0.87770269079E+02  0.31881052400E+03  0.12699999809E+01 0.  1.
       -4    1    3    3    0  502  0.20768054022E+03 -0.22539678434E+03 -0.16244472147E+04  0.16531077652E+04  0.12699999809E+01 0. -1.
</event>
<event>
 5   0  0.1857986E-03  0.1359780E+04  0.7818609E-02  0.8983458E-01
        1   -1    0    0  501    0  0.00000000000E+00  0.00000000000E+00  0.46306535180E+03  0.46306535183E+03  0.50400001928E-02 0. -1.
       -1   -1    0    0    0  501  0.00000000000E+00  0.00000000000E+00 -0.99823940830E+03  0.99823940831E+03  0.50400001928E-02 0.  1.
    10030    2    1    2    0    0  0.00000000000E+00  0.00000000000E+00 -0.53517405649E+03  0.14613047601E+04  0.13597795157E+04 0.  0.
        1    1    3    3  502    0  0.32686598087E+03  0.28528938776E+03 -0.83013865946E+03  0.93667582342E+03  0.50400001928E-02 0.  1.
       -1    1    3    3    0  502 -0.32686598087E+03 -0.28528938776E+03  0.29496460297E+03  0.52462893672E+03  0.50400001928E-02 0. -1.
</event>
<event>
 5   0  0.3336609E-03  0.1269785E+04  0.7818609E-02  0.9053875E-01
        2   -1    0    0  501    0  0.00000000000E+00  0.00000000000E+00  0.73834159432E+03  0.73834159432E+03  0.25500000920E-02 0. -1.
       -2   -1    0    0    0  501  0.00000000000E+00  0.00000000000E+00 -0.54593747806E+03  0.54593747807E+03  0.25500000920E-02 0.  1.
    10030    2    1    2    0    0  0.00000000000E+00  0.00000000000E+00  0.19240411626E+03  0.12842790724E+04  0.12697847817E+04 0.  0.
        1    1    3    3  502    0 -0.41192710451E+02  0.24247065856E+03  0.68820333424E+03  0.73083013686E+03  0.50400001928E-02 0. -1.
       -1    1    3    3    0  502  0.41192710451E+02 -0.24247065856E+03 -0.49579921798E+03  0.55344893553E+03  0.50400001928E-02 0.  1.
</event>
<event>
 5   0  0.1803959E-03  0.1279950E+04  0.7818609E-02  0.9045618E-01
       -1   -1    0    0    0  501  0.00000000000E+00  0.00000000000E+00  0.15580983329E+03  0.15580983337E+03  0.50400001928E-02 0.  1.
        1   -1    0    0  501    0  0.00000000000E+00  0.00000000000E+00 -0.26286384449E+04  0.26286384449E+04  0.50400001928E-02 0. -1.
    10030    2    1    2    0    0  0.00000000000E+00  0.00000000000E+00 -0.24728286116E+04  0.27844482783E+04  0.12799495584E+04 0.  0.
        4    1    3    3  502    0  0.30798249876E+03 -0.18948878210E+03 -0.23850916332E+04  0.24123480117E+04  0.12699999809E+01 0. -1.
       -4    1    3    3    0  502 -0.30798249876E+03  0.18948878210E+03 -0.87736978427E+02  0.37210026655E+03  0.12699999809E+01 0.  1.
</event>
<event>
 5   0  0.1254125E-03  0.1296609E+04  0.7818609E-02  0.9032258E-01
       -3   -1    0    0    0  501  0.00000000000E+00  0.00000000000E+00  0.10732341485E+04  0.10732341533E+04  0.10100000352E+00 0.  1.
        3   -1    0    0  501    0  0.00000000000E+00  0.00000000000E+00 -0.39161904323E+03  0.39161905625E+03  0.10100000352E+00 0. -1.
    10030    2    1    2    0    0  0.00000000000E+00  0.00000000000E+00  0.68161510532E+03  0.14648532095E+04  0.12966093374E+04 0.  0.
        1    1    3    3  502    0  0.23663367285E+03  0.71941277338E+02  0.10178400820E+04  0.10474585792E+04  0.50400001928E-02 0.  1.
       -1    1    3    3    0  502 -0.23663367285E+03 -0.71941277338E+02 -0.33622497668E+03  0.41739463039E+03  0.50400001928E-02 0. -1.
</event>
<event>
 5   0  0.3262927E-03  0.1228498E+04  0.7818609E-02  0.9088272E-01
        2   -1    0    0  501    0  0.00000000000E+00  0.00000000000E+00  0.43208697011E+03  0.43208697012E+03  0.25500000920E-02 0.  1.
       -2   -1    0    0    0  501  0.00000000000E+00  0.00000000000E+00 -0.87320741947E+03  0.87320741947E+03  0.25500000920E-02 0. -1.
    10030    2    1    2    0    0  0.00000000000E+00  0.00000000000E+00 -0.44112044935E+03  0.13052943896E+04  0.12284975347E+04 0.  0.
        3    1    3    3  502    0 -0.63237643852E+02  0.33021663643E+03  0.32563700855E+03  0.46806142558E+03  0.10100000352E+00 0.  1.
       -3    1    3    3    0  502  0.63237643852E+02 -0.33021663643E+03 -0.76675745791E+03  0.83723296401E+03  0.10100000352E+00 0. -1.
</event>
<event>
 5   0  0.1873488E-03  0.1249245E+04  0.7818609E-02  0.9070812E-01
        1   -1    0    0  501    0  0.00000000000E+00  0.00000000000E+00  0.17005190446E+04  0.17005190446E+04  0.50400001928E-02 0. -1.
       -1   -1    0    0    0  501  0.00000000000E+00  0.00000000000E+00 -0.22943186799E+03  0.22943186804E+03  0.50400001928E-02 0.  1.
    10030    2    1    2    0    0  0.00000000000E+00  0.00000000000E+00  0.14710871766E+04  0.19299509126E+04  0.12492449896E+04 0.  0.
        3    1    3    3  502    0  0.44300219337E+03 -0.26201889958E+03  0.18879868082E+03  0.54822422342E+03  0.10100000352E+00 0.  1.
       -3    1    3    3    0  502 -0.44300219337E+03  0.26201889958E+03  0.12822884958E+04  0.13817266892E+04  0.10100000352E+00 0. -1.
</event>
<event>
 5   0  0.3336609E-03  0.1400441E+04  0.7818609E-02  0.8953499E-01
       -2   -1    0    0    0  501  0.00000000000E+00  0.00000000000E+00  0.28077183469E+03  0.28077183471E+03  0.25500000920E-02 0. -1.
        2   -1    0    0  501    0  0.00000000000E+00  0.00000000000E+00 -0.17462888660E+04  0.17462888660E+04  0.25500000920E-02 0.  1.
    10030    2    1    2    0    0  0.00000000000E+00  0.00000000000E+00 -0.14655170313E+04  0.20270607007E+04  0.14004409717E+04 0.  0.
        1    1    3    3  502    0 -0.34986739635E+02  0.63824777479E+03 -0.11465465318E+04  0.13126893172E+04  0.50400001928E-02 0.  1.
       -1    1    3    3    0  502  0.34986739635E+02 -0.63824777479E+03 -0.31897049955E+03  0.71437138352E+03  0.50400001928E-02 0. -1.
</event>
<event>
 5   0  0.1803959E-03  0.1294743E+04  0.7818609E-02  0.9033744E-01
       -1   -1    0    0    0  501  0.00000000000E+00  0.00000000000E+00  0.41523771945E+03  0.41523771948E+03  0.50400001928E-02 0. -1.
        1   -1    0    0  501    0  0.00000000000E+00  0.00000000000E+00 -0.10092768759E+04  0.10092768759E+04  0.50400001928E-02 0.  1.
    10030    2    1    2    0    0  0.00000000000E+00  0.00000000000E+00 -0.59403915641E+03  0.14245145954E+04  0.12947429525E+04 0.  0.
        4    1    3    3  502    0 -0.27493367609E+03  0.33723294333E+03 -0.82441146103E+03  0.93218584751E+03  0.12699999809E+01 0.  1.
       -4    1    3    3    0  502  0.27493367609E+03 -0.33723294333E+03  0.23037230462E+03  0.49232874784E+03  0.12699999809E+01 0. -1.
</event>
<event>
 5   0  0.3262927E-03  0.1293275E+04  0.7818609E-02  0.9034915E-01
       -2   -1    0    0    0  501  0.00000000000E+00  0.00000000000E+00  0.70104172504E+03  0.70104172504E+03  0.25500000920E-02 0. -1.
        2   -1    0    0  501    0  0.00000000000E+00  0.00000000000E+00 -0.59645523497E+03  0.59645523498E+03  0.25500000920E-02 0.  1.
    10030    2    1    2    0    0  0.00000000000E+00  0.00000000000E+00  0.10458649007E+03  0.12974969600E+04  0.12932749233E+04 0.  0.
        3    1    3    3  502    0  0.56037973023E+03  0.29282559005E+03 -0.83676792303E+02  0.63778843201E+03  0.10100000352E+00 0. -1.
       -3    1    3    3    0  502 -0.56037973023E+03 -0.29282559005E+03  0.18826328237E+03  0.65970852801E+03  0.10100000352E+00 0.  1.
</event>
<event>
 5   0  0.1803959E-03  0.1272331E+04  0.7818609E-02  0.9051799E-01
       -1   -1    0    0    0  501  0.00000000000E+00  0.00000000000E+00  0.61134658546E+03  0.61134658548E+03  0.50400001928E-02 0. -1.
        1   -1    0    0  501    0  0.00000000000E+00  0.00000000000E+00 -0.66199194029E+03  0.66199194030E+03  0.50400001928E-02 0.  1.
    10030    2    1    2    0    0  0.00000000000E+00  0.00000000000E+00 -0.50645354826E+02  0.12733385258E+04  0.12723309512E+04 0.  0.
        4    1    3    3  502    0 -0.20077282399E+03  0.37076939443E+03 -0.50206661374E+03  0.65563112207E+03  0.12699999809E+01 0.  1.
       -4    1    3    3    0  502  0.20077282399E+03 -0.37076939443E+03  0.45142125891E+03  0.61770740371E+03  0.12699999809E+01 0. -1.
</event>
<event>
 5   0  0.1814770E-03  0.1272243E+04  0.7818609E-02  0.9051871E-01
        1   -1    0    0  501    0  0.00000000000E+00  0.00000000000E+00  0.94789213028E+03  0.94789213029E+03  0.50400001928E-02 0.  1.
       -1   -1    0    0    0  501  0.00000000000E+00  0.00000000000E+00 -0.42689498958E+03  0.42689498961E+03  0.50400001928E-02 0. -1.
    10030    2    1    2    0    0  0.00000000000E+00  0.00000000000E+00  0.52099714070E+03  0.13747871199E+04  0.12722427459E+04 0.  0.
        5    1    3    3  502    0  0.39894694334E+03  0.12487715169E+03 -0.25759913396E+03  0.49105230926E+03  0.46999998093E+01 0. -1.
       -5    1    3    3    0  502 -0.39894694334E+03 -0.12487715169E+03  0.77859627467E+03  0.88373481064E+03  0.46999998093E+01 0.  1.
</event>
<event>
 5   0  0.1803959E-03  0.1296740E+04  0.7818609E-02  0.9032155E-01
        1   -1    0    0  501    0  0.00000000000E+00  0.00000000000E+00  0.42168340163E+03  0.42168340166E+03  0.50400001928E-02 0. -1.
       -1   -1    0    0    0  501  0.00000000000E+00  0.00000000000E+00 -0.99691741838E+03  0.99691741839E+03  0.50400001928E-02 0.  1.
    10030    2    1    2    0    0  0.00000000000E+00  0.00000000000E+00 -0.57523401674E+03  0.14186008201E+04  0.12967398014E+04 0.  0.
        4    1    3    3  502    0  0.52244479519E+03  0.13745697483E+03  0.10459845128E+03  0.55025942324E+03  0.12699999809E+01 0. -1.
       -4    1    3    3    0  502 -0.52244479519E+03 -0.13745697483E+03 -0.67983246802E+03  0.86834139682E+03  0.12699999809E+01 0.  1.
</event>
<event>
 5   0  0.1873488E-03  0.1295162E+04  0.7818609E-02  0.9033410E-01
       -1   -1    0    0    0  501  0.00000000000E+00  0.00000000000E+00  0.34386611479E+03  0.34386611483E+03  0.50400001928E-02 0.  1.
        1   -1    0    0  501    0  0.00000000000E+00  0.00000000000E+00 -0.12195483043E+04  0.12195483044E+04  0.50400001928E-02 0. -1.
    10030    2    1    2    0    0  0.00000000000E+00  0.00000000000E+00 -0.87568218955E+03  0.15634144192E+04  0.12951622867E+04 0.  0.
        3    1    3    3  502    0  0.51091088020E+03 -0.17902947500E+03 -0.86680124236E+03  0.10219715673E+04  0.10100000352E+00 0.  1.
       -3    1    3    3    0  502 -0.51091088020E+03  0.17902947500E+03 -0.88809471938E+01  0.54144285188E+03  0.10100000352E+00 0. -1.
</event>
<event>
 5   0  0.3299104E-03  0.1216925E+04  0.7818609E-02  0.9098170E-01
        2   -1    0    0  501    0  0.00000000000E+00  0.00000000000E+00  0.11955210590E+04  0.11955210590E+04  0.25500000920E-02 0. -1.
       -2   -1    0    0    0  501  0.00000000000E+00  0.00000000000E+00 -0.30967783346E+03  0.30967783348E+03  0.25500000920E-02 0.  1.
    10030    2    1    2    0    0  0.00000000000E+00  0.00000000000E+00  0.88584322553E+03  0.15051988925E+04  0.12169246015E+04 0.  0.
        2    1    3    3  502    0  0.28712008304E+03 -0.42659307329E+03  0.40587398484E+02  0.51581675931E+03  0.25500000920E-02 0.  1.
       -2    1    3    3    0  502 -0.28712008304E+03  0.42659307329E+03  0.84525582705E+03  0.98938213317E+03  0.25500000920E-02 0. -1.
</event>
<event>
 5   0  0.3259968E-03  0.1302218E+04  0.7818609E-02  0.9027808E-01
        2   -1    0    0  501    0  0.00000000000E+00  0.00000000000E+00  0.15812198265E+04  0.15812198265E+04  0.25500000920E-02 0.  1.
       -2   -1    0    0    0  501  0.00000000000E+00  0.00000000000E+00 -0.26811139013E+03  0.26811139014E+03  0.25500000920E-02 0. -1.
    10030    2    1    2    0    0  0.00000000000E+00  0.00000000000E+00  0.13131084364E+04  0.18493312167E+04  0.13022181780E+04 0.  0.
        4    1    3    3  502    0 -0.15078356761E+03 -0.35984112368E+02  0.15546291286E+04  0.15623392337E+04  0.12699999809E+01 0.  1.
       -4    1    3    3    0  502  0.15078356761E+03  0.35984112368E+02 -0.24152069226E+03  0.28699198297E+03  0.12699999809E+01 0. -1.
</event>
<event>
 5   0  0.3294720E-03  0.1330538E+04  0.7818609E-02  0.9005693E-01
        2   -1    0    0  501    0  0.00000000000E+00  0.00000000000E+00  0.17547015993E+04  0.17547015993E+04  0.25500000920E-02 0. -1.
       -2   -1    0    0    0  501  0.00000000000E+00  0.00000000000E+00 -0.25222692730E+03  0.25222692731E+03  0.25500000920E-02 0.  1.
    10030    2    1    2    0    0  0.00000000000E+00  0.00000000000E+00  0.15024746720E+04  0.20069285266E+04  0.13305382260E+04 0.  0.
        5    1    3    3  502    0 -0.23955807270E+03  0.53180018596E+03  0.26865363778E+03  0.64218095197E+03  0.46999998093E+01 0.  1.
       -5    1    3    3    0  502  0.23955807270E+03 -0.53180018596E+03  0.12338210342E+04  0.13647475746E+04  0.46999998093E+01 0. -1.
</event>
<event>
 5   0  0.3294720E-03  0.1300872E+04  0.7818609E-02  0.9028874E-01
        2   -1    0    0  501    0  0.00000000000E+00  0.00000000000E+00  0.98025122000E+03  0.98025122000E+03  0.25500000920E-02 0.  1.
       -2   -1    0    0    0  501  0.00000000000E+00  0.00000000000E+00 -0.43159017723E+03  0.43159017724E+03  0.25500000920E-02 0. -1.
    10030    2    1    2    0    0  0.00000000000E+00  0.00000000000E+00  0.54866104277E+03  0.14118413972E+04  0.13008717043E+04 0.  0.
        5    1    3    3  502    0 -0.64858124284E+03  0.25681964746E+02  0.22922159692E+03  0.68839074831E+03  0.46999998093E+01 0.  1.
       -5    1    3    3    0  502  0.64858124284E+03 -0.25681964746E+02  0.31943944585E+03  0.72345064893E+03  0.46999998093E+01 0. -1.
</event>
<event>
 5   0  0.1803959E-03  0.1360074E+04  0.7818609E-02  0.8983237E-01
       -1   -1    0    0    0  501  0.00000000000E+00  0.00000000000E+00  0.61682417953E+03  0.61682417955E+03  0.50400001928E-02 0.  1.
        1   -1    0    0  501    0  0.00000000000E+00  0.00000000000E+00 -0.74972763723E+03  0.74972763725E+03  0.50400001928E-02 0. -1.
    10030    2    1    2    0    0  0.00000000000E+00  0.00000000000E+00 -0.13290345770E+03  0.13665518168E+04  0.13600737256E+04 0.  0.
        4    1    3    3  502    0  0.27818630515E+03  0.25918015590E+03 -0.63295148645E+03  0.73837061878E+03  0.12699999809E+01 0. -1.
       -4    1    3    3    0  502 -0.27818630515E+03 -0.25918015590E+03  0.50004802875E+03  0.62818119802E+03  0.12699999809E+01 0.  1.
</event>
<event>
 5   0  0.1857986E-03  0.1265212E+04  0.7818609E-02  0.9057616E-01
        1   -1    0    0  501    0  0.00000000000E+00  0.00000000000E+00  0.50160332327E+03  0.50160332330E+03  0.50400001928E-02 0. -1.
       -1   -1    0    0    0  501  0.00000000000E+00  0.00000000000E+00 -0.79782298342E+03  0.79782298343E+03  0.50400001928E-02 0.  1.
    10030    2    1    2    0    0  0.00000000000E+00  0.00000000000E+00 -0.29621966014E+03  0.12994263067E+04  0.12652124879E+04 0.  0.
        1    1    3    3  502    0  0.22160647328E+03  0.52150171528E+03 -0.43699391527E+03  0.71556771172E+03  0.50400001928E-02 0.  1.
       -1    1    3    3    0  502 -0.22160647328E+03 -0.52150171528E+03  0.14077425512E+03  0.58385859502E+03  0.50400001928E-02 0. -1.
</event>
<event>
 5   0  0.3262927E-03  0.1191177E+04  0.7818609E-02  0.9120615E-01
       -2   -1    0    0    0  501  0.00000000000E+00  0.00000000000E+00  0.23873987119E+03  0.23873987121E+03  0.25500000920E-02 0.  1.
        2   -1    0    0  501    0  0.00000000000E+00  0.00000000000E+00 -0.14858247586E+04  0.14858247586E+04  0.25500000920E-02 0. -1.
    10030    2    1    2    0    0  0.00000000000E+00  0.00000000000E+00 -0.12470848874E+04  0.17245646298E+04  0.11911769163E+04 0.  0.
        3    1    3    3  502    0 -0.28490876228E+03 -0.16697152328E+03 -0.13411417608E+04  0.13812001033E+04  0.10100000352E+00 0. -1.
       -3    1    3    3    0  502  0.28490876228E+03  0.16697152328E+03  0.94056873467E+02  0.34336452650E+03  0.10100000352E+00 0.  1.
</event>
<event>
 5   0  0.3336609E-03  0.1321070E+04  0.7818609E-02  0.9013021E-01
       -2   -1    0    0    0  501  0.00000000000E+00  0.00000000000E+00  0.37976536130E+03  0.37976536131E+03  0.25500000920E-02 0. -1.
        2   -1    0    0  501    0  0.00000000000E+00  0.00000000000E+00 -0.11488841803E+04  0.11488841803E+04  0.25500000920E-02 0.  1.
    10030    2    1    2    0    0  0.00000000000E+00  0.00000000000E+00 -0.76911881902E+03  0.15286495416E+04  0.13210698934E+04 0.  0.
        1    1    3    3  502    0  0.21863360806E+02 -0.29479818770E+03  0.29895328383E+03  0.42042483746E+03  0.50400001928E-02 0. -1.
       -1    1    3    3    0  502 -0.21863360806E+02  0.29479818770E+03 -0.10680721028E+04  0.11082247042E+04  0.50400001928E-02 0.  1.
</event>
<event>
 5   0  0.1254125E-03  0.1211997E+04  0.7818609E-02  0.9102420E-01
       -3   -1    0    0    0  501  0.00000000000E+00  0.00000000000E+00  0.49969405666E+03  0.49969406687E+03  0.10100000352E+00 0. -1.
        3   -1    0    0  501    0  0.00000000000E+00  0.00000000000E+00 -0.73491759710E+03  0.73491760404E+03  0.10100000352E+00 0.  1.
    10030    2    1    2    0    0  0.00000000000E+00  0.00000000000E+00 -0.23522354044E+03  0.12346116709E+04  0.12119966435E+04 0.  0.
        1    1    3    3  502    0 -0.43173664235E+03  0.30170633141E+03 -0.42288805482E+03  0.67546838985E+03  0.50400001928E-02 0.  1.
       -1    1    3    3    0  502  0.43173664235E+03 -0.30170633141E+03  0.18766451438E+03  0.55914328105E+03  0.50400001928E-02 0. -1.
</event>
<event>
 5   0  0.3294720E-03  0.1344602E+04  0.7818609E-02  0.8994924E-01
        2   -1    0    0  501    0  0.00000000000E+00  0.00000000000E+00  0.69769136543E+03  0.69769136544E+03  0.25500000920E-02 0.  1.
       -2   -1    0    0    0  501  0.00000000000E+00  0.00000000000E+00 -0.64783487970E+03  0.64783487970E+03  0.25500000920E-02 0. -1.
    10030    2    1    2    0    0  0.00000000000E+00  0.00000000000E+00  0.49856485735E+02  0.13455262451E+04  0.13446022487E+04 0.  0.
        5    1    3    3  502    0  0.39057373453E+03 -0.74776648601E+02  0.56735915214E+03  0.69286209796E+03  0.46999998093E+01 0.  1.
       -5    1    3    3    0  502 -0.39057373453E+03  0.74776648601E+02 -0.51750266640E+03  0.65266414718E+03  0.46999998093E+01 0. -1.
</event>
<event>
 5   0  0.1873488E-03  0.1355300E+04  0.7818609E-02  0.8986826E-01
        1   -1    0    0  501    0  0.00000000000E+00  0.00000000000E+00  0.77272544765E+03  0.77272544767E+03  0.50400001928E-02 0.  1.
       -1   -1    0    0    0  501  0.00000000000E+00  0.00000000000E+00 -0.59427224141E+03  0.59427224143E+03  0.50400001928E-02 0. -1.
    10030    2    1    2    0    0  0.00000000000E+00  0.00000000000E+00  0.17845320625E+03  0.13669976891E+04  0.13552996477E+04 0.  0.
        3    1    3    3  502    0 -0.53684214512E+03 -0.41095860202E+03  0.13569826963E+03  0.68956543702E+03  0.10100000352E+00 0.  1.
       -3    1    3    3    0  502  0.53684214512E+03  0.41095860202E+03  0.42754936612E+02  0.67743225208E+03  0.10100000352E+00 0. -1.
</event>
<event>
 5   0  0.1254125E-03  0.1281806E+04  0.7818609E-02  0.9044119E-01
       -3   -1    0    0    0  501  0.00000000000E+00  0.00000000000E+00  0.10023710134E+04  0.10023710185E+04  0.10100000352E+00 0.  1.
        3   -1    0    0  501    0  0.00000000000E+00  0.00000000000E+00 -0.40978485138E+03  0.40978486383E+03  0.10100000352E+00 0. -1.
    10030    2    1    2    0    0  0.00000000000E+00  0.00000000000E+00  0.59258616205E+03  0.14121558823E+04  0.12818057094E+04 0.  0.
        3    1    3    3  502    0 -0.63883731932E+03  0.45437378197E+02  0.32279750323E+03  0.71720005172E+03  0.10100000352E+00 0. -1.
       -3    1    3    3    0  502  0.63883731932E+03 -0.45437378197E+02  0.26978865882E+03  0.69495583063E+03  0.10100000352E+00 0.  1.
</event>
<event>
 5   0  0.3299104E-03  0.1258078E+04  0.7818609E-02  0.9063487E-01
       -2   -1    0    0    0  501  0.00000000000E+00  0.00000000000E+00  0.33915314282E+03  0.33915314283E+03  0.25500000920E-02 0. -1.
        2   -1    0    0  501    0  0.00000000000E+00  0.00000000000E+00 -0.11667000846E+04  0.11667000846E+04  0.25500000920E-02 0.  1.
    10030    2    1    2    0    0  0.00000000000E+00  0.00000000000E+00 -0.82754694181E+03  0.15058532275E+04  0.12580778997E+04 0.  0.
        2    1    3    3  502    0 -0.58434328596E+03 -0.23274911795E+03 -0.40444244696E+03  0.74779871668E+03  0.25500000920E-02 0.  1.
       -2    1    3    3    0  502  0.58434328596E+03  0.23274911795E+03 -0.42310449485E+03  0.75805451079E+03  0.25500000920E-02 0. -1.
</event>
<event>
 5   0  0.1857986E-03  0.1287703E+04  0.7818609E-02  0.9039374E-01
       -1   -1    0    0    0  501  0.00000000000E+00  0.00000000000E+00  0.64284256379E+03  0.64284256381E+03  0.50400001928E-02 0.  1.
        1   -1    0    0  501    0  0.00000000000E+00  0.00000000000E+00 -0.64486198682E+03  0.64486198684E+03  0.50400001928E-02 0. -1.
    10030    2    1    2    0    0  0.00000000000E+00  0.00000000000E+00 -0.20194230313E+01  0.12877045507E+04  0.12877029672E+04 0.  0.
        1    1    3    3  502    0 -0.63043338425E+03  0.13002770922E+03 -0.14839976428E+02  0.64387396443E+03  0.50400001928E-02 0.  1.
       -1    1    3    3    0  502  0.63043338425E+03 -0.13002770922E+03  0.12820553397E+02  0.64383058622E+03  0.50400001928E-02 0. -1.
</event>
<event>
 5   0  0.3262927E-03  0.1269421E+04  0.7818609E-02  0.9054172E-01
       -2   -1    0    0    0  501  0.00000000000E+00  0.00000000000E+00  0.56548001566E+03  0.56548001567E+03  0.25500000920E-02 0. -1.
        2   -1    0    0  501    0  0.00000000000E+00  0.00000000000E+00 -0.71241663390E+03  0.71241663390E+03  0.25500000920E-02 0.  1.
    10030    2    1    2    0    0  0.00000000000E+00  0.00000000000E+00 -0.14693661823E+03  0.12778966496E+04  0.12694209220E+04 0.  0.
        3    1    3    3  502    0 -0.45994025304E+03  0.22977286680E+03 -0.44813167467E+03  0.68202830933E+03  0.10100000352E+00 0.  1.
       -3    1    3    3    0  502  0.45994025304E+03 -0.22977286680E+03  0.30119505643E+03  0.59586834024E+03  0.10100000352E+00 0. -1.
</event>
<event>
 5   0  0.3299104E-03  0.1112912E+04  0.7818609E-02  0.9192697E-01
       -2   -1    0    0    0  501  0.00000000000E+00  0.00000000000E+00  0.73651242351E+03  0.73651242351E+03  0.25500000920E-02 0. -1.
        2   -1    0    0  501    0  0.00000000000E+00  0.00000000000E+00 -0.42041856655E+03  0.42041856656E+03  0.25500000920E-02 0.  1.
    10030    2    1    2    0    0  0.00000000000E+00  0.00000000000E+00  0.31609385695E+03  0.11569309901E+04  0.11129123907E+04 0.  0.
        2    1    3    3  502    0  0.58469635133E+02  0.55307513321E+03  0.17700832650E+03  0.58364608185E+03  0.25500000920E-02 0. -1.
       -2    1    3    3    0  502 -0.58469635133E+02 -0.55307513321E+03  0.13908553046E+03  0.57328490822E+03  0.25500000920E-02 0.  1.
</event>
<event>
 5   0  0.1857986E-03  0.1313986E+04  0.7818609E-02  0.9018547E-01
        1   -1    0    0  501    0  0.00000000000E+00  0.00000000000E+00  0.43715182522E+03  0.43715182524E+03  0.50400001928E-02 0. -1.
       -1   -1    0    0    0  501  0.00000000000E+00  0.00000000000E+00 -0.98739132840E+03  0.98739132841E+03  0.50400001928E-02 0.  1.
    10030    2    1    2    0    0  0.00000000000E+00  0.00000000000E+00 -0.55023950319E+03  0.14245431537E+04  0.13139861817E+04 0.  0.
        1    1    3    3  502    0 -0.61091359809E+03  0.11116180089E+03 -0.50781224589E+03  0.80215063885E+03  0.50400001928E-02 0.  1.
       -1    1    3    3    0  502  0.61091359809E+03 -0.11116180089E+03 -0.42427257293E+02  0.62239251481E+03  0.50400001928E-02 0. -1.
</event>
<event>
 5   0  0.3294720E-03  0.1208906E+04  0.7818609E-02  0.9105096E-01
       -2   -1    0    0    0  501  0.00000000000E+00  0.00000000000E+00  0.39438121911E+03  0.39438121912E+03  0.25500000920E-02 0. -1.
        2   -1    0    0  501    0  0.00000000000E+00  0.00000000000E+00 -0.92642253814E+03  0.92642253814E+03  0.25500000920E-02 0.  1.
    10030    2    1    2    0    0  0.00000000000E+00  0.00000000000E+00 -0.53204131903E+03  0.13208037573E+04  0.12089063653E+04 0.  0.
        5    1    3    3  502    0 -0.16813848684E+03  0.19271364076E+03 -0.86437351449E+03  0.90142817830E+03  0.46999998093E+01 0.  1.
       -5    1    3    3    0  502  0.16813848684E+03 -0.19271364076E+03  0.33233219546E+03  0.41937557896E+03  0.46999998093E+01 0. -1.
</event>
<event>
 5   0  0.3299104E-03  0.1408122E+04  0.7818609E-02  0.8947960E-01
       -2   -1    0    0    0  501  0.00000000000E+00  0.00000000000E+00  0.42768325845E+03  0.42768325845E+03  0.25500000920E-02 0.  1.
        2   -1    0    0  501    0  0.00000000000E+00  0.00000000000E+00 -0.11590404797E+04  0.11590404797E+04  0.25500000920E-02 0. -1.
    10030    2    1    2    0    0  0.00000000000E+00  0.00000000000E+00 -0.73135722126E+03  0.15867237382E+04  0.14081224507E+04 0.  0.
        2    1    3    3  502    0  0.25174530791E+03  0.48839920054E+03 -0.86173338792E+03  0.10220048488E+04  0.25500000920E-02 0. -1.
       -2    1    3    3    0  502 -0.25174530791E+03 -0.48839920054E+03  0.13037616666E+03  0.56471888934E+03  0.25500000920E-02 0.  1.
</event>
<event>
 5   0  0.3294720E-03  0.1362064E+04  0.7818609E-02  0.8981746E-01
       -2   -1    0    0    0  501  0.00000000000E+00  0.00000000000E+00  0.71870942094E+03  0.71870942094E+03  0.25500000920E-02 0. -1.
        2   -1    0    0  501    0  0.00000000000E+00  0.00000000000E+00 -0.64532965485E+03  0.64532965486E+03  0.25500000920E-02 0.  1.
    10030    2    1    2    0    0  0.00000000000E+00  0.00000000000E+00  0.73379766089E+02  0.13640390758E+04  0.13620638789E+04 0.  0.
        5    1    3    3  502    0  0.69332122787E+01  0.51514347716E+03 -0.40933395733E+03  0.65802526555E+03  0.46999998093E+01 0.  1.
       -5    1    3    3    0  502 -0.69332122787E+01 -0.51514347716E+03  0.48271372342E+03  0.70601381025E+03  0.46999998093E+01 0. -1.
</event>
<event>
 5   0  0.1857986E-03  0.1290036E+04  0.7818609E-02  0.9037504E-01
       -1   -1    0    0    0  501  0.00000000000E+00  0.00000000000E+00  0.69686212026E+03  0.69686212028E+03  0.50400001928E-02 0.  1.
        1   -1    0    0  501    0  0.00000000000E+00  0.00000000000E+00 -0.59703089390E+03  0.59703089392E+03  0.50400001928E-02 0. -1.
    10030    2    1    2    0    0  0.00000000000E+00  0.00000000000E+00  0.99831226355E+02  0.12938930142E+04  0.12900359911E+04 0.  0.
        1    1    3    3  502    0 -0.21449958920E+03 -0.59500217452E+03 -0.76995516298E+02  0.63715458957E+03  0.50400001928E-02 0.  1.
       -1    1    3    3    0  502  0.21449958920E+03  0.59500217452E+03  0.17682674265E+03  0.65673842463E+03  0.50400001928E-02 0. -1.
</event>
<event>
 5   0  0.3259968E-03  0.1373503E+04  0.7818609E-02  0.8973225E-01
        2   -1    0    0  501    0  0.00000000000E+00  0.00000000000E+00  0.89496082191E+03  0.89496082191E+03  0.25500000920E-02 0. -1.
       -2   -1    0    0    0  501  0.00000000000E+00  0.00000000000E+00 -0.52698162320E+03  0.52698162321E+03  0.25500000920E-02 0.  1.
    10030    2    1    2    0    0  0.00000000000E+00  0.00000000000E+00  0.36797919871E+03  0.14219424451E+04  0.13735034134E+04 0.  0.
        4    1    3    3  502    0 -0.67724623831E+03  0.11029982738E+03  0.21323060831E+03  0.71853839455E+03  0.12699999809E+01 0. -1.
       -4    1    3    3    0  502  0.67724623831E+03 -0.11029982738E+03  0.15474859040E+03  0.70340405057E+03  0.12699999809E+01 0.  1.
</event>
<event>
 5   0  0.3262927E-03  0.1340006E+04  0.7818609E-02  0.8998428E-01
       -2   -1    0    0    0  501  0.00000000000E+00  0.00000000000E+00  0.49091394640E+03  0.49091394641E+03  0.25500000920E-02 0. -1.
        2   -1    0    0  501    0  0.00000000000E+00  0.00000000000E+00 -0.91442467927E+03  0.91442467928E+03  0.25500000920E-02 0.  1.
    10030    2    1    2    0    0  0.00000000000E+00  0.00000000000E+00 -0.42351073287E+03  0.14053386257E+04  0.13400057134E+04 0.  0.
        3    1    3    3  502    0  0.42339034303E+03 -0.29671025403E+03 -0.65868708302E+03  0.83735598222E+03  0.10100000352E+00 0. -1.
       -3    1    3    3    0  502 -0.42339034303E+03  0.29671025403E+03  0.23517635015E+03  0.56798264347E+03  0.10100000352E+00 0.  1.
</event>
<event>
 5   0  0.3294720E-03  0.1203175E+04  0.7818609E-02  0.9110082E-01
       -2   -1    0    0    0  501  0.00000000000E+00  0.00000000000E+00  0.46234912106E+03  0.46234912107E+03  0.25500000920E-02 0. -1.
        2   -1    0    0  501    0  0.00000000000E+00  0.00000000000E+00 -0.78275820639E+03  0.78275820640E+03  0.25500000920E-02 0.  1.
    10030    2    1    2    0    0  0.00000000000E+00  0.00000000000E+00 -0.32040908533E+03  0.12451073275E+04  0.12031750807E+04 0.  0.
        5    1    3    3  502    0  0.40772034348E+03  0.28787229120E+03 -0.50773458861E+03  0.71198513818E+03  0.46999998093E+01 0.  1.
       -5    1    3    3    0  502 -0.40772034348E+03 -0.28787229120E+03  0.18732550327E+03  0.53312218928E+03  0.46999998093E+01 0. -1.
</event>
<event>
 5   0  0.3262927E-03  0.1291563E+04  0.7818609E-02  0.9036282E-01
        2   -1    0    0  501    0  0.00000000000E+00  0.00000000000E+00  0.68541354865E+03  0.68541354866E+03  0.25500000920E-02 0.  1.
       -2   -1    0    0    0  501  0.00000000000E+00  0.00000000000E+00 -0.60844134362E+03  0.60844134362E+03  0.25500000920E-02 0. -1.
    10030    2    1    2    0    0  0.00000000000E+00  0.00000000000E+00  0.76972205035E+02  0.12938548923E+04  0.12915633016E+04 0.  0.
        3    1    3    3  502    0 -0.38442320940E+03 -0.51391119950E+03  0.11036300816E+03  0.65120344645E+03  0.10100000352E+00 0. -1.
       -3    1    3    3    0  502  0.38442320940E+03  0.51391119950E+03 -0.33390803120E+02  0.64265144583E+03  0.10100000352E+00 0.  1.
</event>
<event>
 5   0  0.1873488E-03  0.1282875E+04  0.7818609E-02  0.9043257E-01
        1   -1    0    0  501    0  0.00000000000E+00  0.00000000000E+00  0.79308123061E+03  0.79308123063E+03  0.50400001928E-02 0.  1.
       -1   -1    0    0    0  501  0.00000000000E+00  0.00000000000E+00 -0.51878904069E+03  0.51878904071E+03  0.50400001928E-02 0. -1.
    10030    2    1    2    0    0  0.00000000000E+00  0.00000000000E+00  0.27429218993E+03  0.13118702713E+04  0.12828746639E+04 0.  0.
        3    1    3    3  502    0 -0.44548188041E+03 -0.88283293737E+02 -0.32607547496E+03  0.55908252638E+03  0.10100000352E+00 0. -1.
       -3    1    3    3    0  502  0.44548188041E+03  0.88283293737E+02  0.60036766489E+03  0.75278774496E+03  0.10100000352E+00 0.  1.
</event>
<event>
 5   0  0.1873488E-03  0.1307817E+04  0.7818609E-02  0.9023389E-01
       -1   -1    0    0    0  501  0.00000000000E+00  0.00000000000E+00  0.76233007575E+03  0.76233007577E+03  0.50400001928E-02 0. -1.
        1   -1    0    0  501    0  0.00000000000E+00  0.00000000000E+00 -0.56090700390E+03  0.56090700393E+03  0.50400001928E-02 0.  1.
    10030    2    1    2    0    0  0.00000000000E+00  0.00000000000E+00  0.20142307185E+03  0.13232370797E+04  0.13078169273E+04 0.  0.
        3    1    3    3  502    0 -0.84278146491E+02  0.48088778249E+03 -0.33943535696E+03  0.59461940523E+03  0.10100000352E+00 0.  1.
       -3    1    3    3    0  502  0.84278146491E+02 -0.48088778249E+03  0.54085842881E+03  0.72861767446E+03  0.10100000352E+00 0. -1.
</event>
<event>
 5   0  0.3259968E-03  0.1297689E+04  0.7818609E-02  0.9031400E-01
       -2   -1    0    0    0  501  0.00000000000E+00  0.00000000000E+00  0.32286779133E+03  0.32286779134E+03  0.25500000920E-02 0. -1.
        2   -1    0    0  501    0  0.00000000000E+00  0.00000000000E+00 -0.13039375512E+04  0.13039375512E+04  0.25500000920E-02 0.  1.
    10030    2    1    2    0    0  0.00000000000E+00  0.00000000000E+00 -0.98106975991E+03  0.16268053426E+04  0.12976893884E+04 0.  0.
        4    1    3    3  502    0 -0.55669525175E+03 -0.28028514582E+03 -0.71663280409E+03  0.94975447095E+03  0.12699999809E+01 0.  1.
       -4    1    3    3    0  502  0.55669525175E+03  0.28028514582E+03 -0.26443695582E+03  0.67705087164E+03  0.12699999809E+01 0. -1.
</event>
<event>
 5   0  0.1814770E-03  0.1284975E+04  0.7818609E-02  0.9041566E-01
        1   -1    0    0  501    0  0.00000000000E+00  0.00000000000E+00  0.72793282745E+03  0.72793282747E+03  0.50400001928E-02 0.  1.
       -1   -1    0    0    0  501  0.00000000000E+00  0.00000000000E+00 -0.56707184462E+03  0.56707184465E+03  0.50400001928E-02 0. -1.
    10030    2    1    2    0    0  0.00000000000E+00  0.00000000000E+00  0.16086098283E+03  0.12950046721E+04  0.12849750367E+04 0.  0.
        5    1    3    3  502    0 -0.13244226086E+03 -0.29550893437E+03 -0.47878944345E+03  0.57803797792E+03  0.46999998093E+01 0. -1.
       -5    1    3    3    0  502  0.13244226086E+03  0.29550893437E+03  0.63965042628E+03  0.71696669420E+03  0.46999998093E+01 0.  1.
</event>
<event>
 5   0  0.1254125E-03  0.1286483E+04  0.7818609E-02  0.9040354E-01
       -3   -1    0    0    0  501  0.00000000000E+00  0.00000000000E+00  0.10204713170E+04  0.10204713220E+04  0.10100000352E+00 0. -1.
        3   -1    0    0  501    0  0.00000000000E+00  0.00000000000E+00 -0.40545905994E+03  0.40545907252E+03  0.10100000352E+00 0.  1.
    10030    2    1    2    0    0  0.00000000000E+00  0.00000000000E+00  0.61501225705E+03  0.14259303945E+04  0.12864825742E+04 0.  0.
        4    1    3    3  502    0 -0.53654288879E+03  0.26131649452E+03  0.41507212103E+02  0.59823828310E+03  0.12699999809E+01 0.  1.
       -4    1    3    3    0  502  0.53654288879E+03 -0.26131649452E+03  0.57350504495E+03  0.82769211142E+03  0.12699999809E+01 0. -1.
</event>
<event>
 5   0  0.1873488E-03  0.1270429E+04  0.7818609E-02  0.9053349E-01
       -1   -1    0    0    0  501  0.00000000000E+00  0.00000000000E+00  0.41130240723E+03  0.41130240726E+03  0.50400001928E-02 0. -1.
        1   -1    0    0  501    0  0.00000000000E+00  0.00000000000E+00 -0.98102425757E+03  0.98102425759E+03  0.50400001928E-02 0.  1.
    10030    2    1    2    0    0  0.00000000000E+00  0.00000000000E+00 -0.56972185034E+03  0.13923266649E+04  0.12704292798E+04 0.  0.
        3    1    3    3  502    0 -0.47566639254E+03  0.32945350019E+03  0.23939730129E+01  0.57862238730E+03  0.10100000352E+00 0. -1.
       -3    1    3    3    0  502  0.47566639254E+03 -0.32945350019E+03 -0.57211582335E+03  0.81370427755E+03  0.10100000352E+00 0.  1.
</event>
<event>
 5   0  0.1814770E-03  0.1288915E+04  0.7818609E-02  0.9038402E-01
       -1   -1    0    0    0  501  0.00000000000E+00  0.00000000000E+00  0.44344785197E+03  0.44344785200E+03  0.50400001928E-02 0. -1.
        1   -1    0    0  501    0  0.00000000000E+00  0.00000000000E+00 -0.93658314770E+03  0.93658314771E+03  0.50400001928E-02 0.  1.
    10030    2    1    2    0    0  0.00000000000E+00  0.00000000000E+00 -0.49313529573E+03  0.13800309997E+04  0.12889154900E+04 0.  0.
        5    1    3    3  502    0 -0.38287761861E+03 -0.22564100713E+03  0.25310768814E+03  0.51146331904E+03  0.46999998093E+01 0. -1.
       -5    1    3    3    0  502  0.38287761861E+03  0.22564100713E+03 -0.74624298387E+03  0.86856768067E+03  0.46999998093E+01 0.  1.
</event>
<event>
 5   0  0.1873488E-03  0.1278276E+04  0.7818609E-02  0.9046972E-01
       -1   -1    0    0    0  501  0.00000000000E+00  0.00000000000E+00  0.22088308676E+03  0.22088308682E+03  0.50400001928E-02 0. -1.
        1   -1    0    0  501    0  0.00000000000E+00  0.00000000000E+00 -0.18493836817E+04  0.18493836817E+04  0.50400001928E-02 0.  1.
    10030    2    1    2    0    0  0.00000000000E+00  0.00000000000E+00 -0.16285005950E+04  0.20702667685E+04  0.12782763024E+04 0.  0.
        3    1    3    3  502    0  0.29898006369E+03  0.52275948237E+03 -0.46752838217E+03  0.76239710993E+03  0.10100000352E+00 0. -1.
       -3    1    3    3    0  502 -0.29898006369E+03 -0.52275948237E+03 -0.11609722128E+04  0.13078696586E+04  0.10100000352E+00 0.  1.
</event>
<event>
 5   0  0.3336609E-03  0.1318503E+04  0.7818609E-02  0.9015019E-01
       -2   -1    0    0    0  501  0.00000000000E+00  0.00000000000E+00  0.67782762223E+03  0.67782762223E+03  0.25500000920E-02 0. -1.
        2   -1    0    0  501    0  0.00000000000E+00  0.00000000000E+00 -0.64118465802E+03  0.64118465803E+03  0.25500000920E-02 0.  1.
    10030    2    1    2    0    0  0.00000000000E+00  0.00000000000E+00  0.36642964205E+02  0.13190122803E+04  0.13185032001E+04 0.  0.
        1    1    3    3  502    0  0.30944576915E+03 -0.57398035069E+03  0.11532564308E+03  0.66220097478E+03  0.50400001928E-02 0. -1.
       -1    1    3    3    0  502 -0.30944576915E+03  0.57398035069E+03 -0.78682678880E+02  0.65681130548E+03  0.50400001928E-02 0.  1.
</event>
<event>
 5   0  0.1823154E-03  0.1297115E+04  0.7818609E-02  0.9031856E-01
       -1   -1    0    0    0  501  0.00000000000E+00  0.00000000000E+00  0.32901261512E+03  0.32901261516E+03  0.50400001928E-02 0. -1.
        1   -1    0    0  501    0  0.00000000000E+00  0.00000000000E+00 -0.12784522060E+04  0.12784522060E+04  0.50400001928E-02 0.  1.
    10030    2    1    2    0    0  0.00000000000E+00  0.00000000000E+00 -0.94943959092E+03  0.16074648212E+04  0.12971151123E+04 0.  0.
        2    1    3    3  502    0 -0.25535056795E+03  0.19752546346E+03  0.22236527521E+03  0.39200323582E+03  0.25500000920E-02 0. -1.
       -2    1    3    3    0  502  0.25535056795E+03 -0.19752546346E+03 -0.11718048661E+04  0.12154615854E+04  0.25500000920E-02 0.  1.
</event>
<event>
 5   0  0.1873488E-03  0.1378758E+04  0.7818609E-02  0.8969340E-01
       -1   -1    0    0    0  501  0.00000000000E+00  0.00000000000E+00  0.47829430326E+03  0.47829430329E+03  0.50400001928E-02 0. -1.
        1   -1    0    0  501    0  0.00000000000E+00  0.00000000000E+00 -0.99362098525E+03  0.99362098526E+03  0.50400001928E-02 0.  1.
    10030    2    1    2    0    0  0.00000000000E+00  0.00000000000E+00 -0.51532668199E+03  0.14719152885E+04  0.13787577842E+04 0.  0.
        3    1    3    3  502    0 -0.14359861019E+03 -0.10191877550E+03  0.45387998057E+03  0.48684190925E+03  0.10100000352E+00 0. -1.
       -3    1    3    3    0  502  0.14359861019E+03  0.10191877550E+03 -0.96920666256E+03  0.98507337929E+03  0.10100000352E+00 0.  1.
</event>
<event>
 5   0  0.1823154E-03  0.1307386E+04  0.7818609E-02  0.9023729E-01
        1   -1    0    0  501    0  0.00000000000E+00  0.00000000000E+00  0.12443834346E+04  0.12443834346E+04  0.50400001928E-02 0. -1.
       -1   -1    0    0    0  501  0.00000000000E+00  0.00000000000E+00 -0.34339451611E+03  0.34339451615E+03  0.50400001928E-02 0.  1.
    10030    2    1    2    0    0  0.00000000000E+00  0.00000000000E+00  0.90098891845E+03  0.15877779507E+04  0.13073858610E+04 0.  0.
        2    1    3    3  502    0  0.21834609077E+03 -0.61283695003E+03  0.52797621343E+03  0.83785620761E+03  0.25500000920E-02 0.  1.
       -2    1    3    3    0  502 -0.21834609077E+03  0.61283695003E+03  0.37301270502E+03  0.74992174311E+03  0.25500000920E-02 0. -1.
</event>
<event>
 5   0  0.1873488E-03  0.1298101E+04  0.7818609E-02  0.9031072E-01
        1   -1    0    0  501    0  0.00000000000E+00  0.00000000000E+00  0.61060722261E+03  0.61060722263E+03  0.50400001928E-02 0. -1.
       -1   -1    0    0    0  501  0.00000000000E+00  0.00000000000E+00 -0.68991431458E+03  0.68991431460E+03  0.50400001928E-02 0.  1.
    10030    2    1    2    0    0  0.00000000000E+00  0.00000000000E+00 -0.79307091975E+02  0.13005215372E+04  0.12981011725E+04 0.  0.
        3    1    3    3  502    0 -0.81133129719E+02  0.35899374744E+03  0.49595298135E+03  0.61759895187E+03  0.10100000352E+00 0. -1.
       -3    1    3    3    0  502  0.81133129719E+02 -0.35899374744E+03 -0.57526007332E+03  0.68292258536E+03  0.10100000352E+00 0.  1.
</event>
<event>
 5   0  0.3294720E-03  0.8806548E+03  0.7818609E-02  0.9450092E-01
        2   -1    0    0  501    0  0.00000000000E+00  0.00000000000E+00  0.83831930917E+03  0.83831930917E+03  0.25500000920E-02 0. -1.
       -2   -1    0    0    0  501  0.00000000000E+00  0.00000000000E+00 -0.23128205207E+03  0.23128205208E+03  0.25500000920E-02 0.  1.
    10030    2    1    2    0    0  0.00000000000E+00  0.00000000000E+00  0.60703725710E+03  0.10696013613E+04  0.88065477940E+03 0.  0.
        5    1    3    3  502    0 -0.22635629355E+02  0.36010577085E+03  0.61000384665E+03  0.70874206933E+03  0.46999998093E+01 0. -1.
       -5    1    3    3    0  502  0.22635629355E+02 -0.36010577085E+03 -0.29665895465E+01  0.36085929192E+03  0.46999998093E+01 0.  1.
</event>
<event>
 5   0  0.3336609E-03  0.1296048E+04  0.7818609E-02  0.9032705E-01
       -2   -1    0    0    0  501  0.00000000000E+00  0.00000000000E+00  0.23702198234E+03  0.23702198235E+03  0.25500000920E-02 0. -1.
        2   -1    0    0  501    0  0.00000000000E+00  0.00000000000E+00 -0.17717131266E+04  0.17717131266E+04  0.25500000920E-02 0.  1.
    10030    2    1    2    0    0  0.00000000000E+00  0.00000000000E+00 -0.15346911442E+04  0.20087351089E+04  0.12960477729E+04 0.  0.
        1    1    3    3  502    0 -0.28421380041E+03 -0.32889365501E+03 -0.15122402989E+04  0.15734736230E+04  0.50400001928E-02 0.  1.
       -1    1    3    3    0  502  0.28421380041E+03  0.32889365501E+03 -0.22450845340E+02  0.43526148593E+03  0.50400001928E-02 0. -1.
</event>
<event>
 5   0  0.1857986E-03  0.1262542E+04  0.7818609E-02  0.9059809E-01
        1   -1    0    0  501    0  0.00000000000E+00  0.00000000000E+00  0.13020252901E+04  0.13020252901E+04  0.50400001928E-02 0.  1.
       -1   -1    0    0    0  501  0.00000000000E+00  0.00000000000E+00 -0.30606393620E+03  0.30606393624E+03  0.50400001928E-02 0. -1.
    10030    2    1    2    0    0  0.00000000000E+00  0.00000000000E+00  0.99596135394E+03  0.16080892264E+04  0.12625418573E+04 0.  0.
        1    1    3    3  502    0 -0.29495988730E+02 -0.46555292354E+03 -0.43740451833E+02  0.46853256570E+03  0.50400001928E-02 0. -1.
       -1    1    3    3    0  502  0.29495988730E+02  0.46555292354E+03  0.10397018058E+04  0.11395566607E+04  0.50400001928E-02 0.  1.
</event>
<event>
 5   0  0.3299104E-03  0.1312650E+04  0.7818609E-02  0.9019593E-01
        2   -1    0    0  501    0  0.00000000000E+00  0.00000000000E+00  0.77813612306E+03  0.77813612306E+03  0.25500000920E-02 0.  1.
       -2   -1    0    0    0  501  0.00000000000E+00  0.00000000000E+00 -0.55358254139E+03  0.55358254139E+03  0.25500000920E-02 0. -1.
    10030    2    1    2    0    0  0.00000000000E+00  0.00000000000E+00  0.22455358167E+03  0.13317186645E+04  0.13126501020E+04 0.  0.
        2    1    3    3  502    0  0.25067365059E+03 -0.14091425197E+03 -0.48626689017E+03  0.56493326508E+03  0.25500000920E-02 0. -1.
       -2    1    3    3    0  502 -0.25067365059E+03  0.14091425197E+03  0.71082047184E+03  0.76678539938E+03  0.25500000920E-02 0.  1.
</event>
<event>
 5   0  0.3294720E-03  0.1291157E+04  0.7818609E-02  0.9036607E-01
        2   -1    0    0  501    0  0.00000000000E+00  0.00000000000E+00  0.12803671269E+04  0.12803671269E+04  0.25500000920E-02 0.  1.
       -2   -1    0    0    0  501  0.00000000000E+00  0.00000000000E+00 -0.32550938202E+03  0.32550938203E+03  0.25500000920E-02 0. -1.
    10030    2    1    2    0    0  0.00000000000E+00  0.00000000000E+00  0.95485774484E+03  0.16058765089E+04  0.12911568646E+04 0.  0.
        5    1    3    3  502    0 -0.37780348069E+03  0.62013476362E+01  0.11284408773E+04  0.11900314409E+04  0.46999998093E+01 0.  1.
       -5    1    3    3    0  502  0.37780348069E+03 -0.62013476362E+01 -0.17358313245E+03  0.41584506803E+03  0.46999998093E+01 0. -1.
</event>
<event>
 5   0  0.1823154E-03  0.1371189E+04  0.7818609E-02  0.8974942E-01
       -1   -1    0    0    0  501  0.00000000000E+00  0.00000000000E+00  0.91740085969E+03  0.91740085970E+03  0.50400001928E-02 0. -1.
        1   -1    0    0  501    0  0.00000000000E+00  0.00000000000E+00 -0.51235997714E+03  0.51235997717E+03  0.50400001928E-02 0.  1.
    10030    2    1    2    0    0  0.00000000000E+00  0.00000000000E+00  0.40504088254E+03  0.14297608369E+04  0.13711885115E+04 0.  0.
        2    1    3    3  502    0 -0.61756904067E+03 -0.29488607973E+03  0.15965270084E+03  0.70273629826E+03  0.25500000920E-02 0. -1.
       -2    1    3    3    0  502  0.61756904067E+03  0.29488607973E+03  0.24538818170E+03  0.72702453860E+03  0.25500000920E-02 0.  1.
</event>
<event>
 5   0  0.3299104E-03  0.1328377E+04  0.7818609E-02  0.9007360E-01
        2   -1    0    0  501    0  0.00000000000E+00  0.00000000000E+00  0.13895623880E+04  0.13895623880E+04  0.25500000920E-02 0. -1.
       -2   -1    0    0    0  501  0.00000000000E+00  0.00000000000E+00 -0.31747128505E+03  0.31747128506E+03  0.25500000920E-02 0.  1.
    10030    2    1    2    0    0  0.00000000000E+00  0.00000000000E+00  0.10720911029E+04  0.17070336731E+04  0.13283766890E+04 0.  0.
        2    1    3    3  502    0  0.50523109304E+03 -0.34380970549E+03  0.87036320832E+03  0.10634828092E+04  0.25500000920E-02 0. -1.
       -2    1    3    3    0  502 -0.50523109304E+03  0.34380970549E+03  0.20172789462E+03  0.64355086391E+03  0.25500000920E-02 0.  1.
</event>
<event>
 5   0  0.3262927E-03  0.1289868E+04  0.7818609E-02  0.9037639E-01
        2   -1    0    0  501    0  0.00000000000E+00  0.00000000000E+00  0.11775929969E+04  0.11775929969E+04  0.25500000920E-02 0. -1.
       -2   -1    0    0    0  501  0.00000000000E+00  0.00000000000E+00 -0.35321202837E+03  0.35321202838E+03  0.25500000920E-02 0.  1.
    10030    2    1    2    0    0  0.00000000000E+00  0.00000000000E+00  0.82438096849E+03  0.15308050252E+04  0.12898682274E+04 0.  0.
        3    1    3    3  502    0  0.12110461515E+02  0.44052678635E+03 -0.14664794232E+03  0.46445251852E+03  0.10100000352E+00 0.  1.
       -3    1    3    3    0  502 -0.12110461515E+02 -0.44052678635E+03  0.97102891081E+03  0.10663525067E+04  0.10100000352E+00 0. -1.
</event>
<event>
 5   0  0.1814770E-03  0.1282766E+04  0.7818609E-02  0.9043345E-01
       -1   -1    0    0    0  501  0.00000000000E+00  0.00000000000E+00  0.73042724445E+03  0.73042724447E+03  0.50400001928E-02 0. -1.
        1   -1    0    0  501    0  0.00000000000E+00  0.00000000000E+00 -0.56319372842E+03  0.56319372844E+03  0.50400001928E-02 0.  1.
    10030    2    1    2    0    0  0.00000000000E+00  0.00000000000E+00  0.16723351603E+03  0.12936209729E+04  0.12827658292E+04 0.  0.
        5    1    3    3  502    0  0.24352927049E+02  0.41583068889E+03 -0.40820041558E+03  0.58323056860E+03  0.46999998093E+01 0. -1.
       -5    1    3    3    0  502 -0.24352927049E+02 -0.41583068889E+03  0.57543393161E+03  0.71039040430E+03  0.46999998093E+01 0.  1.
</event>
<event>
 5   0  0.1814770E-03  0.1449547E+04  0.7818609E-02  0.8918715E-01
        1   -1    0    0  501    0  0.00000000000E+00  0.00000000000E+00  0.69397788953E+03  0.69397788955E+03  0.50400001928E-02 0. -1.
       -1   -1    0    0    0  501  0.00000000000E+00  0.00000000000E+00 -0.75693559444E+03  0.75693559446E+03  0.50400001928E-02 0.  1.
    10030    2    1    2    0    0  0.00000000000E+00  0.00000000000E+00 -0.62957704910E+02  0.14509134840E+04  0.14495469173E+04 0.  0.
        5    1    3    3  502    0  0.19003247056E+03 -0.16736191927E+03  0.64824317949E+03  0.69596239959E+03  0.46999998093E+01 0. -1.
       -5    1    3    3    0  502 -0.19003247056E+03  0.16736191927E+03 -0.71120088440E+03  0.75495108442E+03  0.46999998093E+01 0.  1.
</event>
<event>
 5   0  0.3336609E-03  0.1299744E+04  0.7818609E-02  0.9029768E-01
       -2   -1    0    0    0  501  0.00000000000E+00  0.00000000000E+00  0.10212321138E+04  0.10212321138E+04  0.25500000920E-02 0. -1.
        2   -1    0    0  501    0  0.00000000000E+00  0.00000000000E+00 -0.41355331087E+03  0.41355331088E+03  0.25500000920E-02 0.  1.
    10030    2    1    2    0    0  0.00000000000E+00  0.00000000000E+00  0.60767880293E+03  0.14347854247E+04  0.12997444700E+04 0.  0.
        1    1    3    3  502    0  0.51818908345E+03  0.18410202953E+03  0.68611412380E+03  0.87929862640E+03  0.50400001928E-02 0. -1.
       -1    1    3    3    0  502 -0.51818908345E+03 -0.18410202953E+03 -0.78435320863E+02  0.55548679829E+03  0.50400001928E-02 0.  1.
</event>
<event>
 5   0  0.1803959E-03  0.1296074E+04  0.7818609E-02  0.9032685E-01
        1   -1    0    0  501    0  0.00000000000E+00  0.00000000000E+00  0.40175070124E+03  0.40175070128E+03  0.50400001928E-02 0.  1.
       -1   -1    0    0    0  501  0.00000000000E+00  0.00000000000E+00 -0.10453042136E+04  0.10453042136E+04  0.50400001928E-02 0. -1.
    10030    2    1    2    0    0  0.00000000000E+00  0.00000000000E+00 -0.64355351235E+03  0.14470549149E+04  0.12960736103E+04 0.  0.
        4    1    3    3  502    0  0.27204348842E+03 -0.33008727640E+03 -0.86529685353E+03  0.96524894574E+03  0.12699999809E+01 0. -1.
       -4    1    3    3    0  502 -0.27204348842E+03  0.33008727640E+03  0.22174334118E+03  0.48180596913E+03  0.12699999809E+01 0.  1.
</event>
<event>
 5   0  0.1823154E-03  0.1354383E+04  0.7818609E-02  0.8987517E-01
       -1   -1    0    0    0  501  0.00000000000E+00  0.00000000000E+00  0.14590636060E+04  0.14590636060E+04  0.50400001928E-02 0.  1.
        1   -1    0    0  501    0  0.00000000000E+00  0.00000000000E+00 -0.31430338485E+03  0.31430338489E+03  0.50400001928E-02 0. -1.
    10030    2    1    2    0    0  0.00000000000E+00  0.00000000000E+00  0.11447602211E+04  0.17733669909E+04  0.13543834466E+04 0.  0.
        2    1    3    3  502    0  0.13395113137E+03  0.39408416838E+03 -0.12704447396E+03  0.43518448471E+03  0.25500000920E-02 0. -1.
       -2    1    3    3    0  502 -0.13395113137E+03 -0.39408416838E+03  0.12718046951E+04  0.13381825062E+04  0.25500000920E-02 0.  1.
</event>
<event>
 5   0  0.3259968E-03  0.1319329E+04  0.7818609E-02  0.9014376E-01
        2   -1    0    0  501    0  0.00000000000E+00  0.00000000000E+00  0.36167227305E+03  0.36167227306E+03  0.25500000920E-02 0.  1.
       -2   -1    0    0    0  501  0.00000000000E+00  0.00000000000E+00 -0.12031809472E+04  0.12031809472E+04  0.25500000920E-02 0. -1.
    10030    2    1    2    0    0  0.00000000000E+00  0.00000000000E+00 -0.84150867412E+03  0.15648532202E+04  0.13193289022E+04 0.  0.
        4    1    3    3  502    0 -0.37757969440E+03  0.29915014323E+03 -0.95528634957E+03  0.10698742246E+04  0.12699999809E+01 0. -1.
       -4    1    3    3    0  502  0.37757969440E+03 -0.29915014323E+03  0.11377767545E+03  0.49497899566E+03  0.12699999809E+01 0.  1.
</event>
<event>
 5   0  0.3299104E-03  0.1304444E+04  0.7818609E-02  0.9026049E-01
        2   -1    0    0  501    0  0.00000000000E+00  0.00000000000E+00  0.10611783949E+04  0.10611783949E+04  0.25500000920E-02 0. -1.
       -2   -1    0    0    0  501  0.00000000000E+00  0.00000000000E+00 -0.40086872926E+03  0.40086872927E+03  0.25500000920E-02 0.  1.
    10030    2    1    2    0    0  0.00000000000E+00  0.00000000000E+00  0.66030966560E+03  0.14620471241E+04  0.13044435360E+04 0.  0.
        2    1    3    3  502    0 -0.12611972285E+03  0.60028593892E+03  0.57862293199E+03  0.84324011431E+03  0.25500000920E-02 0. -1.
       -2    1    3    3    0  502  0.12611972285E+03 -0.60028593892E+03  0.81686733609E+02  0.61880700982E+03  0.25500000920E-02 0.  1.
</event>
<event>
 5   0  0.3262927E-03  0.1303028E+04  0.7818609E-02  0.9027167E-01
       -2   -1    0    0    0  501  0.00000000000E+00  0.00000000000E+00  0.99596974562E+03  0.99596974562E+03  0.25500000920E-02 0.  1.
        2   -1    0    0  501    0  0.00000000000E+00  0.00000000000E+00 -0.42618822490E+03  0.42618822491E+03  0.25500000920E-02 0. -1.
    10030    2    1    2    0    0  0.00000000000E+00  0.00000000000E+00  0.56978152071E+03  0.14221579705E+04  0.13030281316E+04 0.  0.
        3    1    3    3  502    0 -0.31922071796E+03 -0.10198513569E+03 -0.32491012837E+03  0.46676486200E+03  0.10100000352E+00 0. -1.
       -3    1    3    3    0  502  0.31922071796E+03  0.10198513569E+03  0.89469164909E+03  0.95539310853E+03  0.10100000352E+00 0.  1.
</event>
<event>
 5   0  0.1254125E-03  0.1310551E+04  0.7818609E-02  0.9021240E-01
       -4   -1    0    0    0  501  0.00000000000E+00  0.00000000000E+00  0.42078703897E+03  0.42078895549E+03  0.12699999809E+01 0. -1.
        4   -1    0    0  501    0  0.00000000000E+00  0.00000000000E+00 -0.10204305542E+04  0.10204313445E+04  0.12699999809E+01 0.  1.
    10030    2    1    2    0    0  0.00000000000E+00  0.00000000000E+00 -0.59964351525E+03  0.14412203000E+04  0.13105508795E+04 0.  0.
        1    1    3    3  502    0 -0.48738614829E+03 -0.24600239589E+03  0.98695976175E+02  0.55480026322E+03  0.50400001928E-02 0. -1.
       -1    1    3    3    0  502  0.48738614829E+03  0.24600239589E+03 -0.69833949143E+03  0.88642003680E+03  0.50400001928E-02 0.  1.
</event>
<event>
 5   0  0.3259968E-03  0.1156379E+04  0.7818609E-02  0.9151919E-01
        2   -1    0    0  501    0  0.00000000000E+00  0.00000000000E+00  0.20341049694E+04  0.20341049694E+04  0.25500000920E-02 0.  1.
       -2   -1    0    0    0  501  0.00000000000E+00  0.00000000000E+00 -0.16434892099E+03  0.16434892101E+03  0.25500000920E-02 0. -1.
    10030    2    1    2    0    0  0.00000000000E+00  0.00000000000E+00  0.18697560484E+04  0.21984538904E+04  0.11563787562E+04 0.  0.
        4    1    3    3  502    0 -0.32790532702E+02 -0.45120204466E+03  0.25034953978E+03  0.51704449432E+03  0.12699999809E+01 0. -1.
       -4    1    3    3    0  502  0.32790532702E+02  0.45120204466E+03  0.16194065087E+04  0.16814093961E+04  0.12699999809E+01 0.  1.
</event>
<event>
 5   0  0.3262927E-03  0.1289523E+04  0.7818609E-02  0.9037915E-01
       -2   -1    0    0    0  501  0.00000000000E+00  0.00000000000E+00  0.48670467799E+03  0.48670467800E+03  0.25500000920E-02 0. -1.
        2   -1    0    0  501    0  0.00000000000E+00  0.00000000000E+00 -0.85414671986E+03  0.85414671986E+03  0.25500000920E-02 0.  1.
    10030    2    1    2    0    0  0.00000000000E+00  0.00000000000E+00 -0.36744204187E+03  0.13408513979E+04  0.12895227090E+04 0.  0.
        3    1    3    3  502    0 -0.97680738286E+02  0.61169359723E+03  0.23040578153E+01  0.61944806272E+03  0.10100000352E+00 0. -1.
       -3    1    3    3    0  502  0.97680738286E+02 -0.61169359723E+03 -0.36974609968E+03  0.72140333514E+03  0.10100000352E+00 0.  1.
</event>
<event>
 5   0  0.1873488E-03  0.1309172E+04  0.7818609E-02  0.9022323E-01
        1   -1    0    0  501    0  0.00000000000E+00  0.00000000000E+00  0.45115871248E+03  0.45115871251E+03  0.50400001928E-02 0. -1.
       -1   -1    0    0    0  501  0.00000000000E+00  0.00000000000E+00 -0.94973808889E+03  0.94973808890E+03  0.50400001928E-02 0.  1.
    10030    2    1    2    0    0  0.00000000000E+00  0.00000000000E+00 -0.49857937640E+03  0.14008968014E+04  0.13091716670E+04 0.  0.
        3    1    3    3  502    0 -0.48222114830E+03 -0.39133394044E+03 -0.27905178042E+02  0.62165762118E+03  0.10100000352E+00 0. -1.
       -3    1    3    3    0  502  0.48222114830E+03  0.39133394044E+03 -0.47067419836E+03  0.77923918023E+03  0.10100000352E+00 0.  1.
</event>
<event>
 5   0  0.3262927E-03  0.1306179E+04  0.7818609E-02  0.9024679E-01
        2   -1    0    0  501    0  0.00000000000E+00  0.00000000000E+00  0.76243503677E+03  0.76243503678E+03  0.25500000920E-02 0. -1.
       -2   -1    0    0    0  501  0.00000000000E+00  0.00000000000E+00 -0.55942621595E+03  0.55942621596E+03  0.25500000920E-02 0.  1.
    10030    2    1    2    0    0  0.00000000000E+00  0.00000000000E+00  0.20300882082E+03  0.13218612527E+04  0.13061793867E+04 0.  0.
        3    1    3    3  502    0 -0.34308127670E+02  0.14113296187E+03  0.74588328849E+03  0.75989305221E+03  0.10100000352E+00 0. -1.
       -3    1    3    3    0  502  0.34308127670E+02 -0.14113296187E+03 -0.54287446767E+03  0.56196820053E+03  0.10100000352E+00 0.  1.
</event>
<event>
 5   0  0.1823154E-03  0.1295371E+04  0.7818609E-02  0.9033244E-01
        1   -1    0    0  501    0  0.00000000000E+00  0.00000000000E+00  0.17102642677E+04  0.17102642677E+04  0.50400001928E-02 0. -1.
       -1   -1    0    0    0  501  0.00000000000E+00  0.00000000000E+00 -0.24528152620E+03  0.24528152626E+03  0.50400001928E-02 0.  1.
    10030    2    1    2    0    0  0.00000000000E+00  0.00000000000E+00  0.14649827415E+04  0.19555457940E+04  0.12953705722E+04 0.  0.
        2    1    3    3  502    0  0.30167017280E+02 -0.50341534963E+03  0.13460065401E+04  0.14373832715E+04  0.25500000920E-02 0. -1.
       -2    1    3    3    0  502 -0.30167017280E+02  0.50341534963E+03  0.11897620137E+03  0.51816252245E+03  0.25500000920E-02 0.  1.
</event>
<event>
 5   0  0.1857986E-03  0.1306385E+04  0.7818609E-02  0.9024517E-01
       -1   -1    0    0    0  501  0.00000000000E+00  0.00000000000E+00  0.11298407471E+04  0.11298407471E+04  0.50400001928E-02 0.  1.
        1   -1    0    0  501    0  0.00000000000E+00  0.00000000000E+00 -0.37762898391E+03  0.37762898394E+03  0.50400001928E-02 0. -1.
    10030    2    1    2    0    0  0.00000000000E+00  0.00000000000E+00  0.75221176318E+03  0.15074697310E+04  0.13063852622E+04 0.  0.
        1    1    3    3  502    0 -0.24638334255E+02  0.64295936846E+03  0.24628649078E+03  0.68895633575E+03  0.50400001928E-02 0. -1.
       -1    1    3    3    0  502  0.24638334255E+02 -0.64295936846E+03  0.50592527239E+03  0.81851339529E+03  0.50400001928E-02 0.  1.
</event>
<event>
 5   0  0.3259968E-03  0.1304599E+04  0.7818609E-02  0.9025926E-01
        2   -1    0    0  501    0  0.00000000000E+00  0.00000000000E+00  0.58127567449E+03  0.58127567450E+03  0.25500000920E-02 0.  1.
       -2   -1    0    0    0  501  0.00000000000E+00  0.00000000000E+00 -0.73200184060E+03  0.73200184061E+03  0.25500000920E-02 0. -1.
    10030    2    1    2    0    0  0.00000000000E+00  0.00000000000E+00 -0.15072616611E+03  0.13132775151E+04  0.13045993464E+04 0.  0.
        4    1    3    3  502    0  0.35775683438E+03  0.40395700151E+03  0.29357457800E+03  0.61429541538E+03  0.12699999809E+01 0.  1.
       -4    1    3    3    0  502 -0.35775683438E+03 -0.40395700151E+03 -0.44430074411E+03  0.69898209972E+03  0.12699999809E+01 0. -1.
</event>
<event>
 5   0  0.3259968E-03  0.1285731E+04  0.7818609E-02  0.9040958E-01
        2   -1    0    0  501    0  0.00000000000E+00  0.00000000000E+00  0.75419382231E+03  0.75419382231E+03  0.25500000920E-02 0.  1.
       -2   -1    0    0    0  501  0.00000000000E+00  0.00000000000E+00 -0.54797067859E+03  0.54797067859E+03  0.25500000920E-02 0. -1.
    10030    2    1    2    0    0  0.00000000000E+00  0.00000000000E+00  0.20622314372E+03  0.13021645009E+04  0.12857310770E+04 0.  0.
        4    1    3    3  502    0 -0.38741429384E+03 -0.47636713090E+02 -0.41421592653E+03  0.56915335209E+03  0.12699999809E+01 0. -1.
       -4    1    3    3    0  502  0.38741429384E+03  0.47636713090E+02  0.62043907024E+03  0.73301114882E+03  0.12699999809E+01 0.  1.
</event>
<event>
 5   0  0.3259968E-03  0.1198971E+04  0.7818609E-02  0.9113757E-01
       -2   -1    0    0    0  501  0.00000000000E+00  0.00000000000E+00  0.43113190407E+03  0.43113190408E+03  0.25500000920E-02 0. -1.
        2   -1    0    0  501    0  0.00000000000E+00  0.00000000000E+00 -0.83358031992E+03  0.83358031993E+03  0.25500000920E-02 0.  1.
    10030    2    1    2    0    0  0.00000000000E+00  0.00000000000E+00 -0.40244841585E+03  0.12647122240E+04  0.11989713433E+04 0.  0.
        4    1    3    3  502    0  0.84307961635E+02 -0.34706672099E+03 -0.70909915119E+03  0.79396874014E+03  0.12699999809E+01 0.  1.
       -4    1    3    3    0  502 -0.84307961635E+02  0.34706672099E+03  0.30665073534E+03  0.47074348386E+03  0.12699999809E+01 0. -1.
</event>
<event>
 5   0  0.1254125E-03  0.1301556E+04  0.7818609E-02  0.9028332E-01
       -3   -1    0    0    0  501  0.00000000000E+00  0.00000000000E+00  0.46225442639E+03  0.46225443743E+03  0.10100000352E+00 0. -1.
        3   -1    0    0  501    0  0.00000000000E+00  0.00000000000E+00 -0.91618845930E+03  0.91618846487E+03  0.10100000352E+00 0.  1.
    10030    2    1    2    0    0  0.00000000000E+00  0.00000000000E+00 -0.45393403291E+03  0.13784429023E+04  0.13015562718E+04 0.  0.
        4    1    3    3  502    0  0.16946353221E+03 -0.14454071632E+03 -0.87456270576E+03  0.90248071814E+03  0.12699999809E+01 0.  1.
       -4    1    3    3    0  502 -0.16946353221E+03  0.14454071632E+03  0.42062867284E+03  0.47596218415E+03  0.12699999809E+01 0. -1.
</event>
<event>
 5   0  0.1857986E-03  0.1282792E+04  0.7818609E-02  0.9043324E-01
        1   -1    0    0  501    0  0.00000000000E+00  0.00000000000E+00  0.12812159272E+04  0.12812159273E+04  0.50400001928E-02 0. -1.
       -1   -1    0    0    0  501  0.00000000000E+00  0.00000000000E+00 -0.32109234765E+03  0.32109234769E+03  0.50400001928E-02 0.  1.
    10030    2    1    2    0    0  0.00000000000E+00  0.00000000000E+00  0.96012357959E+03  0.16023082749E+04  0.12827916900E+04 0.  0.
        1    1    3    3  502    0 -0.47687318398E+03  0.32765908834E+03  0.82581111919E+03  0.10083315508E+04  0.50400001928E-02 0. -1.
       -1    1    3    3    0  502  0.47687318398E+03 -0.32765908834E+03  0.13431246040E+03  0.59397672413E+03  0.50400001928E-02 0.  1.
</event>
<event>
 5   0  0.1254125E-03  0.1301878E+04  0.7818609E-02  0.9028077E-01
        3   -1    0    0  501    0  0.00000000000E+00  0.00000000000E+00  0.36343644427E+03  0.36343645830E+03  0.10100000352E+00 0. -1.
       -3   -1    0    0    0  501  0.00000000000E+00  0.00000000000E+00 -0.11658758359E+04  0.11658758403E+04  0.10100000352E+00 0.  1.
    10030    2    1    2    0    0  0.00000000000E+00  0.00000000000E+00 -0.80243939164E+03  0.15293122986E+04  0.13018783082E+04 0.  0.
        1    1    3    3  502    0 -0.56075642895E+03 -0.23536836724E+03 -0.67388031719E+03  0.90772282269E+03  0.50400001928E-02 0.  1.
       -1    1    3    3    0  502  0.56075642895E+03  0.23536836724E+03 -0.12855907445E+03  0.62158947590E+03  0.50400001928E-02 0. -1.
</event>
<event>
 5   0  0.3262927E-03  0.1273063E+04  0.7818609E-02  0.9051204E-01
        2   -1    0    0  501    0  0.00000000000E+00  0.00000000000E+00  0.19779027240E+04  0.19779027240E+04  0.25500000920E-02 0.  1.
       -2   -1    0    0    0  501  0.00000000000E+00  0.00000000000E+00 -0.20484943637E+03  0.20484943638E+03  0.25500000920E-02 0. -1.
    10030    2    1    2    0    0  0.00000000000E+00  0.00000000000E+00  0.17730532876E+04  0.21827521604E+04  0.12730628550E+04 0.  0.
        3    1    3    3  502    0  0.28631805749E+03 -0.29702386978E+03  0.55410442097E+02  0.41625897775E+03  0.10100000352E+00 0. -1.
       -3    1    3    3    0  502 -0.28631805749E+03  0.29702386978E+03  0.17176428455E+04  0.17664931826E+04  0.10100000352E+00 0.  1.
</event>
<event>
 5   0  0.3336609E-03  0.1307332E+04  0.7818609E-02  0.9023771E-01
       -2   -1    0    0    0  501  0.00000000000E+00  0.00000000000E+00  0.47505488002E+03  0.47505488002E+03  0.25500000920E-02 0. -1.
        2   -1    0    0  501    0  0.00000000000E+00  0.00000000000E+00 -0.89943165023E+03  0.89943165023E+03  0.25500000920E-02 0.  1.
    10030    2    1    2    0    0  0.00000000000E+00  0.00000000000E+00 -0.42437677021E+03  0.13744865303E+04  0.13073322373E+04 0.  0.
        1    1    3    3  502    0  0.89121860226E+02  0.49695619315E+03  0.22431428935E+03  0.55247177694E+03  0.50400001928E-02 0.  1.
       -1    1    3    3    0  502 -0.89121860226E+02 -0.49695619315E+03 -0.64869105956E+03  0.82201475331E+03  0.50400001928E-02 0. -1.
</event>
<event>
 5   0  0.1254125E-03  0.1273258E+04  0.7818609E-02  0.9051045E-01
        4   -1    0    0  501    0  0.00000000000E+00  0.00000000000E+00  0.97806110243E+03  0.97806192697E+03  0.12699999809E+01 0. -1.
       -4   -1    0    0    0  501  0.00000000000E+00  0.00000000000E+00 -0.41438549164E+03  0.41438743777E+03  0.12699999809E+01 0.  1.
    10030    2    1    2    0    0  0.00000000000E+00  0.00000000000E+00  0.56367561079E+03  0.13924493647E+04  0.12732576484E+04 0.  0.
        3    1    3    3  502    0  0.79792013360E+02  0.20002294942E+03  0.93702006746E+03  0.96144815915E+03  0.10100000352E+00 0. -1.
       -3    1    3    3    0  502 -0.79792013360E+02 -0.20002294942E+03 -0.37334445667E+03  0.43100120559E+03  0.10100000352E+00 0.  1.
</event>
<event>
 5   0  0.1857986E-03  0.1355020E+04  0.7818609E-02  0.8987037E-01
        1   -1    0    0  501    0  0.00000000000E+00  0.00000000000E+00  0.14676863489E+04  0.14676863489E+04  0.50400001928E-02 0.  1.
       -1   -1    0    0    0  501  0.00000000000E+00  0.00000000000E+00 -0.31275051791E+03  0.31275051795E+03  0.50400001928E-02 0. -1.
    10030    2    1    2    0    0  0.00000000000E+00  0.00000000000E+00  0.11549358310E+04  0.17804368669E+04  0.13550198018E+04 0.  0.
        1    1    3    3  502    0  0.43510749768E+03  0.44762019421E+02  0.12573022406E+04  0.13312141440E+04  0.50400001928E-02 0.  1.
       -1    1    3    3    0  502 -0.43510749768E+03 -0.44762019421E+02 -0.10236640959E+03  0.44922272289E+03  0.50400001928E-02 0. -1.
</event>
<event>
 5   0  0.1823154E-03  0.1354827E+04  0.7818609E-02  0.8987182E-01
       -1   -1    0    0    0  501  0.00000000000E+00  0.00000000000E+00  0.50583689100E+03  0.50583689102E+03  0.50400001928E-02 0. -1.
        1   -1    0    0  501    0  0.00000000000E+00  0.00000000000E+00 -0.90718844423E+03  0.90718844424E+03  0.50400001928E-02 0.  1.
    10030    2    1    2    0    0  0.00000000000E+00  0.00000000000E+00 -0.40135155323E+03  0.14130253353E+04  0.13548274904E+04 0.  0.
        2    1    3    3  502    0 -0.23944565122E+03  0.52192126262E+03  0.17414080851E+03  0.60005086906E+03  0.25500000920E-02 0. -1.
       -2    1    3    3    0  502  0.23944565122E+03 -0.52192126262E+03 -0.57549236175E+03  0.81297446620E+03  0.25500000920E-02 0.  1.
</event>
<event>
 5   0  0.3262927E-03  0.1305402E+04  0.7818609E-02  0.9025292E-01
       -2   -1    0    0    0  501  0.00000000000E+00  0.00000000000E+00  0.27455166956E+03  0.27455166957E+03  0.25500000920E-02 0. -1.
        2   -1    0    0  501    0  0.00000000000E+00  0.00000000000E+00 -0.15516883487E+04  0.15516883487E+04  0.25500000920E-02 0.  1.
    10030    2    1    2    0    0  0.00000000000E+00  0.00000000000E+00 -0.12771366791E+04  0.18262400182E+04  0.13054020481E+04 0.  0.
        3    1    3    3  502    0 -0.10197625452E+03 -0.60658929089E+03 -0.33312469334E+03  0.69951540070E+03  0.10100000352E+00 0. -1.
       -3    1    3    3    0  502  0.10197625452E+03  0.60658929089E+03 -0.94401198576E+03  0.11267246175E+04  0.10100000352E+00 0.  1.
</event>
<event>
 5   0  0.1823154E-03  0.1286363E+04  0.7818609E-02  0.9040450E-01
       -1   -1    0    0    0  501  0.00000000000E+00  0.00000000000E+00  0.62569311769E+03  0.62569311772E+03  0.50400001928E-02 0. -1.
        1   -1    0    0  501    0  0.00000000000E+00  0.00000000000E+00 -0.66115905462E+03  0.66115905464E+03  0.50400001928E-02 0.  1.
    10030    2    1    2    0    0  0.00000000000E+00  0.00000000000E+00 -0.35465936929E+02  0.12868521724E+04  0.12863633549E+04 0.  0.
        2    1    3    3  502    0 -0.20907696789E+03  0.37406161960E+03 -0.49754779260E+03  0.65664989126E+03  0.25500000920E-02 0.  1.
       -2    1    3    3    0  502  0.20907696789E+03 -0.37406161960E+03  0.46208185567E+03  0.63020228110E+03  0.25500000920E-02 0. -1.
</event>
<event>
 5   0  0.3259968E-03  0.1277582E+04  0.7818609E-02  0.9047534E-01
        2   -1    0    0  501    0  0.00000000000E+00  0.00000000000E+00  0.83330022064E+03  0.83330022064E+03  0.25500000920E-02 0. -1.
       -2   -1    0    0    0  501  0.00000000000E+00  0.00000000000E+00 -0.48968444459E+03  0.48968444460E+03  0.25500000920E-02 0.  1.
    10030    2    1    2    0    0  0.00000000000E+00  0.00000000000E+00  0.34361577605E+03  0.13229846652E+04  0.12775823351E+04 0.  0.
        4    1    3    3  502    0 -0.36898062362E+03 -0.50946738175E+03  0.56733465785E+02  0.63160431658E+03  0.12699999809E+01 0.  1.
       -4    1    3    3    0  502  0.36898062362E+03  0.50946738175E+03  0.28688231026E+03  0.69138034866E+03  0.12699999809E+01 0. -1.
</event>
<event>
 5   0  0.1873488E-03  0.1304662E+04  0.7818609E-02  0.9025877E-01
       -1   -1    0    0    0  501  0.00000000000E+00  0.00000000000E+00  0.55372409507E+03  0.55372409509E+03  0.50400001928E-02 0.  1.
        1   -1    0    0  501    0  0.00000000000E+00  0.00000000000E+00 -0.76849720892E+03  0.76849720894E+03  0.50400001928E-02 0. -1.
    10030    2    1    2    0    0  0.00000000000E+00  0.00000000000E+00 -0.21477311385E+03  0.13222213040E+04  0.13046615218E+04 0.  0.
        3    1    3    3  502    0  0.29050019733E+03 -0.57589242740E+03 -0.20612973357E+03  0.67714985775E+03  0.10100000352E+00 0. -1.
       -3    1    3    3    0  502 -0.29050019733E+03  0.57589242740E+03 -0.86433802827E+01  0.64507144628E+03  0.10100000352E+00 0.  1.
</event>
<event>
 5   0  0.1857986E-03  0.1312314E+04  0.7818609E-02  0.9019857E-01
       -1   -1    0    0    0  501  0.00000000000E+00  0.00000000000E+00  0.51474543011E+03  0.51474543013E+03  0.50400001928E-02 0. -1.
        1   -1    0    0  501    0  0.00000000000E+00  0.00000000000E+00 -0.83641749938E+03  0.83641749939E+03  0.50400001928E-02 0.  1.
    10030    2    1    2    0    0  0.00000000000E+00  0.00000000000E+00 -0.32167206927E+03  0.13511629295E+04  0.13123141171E+04 0.  0.
        1    1    3    3  502    0 -0.40229041569E+03 -0.36401212176E+03 -0.54081361043E+03  0.76604292608E+03  0.50400001928E-02 0.  1.
       -1    1    3    3    0  502  0.40229041569E+03  0.36401212176E+03  0.21914154116E+03  0.58512000345E+03  0.50400001928E-02 0. -1.
</event>
<event>
 5   0  0.3259968E-03  0.1256791E+04  0.7818609E-02  0.9064550E-01
        2   -1    0    0  501    0  0.00000000000E+00  0.00000000000E+00  0.16467271588E+04  0.16467271588E+04  0.25500000920E-02 0. -1.
       -2   -1    0    0    0  501  0.00000000000E+00  0.00000000000E+00 -0.23979748911E+03  0.23979748912E+03  0.25500000920E-02 0.  1.
    10030    2    1    2    0    0  0.00000000000E+00  0.00000000000E+00  0.14069296697E+04  0.18865246479E+04  0.12567912125E+04 0.  0.
        4    1    3    3  502    0  0.62489032157E+03 -0.41231600756E+02  0.62559059723E+03  0.88518538575E+03  0.12699999809E+01 0.  1.
       -4    1    3    3    0  502 -0.62489032157E+03  0.41231600756E+02  0.78133907242E+03  0.10013392621E+04  0.12699999809E+01 0. -1.
</event>
<event>
 5   0  0.3294720E-03  0.1268375E+04  0.7818609E-02  0.9055027E-01
        2   -1    0    0  501    0  0.00000000000E+00  0.00000000000E+00  0.31104534624E+03  0.31104534625E+03  0.25500000920E-02 0. -1.
       -2   -1    0    0    0  501  0.00000000000E+00  0.00000000000E+00 -0.12930389098E+04  0.12930389098E+04  0.25500000920E-02 0.  1.
    10030    2    1    2    0    0  0.00000000000E+00  0.00000000000E+00 -0.98199356358E+03  0.16040842561E+04  0.12683749216E+04 0.  0.
        5    1    3    3  502    0  0.29157508258E+03 -0.66432370473E+02 -0.11982466612E+04  0.12350086800E+04  0.46999998093E+01 0.  1.
       -5    1    3    3    0  502 -0.29157508258E+03  0.66432370473E+02  0.21625309761E+03  0.36907557607E+03  0.46999998093E+01 0. -1.
</event>
<event>
 5   0  0.1823154E-03  0.1317534E+04  0.7818609E-02  0.9015775E-01
       -1   -1    0    0    0  501  0.00000000000E+00  0.00000000000E+00  0.12122281240E+04  0.12122281240E+04  0.50400001928E-02 0. -1.
        1   -1    0    0  501    0  0.00000000000E+00  0.00000000000E+00 -0.35799710899E+03  0.35799710902E+03  0.50400001928E-02 0.  1.
    10030    2    1    2    0    0  0.00000000000E+00  0.00000000000E+00  0.85423101500E+03  0.15702252330E+04  0.13175343090E+04 0.  0.
        2    1    3    3  502    0  0.65865516813E+03 -0.41367264615E+01  0.44072599011E+03  0.79251696598E+03  0.25500000920E-02 0.  1.
       -2    1    3    3    0  502 -0.65865516813E+03  0.41367264615E+01  0.41350502489E+03  0.77770826704E+03  0.25500000920E-02 0. -1.
</event>
<event>
 5   0  0.1823154E-03  0.1262510E+04  0.7818609E-02  0.9059835E-01
       -1   -1    0    0    0  501  0.00000000000E+00  0.00000000000E+00  0.48763336330E+03  0.48763336333E+03  0.50400001928E-02 0. -1.
        1   -1    0    0  501    0  0.00000000000E+00  0.00000000000E+00 -0.81717665320E+03  0.81717665321E+03  0.50400001928E-02 0.  1.
    10030    2    1    2    0    0  0.00000000000E+00  0.00000000000E+00 -0.32954328990E+03  0.13048100165E+04  0.12625095641E+04 0.  0.
        2    1    3    3  502    0  0.25328934407E+03  0.29790565406E+03 -0.67693500929E+03  0.78175717289E+03  0.25500000920E-02 0.  1.
       -2    1    3    3    0  502 -0.25328934407E+03 -0.29790565406E+03  0.34739171939E+03  0.52305284365E+03  0.25500000920E-02 0. -1.
</event>
<event>
 5   0  0.1857986E-03  0.1302949E+04  0.7818609E-02  0.9027230E-01
       -1   -1    0    0    0  501  0.00000000000E+00  0.00000000000E+00  0.27047864686E+03  0.27047864691E+03  0.50400001928E-02 0. -1.
        1   -1    0    0  501    0  0.00000000000E+00  0.00000000000E+00 -0.15691413914E+04  0.15691413915E+04  0.50400001928E-02 0.  1.
    10030    2    1    2    0    0  0.00000000000E+00  0.00000000000E+00 -0.12986627446E+04  0.18396200384E+04  0.13029493319E+04 0.  0.
        1    1    3    3  502    0 -0.16693757583E+03  0.48263614274E+03 -0.78234092301E+02  0.51664917858E+03  0.50400001928E-02 0. -1.
       -1    1    3    3    0  502  0.16693757583E+03 -0.48263614274E+03 -0.12204286523E+04  0.13229708598E+04  0.50400001928E-02 0.  1.
</event>
<event>
 5   0  0.1814770E-03  0.1314772E+04  0.7818609E-02  0.9017932E-01
       -1   -1    0    0    0  501  0.00000000000E+00  0.00000000000E+00  0.59050587971E+03  0.59050587973E+03  0.50400001928E-02 0. -1.
        1   -1    0    0  501    0  0.00000000000E+00  0.00000000000E+00 -0.73184125804E+03  0.73184125806E+03  0.50400001928E-02 0.  1.
    10030    2    1    2    0    0  0.00000000000E+00  0.00000000000E+00 -0.14133537833E+03  0.13223471378E+04  0.13147723239E+04 0.  0.
        5    1    3    3  502    0  0.46870487818E+03  0.44209871334E+03 -0.20179883497E+03  0.67518915495E+03  0.46999998093E+01 0.  1.
       -5    1    3    3    0  502 -0.46870487818E+03 -0.44209871334E+03  0.60463456637E+02  0.64715798284E+03  0.46999998093E+01 0. -1.
</event>
<event>
 5   0  0.1873488E-03  0.1275277E+04  0.7818609E-02  0.9049404E-01
        1   -1    0    0  501    0  0.00000000000E+00  0.00000000000E+00  0.78050351619E+03  0.78050351621E+03  0.50400001928E-02 0.  1.
       -1   -1    0    0    0  501  0.00000000000E+00  0.00000000000E+00 -0.52092366637E+03  0.52092366640E+03  0.50400001928E-02 0. -1.
    10030    2    1    2    0    0  0.00000000000E+00  0.00000000000E+00  0.25957984982E+03  0.13014271826E+04  0.12752768379E+04 0.  0.
        3    1    3    3  502    0 -0.14680728647E+03 -0.44853370902E+03  0.56735707420E+03  0.73798978809E+03  0.10100000352E+00 0.  1.
       -3    1    3    3    0  502  0.14680728647E+03  0.44853370902E+03 -0.30777722438E+03  0.56343739451E+03  0.10100000352E+00 0. -1.
</event>
<event>
 5   0  0.3336609E-03  0.1297088E+04  0.7818609E-02  0.9031878E-01
       -2   -1    0    0    0  501  0.00000000000E+00  0.00000000000E+00  0.52636954976E+03  0.52636954976E+03  0.25500000920E-02 0.  1.
        2   -1    0    0  501    0  0.00000000000E+00  0.00000000000E+00 -0.79907600873E+03  0.79907600873E+03  0.25500000920E-02 0. -1.
    10030    2    1    2    0    0  0.00000000000E+00  0.00000000000E+00 -0.27270645897E+03  0.13254455585E+04  0.12970879368E+04 0.  0.
        1    1    3    3  502    0  0.64529607881E+03  0.19909968121E+02 -0.73312984222E+02  0.64975243735E+03  0.50400001928E-02 0.  1.
       -1    1    3    3    0  502 -0.64529607881E+03 -0.19909968121E+02 -0.19939347475E+03  0.67569312115E+03  0.50400001928E-02 0. -1.
</event>
<event>
 5   0  0.1873488E-03  0.1275947E+04  0.7818609E-02  0.9048860E-01
       -1   -1    0    0    0  501  0.00000000000E+00  0.00000000000E+00  0.45113225044E+03  0.45113225047E+03  0.50400001928E-02 0.  1.
        1   -1    0    0  501    0  0.00000000000E+00  0.00000000000E+00 -0.90219637843E+03  0.90219637844E+03  0.50400001928E-02 0. -1.
    10030    2    1    2    0    0  0.00000000000E+00  0.00000000000E+00 -0.45106412799E+03  0.13533286289E+04  0.12759465233E+04 0.  0.
        3    1    3    3  502    0  0.45368496201E+03 -0.22250533060E+03 -0.63860083789E+03  0.81434004400E+03  0.10100000352E+00 0.  1.
       -3    1    3    3    0  502 -0.45368496201E+03  0.22250533060E+03  0.18753670990E+03  0.53898858491E+03  0.10100000352E+00 0. -1.
</event>
<event>
 5   0  0.1857986E-03  0.1310368E+04  0.7818609E-02  0.9021384E-01
       -1   -1    0    0    0  501  0.00000000000E+00  0.00000000000E+00  0.51290260023E+03  0.51290260025E+03  0.50400001928E-02 0.  1.
        1   -1    0    0  501    0  0.00000000000E+00  0.00000000000E+00 -0.83693467188E+03  0.83693467189E+03  0.50400001928E-02 0. -1.
    10030    2    1    2    0    0  0.00000000000E+00  0.00000000000E+00 -0.32403207165E+03  0.13498372721E+04  0.13103678407E+04 0.  0.
        1    1    3    3  502    0 -0.19769675877E+03  0.33423825290E+03 -0.70561029800E+03  0.80540990235E+03  0.50400001928E-02 0. -1.
       -1    1    3    3    0  502  0.19769675877E+03 -0.33423825290E+03  0.38157822635E+03  0.54442736980E+03  0.50400001928E-02 0.  1.
</event>
<event>
 5   0  0.1857986E-03  0.1322139E+04  0.7818609E-02  0.9012191E-01
        1   -1    0    0  501    0  0.00000000000E+00  0.00000000000E+00  0.13191029427E+04  0.13191029427E+04  0.50400001928E-02 0.  1.
       -1   -1    0    0    0  501  0.00000000000E+00  0.00000000000E+00 -0.33129544372E+03  0.33129544376E+03  0.50400001928E-02 0. -1.
    10030    2    1    2    0    0  0.00000000000E+00  0.00000000000E+00  0.98780749898E+03  0.16503983865E+04  0.13221388652E+04 0.  0.
        1    1    3    3  502    0  0.19008116074E+02  0.58945743005E+03  0.86670148737E+03  0.10483285928E+04  0.50400001928E-02 0.  1.
       -1    1    3    3    0  502 -0.19008116074E+02 -0.58945743005E+03  0.12110601161E+03  0.60206979363E+03  0.50400001928E-02 0. -1.
</event>
<event>
 5   0  0.1823154E-03  0.1294310E+04  0.7818609E-02  0.9034089E-01
       -1   -1    0    0    0  501  0.00000000000E+00  0.00000000000E+00  0.74313888440E+03  0.74313888441E+03  0.50400001928E-02 0.  1.
        1   -1    0    0  501    0  0.00000000000E+00  0.00000000000E+00 -0.56356862815E+03  0.56356862817E+03  0.50400001928E-02 0. -1.
    10030    2    1    2    0    0  0.00000000000E+00  0.00000000000E+00  0.17957025625E+03  0.13067075126E+04  0.12943102590E+04 0.  0.
        2    1    3    3  502    0  0.14438560006E+03  0.32013738317E+03 -0.45899715598E+03  0.57793904074E+03  0.25500000920E-02 0. -1.
       -2    1    3    3    0  502 -0.14438560006E+03 -0.32013738317E+03  0.63856741222E+03  0.72876847185E+03  0.25500000920E-02 0.  1.
</event>
<event>
 5   0  0.1873488E-03  0.1267136E+04  0.7818609E-02  0.9056040E-01
        1   -1    0    0  501    0  0.00000000000E+00  0.00000000000E+00  0.95152939573E+03  0.95152939574E+03  0.50400001928E-02 0.  1.
       -1   -1    0    0    0  501  0.00000000000E+00  0.00000000000E+00 -0.42185633859E+03  0.42185633862E+03  0.50400001928E-02 0. -1.
    10030    2    1    2    0    0  0.00000000000E+00  0.00000000000E+00  0.52967305714E+03  0.13733857344E+04  0.12671364677E+04 0.  0.
        3    1    3    3  502    0  0.59608559283E+02  0.30921991701E+03 -0.33102325877E+03  0.45688789157E+03  0.10100000352E+00 0. -1.
       -3    1    3    3    0  502 -0.59608559283E+02 -0.30921991701E+03  0.86069631591E+03  0.91649784279E+03  0.10100000352E+00 0.  1.
</event>
<event>
 5   0  0.3336609E-03  0.1286118E+04  0.7818609E-02  0.9040646E-01
        2   -1    0    0  501    0  0.00000000000E+00  0.00000000000E+00  0.65309789363E+03  0.65309789363E+03  0.25500000920E-02 0.  1.
       -2   -1    0    0    0  501  0.00000000000E+00  0.00000000000E+00 -0.63317473031E+03  0.63317473031E+03  0.25500000920E-02 0. -1.
    10030    2    1    2    0    0  0.00000000000E+00  0.00000000000E+00  0.19923163318E+02  0.12862726239E+04  0.12861183191E+04 0.  0.
        1    1    3    3  502    0  0.15327330049E+03  0.23104296875E+03 -0.57032482215E+03  0.63414821677E+03  0.50400001928E-02 0. -1.
       -1    1    3    3    0  502 -0.15327330049E+03 -0.23104296875E+03  0.59024798547E+03  0.65212440717E+03  0.50400001928E-02 0.  1.
</event>
<event>
 5   0  0.3262927E-03  0.1320312E+04  0.7818609E-02  0.9013611E-01
        2   -1    0    0  501    0  0.00000000000E+00  0.00000000000E+00  0.12964633855E+04  0.12964633855E+04  0.25500000920E-02 0. -1.
       -2   -1    0    0    0  501  0.00000000000E+00  0.00000000000E+00 -0.33614979640E+03  0.33614979641E+03  0.25500000920E-02 0.  1.
    10030    2    1    2    0    0  0.00000000000E+00  0.00000000000E+00  0.96031358912E+03  0.16326131819E+04  0.13203119375E+04 0.  0.
        3    1    3    3  502    0  0.35318964004E+03 -0.46881482808E+02  0.11673694778E+04  0.12205295175E+04  0.10100000352E+00 0. -1.
       -3    1    3    3    0  502 -0.35318964004E+03  0.46881482808E+02 -0.20705588865E+03  0.41208366443E+03  0.10100000352E+00 0.  1.
</event>
<event>
 5   0  0.1873488E-03  0.1290439E+04  0.7818609E-02  0.9037182E-01
        1   -1    0    0  501    0  0.00000000000E+00  0.00000000000E+00  0.90267756892E+03  0.90267756894E+03  0.50400001928E-02 0.  1.
       -1   -1    0    0    0  501  0.00000000000E+00  0.00000000000E+00 -0.46119223104E+03  0.46119223107E+03  0.50400001928E-02 0. -1.
    10030    2    1    2    0    0  0.00000000000E+00  0.00000000000E+00  0.44148533788E+03  0.13638698000E+04  0.12904385021E+04 0.  0.
        3    1    3    3  502    0  0.67533013471E+02 -0.90189993545E+02  0.89219956007E+03  0.89928583222E+03  0.10100000352E+00 0.  1.
       -3    1    3    3    0  502 -0.67533013471E+02  0.90189993545E+02 -0.45071422218E+03  0.46458396778E+03  0.10100000352E+00 0. -1.
</event>
<event>
 5   0  0.1254125E-03  0.1323373E+04  0.7818609E-02  0.9011233E-01
       -4   -1    0    0    0  501  0.00000000000E+00  0.00000000000E+00  0.15816913696E+04  0.15816918795E+04  0.12699999809E+01 0. -1.
        4   -1    0    0  501    0  0.00000000000E+00  0.00000000000E+00 -0.27680871441E+03  0.27681162778E+03  0.12699999809E+01 0.  1.
    10030    2    1    2    0    0  0.00000000000E+00  0.00000000000E+00  0.13048826552E+04  0.18585035073E+04  0.13233731683E+04 0.  0.
        2    1    3    3  502    0  0.23443088025E+02  0.45006190433E+03 -0.27951395838E+02  0.45153801240E+03  0.25500000920E-02 0.  1.
       -2    1    3    3    0  502 -0.23443088025E+02 -0.45006190433E+03  0.13328340510E+04  0.14069654949E+04  0.25500000920E-02 0. -1.
</event>
<event>
 5   0  0.1803959E-03  0.1283377E+04  0.7818609E-02  0.9042852E-01
        1   -1    0    0  501    0  0.00000000000E+00  0.00000000000E+00  0.88466260791E+03  0.88466260792E+03  0.50400001928E-02 0. -1.
       -1   -1    0    0    0  501  0.00000000000E+00  0.00000000000E+00 -0.46544796660E+03  0.46544796663E+03  0.50400001928E-02 0.  1.
    10030    2    1    2    0    0  0.00000000000E+00  0.00000000000E+00  0.41921464131E+03  0.13501105745E+04  0.12833774379E+04 0.  0.
        4    1    3    3  502    0 -0.23580993983E+03 -0.21833351154E+03 -0.37468924891E+03  0.49362890528E+03  0.12699999809E+01 0.  1.
       -4    1    3    3    0  502  0.23580993983E+03  0.21833351154E+03  0.79390389022E+03  0.85648166926E+03  0.12699999809E+01 0. -1.
</event>
<event>
 5   0  0.1823154E-03  0.1284413E+04  0.7818609E-02  0.9042018E-01
        1   -1    0    0  501    0  0.00000000000E+00  0.00000000000E+00  0.15483247152E+04  0.15483247152E+04  0.50400001928E-02 0. -1.
       -1   -1    0    0    0  501  0.00000000000E+00  0.00000000000E+00 -0.26637107959E+03  0.26637107963E+03  0.50400001928E-02 0.  1.
    10030    2    1    2    0    0  0.00000000000E+00  0.00000000000E+00  0.12819536356E+04  0.18146957948E+04  0.12844125910E+04 0.  0.
        2    1    3    3  502    0 -0.62952227803E+03 -0.12450347441E+03  0.60552803019E+03  0.88230584778E+03  0.25500000920E-02 0. -1.
       -2    1    3    3    0  502  0.62952227803E+03  0.12450347441E+03  0.67642560539E+03  0.93238994702E+03  0.25500000920E-02 0.  1.
</event>
<event>
 5   0  0.1857986E-03  0.1318131E+04  0.7818609E-02  0.9015309E-01
        1   -1    0    0  501    0  0.00000000000E+00  0.00000000000E+00  0.76693444407E+03  0.76693444408E+03  0.50400001928E-02 0. -1.
       -1   -1    0    0    0  501  0.00000000000E+00  0.00000000000E+00 -0.56636827040E+03  0.56636827042E+03  0.50400001928E-02 0.  1.
    10030    2    1    2    0    0  0.00000000000E+00  0.00000000000E+00  0.20056617367E+03  0.13333027145E+04  0.13181310020E+04 0.  0.
        1    1    3    3  502    0  0.32337693293E+03 -0.43846393864E+03 -0.27485496757E+03  0.61022005823E+03  0.50400001928E-02 0.  1.
       -1    1    3    3    0  502 -0.32337693293E+03  0.43846393864E+03  0.47542114124E+03  0.72308265627E+03  0.50400001928E-02 0. -1.
</event>
<event>
 5   0  0.1814770E-03  0.1296997E+04  0.7818609E-02  0.9031950E-01
        1   -1    0    0  501    0  0.00000000000E+00  0.00000000000E+00  0.97888733263E+03  0.97888733264E+03  0.50400001928E-02 0.  1.
       -1   -1    0    0    0  501  0.00000000000E+00  0.00000000000E+00 -0.42962089185E+03  0.42962089188E+03  0.50400001928E-02 0. -1.
    10030    2    1    2    0    0  0.00000000000E+00  0.00000000000E+00  0.54926644078E+03  0.14085082245E+04  0.12969972227E+04 0.  0.
        5    1    3    3  502    0  0.53143401968E+03  0.18940745181E+03  0.62185884720E+03  0.83965934516E+03  0.46999998093E+01 0.  1.
       -5    1    3    3    0  502 -0.53143401968E+03 -0.18940745181E+03 -0.72592406426E+02  0.56884887936E+03  0.46999998093E+01 0. -1.
</event>
<event>
 5   0  0.3294720E-03  0.1291799E+04  0.7818609E-02  0.9036094E-01
       -2   -1    0    0    0  501  0.00000000000E+00  0.00000000000E+00  0.13843365476E+03  0.13843365478E+03  0.25500000920E-02 0.  1.
        2   -1    0    0  501    0  0.00000000000E+00  0.00000000000E+00 -0.30136177284E+04  0.30136177284E+04  0.25500000920E-02 0. -1.
    10030    2    1    2    0    0  0.00000000000E+00  0.00000000000E+00 -0.28751840737E+04  0.31520513832E+04  0.12917989259E+04 0.  0.
        5    1    3    3  502    0  0.55594916367E+03  0.14444326463E+03 -0.71696899296E+03  0.91870014485E+03  0.46999998093E+01 0. -1.
       -5    1    3    3    0  502 -0.55594916367E+03 -0.14444326463E+03 -0.21582150807E+04  0.22333512384E+04  0.46999998093E+01 0.  1.
</event>
<event>
 5   0  0.3259968E-03  0.1284207E+04  0.7818609E-02  0.9042183E-01
       -2   -1    0    0    0  501  0.00000000000E+00  0.00000000000E+00  0.46048950694E+03  0.46048950694E+03  0.25500000920E-02 0.  1.
        2   -1    0    0  501    0  0.00000000000E+00  0.00000000000E+00 -0.89534550203E+03  0.89534550203E+03  0.25500000920E-02 0. -1.
    10030    2    1    2    0    0  0.00000000000E+00  0.00000000000E+00 -0.43485599510E+03  0.13558350090E+04  0.12842074735E+04 0.  0.
        4    1    3    3  502    0 -0.44417222927E+02 -0.60285559082E+03 -0.44604144711E+03  0.75124053306E+03  0.12699999809E+01 0.  1.
       -4    1    3    3    0  502  0.44417222927E+02  0.60285559082E+03  0.11185452014E+02  0.60459447592E+03  0.12699999809E+01 0. -1.
</event>
<event>
 5   0  0.1814770E-03  0.1301791E+04  0.7818609E-02  0.9028146E-01
       -1   -1    0    0    0  501  0.00000000000E+00  0.00000000000E+00  0.34183825027E+03  0.34183825031E+03  0.50400001928E-02 0. -1.
        1   -1    0    0  501    0  0.00000000000E+00  0.00000000000E+00 -0.12393732442E+04  0.12393732442E+04  0.50400001928E-02 0.  1.
    10030    2    1    2    0    0  0.00000000000E+00  0.00000000000E+00 -0.89753499389E+03  0.15812114945E+04  0.13017913523E+04 0.  0.
        5    1    3    3  502    0 -0.22186286312E+03 -0.61126893293E+03 -0.41505699349E+03  0.77147082657E+03  0.46999998093E+01 0. -1.
       -5    1    3    3    0  502  0.22186286312E+03  0.61126893293E+03 -0.48247800039E+03  0.80974066791E+03  0.46999998093E+01 0.  1.
</event>
<event>
 5   0  0.1814770E-03  0.1290053E+04  0.7818609E-02  0.9037491E-01
       -1   -1    0    0    0  501  0.00000000000E+00  0.00000000000E+00  0.26748982822E+03  0.26748982827E+03  0.50400001928E-02 0. -1.
        1   -1    0    0  501    0  0.00000000000E+00  0.00000000000E+00 -0.15554204208E+04  0.15554204208E+04  0.50400001928E-02 0.  1.
    10030    2    1    2    0    0  0.00000000000E+00  0.00000000000E+00 -0.12879305925E+04  0.18229102490E+04  0.12900529310E+04 0.  0.
        5    1    3    3  502    0 -0.43479176051E+03  0.14127232775E+03 -0.10112071094E+01  0.45719236448E+03  0.46999998093E+01 0. -1.
       -5    1    3    3    0  502  0.43479176051E+03 -0.14127232775E+03 -0.12869193854E+04  0.13657178846E+04  0.46999998093E+01 0.  1.
</event>
<event>
 5   0  0.3336609E-03  0.1454912E+04  0.7818609E-02  0.8915002E-01
        2   -1    0    0  501    0  0.00000000000E+00  0.00000000000E+00  0.75691322337E+03  0.75691322337E+03  0.25500000920E-02 0. -1.
       -2   -1    0    0    0  501  0.00000000000E+00  0.00000000000E+00 -0.69914550290E+03  0.69914550290E+03  0.25500000920E-02 0.  1.
    10030    2    1    2    0    0  0.00000000000E+00  0.00000000000E+00  0.57767720474E+02  0.14560587263E+04  0.14549123358E+04 0.  0.
        1    1    3    3  502    0 -0.43265696141E+03  0.54081913711E+03 -0.19381133934E+03  0.71919414667E+03  0.50400001928E-02 0. -1.
       -1    1    3    3    0  502  0.43265696141E+03 -0.54081913711E+03  0.25157905981E+03  0.73686457961E+03  0.50400001928E-02 0.  1.
</event>
<event>
 5   0  0.3259968E-03  0.1281353E+04  0.7818609E-02  0.9044484E-01
       -2   -1    0    0    0  501  0.00000000000E+00  0.00000000000E+00  0.50397473549E+03  0.50397473550E+03  0.25500000920E-02 0. -1.
        2   -1    0    0  501    0  0.00000000000E+00  0.00000000000E+00 -0.81445883533E+03  0.81445883534E+03  0.25500000920E-02 0.  1.
    10030    2    1    2    0    0  0.00000000000E+00  0.00000000000E+00 -0.31048409984E+03  0.13184335708E+04  0.12813534658E+04 0.  0.
        4    1    3    3  502    0  0.35740877642E+03 -0.13878262399E+03  0.37289843717E+03  0.53484250722E+03  0.12699999809E+01 0. -1.
       -4    1    3    3    0  502 -0.35740877642E+03  0.13878262399E+03 -0.68338253701E+03  0.78359106361E+03  0.12699999809E+01 0.  1.
</event>
<event>
 5   0  0.3259968E-03  0.1313624E+04  0.7818609E-02  0.9018831E-01
        2   -1    0    0  501    0  0.00000000000E+00  0.00000000000E+00  0.54321593051E+03  0.54321593052E+03  0.25500000920E-02 0.  1.
       -2   -1    0    0    0  501  0.00000000000E+00  0.00000000000E+00 -0.79416254003E+03  0.79416254003E+03  0.25500000920E-02 0. -1.
    10030    2    1    2    0    0  0.00000000000E+00  0.00000000000E+00 -0.25094660951E+03  0.13373784706E+04  0.13136236039E+04 0.  0.
        4    1    3    3  502    0  0.57893022233E+03  0.25867464451E+02 -0.44020899948E+03  0.72774645597E+03  0.12699999809E+01 0. -1.
       -4    1    3    3    0  502 -0.57893022233E+03 -0.25867464451E+02  0.18926238997E+03  0.60963201458E+03  0.12699999809E+01 0.  1.
</event>
<event>
 5   0  0.1803959E-03  0.1208628E+04  0.7818609E-02  0.9105337E-01
        1   -1    0    0  501    0  0.00000000000E+00  0.00000000000E+00  0.84551508872E+03  0.84551508873E+03  0.50400001928E-02 0.  1.
       -1   -1    0    0    0  501  0.00000000000E+00  0.00000000000E+00 -0.43192093207E+03  0.43192093210E+03  0.50400001928E-02 0. -1.
    10030    2    1    2    0    0  0.00000000000E+00  0.00000000000E+00  0.41359415665E+03  0.12774360208E+04  0.12086284214E+04 0.  0.
        4    1    3    3  502    0  0.13360229492E+03 -0.44331959282E+03  0.61725119774E+03  0.77161032173E+03  0.12699999809E+01 0.  1.
       -4    1    3    3    0  502 -0.13360229492E+03  0.44331959282E+03 -0.20365704109E+03  0.50582569910E+03  0.12699999809E+01 0. -1.
</event>
<event>
 5   0  0.1873488E-03  0.1298875E+04  0.7818609E-02  0.9030457E-01
        1   -1    0    0  501    0  0.00000000000E+00  0.00000000000E+00  0.14328884611E+04  0.14328884611E+04  0.50400001928E-02 0. -1.
       -1   -1    0    0    0  501  0.00000000000E+00  0.00000000000E+00 -0.29434906614E+03  0.29434906618E+03  0.50400001928E-02 0.  1.
    10030    2    1    2    0    0  0.00000000000E+00  0.00000000000E+00  0.11385393950E+04  0.17272375273E+04  0.12988754836E+04 0.  0.
        3    1    3    3  502    0 -0.64055594593E+03 -0.54483103324E+02  0.44674775244E+03  0.78285624027E+03  0.10100000352E+00 0.  1.
       -3    1    3    3    0  502  0.64055594593E+03  0.54483103324E+02  0.69179164251E+03  0.94438128701E+03  0.10100000352E+00 0. -1.
</event>
<event>
 5   0  0.1873488E-03  0.1297698E+04  0.7818609E-02  0.9031392E-01
       -1   -1    0    0    0  501  0.00000000000E+00  0.00000000000E+00  0.42766679771E+03  0.42766679774E+03  0.50400001928E-02 0.  1.
        1   -1    0    0  501    0  0.00000000000E+00  0.00000000000E+00 -0.98442362851E+03  0.98442362853E+03  0.50400001928E-02 0. -1.
    10030    2    1    2    0    0  0.00000000000E+00  0.00000000000E+00 -0.55675683081E+03  0.14120904263E+04  0.12976984254E+04 0.  0.
        3    1    3    3  502    0 -0.12154614640E+03  0.55682018648E+03  0.59093881215E+02  0.57298715760E+03  0.10100000352E+00 0.  1.
       -3    1    3    3    0  502  0.12154614640E+03 -0.55682018648E+03 -0.61585071202E+03  0.83910326866E+03  0.10100000352E+00 0. -1.
</event>
<event>
 5   0  0.3259968E-03  0.1226243E+04  0.7818609E-02  0.9090191E-01
        2   -1    0    0  501    0  0.00000000000E+00  0.00000000000E+00  0.14760917297E+04  0.14760917297E+04  0.25500000920E-02 0.  1.
       -2   -1    0    0    0  501  0.00000000000E+00  0.00000000000E+00 -0.25467115195E+03  0.25467115197E+03  0.25500000920E-02 0. -1.
    10030    2    1    2    0    0  0.00000000000E+00  0.00000000000E+00  0.12214205778E+04  0.17307628817E+04  0.12262430121E+04 0.  0.
        4    1    3    3  502    0 -0.84994470779E+02  0.53142243027E+03  0.19611686475E+03  0.57279778019E+03  0.12699999809E+01 0. -1.
       -4    1    3    3    0  502  0.84994470779E+02 -0.53142243027E+03  0.10253037130E+04  0.11579651015E+04  0.12699999809E+01 0.  1.
</event>
<event>
 5   0  0.1803959E-03  0.1312266E+04  0.7818609E-02  0.9019894E-01
        1   -1    0    0  501    0  0.00000000000E+00  0.00000000000E+00  0.15632249994E+04  0.15632249994E+04  0.50400001928E-02 0.  1.
       -1   -1    0    0    0  501  0.00000000000E+00  0.00000000000E+00 -0.27539914445E+03  0.27539914450E+03  0.50400001928E-02 0. -1.
    10030    2    1    2    0    0  0.00000000000E+00  0.00000000000E+00  0.12878258549E+04  0.18386241439E+04  0.13122664782E+04 0.  0.
        4    1    3    3  502    0 -0.34042254261E+03  0.19883076101E+03  0.13787765931E+04  0.14340319681E+04  0.12699999809E+01 0.  1.
       -4    1    3    3    0  502  0.34042254261E+03 -0.19883076101E+03 -0.90950738133E+02  0.40459217579E+03  0.12699999809E+01 0. -1.
</event>
<event>
 5   0  0.3336609E-03  0.1292968E+04  0.7818609E-02  0.9035160E-01
        2   -1    0    0  501    0  0.00000000000E+00  0.00000000000E+00  0.61898594135E+03  0.61898594135E+03  0.25500000920E-02 0. -1.
       -2   -1    0    0    0  501  0.00000000000E+00  0.00000000000E+00 -0.67520383917E+03  0.67520383918E+03  0.25500000920E-02 0.  1.
    10030    2    1    2    0    0  0.00000000000E+00  0.00000000000E+00 -0.56217897827E+02  0.12941897805E+04  0.12929681883E+04 0.  0.
        1    1    3    3  502    0  0.11659455438E+03 -0.44197278323E+03  0.42949631599E+03  0.62721712086E+03  0.50400001928E-02 0. -1.
       -1    1    3    3    0  502 -0.11659455438E+03  0.44197278323E+03 -0.48571421381E+03  0.66697265967E+03  0.50400001928E-02 0.  1.
</event>
<event>
 5   0  0.1814770E-03  0.1296554E+04  0.7818609E-02  0.9032303E-01
       -1   -1    0    0    0  501  0.00000000000E+00  0.00000000000E+00  0.67575735248E+03  0.67575735250E+03  0.50400001928E-02 0. -1.
        1   -1    0    0  501    0  0.00000000000E+00  0.00000000000E+00 -0.62191391104E+03  0.62191391106E+03  0.50400001928E-02 0.  1.
    10030    2    1    2    0    0  0.00000000000E+00  0.00000000000E+00  0.53843441439E+02  0.12976712636E+04  0.12965537367E+04 0.  0.
        5    1    3    3  502    0 -0.50959001685E+03  0.16138955643E+03 -0.34015349172E+03  0.63360481542E+03  0.46999998093E+01 0.  1.
       -5    1    3    3    0  502  0.50959001685E+03 -0.16138955643E+03  0.39399693316E+03  0.66406644814E+03  0.46999998093E+01 0. -1.
</event>
<event>
 5   0  0.3262927E-03  0.1299904E+04  0.7818609E-02  0.9029641E-01
       -2   -1    0    0    0  501  0.00000000000E+00  0.00000000000E+00  0.35202538569E+03  0.35202538570E+03  0.25500000920E-02 0.  1.
        2   -1    0    0  501    0  0.00000000000E+00  0.00000000000E+00 -0.12000200974E+04  0.12000200974E+04  0.25500000920E-02 0. -1.
    10030    2    1    2    0    0  0.00000000000E+00  0.00000000000E+00 -0.84799471175E+03  0.15520454831E+04  0.12999039005E+04 0.  0.
        3    1    3    3  502    0 -0.41676693338E+03 -0.47538999483E+03 -0.24392078842E+03  0.67763388727E+03  0.10100000352E+00 0.  1.
       -3    1    3    3    0  502  0.41676693338E+03  0.47538999483E+03 -0.60407392333E+03  0.87441159587E+03  0.10100000352E+00 0. -1.
</event>
<event>
 5   0  0.3336609E-03  0.1302768E+04  0.7818609E-02  0.9027373E-01
       -2   -1    0    0    0  501  0.00000000000E+00  0.00000000000E+00  0.41683618375E+03  0.41683618376E+03  0.25500000920E-02 0.  1.
        2   -1    0    0  501    0  0.00000000000E+00  0.00000000000E+00 -0.10179089579E+04  0.10179089579E+04  0.25500000920E-02 0. -1.
    10030    2    1    2    0    0  0.00000000000E+00  0.00000000000E+00 -0.60107277412E+03  0.14347451416E+04  0.13027682609E+04 0.  0.
        1    1    3    3  502    0 -0.36508197749E+03 -0.46313169192E+03 -0.60519299279E+03  0.84500554608E+03  0.50400001928E-02 0. -1.
       -1    1    3    3    0  502  0.36508197749E+03  0.46313169192E+03  0.41202186685E+01  0.58973959556E+03  0.50400001928E-02 0.  1.
</event>
<event>
 5   0  0.1814770E-03  0.1294626E+04  0.7818609E-02  0.9033838E-01
       -1   -1    0    0    0  501  0.00000000000E+00  0.00000000000E+00  0.42375973312E+03  0.42375973315E+03  0.50400001928E-02 0.  1.
        1   -1    0    0  501    0  0.00000000000E+00  0.00000000000E+00 -0.98880069392E+03  0.98880069393E+03  0.50400001928E-02 0. -1.
    10030    2    1    2    0    0  0.00000000000E+00  0.00000000000E+00 -0.56504096080E+03  0.14125604271E+04  0.12946256883E+04 0.  0.
        5    1    3    3  502    0 -0.23894694292E+03 -0.94798931289E+01  0.37377722907E+03  0.44375332886E+03  0.46999998093E+01 0.  1.
       -5    1    3    3    0  502  0.23894694292E+03  0.94798931289E+01 -0.93881818987E+03  0.96880709821E+03  0.46999998093E+01 0. -1.
</event>
<event>
 5   0  0.1823154E-03  0.1298020E+04  0.7818609E-02  0.9031137E-01
       -1   -1    0    0    0  501  0.00000000000E+00  0.00000000000E+00  0.26327192889E+03  0.26327192894E+03  0.50400001928E-02 0.  1.
        1   -1    0    0  501    0  0.00000000000E+00  0.00000000000E+00 -0.15999206851E+04  0.15999206851E+04  0.50400001928E-02 0. -1.
    10030    2    1    2    0    0  0.00000000000E+00  0.00000000000E+00 -0.13366487562E+04  0.18631926140E+04  0.12980203464E+04 0.  0.
        2    1    3    3  502    0  0.60947270546E+03  0.21763492421E+03 -0.73853146987E+03  0.98196266269E+03  0.25500000920E-02 0. -1.
       -2    1    3    3    0  502 -0.60947270546E+03 -0.21763492421E+03 -0.59811728632E+03  0.88122995134E+03  0.25500000920E-02 0.  1.
</event>
<event>
 5   0  0.3299104E-03  0.1275844E+04  0.7818609E-02  0.9048944E-01
       -2   -1    0    0    0  501  0.00000000000E+00  0.00000000000E+00  0.54525908440E+03  0.54525908441E+03  0.25500000920E-02 0. -1.
        2   -1    0    0  501    0  0.00000000000E+00  0.00000000000E+00 -0.74633219220E+03  0.74633219221E+03  0.25500000920E-02 0.  1.
    10030    2    1    2    0    0  0.00000000000E+00  0.00000000000E+00 -0.20107310780E+03  0.12915912766E+04  0.12758438898E+04 0.  0.
        2    1    3    3  502    0  0.12455492347E+03  0.23194664631E+03 -0.68876885906E+03  0.73737081371E+03  0.25500000920E-02 0.  1.
       -2    1    3    3    0  502 -0.12455492347E+03 -0.23194664631E+03  0.48769575126E+03  0.55422046290E+03  0.25500000920E-02 0. -1.
</event>
<event>
 5   0  0.3299104E-03  0.1333318E+04  0.7818609E-02  0.9003553E-01
        2   -1    0    0  501    0  0.00000000000E+00  0.00000000000E+00  0.68659543575E+03  0.68659543575E+03  0.25500000920E-02 0.  1.
       -2   -1    0    0    0  501  0.00000000000E+00  0.00000000000E+00 -0.64730174771E+03  0.64730174771E+03  0.25500000920E-02 0. -1.
    10030    2    1    2    0    0  0.00000000000E+00  0.00000000000E+00  0.39293688041E+02  0.13338971835E+04  0.13333183049E+04 0.  0.
        2    1    3    3  502    0  0.39352195445E+03  0.53411147333E+03  0.85248409713E+02  0.66888107010E+03  0.25500000920E-02 0. -1.
       -2    1    3    3    0  502 -0.39352195445E+03 -0.53411147333E+03 -0.45954721673E+02  0.66501611336E+03  0.25500000920E-02 0.  1.
</event>
<event>
 5   0  0.1873488E-03  0.1315740E+04  0.7818609E-02  0.9017175E-01
       -1   -1    0    0    0  501  0.00000000000E+00  0.00000000000E+00  0.56337956766E+03  0.56337956769E+03  0.50400001928E-02 0.  1.
        1   -1    0    0  501    0  0.00000000000E+00  0.00000000000E+00 -0.76820883832E+03  0.76820883834E+03  0.50400001928E-02 0. -1.
    10030    2    1    2    0    0  0.00000000000E+00  0.00000000000E+00 -0.20482927066E+03  0.13315884060E+04  0.13157403440E+04 0.  0.
        3    1    3    3  502    0 -0.18279642513E+03 -0.13410047453E+03  0.52259642098E+03  0.56965296430E+03  0.10100000352E+00 0.  1.
       -3    1    3    3    0  502  0.18279642513E+03  0.13410047453E+03 -0.72742569164E+03  0.76193544173E+03  0.10100000352E+00 0. -1.
</event>
<event>
 5   0  0.1823154E-03  0.1297558E+04  0.7818609E-02  0.9031504E-01
       -1   -1    0    0    0  501  0.00000000000E+00  0.00000000000E+00  0.53224515238E+03  0.53224515240E+03  0.50400001928E-02 0. -1.
        1   -1    0    0  501    0  0.00000000000E+00  0.00000000000E+00 -0.79082806867E+03  0.79082806869E+03  0.50400001928E-02 0.  1.
    10030    2    1    2    0    0  0.00000000000E+00  0.00000000000E+00 -0.25858291629E+03  0.13230732211E+04  0.12975583315E+04 0.  0.
        2    1    3    3  502    0  0.17207638303E+03 -0.62505844925E+03 -0.15439381908E+03  0.66644264416E+03  0.25500000920E-02 0. -1.
       -2    1    3    3    0  502 -0.17207638303E+03  0.62505844925E+03 -0.10418909722E+03  0.65663057693E+03  0.25500000920E-02 0.  1.
</event>
<event>
 5   0  0.3336609E-03  0.1293106E+04  0.7818609E-02  0.9035050E-01
       -2   -1    0    0    0  501  0.00000000000E+00  0.00000000000E+00  0.22877651831E+03  0.22877651833E+03  0.25500000920E-02 0.  1.
        2   -1    0    0  501    0  0.00000000000E+00  0.00000000000E+00 -0.18272439359E+04  0.18272439359E+04  0.25500000920E-02 0. -1.
    10030    2    1    2    0    0  0.00000000000E+00  0.00000000000E+00 -0.15984674176E+04  0.20560204542E+04  0.12931055731E+04 0.  0.
        1    1    3    3  502    0 -0.41641373069E+03 -0.19190321149E+03 -0.74431289798E+02  0.46450753988E+03  0.50400001928E-02 0.  1.
       -1    1    3    3    0  502  0.41641373069E+03  0.19190321149E+03 -0.15240361278E+04  0.15915129143E+04  0.50400001928E-02 0. -1.
</event>
<event>
 5   0  0.1803959E-03  0.1398234E+04  0.7818609E-02  0.8955098E-01
        1   -1    0    0  501    0  0.00000000000E+00  0.00000000000E+00  0.54133938234E+03  0.54133938236E+03  0.50400001928E-02 0. -1.
       -1   -1    0    0    0  501  0.00000000000E+00  0.00000000000E+00 -0.90288010827E+03  0.90288010828E+03  0.50400001928E-02 0.  1.
    10030    2    1    2    0    0  0.00000000000E+00  0.00000000000E+00 -0.36154072592E+03  0.14442194906E+04  0.13982339721E+04 0.  0.
        4    1    3    3  502    0 -0.54432141638E+03  0.77162450752E+02 -0.62685746192E+03  0.83378158927E+03  0.12699999809E+01 0.  1.
       -4    1    3    3    0  502  0.54432141638E+03 -0.77162450752E+02  0.26531673600E+03  0.61043790138E+03  0.12699999809E+01 0. -1.
</event>
<event>
 5   0  0.3336609E-03  0.1124100E+04  0.7818609E-02  0.9182016E-01
       -2   -1    0    0    0  501  0.00000000000E+00  0.00000000000E+00  0.18778798263E+03  0.18778798265E+03  0.25500000920E-02 0. -1.
        2   -1    0    0  501    0  0.00000000000E+00  0.00000000000E+00 -0.16822167082E+04  0.16822167082E+04  0.25500000920E-02 0.  1.
    10030    2    1    2    0    0  0.00000000000E+00  0.00000000000E+00 -0.14944287255E+04  0.18700046908E+04  0.11240997856E+04 0.  0.
        1    1    3    3  502    0 -0.29043878259E+03  0.47904593252E+03 -0.82272576825E+03  0.99534786968E+03  0.50400001928E-02 0. -1.
       -1    1    3    3    0  502  0.29043878259E+03 -0.47904593252E+03 -0.67170295728E+03  0.87465682112E+03  0.50400001928E-02 0.  1.
</event>
<event>
 5   0  0.1857986E-03  0.1273829E+04  0.7818609E-02  0.9050580E-01
       -1   -1    0    0    0  501  0.00000000000E+00  0.00000000000E+00  0.93059308643E+03  0.93059308644E+03  0.50400001928E-02 0.  1.
        1   -1    0    0  501    0  0.00000000000E+00  0.00000000000E+00 -0.43591580989E+03  0.43591580992E+03  0.50400001928E-02 0. -1.
    10030    2    1    2    0    0  0.00000000000E+00  0.00000000000E+00  0.49467727654E+03  0.13665088964E+04  0.12738292491E+04 0.  0.
        1    1    3    3  502    0  0.25543578958E+03 -0.57716149001E+03  0.33897875723E+03  0.71642824207E+03  0.50400001928E-02 0.  1.
       -1    1    3    3    0  502 -0.25543578958E+03  0.57716149001E+03  0.15569851931E+03  0.65008065430E+03  0.50400001928E-02 0. -1.
</event>
<event>
 5   0  0.3259968E-03  0.1385953E+04  0.7818609E-02  0.8964050E-01
        2   -1    0    0  501    0  0.00000000000E+00  0.00000000000E+00  0.92953555653E+03  0.92953555653E+03  0.25500000920E-02 0. -1.
       -2   -1    0    0    0  501  0.00000000000E+00  0.00000000000E+00 -0.51661947641E+03  0.51661947642E+03  0.25500000920E-02 0.  1.
    10030    2    1    2    0    0  0.00000000000E+00  0.00000000000E+00  0.41291608012E+03  0.14461550330E+04  0.13859526291E+04 0.  0.
        4    1    3    3  502    0 -0.67984941807E+03  0.25190864118E+02  0.34403657359E+03  0.76235988073E+03  0.12699999809E+01 0. -1.
       -4    1    3    3    0  502  0.67984941807E+03 -0.25190864118E+02  0.68879506528E+02  0.68379515222E+03  0.12699999809E+01 0.  1.
</event>
<event>
 5   0  0.1814770E-03  0.1260634E+04  0.7818609E-02  0.9061379E-01
       -1   -1    0    0    0  501  0.00000000000E+00  0.00000000000E+00  0.29559402343E+03  0.29559402347E+03  0.50400001928E-02 0. -1.
        1   -1    0    0  501    0  0.00000000000E+00  0.00000000000E+00 -0.13440721926E+04  0.13440721926E+04  0.50400001928E-02 0.  1.
    10030    2    1    2    0    0  0.00000000000E+00  0.00000000000E+00 -0.10484781692E+04  0.16396662161E+04  0.12606342963E+04 0.  0.
        5    1    3    3  502    0  0.48745735197E+03  0.27840052424E+03 -0.15143022425E+03  0.58144193579E+03  0.46999998093E+01 0. -1.
       -5    1    3    3    0  502 -0.48745735197E+03 -0.27840052424E+03 -0.89704794493E+03  0.10582242803E+04  0.46999998093E+01 0.  1.
</event>
<event>
 5   0  0.3262927E-03  0.1300714E+04  0.7818609E-02  0.9028999E-01
        2   -1    0    0  501    0  0.00000000000E+00  0.00000000000E+00  0.14608150726E+04  0.14608150726E+04  0.25500000920E-02 0.  1.
       -2   -1    0    0    0  501  0.00000000000E+00  0.00000000000E+00 -0.28954006964E+03  0.28954006965E+03  0.25500000920E-02 0. -1.
    10030    2    1    2    0    0  0.00000000000E+00  0.00000000000E+00  0.11712750030E+04  0.17503551422E+04  0.13007144158E+04 0.  0.
        3    1    3    3  502    0  0.28877390562E+03  0.38613994034E+03 -0.16592341138E+01  0.48217961939E+03  0.10100000352E+00 0. -1.
       -3    1    3    3    0  502 -0.28877390562E+03 -0.38613994034E+03  0.11729342371E+04  0.12681755229E+04  0.10100000352E+00 0.  1.
</event>
<event>
 5   0  0.3299104E-03  0.1300540E+04  0.7818609E-02  0.9029137E-01
        2   -1    0    0  501    0  0.00000000000E+00  0.00000000000E+00  0.79148337385E+03  0.79148337385E+03  0.25500000920E-02 0. -1.
       -2   -1    0    0    0  501  0.00000000000E+00  0.00000000000E+00 -0.53425160749E+03  0.53425160750E+03  0.25500000920E-02 0.  1.
    10030    2    1    2    0    0  0.00000000000E+00  0.00000000000E+00  0.25723176635E+03  0.13257349813E+04  0.13005402951E+04 0.  0.
        2    1    3    3  502    0  0.41205554707E+03  0.45830070883E+03  0.34005140644E+03  0.70389223083E+03  0.25500000920E-02 0. -1.
       -2    1    3    3    0  502 -0.41205554707E+03 -0.45830070883E+03 -0.82819640086E+02  0.62184275052E+03  0.25500000920E-02 0.  1.
</event>
<event>
 5   0  0.3336609E-03  0.1314206E+04  0.7818609E-02  0.9018375E-01
       -2   -1    0    0    0  501  0.00000000000E+00  0.00000000000E+00  0.22766781772E+03  0.22766781774E+03  0.25500000920E-02 0. -1.
        2   -1    0    0  501    0  0.00000000000E+00  0.00000000000E+00 -0.18965538249E+04  0.18965538249E+04  0.25500000920E-02 0.  1.
    10030    2    1    2    0    0  0.00000000000E+00  0.00000000000E+00 -0.16688860072E+04  0.21242216426E+04  0.13142058751E+04 0.  0.
        1    1    3    3  502    0 -0.37280784968E+03 -0.19329956377E+03 -0.16513557172E+04  0.17039149389E+04  0.50400001928E-02 0.  1.
       -1    1    3    3    0  502  0.37280784968E+03  0.19329956377E+03 -0.17530289968E+02  0.42030670377E+03  0.50400001928E-02 0. -1.
</event>
<event>
 5   0  0.1823154E-03  0.1305681E+04  0.7818609E-02  0.9025072E-01
       -1   -1    0    0    0  501  0.00000000000E+00  0.00000000000E+00  0.81735095338E+03  0.81735095339E+03  0.50400001928E-02 0.  1.
        1   -1    0    0  501    0  0.00000000000E+00  0.00000000000E+00 -0.52144160406E+03  0.52144160408E+03  0.50400001928E-02 0. -1.
    10030    2    1    2    0    0  0.00000000000E+00  0.00000000000E+00  0.29590934932E+03  0.13387925575E+04  0.13056811130E+04 0.  0.
        2    1    3    3  502    0 -0.26579660538E+03 -0.59468002328E+03  0.19275040955E+03  0.67929734720E+03  0.25500000920E-02 0.  1.
       -2    1    3    3    0  502  0.26579660538E+03  0.59468002328E+03  0.10315893977E+03  0.65949521028E+03  0.25500000920E-02 0. -1.
</event>
<event>
 5   0  0.3299104E-03  0.1342316E+04  0.7818609E-02  0.8996665E-01
        2   -1    0    0  501    0  0.00000000000E+00  0.00000000000E+00  0.82800762041E+03  0.82800762041E+03  0.25500000920E-02 0. -1.
       -2   -1    0    0    0  501  0.00000000000E+00  0.00000000000E+00 -0.54402017890E+03  0.54402017891E+03  0.25500000920E-02 0.  1.
    10030    2    1    2    0    0  0.00000000000E+00  0.00000000000E+00  0.28398744151E+03  0.13720277993E+04  0.13423156913E+04 0.  0.
        2    1    3    3  502    0 -0.18745575833E+03 -0.36563603141E+03 -0.40043500179E+03  0.57373997548E+03  0.25500000920E-02 0.  1.
       -2    1    3    3    0  502  0.18745575833E+03  0.36563603141E+03  0.68442244330E+03  0.79828782384E+03  0.25500000920E-02 0. -1.
</event>
<event>
 5   0  0.1873488E-03  0.1318395E+04  0.7818609E-02  0.9015103E-01
       -1   -1    0    0    0  501  0.00000000000E+00  0.00000000000E+00  0.39465151563E+03  0.39465151567E+03  0.50400001928E-02 0.  1.
        1   -1    0    0  501    0  0.00000000000E+00  0.00000000000E+00 -0.11010765326E+04  0.11010765326E+04  0.50400001928E-02 0. -1.
    10030    2    1    2    0    0  0.00000000000E+00  0.00000000000E+00 -0.70642501698E+03  0.14957280483E+04  0.13183952707E+04 0.  0.
        3    1    3    3  502    0 -0.42022896469E+03 -0.33441292892E+03 -0.78688068783E+03  0.95268337704E+03  0.10100000352E+00 0. -1.
       -3    1    3    3    0  502  0.42022896469E+03  0.33441292892E+03  0.80455670859E+02  0.54304467125E+03  0.10100000352E+00 0.  1.
</event>
<event>
 5   0  0.1803959E-03  0.1315591E+04  0.7818609E-02  0.9017292E-01
       -1   -1    0    0    0  501  0.00000000000E+00  0.00000000000E+00  0.80764598490E+03  0.80764598492E+03  0.50400001928E-02 0.  1.
        1   -1    0    0  501    0  0.00000000000E+00  0.00000000000E+00 -0.53574864502E+03  0.53574864505E+03  0.50400001928E-02 0. -1.
    10030    2    1    2    0    0  0.00000000000E+00  0.00000000000E+00  0.27189733988E+03  0.13433946300E+04  0.13155914899E+04 0.  0.
        4    1    3    3  502    0 -0.30373562717E+03  0.28591826721E+02  0.73103461928E+03  0.79214017147E+03  0.12699999809E+01 0.  1.
       -4    1    3    3    0  502  0.30373562717E+03 -0.28591826721E+02 -0.45913727940E+03  0.55125445849E+03  0.12699999809E+01 0. -1.
</event>
<event>
 5   0  0.1823154E-03  0.1282072E+04  0.7818609E-02  0.9043904E-01
       -1   -1    0    0    0  501  0.00000000000E+00  0.00000000000E+00  0.20164161527E+03  0.20164161533E+03  0.50400001928E-02 0.  1.
        1   -1    0    0  501    0  0.00000000000E+00  0.00000000000E+00 -0.20379076941E+04  0.20379076941E+04  0.50400001928E-02 0. -1.
    10030    2    1    2    0    0  0.00000000000E+00  0.00000000000E+00 -0.18362660789E+04  0.22395493095E+04  0.12820717597E+04 0.  0.
        2    1    3    3  502    0  0.11125451481E+03  0.63100507108E+03 -0.95227578494E+03  0.11477692004E+04  0.25500000920E-02 0.  1.
       -2    1    3    3    0  502 -0.11125451481E+03 -0.63100507108E+03 -0.88399029391E+03  0.10917801091E+04  0.25500000920E-02 0. -1.
</event>
<event>
 5   0  0.1814770E-03  0.1299752E+04  0.7818609E-02  0.9029762E-01
       -1   -1    0    0    0  501  0.00000000000E+00  0.00000000000E+00  0.49492537563E+03  0.49492537566E+03  0.50400001928E-02 0. -1.
        1   -1    0    0  501    0  0.00000000000E+00  0.00000000000E+00 -0.85333854042E+03  0.85333854043E+03  0.50400001928E-02 0.  1.
    10030    2    1    2    0    0  0.00000000000E+00  0.00000000000E+00 -0.35841316479E+03  0.13482639161E+04  0.12997521267E+04 0.  0.
        5    1    3    3  502    0 -0.40886078229E+03  0.50030796577E+03 -0.25138530256E+03  0.69331945036E+03  0.46999998093E+01 0.  1.
       -5    1    3    3    0  502  0.40886078229E+03 -0.50030796577E+03 -0.10702786222E+03  0.65494446573E+03  0.46999998093E+01 0. -1.
</event>
<event>
 5   0  0.3262927E-03  0.1303130E+04  0.7818609E-02  0.9027086E-01
       -2   -1    0    0    0  501  0.00000000000E+00  0.00000000000E+00  0.10116229087E+04  0.10116229087E+04  0.25500000920E-02 0.  1.
        2   -1    0    0  501    0  0.00000000000E+00  0.00000000000E+00 -0.41965958626E+03  0.41965958626E+03  0.25500000920E-02 0. -1.
    10030    2    1    2    0    0  0.00000000000E+00  0.00000000000E+00  0.59196332240E+03  0.14312824949E+04  0.13031304636E+04 0.  0.
        3    1    3    3  502    0  0.16382105379E+03  0.62767687285E+03  0.22897699703E+03  0.68792882608E+03  0.10100000352E+00 0.  1.
       -3    1    3    3    0  502 -0.16382105379E+03 -0.62767687285E+03  0.36298632537E+03  0.74335366884E+03  0.10100000352E+00 0. -1.
</event>
<event>
 5   0  0.3259968E-03  0.1298447E+04  0.7818609E-02  0.9030798E-01
       -2   -1    0    0    0  501  0.00000000000E+00  0.00000000000E+00  0.22703160068E+03  0.22703160070E+03  0.25500000920E-02 0.  1.
        2   -1    0    0  501    0  0.00000000000E+00  0.00000000000E+00 -0.18565299808E+04  0.18565299809E+04  0.25500000920E-02 0. -1.
    10030    2    1    2    0    0  0.00000000000E+00  0.00000000000E+00 -0.16294983802E+04  0.20835615815E+04  0.12984467233E+04 0.  0.
        4    1    3    3  502    0 -0.12512966883E+03 -0.27417083557E+03 -0.17374789628E+04  0.17634233298E+04  0.12699999809E+01 0. -1.
       -4    1    3    3    0  502  0.12512966883E+03  0.27417083557E+03  0.10798058263E+03  0.32013825173E+03  0.12699999809E+01 0.  1.
</event>
<event>
 5   0  0.3262927E-03  0.1473902E+04  0.7818609E-02  0.8901995E-01
       -2   -1    0    0    0  501  0.00000000000E+00  0.00000000000E+00  0.33620416965E+03  0.33620416966E+03  0.25500000920E-02 0. -1.
        2   -1    0    0  501    0  0.00000000000E+00  0.00000000000E+00 -0.16153789240E+04  0.16153789240E+04  0.25500000920E-02 0.  1.
    10030    2    1    2    0    0  0.00000000000E+00  0.00000000000E+00 -0.12791747544E+04  0.19515830937E+04  0.14739024796E+04 0.  0.
        3    1    3    3  502    0 -0.12325535021E+03  0.28413405891E+03 -0.15250212267E+04  0.15561535261E+04  0.10100000352E+00 0.  1.
       -3    1    3    3    0  502  0.12325535021E+03 -0.28413405891E+03  0.24584647229E+03  0.39542956759E+03  0.10100000352E+00 0. -1.
</event>
<event>
 5   0  0.1823154E-03  0.1335809E+04  0.7818609E-02  0.9001640E-01
       -1   -1    0    0    0  501  0.00000000000E+00  0.00000000000E+00  0.84577932209E+03  0.84577932210E+03  0.50400001928E-02 0.  1.
        1   -1    0    0  501    0  0.00000000000E+00  0.00000000000E+00 -0.52743858470E+03  0.52743858472E+03  0.50400001928E-02 0. -1.
    10030    2    1    2    0    0  0.00000000000E+00  0.00000000000E+00  0.31834073739E+03  0.13732179068E+04  0.13358093406E+04 0.  0.
        2    1    3    3  502    0  0.64563471760E+03 -0.16711025725E+03  0.12172754646E+03  0.67792892122E+03  0.25500000920E-02 0. -1.
       -2    1    3    3    0  502 -0.64563471760E+03  0.16711025725E+03  0.19661319093E+03  0.69528898561E+03  0.25500000920E-02 0.  1.
</event>
<event>
 5   0  0.1254125E-03  0.1242412E+04  0.7818609E-02  0.9076522E-01
       -4   -1    0    0    0  501  0.00000000000E+00  0.00000000000E+00  0.69788848619E+03  0.69788964174E+03  0.12699999809E+01 0. -1.
        4   -1    0    0  501    0  0.00000000000E+00  0.00000000000E+00 -0.55294718623E+03  0.55294864469E+03  0.12699999809E+01 0.  1.
    10030    2    1    2    0    0  0.00000000000E+00  0.00000000000E+00  0.14494129995E+03  0.12508382864E+04  0.12424123464E+04 0.  0.
        1    1    3    3  502    0  0.31034583917E+03  0.53647007207E+03  0.11497582669E+03  0.63034444462E+03  0.50400001928E-02 0.  1.
       -1    1    3    3    0  502 -0.31034583917E+03 -0.53647007207E+03  0.29965473262E+02  0.62049384181E+03  0.50400001928E-02 0. -1.
</event>
<event>
 5   0  0.1254125E-03  0.1288779E+04  0.7818609E-02  0.9038511E-01
       -3   -1    0    0    0  501  0.00000000000E+00  0.00000000000E+00  0.46902213013E+03  0.46902214101E+03  0.10100000352E+00 0. -1.
        3   -1    0    0  501    0  0.00000000000E+00  0.00000000000E+00 -0.88532718043E+03  0.88532718619E+03  0.10100000352E+00 0.  1.
    10030    2    1    2    0    0  0.00000000000E+00  0.00000000000E+00 -0.41630505029E+03  0.13543493272E+04  0.12887793470E+04 0.  0.
        2    1    3    3  502    0 -0.10509937811E+02 -0.64111697625E+03 -0.14089130861E+03  0.65649965489E+03  0.25500000920E-02 0. -1.
       -2    1    3    3    0  502  0.10509937811E+02  0.64111697625E+03 -0.27541374168E+03  0.69784967230E+03  0.25500000920E-02 0.  1.
</event>
<event>
 5   0  0.1814770E-03  0.1321592E+04  0.7818609E-02  0.9012615E-01
        1   -1    0    0  501    0  0.00000000000E+00  0.00000000000E+00  0.56323671821E+03  0.56323671823E+03  0.50400001928E-02 0.  1.
       -1   -1    0    0    0  501  0.00000000000E+00  0.00000000000E+00 -0.77525407949E+03  0.77525407951E+03  0.50400001928E-02 0. -1.
    10030    2    1    2    0    0  0.00000000000E+00  0.00000000000E+00 -0.21201736129E+03  0.13384907977E+04  0.13215923177E+04 0.  0.
        5    1    3    3  502    0  0.48429874974E+03  0.43321575782E+03  0.15560721617E+02  0.64998876750E+03  0.46999998093E+01 0. -1.
       -5    1    3    3    0  502 -0.48429874974E+03 -0.43321575782E+03 -0.22757808290E+03  0.68850203024E+03  0.46999998093E+01 0.  1.
</event>
<event>
 5   0  0.1803959E-03  0.1312258E+04  0.7818609E-02  0.9019901E-01
       -1   -1    0    0    0  501  0.00000000000E+00  0.00000000000E+00  0.10447875704E+04  0.10447875704E+04  0.50400001928E-02 0. -1.
        1   -1    0    0  501    0  0.00000000000E+00  0.00000000000E+00 -0.41205050080E+03  0.41205050083E+03  0.50400001928E-02 0.  1.
    10030    2    1    2    0    0  0.00000000000E+00  0.00000000000E+00  0.63273706958E+03  0.14568380712E+04  0.13122579649E+04 0.  0.
        4    1    3    3  502    0  0.65568708661E+03  0.41589401507E+01  0.34265831356E+03  0.73983726932E+03  0.12699999809E+01 0. -1.
       -4    1    3    3    0  502 -0.65568708661E+03 -0.41589401507E+01  0.29007875602E+03  0.71700080190E+03  0.12699999809E+01 0.  1.
</event>
<event>
 5   0  0.1857986E-03  0.1316817E+04  0.7818609E-02  0.9016334E-01
        1   -1    0    0  501    0  0.00000000000E+00  0.00000000000E+00  0.16825286775E+04  0.16825286775E+04  0.50400001928E-02 0. -1.
       -1   -1    0    0    0  501  0.00000000000E+00  0.00000000000E+00 -0.25764905557E+03  0.25764905562E+03  0.50400001928E-02 0.  1.
    10030    2    1    2    0    0  0.00000000000E+00  0.00000000000E+00  0.14248796219E+04  0.19401777331E+04  0.13168172611E+04 0.  0.
        1    1    3    3  502    0 -0.61825837361E+03  0.22534171763E+03  0.68017241051E+03  0.94639146989E+03  0.50400001928E-02 0. -1.
       -1    1    3    3    0  502  0.61825837361E+03 -0.22534171763E+03  0.74470721142E+03  0.99378626324E+03  0.50400001928E-02 0.  1.
</event>
<event>
 5   0  0.3259968E-03  0.1332327E+04  0.7818609E-02  0.9004315E-01
        2   -1    0    0  501    0  0.00000000000E+00  0.00000000000E+00  0.10070232907E+04  0.10070232907E+04  0.25500000920E-02 0. -1.
       -2   -1    0    0    0  501  0.00000000000E+00  0.00000000000E+00 -0.44067877575E+03  0.44067877576E+03  0.25500000920E-02 0.  1.
    10030    2    1    2    0    0  0.00000000000E+00  0.00000000000E+00  0.56634451495E+03  0.14477020665E+04  0.13323269732E+04 0.  0.
        4    1    3    3  502    0 -0.51845557208E+03 -0.23675563984E+03  0.65788707991E+03  0.87044036903E+03  0.12699999809E+01 0. -1.
       -4    1    3    3    0  502  0.51845557208E+03  0.23675563984E+03 -0.91542564964E+02  0.57726169743E+03  0.12699999809E+01 0.  1.
</event>
<event>
 5   0  0.3294720E-03  0.1313664E+04  0.7818609E-02  0.9018799E-01
       -2   -1    0    0    0  501  0.00000000000E+00  0.00000000000E+00  0.52460181426E+03  0.52460181426E+03  0.25500000920E-02 0.  1.
        2   -1    0    0  501    0  0.00000000000E+00  0.00000000000E+00 -0.82239136877E+03  0.82239136878E+03  0.25500000920E-02 0. -1.
    10030    2    1    2    0    0  0.00000000000E+00  0.00000000000E+00 -0.29778955452E+03  0.13469931830E+04  0.13136635857E+04 0.  0.
        5    1    3    3  502    0 -0.23687148901E+03 -0.55707784711E+03 -0.41023798103E+03  0.73127362945E+03  0.46999998093E+01 0. -1.
       -5    1    3    3    0  502  0.23687148901E+03  0.55707784711E+03  0.11244842652E+03  0.61571955359E+03  0.46999998093E+01 0.  1.
</event>
<event>
 5   0  0.1814770E-03  0.1293952E+04  0.7818609E-02  0.9034375E-01
        1   -1    0    0  501    0  0.00000000000E+00  0.00000000000E+00  0.73509788670E+03  0.73509788671E+03  0.50400001928E-02 0. -1.
       -1   -1    0    0    0  501  0.00000000000E+00  0.00000000000E+00 -0.56941783076E+03  0.56941783078E+03  0.50400001928E-02 0.  1.
    10030    2    1    2    0    0  0.00000000000E+00  0.00000000000E+00  0.16568005594E+03  0.13045157175E+04  0.12939518446E+04 0.  0.
        5    1    3    3  502    0 -0.43298107037E+03 -0.35781661028E+03  0.40647547699E+03  0.69336118819E+03  0.46999998093E+01 0. -1.
       -5    1    3    3    0  502  0.43298107037E+03  0.35781661028E+03 -0.24079542105E+03  0.61115452930E+03  0.46999998093E+01 0.  1.
</event>
<event>
 5   0  0.3336609E-03  0.1306684E+04  0.7818609E-02  0.9024281E-01
        2   -1    0    0  501    0  0.00000000000E+00  0.00000000000E+00  0.56582882288E+03  0.56582882288E+03  0.25500000920E-02 0.  1.
       -2   -1    0    0    0  501  0.00000000000E+00  0.00000000000E+00 -0.75439053282E+03  0.75439053283E+03  0.25500000920E-02 0. -1.
    10030    2    1    2    0    0  0.00000000000E+00  0.00000000000E+00 -0.18856170994E+03  0.13202193557E+04  0.13066842116E+04 0.  0.
        1    1    3    3  502    0 -0.58171569307E+03  0.14510055156E+03  0.16804015275E+03  0.62264340564E+03  0.50400001928E-02 0. -1.
       -1    1    3    3    0  502  0.58171569307E+03 -0.14510055156E+03 -0.35660186269E+03  0.69757595007E+03  0.50400001928E-02 0.  1.
</event>
<event>
 5   0  0.3299104E-03  0.1306103E+04  0.7818609E-02  0.9024740E-01
       -2   -1    0    0    0  501  0.00000000000E+00  0.00000000000E+00  0.41374546748E+03  0.41374546749E+03  0.25500000920E-02 0. -1.
        2   -1    0    0  501    0  0.00000000000E+00  0.00000000000E+00 -0.10307692555E+04  0.10307692555E+04  0.25500000920E-02 0.  1.
    10030    2    1    2    0    0  0.00000000000E+00  0.00000000000E+00 -0.61702378799E+03  0.14445147230E+04  0.13061027639E+04 0.  0.
        2    1    3    3  502    0 -0.10489962132E+03  0.21976686097E+03  0.36165196116E+03  0.43599718434E+03  0.25500000920E-02 0. -1.
       -2    1    3    3    0  502  0.10489962132E+03 -0.21976686097E+03 -0.97867574915E+03  0.10085175386E+04  0.25500000920E-02 0.  1.
</event>
<event>
 5   0  0.3299104E-03  0.1332137E+04  0.7818609E-02  0.9004461E-01
        2   -1    0    0  501    0  0.00000000000E+00  0.00000000000E+00  0.71671092025E+03  0.71671092026E+03  0.25500000920E-02 0.  1.
       -2   -1    0    0    0  501  0.00000000000E+00  0.00000000000E+00 -0.61900440197E+03  0.61900440197E+03  0.25500000920E-02 0. -1.
    10030    2    1    2    0    0  0.00000000000E+00  0.00000000000E+00  0.97706518284E+02  0.13357153222E+04  0.13321369518E+04 0.  0.
        2    1    3    3  502    0  0.39059904185E+03 -0.26152658160E+03 -0.42430780885E+03  0.63324630361E+03  0.25500000920E-02 0. -1.
       -2    1    3    3    0  502 -0.39059904185E+03  0.26152658160E+03  0.52201432714E+03  0.70246901862E+03  0.25500000920E-02 0.  1.
</event>
<event>
 5   0  0.1803959E-03  0.1320710E+04  0.7818609E-02  0.9013302E-01
       -1   -1    0    0    0  501  0.00000000000E+00  0.00000000000E+00  0.51002412144E+03  0.51002412146E+03  0.50400001928E-02 0. -1.
        1   -1    0    0  501    0  0.00000000000E+00  0.00000000000E+00 -0.85499590053E+03  0.85499590054E+03  0.50400001928E-02 0.  1.
    10030    2    1    2    0    0  0.00000000000E+00  0.00000000000E+00 -0.34497177909E+03  0.13650200220E+04  0.13207097077E+04 0.  0.
        4    1    3    3  502    0 -0.25198310681E+03  0.70078542719E+02 -0.79917925644E+03  0.84088975799E+03  0.12699999809E+01 0.  1.
       -4    1    3    3    0  502  0.25198310681E+03 -0.70078542719E+02  0.45420747735E+03  0.52413026401E+03  0.12699999809E+01 0. -1.
</event>
<event>
 5   0  0.1857986E-03  0.1273880E+04  0.7818609E-02  0.9050539E-01
        1   -1    0    0  501    0  0.00000000000E+00  0.00000000000E+00  0.43907806049E+03  0.43907806052E+03  0.50400001928E-02 0.  1.
       -1   -1    0    0    0  501  0.00000000000E+00  0.00000000000E+00 -0.92396511459E+03  0.92396511461E+03  0.50400001928E-02 0. -1.
    10030    2    1    2    0    0  0.00000000000E+00  0.00000000000E+00 -0.48488705410E+03  0.13630431751E+04  0.12738803876E+04 0.  0.
        1    1    3    3  502    0 -0.23332724367E+03 -0.31549416991E+03 -0.77927157172E+03  0.87249203801E+03  0.50400001928E-02 0. -1.
       -1    1    3    3    0  502  0.23332724367E+03  0.31549416991E+03  0.29438451762E+03  0.49055113711E+03  0.50400001928E-02 0.  1.
</event>
<event>
 5   0  0.3294720E-03  0.1291552E+04  0.7818609E-02  0.9036291E-01
        2   -1    0    0  501    0  0.00000000000E+00  0.00000000000E+00  0.51803309413E+03  0.51803309414E+03  0.25500000920E-02 0. -1.
       -2   -1    0    0    0  501  0.00000000000E+00  0.00000000000E+00 -0.80501981644E+03  0.80501981644E+03  0.25500000920E-02 0.  1.
    10030    2    1    2    0    0  0.00000000000E+00  0.00000000000E+00 -0.28698672231E+03  0.13230529106E+04  0.12915524091E+04 0.  0.
        5    1    3    3  502    0  0.63664831490E+03 -0.96673933968E+02 -0.93962347827E+02  0.65078255907E+03  0.46999998093E+01 0. -1.
       -5    1    3    3    0  502 -0.63664831490E+03  0.96673933968E+02 -0.19302437448E+03  0.67227035151E+03  0.46999998093E+01 0.  1.
</event>
<event>
 5   0  0.1814770E-03  0.1286828E+04  0.7818609E-02  0.9040076E-01
       -1   -1    0    0    0  501  0.00000000000E+00  0.00000000000E+00  0.29234651922E+03  0.29234651927E+03  0.50400001928E-02 0.  1.
        1   -1    0    0  501    0  0.00000000000E+00  0.00000000000E+00 -0.14160651926E+04  0.14160651926E+04  0.50400001928E-02 0. -1.
    10030    2    1    2    0    0  0.00000000000E+00  0.00000000000E+00 -0.11237186734E+04  0.17084117119E+04  0.12868282404E+04 0.  0.
        5    1    3    3  502    0 -0.38264441157E+03  0.22234265303E+03 -0.11818803371E+04  0.12620286139E+04  0.46999998093E+01 0. -1.
       -5    1    3    3    0  502  0.38264441157E+03 -0.22234265303E+03  0.58161663700E+02  0.44638309801E+03  0.46999998093E+01 0.  1.
</event>
<event>
 5   0  0.3299104E-03  0.1158746E+04  0.7818609E-02  0.9149753E-01
       -2   -1    0    0    0  501  0.00000000000E+00  0.00000000000E+00  0.19502235319E+04  0.19502235319E+04  0.25500000920E-02 0.  1.
        2   -1    0    0  501    0  0.00000000000E+00  0.00000000000E+00 -0.17212029393E+03  0.17212029395E+03  0.25500000920E-02 0. -1.
    10030    2    1    2    0    0  0.00000000000E+00  0.00000000000E+00  0.17781032379E+04  0.21223438258E+04  0.11587459559E+04 0.  0.
        2    1    3    3  502    0  0.39643433068E+03  0.41272836930E+03  0.10545865634E+04  0.11998573686E+04  0.25500000920E-02 0. -1.
       -2    1    3    3    0  502 -0.39643433068E+03 -0.41272836930E+03  0.72351667457E+03  0.92248645722E+03  0.25500000920E-02 0.  1.
</event>
<event>
 5   0  0.3259968E-03  0.1341222E+04  0.7818609E-02  0.8997500E-01
        2   -1    0    0  501    0  0.00000000000E+00  0.00000000000E+00  0.10940938451E+04  0.10940938451E+04  0.25500000920E-02 0.  1.
       -2   -1    0    0    0  501  0.00000000000E+00  0.00000000000E+00 -0.41104227959E+03  0.41104227960E+03  0.25500000920E-02 0. -1.
    10030    2    1    2    0    0  0.00000000000E+00  0.00000000000E+00  0.68305156551E+03  0.15051361247E+04  0.13412215748E+04 0.  0.
        4    1    3    3  502    0 -0.21318146179E+03  0.43236395522E+03  0.86468921030E+03  0.98998685281E+03  0.12699999809E+01 0.  1.
       -4    1    3    3    0  502  0.21318146179E+03 -0.43236395522E+03 -0.18163764479E+03  0.51514927189E+03  0.12699999809E+01 0. -1.
</event>
<event>
 5   0  0.1803959E-03  0.1292464E+04  0.7818609E-02  0.9035563E-01
       -1   -1    0    0    0  501  0.00000000000E+00  0.00000000000E+00  0.31648848535E+03  0.31648848539E+03  0.50400001928E-02 0. -1.
        1   -1    0    0  501    0  0.00000000000E+00  0.00000000000E+00 -0.13195290505E+04  0.13195290505E+04  0.50400001928E-02 0.  1.
    10030    2    1    2    0    0  0.00000000000E+00  0.00000000000E+00 -0.10030405651E+04  0.16360175359E+04  0.12924639269E+04 0.  0.
        4    1    3    3  502    0 -0.15089604202E+03 -0.46293389251E+03  0.36318745961E+02  0.48826024674E+03  0.12699999809E+01 0. -1.
       -4    1    3    3    0  502  0.15089604202E+03  0.46293389251E+03 -0.10393593111E+04  0.11477572891E+04  0.12699999809E+01 0.  1.
</event>
<event>
 5   0  0.3294720E-03  0.1282086E+04  0.7818609E-02  0.9043893E-01
       -2   -1    0    0    0  501  0.00000000000E+00  0.00000000000E+00  0.35569074975E+03  0.35569074976E+03  0.25500000920E-02 0. -1.
        2   -1    0    0  501    0  0.00000000000E+00  0.00000000000E+00 -0.11553179696E+04  0.11553179696E+04  0.25500000920E-02 0.  1.
    10030    2    1    2    0    0  0.00000000000E+00  0.00000000000E+00 -0.79962721988E+03  0.15110087194E+04  0.12820856677E+04 0.  0.
        5    1    3    3  502    0  0.41320549533E+03 -0.31591049100E+02  0.17656741754E+03  0.45048298379E+03  0.46999998093E+01 0. -1.
       -5    1    3    3    0  502 -0.41320549533E+03  0.31591049100E+02 -0.97619463742E+03  0.10605257356E+04  0.46999998093E+01 0.  1.
</event>
<event>
 5   0  0.3262927E-03  0.1309346E+04  0.7818609E-02  0.9022186E-01
        2   -1    0    0  501    0  0.00000000000E+00  0.00000000000E+00  0.16313598576E+04  0.16313598576E+04  0.25500000920E-02 0. -1.
       -2   -1    0    0    0  501  0.00000000000E+00  0.00000000000E+00 -0.26272376563E+03  0.26272376564E+03  0.25500000920E-02 0.  1.
    10030    2    1    2    0    0  0.00000000000E+00  0.00000000000E+00  0.13686360920E+04  0.18940836233E+04  0.13093464093E+04 0.  0.
        3    1    3    3  502    0 -0.64330659853E+02  0.14566211283E+03 -0.23428311118E+03  0.28327455109E+03  0.10100000352E+00 0.  1.
       -3    1    3    3    0  502  0.64330659853E+02 -0.14566211283E+03  0.16029192032E+04  0.16108090722E+04  0.10100000352E+00 0. -1.
</event>
<event>
 5   0  0.3259968E-03  0.1288059E+04  0.7818609E-02  0.9039088E-01
        2   -1    0    0  501    0  0.00000000000E+00  0.00000000000E+00  0.46606960870E+03  0.46606960871E+03  0.25500000920E-02 0.  1.
       -2   -1    0    0    0  501  0.00000000000E+00  0.00000000000E+00 -0.88994067695E+03  0.88994067695E+03  0.25500000920E-02 0. -1.
    10030    2    1    2    0    0  0.00000000000E+00  0.00000000000E+00 -0.42387106825E+03  0.13560102857E+04  0.12880594755E+04 0.  0.
        4    1    3    3  502    0 -0.18036915110E+02 -0.41814449772E+03 -0.72725052288E+03  0.83908586403E+03  0.12699999809E+01 0. -1.
       -4    1    3    3    0  502  0.18036915110E+02  0.41814449772E+03  0.30337945463E+03  0.51692442163E+03  0.12699999809E+01 0.  1.
</event>
<event>
 5   0  0.1823154E-03  0.1302557E+04  0.7818609E-02  0.9027540E-01
        1   -1    0    0  501    0  0.00000000000E+00  0.00000000000E+00  0.50495658789E+03  0.50495658791E+03  0.50400001928E-02 0. -1.
       -1   -1    0    0    0  501  0.00000000000E+00  0.00000000000E+00 -0.83999991575E+03  0.83999991577E+03  0.50400001928E-02 0.  1.
    10030    2    1    2    0    0  0.00000000000E+00  0.00000000000E+00 -0.33504332786E+03  0.13449565037E+04  0.13025567033E+04 0.  0.
        2    1    3    3  502    0 -0.14979606038E+03 -0.32267362298E+03 -0.73081252931E+03  0.81280014744E+03  0.25500000920E-02 0.  1.
       -2    1    3    3    0  502  0.14979606038E+03  0.32267362298E+03  0.39576920144E+03  0.53215635624E+03  0.25500000920E-02 0. -1.
</event>
<event>
 5   0  0.3262927E-03  0.1147938E+04  0.7818609E-02  0.9159688E-01
       -2   -1    0    0    0  501  0.00000000000E+00  0.00000000000E+00  0.16696096346E+03  0.16696096348E+03  0.25500000920E-02 0. -1.
        2   -1    0    0  501    0  0.00000000000E+00  0.00000000000E+00 -0.19731590951E+04  0.19731590951E+04  0.25500000920E-02 0.  1.
    10030    2    1    2    0    0  0.00000000000E+00  0.00000000000E+00 -0.18061981317E+04  0.21401200586E+04  0.11479382276E+04 0.  0.
        3    1    3    3  502    0 -0.22266923126E+03  0.19663499974E+03 -0.18186922059E+04  0.18427936021E+04  0.10100000352E+00 0.  1.
       -3    1    3    3    0  502  0.22266923126E+03 -0.19663499974E+03  0.12494074255E+02  0.29732645655E+03  0.10100000352E+00 0. -1.
</event>
<event>
 5   0  0.1873488E-03  0.1318950E+04  0.7818609E-02  0.9014671E-01
        1   -1    0    0  501    0  0.00000000000E+00  0.00000000000E+00  0.11268406258E+04  0.11268406258E+04  0.50400001928E-02 0.  1.
       -1   -1    0    0    0  501  0.00000000000E+00  0.00000000000E+00 -0.38595291412E+03  0.38595291415E+03  0.50400001928E-02 0. -1.
    10030    2    1    2    0    0  0.00000000000E+00  0.00000000000E+00  0.74088771168E+03  0.15127935400E+04  0.13189502239E+04 0.  0.
        3    1    3    3  502    0  0.59103493638E+03 -0.22835236780E+03  0.58018634778E+03  0.85911774994E+03  0.10100000352E+00 0.  1.
       -3    1    3    3    0  502 -0.59103493638E+03  0.22835236780E+03  0.16070136390E+03  0.65367579002E+03  0.10100000352E+00 0. -1.
</event>
<event>
 5   0  0.3259968E-03  0.1270841E+04  0.7818609E-02  0.9053014E-01
        2   -1    0    0  501    0  0.00000000000E+00  0.00000000000E+00  0.38321006978E+03  0.38321006979E+03  0.25500000920E-02 0.  1.
       -2   -1    0    0    0  501  0.00000000000E+00  0.00000000000E+00 -0.10536231170E+04  0.10536231170E+04  0.25500000920E-02 0. -1.
    10030    2    1    2    0    0  0.00000000000E+00  0.00000000000E+00 -0.67041304723E+03  0.14368331868E+04  0.12708406481E+04 0.  0.
        4    1    3    3  502    0  0.29379347835E+03  0.54820686635E+03 -0.18817423203E+03  0.64981268896E+03  0.12699999809E+01 0.  1.
       -4    1    3    3    0  502 -0.29379347835E+03 -0.54820686635E+03 -0.48223881520E+03  0.78702049784E+03  0.12699999809E+01 0. -1.
</event>
<event>
 5   0  0.1857986E-03  0.1271843E+04  0.7818609E-02  0.9052197E-01
       -1   -1    0    0    0  501  0.00000000000E+00  0.00000000000E+00  0.60331798412E+03  0.60331798414E+03  0.50400001928E-02 0.  1.
        1   -1    0    0  501    0  0.00000000000E+00  0.00000000000E+00 -0.67028676194E+03  0.67028676196E+03  0.50400001928E-02 0. -1.
    10030    2    1    2    0    0  0.00000000000E+00  0.00000000000E+00 -0.66968777826E+02  0.12736047461E+04  0.12718428488E+04 0.  0.
        1    1    3    3  502    0 -0.12112785333E+03  0.61213758908E+03 -0.15617625355E+03  0.64325376564E+03  0.50400001928E-02 0.  1.
       -1    1    3    3    0  502  0.12112785333E+03 -0.61213758908E+03  0.89207475726E+02  0.63035098046E+03  0.50400001928E-02 0. -1.
</event>
<event>
 5   0  0.3294720E-03  0.1319090E+04  0.7818609E-02  0.9014562E-01
       -2   -1    0    0    0  501  0.00000000000E+00  0.00000000000E+00  0.48338659239E+03  0.48338659240E+03  0.25500000920E-02 0.  1.
        2   -1    0    0  501    0  0.00000000000E+00  0.00000000000E+00 -0.89989978286E+03  0.89989978287E+03  0.25500000920E-02 0. -1.
    10030    2    1    2    0    0  0.00000000000E+00  0.00000000000E+00 -0.41651319047E+03  0.13832863753E+04  0.13190898219E+04 0.  0.
        5    1    3    3  502    0 -0.68055151661E+01 -0.47281119572E+03 -0.69039347447E+03  0.83681657573E+03  0.46999998093E+01 0. -1.
       -5    1    3    3    0  502  0.68055151661E+01  0.47281119572E+03  0.27388028400E+03  0.54646979953E+03  0.46999998093E+01 0.  1.
</event>
<event>
 5   0  0.1814770E-03  0.1149625E+04  0.7818609E-02  0.9158129E-01
        1   -1    0    0  501    0  0.00000000000E+00  0.00000000000E+00  0.23383561006E+04  0.23383561006E+04  0.50400001928E-02 0.  1.
       -1   -1    0    0    0  501  0.00000000000E+00  0.00000000000E+00 -0.14129990261E+03  0.14129990270E+03  0.50400001928E-02 0. -1.
    10030    2    1    2    0    0  0.00000000000E+00  0.00000000000E+00  0.21970561979E+04  0.24796560033E+04  0.11496251379E+04 0.  0.
        5    1    3    3  502    0 -0.13085802378E+03  0.12842733246E+03  0.22735478889E+04  0.22809339086E+04  0.46999998093E+01 0.  1.
       -5    1    3    3    0  502  0.13085802378E+03 -0.12842733246E+03 -0.76491691007E+02  0.19872209465E+03  0.46999998093E+01 0. -1.
</event>
<event>
 5   0  0.1814770E-03  0.1290815E+04  0.7818609E-02  0.9036881E-01
       -1   -1    0    0    0  501  0.00000000000E+00  0.00000000000E+00  0.11760115818E+04  0.11760115818E+04  0.50400001928E-02 0.  1.
        1   -1    0    0  501    0  0.00000000000E+00  0.00000000000E+00 -0.35420621563E+03  0.35420621567E+03  0.50400001928E-02 0. -1.
    10030    2    1    2    0    0  0.00000000000E+00  0.00000000000E+00  0.82180536616E+03  0.15302177975E+04  0.12908146450E+04 0.  0.
        5    1    3    3  502    0  0.37856563163E+03  0.41029539759E+03  0.79480774873E+03  0.97128559042E+03  0.46999998093E+01 0.  1.
       -5    1    3    3    0  502 -0.37856563163E+03 -0.41029539759E+03  0.26997617435E+02  0.55893220705E+03  0.46999998093E+01 0. -1.
</event>
<event>
 5   0  0.3294720E-03  0.1297691E+04  0.7818609E-02  0.9031399E-01
       -2   -1    0    0    0  501  0.00000000000E+00  0.00000000000E+00  0.24207087304E+03  0.24207087306E+03  0.25500000920E-02 0.  1.
        2   -1    0    0  501    0  0.00000000000E+00  0.00000000000E+00 -0.17391608549E+04  0.17391608549E+04  0.25500000920E-02 0. -1.
    10030    2    1    2    0    0  0.00000000000E+00  0.00000000000E+00 -0.14970899818E+04  0.19812317279E+04  0.12976905433E+04 0.  0.
        5    1    3    3  502    0 -0.11968167009E+03 -0.62401828756E+03 -0.94909782522E+03  0.11421608018E+04  0.46999998093E+01 0.  1.
       -5    1    3    3    0  502  0.11968167009E+03  0.62401828756E+03 -0.54799215662E+03  0.83907092613E+03  0.46999998093E+01 0. -1.
</event>
<event>
 5   0  0.1803959E-03  0.1316850E+04  0.7818609E-02  0.9016309E-01
       -1   -1    0    0    0  501  0.00000000000E+00  0.00000000000E+00  0.25814131505E+03  0.25814131510E+03  0.50400001928E-02 0. -1.
        1   -1    0    0  501    0  0.00000000000E+00  0.00000000000E+00 -0.16794039611E+04  0.16794039611E+04  0.50400001928E-02 0.  1.
    10030    2    1    2    0    0  0.00000000000E+00  0.00000000000E+00 -0.14212626460E+04  0.19375452762E+04  0.13168501009E+04 0.  0.
        4    1    3    3  502    0  0.33178319878E+03  0.32676094614E+03 -0.13955106156E+04  0.14711574688E+04  0.12699999809E+01 0.  1.
       -4    1    3    3    0  502 -0.33178319878E+03 -0.32676094614E+03 -0.25752030461E+02  0.46638780740E+03  0.12699999809E+01 0. -1.
</event>
<event>
 5   0  0.1803959E-03  0.1360605E+04  0.7818609E-02  0.8982839E-01
        1   -1    0    0  501    0  0.00000000000E+00  0.00000000000E+00  0.52052235612E+03  0.52052235614E+03  0.50400001928E-02 0.  1.
       -1   -1    0    0    0  501  0.00000000000E+00  0.00000000000E+00 -0.88912955791E+03  0.88912955793E+03  0.50400001928E-02 0. -1.
    10030    2    1    2    0    0  0.00000000000E+00  0.00000000000E+00 -0.36860720179E+03  0.14096519141E+04  0.13606054717E+04 0.  0.
        4    1    3    3  502    0 -0.91235434914E+02  0.18759771830E+03  0.48656687678E+03  0.52940130995E+03  0.12699999809E+01 0.  1.
       -4    1    3    3    0  502  0.91235434914E+02 -0.18759771830E+03 -0.85517407857E+03  0.88025060412E+03  0.12699999809E+01 0. -1.
</event>
<event>
 5   0  0.1814770E-03  0.1186840E+04  0.7818609E-02  0.9124454E-01
       -1   -1    0    0    0  501  0.00000000000E+00  0.00000000000E+00  0.48042212726E+03  0.48042212729E+03  0.50400001928E-02 0.  1.
        1   -1    0    0  501    0  0.00000000000E+00  0.00000000000E+00 -0.73299581993E+03  0.73299581995E+03  0.50400001928E-02 0. -1.
    10030    2    1    2    0    0  0.00000000000E+00  0.00000000000E+00 -0.25257369267E+03  0.12134179472E+04  0.11868401933E+04 0.  0.
        5    1    3    3  502    0  0.30857019569E+02  0.24038090518E+03  0.42749786234E+03  0.49143834561E+03  0.46999998093E+01 0.  1.
       -5    1    3    3    0  502 -0.30857019569E+02 -0.24038090518E+03 -0.68007155501E+03  0.72197960163E+03  0.46999998093E+01 0. -1.
</event>
<event>
 5   0  0.1823154E-03  0.1304336E+04  0.7818609E-02  0.9026134E-01
       -1   -1    0    0    0  501  0.00000000000E+00  0.00000000000E+00  0.57087963114E+03  0.57087963116E+03  0.50400001928E-02 0.  1.
        1   -1    0    0  501    0  0.00000000000E+00  0.00000000000E+00 -0.74503111100E+03  0.74503111102E+03  0.50400001928E-02 0. -1.
    10030    2    1    2    0    0  0.00000000000E+00  0.00000000000E+00 -0.17415147986E+03  0.13159107422E+04  0.13043359780E+04 0.  0.
        2    1    3    3  502    0 -0.71048264070E+01  0.48467837855E+03 -0.52724956082E+03  0.71620926313E+03  0.25500000920E-02 0.  1.
       -2    1    3    3    0  502  0.71048264070E+01 -0.48467837855E+03  0.35309808096E+03  0.59970147905E+03  0.25500000920E-02 0. -1.
</event>
<event>
 5   0  0.1803959E-03  0.1294458E+04  0.7818609E-02  0.9033971E-01
        1   -1    0    0  501    0  0.00000000000E+00  0.00000000000E+00  0.16306728300E+04  0.16306728300E+04  0.50400001928E-02 0. -1.
       -1   -1    0    0    0  501  0.00000000000E+00  0.00000000000E+00 -0.25689127937E+03  0.25689127941E+03  0.50400001928E-02 0.  1.
    10030    2    1    2    0    0  0.00000000000E+00  0.00000000000E+00  0.13737815506E+04  0.18875641094E+04  0.12944583880E+04 0.  0.
        4    1    3    3  502    0  0.38200987646E+03  0.51116492962E+03  0.84450255783E+03  0.10584929447E+04  0.12699999809E+01 0.  1.
       -4    1    3    3    0  502 -0.38200987646E+03 -0.51116492962E+03  0.52927899281E+03  0.82907116469E+03  0.12699999809E+01 0. -1.
</event>
<event>
 5   0  0.1803959E-03  0.1344607E+04  0.7818609E-02  0.8994921E-01
        1   -1    0    0  501    0  0.00000000000E+00  0.00000000000E+00  0.53706062859E+03  0.53706062861E+03  0.50400001928E-02 0.  1.
       -1   -1    0    0    0  501  0.00000000000E+00  0.00000000000E+00 -0.84160318398E+03  0.84160318400E+03  0.50400001928E-02 0. -1.
    10030    2    1    2    0    0  0.00000000000E+00  0.00000000000E+00 -0.30454255539E+03  0.13786638126E+04  0.13446069092E+04 0.  0.
        4    1    3    3  502    0 -0.22238545347E+03 -0.53551211420E+03 -0.50112686888E+03  0.76639302319E+03  0.12699999809E+01 0. -1.
       -4    1    3    3    0  502  0.22238545347E+03  0.53551211420E+03  0.19658431348E+03  0.61227078942E+03  0.12699999809E+01 0.  1.
</event>
<event>
 5   0  0.1857986E-03  0.1256324E+04  0.7818609E-02  0.9064936E-01
        1   -1    0    0  501    0  0.00000000000E+00  0.00000000000E+00  0.10800471626E+04  0.10800471626E+04  0.50400001928E-02 0. -1.
       -1   -1    0    0    0  501  0.00000000000E+00  0.00000000000E+00 -0.36534267149E+03  0.36534267152E+03  0.50400001928E-02 0.  1.
    10030    2    1    2    0    0  0.00000000000E+00  0.00000000000E+00  0.71470449109E+03  0.14453898341E+04  0.12563237095E+04 0.  0.
        1    1    3    3  502    0  0.85684656099E+02 -0.61254351971E+03  0.48357061894E+03  0.78510634144E+03  0.50400001928E-02 0. -1.
       -1    1    3    3    0  502 -0.85684656099E+02  0.61254351971E+03  0.23113387215E+03  0.66028349268E+03  0.50400001928E-02 0.  1.
</event>
<event>
 5   0  0.3299104E-03  0.1316980E+04  0.7818609E-02  0.9016208E-01
        2   -1    0    0  501    0  0.00000000000E+00  0.00000000000E+00  0.46460249099E+03  0.46460249099E+03  0.25500000920E-02 0.  1.
       -2   -1    0    0    0  501  0.00000000000E+00  0.00000000000E+00 -0.93328994447E+03  0.93328994447E+03  0.25500000920E-02 0. -1.
    10030    2    1    2    0    0  0.00000000000E+00  0.00000000000E+00 -0.46868745348E+03  0.13978924355E+04  0.13169796248E+04 0.  0.
        2    1    3    3  502    0 -0.57615760875E+03  0.27735123546E+03 -0.40125478554E+03  0.75490840561E+03  0.25500000920E-02 0. -1.
       -2    1    3    3    0  502  0.57615760875E+03 -0.27735123546E+03 -0.67432667940E+02  0.64298402985E+03  0.25500000920E-02 0.  1.
</event>
<event>
 5   0  0.1857986E-03  0.1234024E+04  0.7818609E-02  0.9083586E-01
       -1   -1    0    0    0  501  0.00000000000E+00  0.00000000000E+00  0.43019721381E+03  0.43019721384E+03  0.50400001928E-02 0. -1.
        1   -1    0    0  501    0  0.00000000000E+00  0.00000000000E+00 -0.88495195202E+03  0.88495195203E+03  0.50400001928E-02 0.  1.
    10030    2    1    2    0    0  0.00000000000E+00  0.00000000000E+00 -0.45475473820E+03  0.13151491659E+04  0.12340240908E+04 0.  0.
        1    1    3    3  502    0 -0.42302359768E+00 -0.32381649932E+03  0.33236110799E+03  0.46402716549E+03  0.50400001928E-02 0. -1.
       -1    1    3    3    0  502  0.42302359768E+00  0.32381649932E+03 -0.78711584619E+03  0.85112200038E+03  0.50400001928E-02 0.  1.
</event>
<event>
 5   0  0.1803959E-03  0.1220088E+04  0.7818609E-02  0.9095453E-01
       -1   -1    0    0    0  501  0.00000000000E+00  0.00000000000E+00  0.21786272432E+03  0.21786272438E+03  0.50400001928E-02 0. -1.
        1   -1    0    0  501    0  0.00000000000E+00  0.00000000000E+00 -0.17082029271E+04  0.17082029272E+04  0.50400001928E-02 0.  1.
    10030    2    1    2    0    0  0.00000000000E+00  0.00000000000E+00 -0.14903402028E+04  0.19260656515E+04  0.12200881009E+04 0.  0.
        4    1    3    3  502    0 -0.26594387055E+03  0.19689369765E+03 -0.15542211448E+04  0.15890557732E+04  0.12699999809E+01 0.  1.
       -4    1    3    3    0  502  0.26594387055E+03 -0.19689369765E+03  0.63880941968E+02  0.33700987835E+03  0.12699999809E+01 0. -1.
</event>
<event>
 5   0  0.3294720E-03  0.9796387E+03  0.7818609E-02  0.9331163E-01
       -2   -1    0    0    0  501  0.00000000000E+00  0.00000000000E+00  0.16124104666E+03  0.16124104668E+03  0.25500000920E-02 0. -1.
        2   -1    0    0  501    0  0.00000000000E+00  0.00000000000E+00 -0.14879771737E+04  0.14879771737E+04  0.25500000920E-02 0.  1.
    10030    2    1    2    0    0  0.00000000000E+00  0.00000000000E+00 -0.13267361271E+04  0.16492182204E+04  0.97963870262E+03 0.  0.
        5    1    3    3  502    0  0.19523227184E+03 -0.34827868507E+03 -0.18575558457E+03  0.44038722693E+03  0.46999998093E+01 0. -1.
       -5    1    3    3    0  502 -0.19523227184E+03  0.34827868507E+03 -0.11409805425E+04  0.12088309935E+04  0.46999998093E+01 0.  1.
</event>
<event>
 5   0  0.1254125E-03  0.1443148E+04  0.7818609E-02  0.8923165E-01
        4   -1    0    0  501    0  0.00000000000E+00  0.00000000000E+00  0.72798057187E+03  0.72798167966E+03  0.12699999809E+01 0.  1.
       -4   -1    0    0    0  501  0.00000000000E+00  0.00000000000E+00 -0.71522143307E+03  0.71522256063E+03  0.12699999809E+01 0. -1.
    10030    2    1    2    0    0  0.00000000000E+00  0.00000000000E+00  0.12759138798E+02  0.14432042403E+04  0.14431478384E+04 0.  0.
        2    1    3    3  502    0  0.55904052969E+01 -0.67394227805E+03 -0.25138906224E+03  0.71932322873E+03  0.25500000920E-02 0. -1.
       -2    1    3    3    0  502 -0.55904052969E+01  0.67394227805E+03  0.26414820104E+03  0.72388101156E+03  0.25500000920E-02 0.  1.
</event>
<event>
 5   0  0.1873488E-03  0.1310043E+04  0.7818609E-02  0.9021638E-01
        1   -1    0    0  501    0  0.00000000000E+00  0.00000000000E+00  0.19221901947E+04  0.19221901947E+04  0.50400001928E-02 0. -1.
       -1   -1    0    0    0  501  0.00000000000E+00  0.00000000000E+00 -0.22321072090E+03  0.22321072095E+03  0.50400001928E-02 0.  1.
    10030    2    1    2    0    0  0.00000000000E+00  0.00000000000E+00  0.16989794738E+04  0.21454009157E+04  0.13100434483E+04 0.  0.
        3    1    3    3  502    0  0.44022737011E+03 -0.48107854957E+03  0.95066377624E+03  0.11528219003E+04  0.10100000352E+00 0. -1.
       -3    1    3    3    0  502 -0.44022737011E+03  0.48107854957E+03  0.74831569756E+03  0.99257901532E+03  0.10100000352E+00 0.  1.
</event>
<event>
 5   0  0.1803959E-03  0.1236770E+04  0.7818609E-02  0.9081267E-01
        1   -1    0    0  501    0  0.00000000000E+00  0.00000000000E+00  0.20412594694E+04  0.20412594694E+04  0.50400001928E-02 0. -1.
       -1   -1    0    0    0  501  0.00000000000E+00  0.00000000000E+00 -0.18733535934E+03  0.18733535941E+03  0.50400001928E-02 0.  1.
    10030    2    1    2    0    0  0.00000000000E+00  0.00000000000E+00  0.18539241100E+04  0.22285948288E+04  0.12367701100E+04 0.  0.
        4    1    3    3  502    0 -0.51118478889E+03  0.34721172966E+03  0.88537687855E+03  0.10797035258E+04  0.12699999809E+01 0.  1.
       -4    1    3    3    0  502  0.51118478889E+03 -0.34721172966E+03  0.96854723148E+03  0.11488913030E+04  0.12699999809E+01 0. -1.
</event>
<event>
 5   0  0.1803959E-03  0.1297702E+04  0.7818609E-02  0.9031390E-01
        1   -1    0    0  501    0  0.00000000000E+00  0.00000000000E+00  0.73248322088E+03  0.73248322090E+03  0.50400001928E-02 0.  1.
       -1   -1    0    0    0  501  0.00000000000E+00  0.00000000000E+00 -0.57476725151E+03  0.57476725153E+03  0.50400001928E-02 0. -1.
    10030    2    1    2    0    0  0.00000000000E+00  0.00000000000E+00  0.15771596937E+03  0.13072504724E+04  0.12977016108E+04 0.  0.
        4    1    3    3  502    0  0.56902893711E+03  0.23573150797E+03 -0.12670847425E+03  0.62882424052E+03  0.12699999809E+01 0. -1.
       -4    1    3    3    0  502 -0.56902893711E+03 -0.23573150797E+03  0.28442444362E+03  0.67842623191E+03  0.12699999809E+01 0.  1.
</event>
<event>
 5   0  0.3259968E-03  0.1018639E+04  0.7818609E-02  0.9288335E-01
        2   -1    0    0  501    0  0.00000000000E+00  0.00000000000E+00  0.52891439373E+03  0.52891439374E+03  0.25500000920E-02 0. -1.
       -2   -1    0    0    0  501  0.00000000000E+00  0.00000000000E+00 -0.49045051484E+03  0.49045051484E+03  0.25500000920E-02 0.  1.
    10030    2    1    2    0    0  0.00000000000E+00  0.00000000000E+00  0.38463878899E+02  0.10193649086E+04  0.10186389679E+04 0.  0.
        4    1    3    3  502    0  0.48030168685E+03  0.13640831834E+03  0.11984106440E+03  0.51347875645E+03  0.12699999809E+01 0.  1.
       -4    1    3    3    0  502 -0.48030168685E+03 -0.13640831834E+03 -0.81377185500E+02  0.50588615214E+03  0.12699999809E+01 0. -1.
</event>
<event>
 5   0  0.1254125E-03  0.1337848E+04  0.7818609E-02  0.9000079E-01
        3   -1    0    0  501    0  0.00000000000E+00  0.00000000000E+00  0.28847714642E+03  0.28847716410E+03  0.10100000352E+00 0. -1.
       -3   -1    0    0    0  501  0.00000000000E+00  0.00000000000E+00 -0.15511075714E+04  0.15511075747E+04  0.10100000352E+00 0.  1.
    10030    2    1    2    0    0  0.00000000000E+00  0.00000000000E+00 -0.12626304250E+04  0.18395847388E+04  0.13378476823E+04 0.  0.
        2    1    3    3  502    0  0.52619456125E+03 -0.23455803688E+03 -0.16388302381E+03  0.59896229802E+03  0.25500000920E-02 0. -1.
       -2    1    3    3    0  502 -0.52619456125E+03  0.23455803688E+03 -0.10987474012E+04  0.12406224408E+04  0.25500000920E-02 0.  1.
</event>
<event>
 5   0  0.1873488E-03  0.1372074E+04  0.7818609E-02  0.8974285E-01
       -1   -1    0    0    0  501  0.00000000000E+00  0.00000000000E+00  0.33349143008E+03  0.33349143012E+03  0.50400001928E-02 0. -1.
        1   -1    0    0  501    0  0.00000000000E+00  0.00000000000E+00 -0.14112710367E+04  0.14112710367E+04  0.50400001928E-02 0.  1.
    10030    2    1    2    0    0  0.00000000000E+00  0.00000000000E+00 -0.10777796066E+04  0.17447624668E+04  0.13720740451E+04 0.  0.
        3    1    3    3  502    0 -0.34421673506E+03  0.28540871138E+03  0.12272572679E+03  0.46368621657E+03  0.10100000352E+00 0. -1.
       -3    1    3    3    0  502  0.34421673506E+03 -0.28540871138E+03 -0.12005053334E+04  0.12810762502E+04  0.10100000352E+00 0.  1.
</event>
<event>
 5   0  0.3299104E-03  0.1366631E+04  0.7818609E-02  0.8978333E-01
       -2   -1    0    0    0  501  0.00000000000E+00  0.00000000000E+00  0.58878426414E+03  0.58878426415E+03  0.25500000920E-02 0.  1.
        2   -1    0    0  501    0  0.00000000000E+00  0.00000000000E+00 -0.79302395402E+03  0.79302395403E+03  0.25500000920E-02 0. -1.
    10030    2    1    2    0    0  0.00000000000E+00  0.00000000000E+00 -0.20423968988E+03  0.13818082182E+04  0.13666309308E+04 0.  0.
        2    1    3    3  502    0  0.44181502061E+02  0.12279717659E+03  0.57606667264E+03  0.59066400181E+03  0.25500000920E-02 0.  1.
       -2    1    3    3    0  502 -0.44181502061E+02 -0.12279717659E+03 -0.78030636252E+03  0.79114421637E+03  0.25500000920E-02 0. -1.
</event>
<event>
 5   0  0.3294720E-03  0.1296686E+04  0.7818609E-02  0.9032197E-01
       -2   -1    0    0    0  501  0.00000000000E+00  0.00000000000E+00  0.32565816120E+03  0.32565816121E+03  0.25500000920E-02 0.  1.
        2   -1    0    0  501    0  0.00000000000E+00  0.00000000000E+00 -0.12907672863E+04  0.12907672863E+04  0.25500000920E-02 0. -1.
    10030    2    1    2    0    0  0.00000000000E+00  0.00000000000E+00 -0.96510912514E+03  0.16164254476E+04  0.12966863939E+04 0.  0.
        5    1    3    3  502    0 -0.37664211397E+03  0.35945786520E+03 -0.95186408612E+00  0.52066518504E+03  0.46999998093E+01 0.  1.
       -5    1    3    3    0  502  0.37664211397E+03 -0.35945786520E+03 -0.96415726106E+03  0.10957602625E+04  0.46999998093E+01 0. -1.
</event>
<event>
 5   0  0.3262927E-03  0.1299427E+04  0.7818609E-02  0.9030020E-01
       -2   -1    0    0    0  501  0.00000000000E+00  0.00000000000E+00  0.73180354512E+03  0.73180354512E+03  0.25500000920E-02 0.  1.
        2   -1    0    0  501    0  0.00000000000E+00  0.00000000000E+00 -0.57683170904E+03  0.57683170904E+03  0.25500000920E-02 0. -1.
    10030    2    1    2    0    0  0.00000000000E+00  0.00000000000E+00  0.15497183608E+03  0.13086352542E+04  0.12994267807E+04 0.  0.
        3    1    3    3  502    0 -0.19278502794E+03  0.16475107318E+01 -0.54736134397E+03  0.58032166285E+03  0.10100000352E+00 0. -1.
       -3    1    3    3    0  502  0.19278502794E+03 -0.16475107318E+01  0.70233318005E+03  0.72831359132E+03  0.10100000352E+00 0.  1.
</event>
<event>
 5   0  0.1823154E-03  0.1300025E+04  0.7818609E-02  0.9029545E-01
        1   -1    0    0  501    0  0.00000000000E+00  0.00000000000E+00  0.50660916009E+03  0.50660916012E+03  0.50400001928E-02 0. -1.
       -1   -1    0    0    0  501  0.00000000000E+00  0.00000000000E+00 -0.83400807703E+03  0.83400807704E+03  0.50400001928E-02 0.  1.
    10030    2    1    2    0    0  0.00000000000E+00  0.00000000000E+00 -0.32739891694E+03  0.13406172372E+04  0.13000248174E+04 0.  0.
        2    1    3    3  502    0 -0.49062374845E+02  0.66379055563E+02 -0.82858157167E+03  0.83268284272E+03  0.25500000920E-02 0.  1.
       -2    1    3    3    0  502  0.49062374845E+02 -0.66379055563E+02  0.50118265473E+03  0.50793439444E+03  0.25500000920E-02 0. -1.
</event>
<event>
 5   0  0.3262927E-03  0.1339165E+04  0.7818609E-02  0.8999071E-01
       -2   -1    0    0    0  501  0.00000000000E+00  0.00000000000E+00  0.72375038907E+03  0.72375038908E+03  0.25500000920E-02 0. -1.
        2   -1    0    0  501    0  0.00000000000E+00  0.00000000000E+00 -0.61946876963E+03  0.61946876964E+03  0.25500000920E-02 0.  1.
    10030    2    1    2    0    0  0.00000000000E+00  0.00000000000E+00  0.10428161944E+03  0.13432191587E+04  0.13391650579E+04 0.  0.
        3    1    3    3  502    0 -0.20640575102E+03 -0.75019295846E+02  0.68659783888E+03  0.72086602872E+03  0.10100000352E+00 0. -1.
       -3    1    3    3    0  502  0.20640575102E+03  0.75019295846E+02 -0.58231621943E+03  0.62235313000E+03  0.10100000352E+00 0.  1.
</event>
<event>
 5   0  0.1814770E-03  0.1355083E+04  0.7818609E-02  0.8986989E-01
       -1   -1    0    0    0  501  0.00000000000E+00  0.00000000000E+00  0.26336134972E+03  0.26336134977E+03  0.50400001928E-02 0.  1.
        1   -1    0    0  501    0  0.00000000000E+00  0.00000000000E+00 -0.17430909965E+04  0.17430909965E+04  0.50400001928E-02 0. -1.
    10030    2    1    2    0    0  0.00000000000E+00  0.00000000000E+00 -0.14797296468E+04  0.20064523463E+04  0.13550834625E+04 0.  0.
        5    1    3    3  502    0  0.22543156249E+03  0.62718552432E+03 -0.92036053761E+03  0.11363391573E+04  0.46999998093E+01 0.  1.
       -5    1    3    3    0  502 -0.22543156249E+03 -0.62718552432E+03 -0.55936910915E+03  0.87011318893E+03  0.46999998093E+01 0. -1.
</event>
<event>
 5   0  0.1873488E-03  0.1087607E+04  0.7818609E-02  0.9217356E-01
        1   -1    0    0  501    0  0.00000000000E+00  0.00000000000E+00  0.17304179063E+04  0.17304179063E+04  0.50400001928E-02 0. -1.
       -1   -1    0    0    0  501  0.00000000000E+00  0.00000000000E+00 -0.17089652226E+03  0.17089652233E+03  0.50400001928E-02 0.  1.
    10030    2    1    2    0    0  0.00000000000E+00  0.00000000000E+00  0.15595213840E+04  0.19013144286E+04  0.10876072863E+04 0.  0.
        3    1    3    3  502    0 -0.27495915432E+02  0.49103460463E+03  0.37408380089E+03  0.61790752431E+03  0.10100000352E+00 0.  1.
       -3    1    3    3    0  502  0.27495915432E+02 -0.49103460463E+03  0.11854375831E+04  0.12834069043E+04  0.10100000352E+00 0. -1.
</event>
<event>
 5   0  0.1803959E-03  0.1274146E+04  0.7818609E-02  0.9050322E-01
       -1   -1    0    0    0  501  0.00000000000E+00  0.00000000000E+00  0.49611610967E+03  0.49611610969E+03  0.50400001928E-02 0.  1.
        1   -1    0    0  501    0  0.00000000000E+00  0.00000000000E+00 -0.81807918420E+03  0.81807918421E+03  0.50400001928E-02 0. -1.
    10030    2    1    2    0    0  0.00000000000E+00  0.00000000000E+00 -0.32196307453E+03  0.13141952939E+04  0.12741464002E+04 0.  0.
        4    1    3    3  502    0  0.80594449178E+02  0.24594582312E+03  0.43944638057E+03  0.50999955631E+03  0.12699999809E+01 0.  1.
       -4    1    3    3    0  502 -0.80594449178E+02 -0.24594582312E+03 -0.76140945510E+03  0.80419573759E+03  0.12699999809E+01 0. -1.
</event>
<event>
 5   0  0.3259968E-03  0.1251002E+04  0.7818609E-02  0.9069350E-01
        2   -1    0    0  501    0  0.00000000000E+00  0.00000000000E+00  0.37755389876E+03  0.37755389877E+03  0.25500000920E-02 0.  1.
       -2   -1    0    0    0  501  0.00000000000E+00  0.00000000000E+00 -0.10362801895E+04  0.10362801895E+04  0.25500000920E-02 0. -1.
    10030    2    1    2    0    0  0.00000000000E+00  0.00000000000E+00 -0.65872629071E+03  0.14138340882E+04  0.12510021994E+04 0.  0.
        4    1    3    3  502    0 -0.23987088010E+03 -0.39244273026E+03 -0.80845107824E+03  0.93013122432E+03  0.12699999809E+01 0. -1.
       -4    1    3    3    0  502  0.23987088010E+03  0.39244273026E+03  0.14972478753E+03  0.48370286391E+03  0.12699999809E+01 0.  1.
</event>
<event>
 5   0  0.1803959E-03  0.1296958E+04  0.7818609E-02  0.9031981E-01
        1   -1    0    0  501    0  0.00000000000E+00  0.00000000000E+00  0.56612663855E+03  0.56612663858E+03  0.50400001928E-02 0. -1.
       -1   -1    0    0    0  501  0.00000000000E+00  0.00000000000E+00 -0.74281108284E+03  0.74281108286E+03  0.50400001928E-02 0.  1.
    10030    2    1    2    0    0  0.00000000000E+00  0.00000000000E+00 -0.17668444429E+03  0.13089377214E+04  0.12969581974E+04 0.  0.
        4    1    3    3  502    0 -0.60391729295E+03 -0.43590797815E+02  0.14598173407E+03  0.62283909155E+03  0.12699999809E+01 0. -1.
       -4    1    3    3    0  502  0.60391729295E+03  0.43590797815E+02 -0.32266617835E+03  0.68609862989E+03  0.12699999809E+01 0.  1.
</event>
<event>
 5   0  0.3294720E-03  0.1306005E+04  0.7818609E-02  0.9024817E-01
       -2   -1    0    0    0  501  0.00000000000E+00  0.00000000000E+00  0.23676202547E+03  0.23676202548E+03  0.25500000920E-02 0. -1.
        2   -1    0    0  501    0  0.00000000000E+00  0.00000000000E+00 -0.18010151652E+04  0.18010151652E+04  0.25500000920E-02 0.  1.
    10030    2    1    2    0    0  0.00000000000E+00  0.00000000000E+00 -0.15642531397E+04  0.20377771907E+04  0.13060045918E+04 0.  0.
        5    1    3    3  502    0  0.45873703237E+03 -0.44653490504E+03 -0.58135579984E+03  0.86477149716E+03  0.46999998093E+01 0.  1.
       -5    1    3    3    0  502 -0.45873703237E+03  0.44653490504E+03 -0.98289733990E+03  0.11730056935E+04  0.46999998093E+01 0. -1.
</event>
<event>
 5   0  0.1873488E-03  0.1291083E+04  0.7818609E-02  0.9036667E-01
       -1   -1    0    0    0  501  0.00000000000E+00  0.00000000000E+00  0.76511465107E+03  0.76511465109E+03  0.50400001928E-02 0.  1.
        1   -1    0    0  501    0  0.00000000000E+00  0.00000000000E+00 -0.54465534028E+03  0.54465534031E+03  0.50400001928E-02 0. -1.
    10030    2    1    2    0    0  0.00000000000E+00  0.00000000000E+00  0.22045931079E+03  0.13097699914E+04  0.12910829263E+04 0.  0.
        3    1    3    3  502    0 -0.38677765967E+03  0.40021080291E+03  0.44200781205E+03  0.71072959760E+03  0.10100000352E+00 0.  1.
       -3    1    3    3    0  502  0.38677765967E+03 -0.40021080291E+03 -0.22154850127E+03  0.59904039380E+03  0.10100000352E+00 0. -1.
</event>
<event>
 5   0  0.3299104E-03  0.1333642E+04  0.7818609E-02  0.9003304E-01
        2   -1    0    0  501    0  0.00000000000E+00  0.00000000000E+00  0.25965649323E+03  0.25965649324E+03  0.25500000920E-02 0.  1.
       -2   -1    0    0    0  501  0.00000000000E+00  0.00000000000E+00 -0.17124553850E+04  0.17124553850E+04  0.25500000920E-02 0. -1.
    10030    2    1    2    0    0  0.00000000000E+00  0.00000000000E+00 -0.14527988918E+04  0.19721118783E+04  0.13336418711E+04 0.  0.
        2    1    3    3  502    0 -0.14756008289E+03  0.60675229747E+03 -0.10723359936E+04  0.12408975831E+04  0.25500000920E-02 0. -1.
       -2    1    3    3    0  502  0.14756008289E+03 -0.60675229747E+03 -0.38046289818E+03  0.73121429516E+03  0.25500000920E-02 0.  1.
</event>
<event>
 5   0  0.3259968E-03  0.1292017E+04  0.7818609E-02  0.9035920E-01
        2   -1    0    0  501    0  0.00000000000E+00  0.00000000000E+00  0.12758554821E+04  0.12758554821E+04  0.25500000920E-02 0. -1.
       -2   -1    0    0    0  501  0.00000000000E+00  0.00000000000E+00 -0.32709566839E+03  0.32709566840E+03  0.25500000920E-02 0.  1.
    10030    2    1    2    0    0  0.00000000000E+00  0.00000000000E+00  0.94875981369E+03  0.16029511505E+04  0.12920167208E+04 0.  0.
        4    1    3    3  502    0  0.32211232249E+03 -0.30081634169E+03 -0.11159751645E+03  0.45464539842E+03  0.12699999809E+01 0.  1.
       -4    1    3    3    0  502 -0.32211232249E+03  0.30081634169E+03  0.10603573301E+04  0.11483057521E+04  0.12699999809E+01 0. -1.
</event>
<event>
 5   0  0.3299104E-03  0.1324950E+04  0.7818609E-02  0.9010011E-01
       -2   -1    0    0    0  501  0.00000000000E+00  0.00000000000E+00  0.26656489064E+03  0.26656489065E+03  0.25500000920E-02 0. -1.
        2   -1    0    0  501    0  0.00000000000E+00  0.00000000000E+00 -0.16464016035E+04  0.16464016035E+04  0.25500000920E-02 0.  1.
    10030    2    1    2    0    0  0.00000000000E+00  0.00000000000E+00 -0.13798367128E+04  0.19129664941E+04  0.13249496042E+04 0.  0.
        2    1    3    3  502    0  0.26996963477E+03  0.60454608537E+03 -0.65720767791E+03  0.93288879559E+03  0.25500000920E-02 0. -1.
       -2    1    3    3    0  502 -0.26996963477E+03 -0.60454608537E+03 -0.72262903493E+03  0.98007769853E+03  0.25500000920E-02 0.  1.
</event>
<event>
 5   0  0.1803959E-03  0.1301491E+04  0.7818609E-02  0.9028383E-01
       -1   -1    0    0    0  501  0.00000000000E+00  0.00000000000E+00  0.31655865272E+03  0.31655865276E+03  0.50400001928E-02 0.  1.
        1   -1    0    0  501    0  0.00000000000E+00  0.00000000000E+00 -0.13377298546E+04  0.13377298546E+04  0.50400001928E-02 0. -1.
    10030    2    1    2    0    0  0.00000000000E+00  0.00000000000E+00 -0.10211712019E+04  0.16542885074E+04  0.13014913915E+04 0.  0.
        4    1    3    3  502    0 -0.80865513994E+02 -0.33533002769E+03 -0.12119624044E+04  0.12600952113E+04  0.12699999809E+01 0. -1.
       -4    1    3    3    0  502  0.80865513994E+02  0.33533002769E+03  0.19079120254E+03  0.39419329610E+03  0.12699999809E+01 0.  1.
</event>
<event>
 5   0  0.3294720E-03  0.1252424E+04  0.7818609E-02  0.9068168E-01
        2   -1    0    0  501    0  0.00000000000E+00  0.00000000000E+00  0.16369418650E+04  0.16369418650E+04  0.25500000920E-02 0.  1.
       -2   -1    0    0    0  501  0.00000000000E+00  0.00000000000E+00 -0.23955740520E+03  0.23955740521E+03  0.25500000920E-02 0. -1.
    10030    2    1    2    0    0  0.00000000000E+00  0.00000000000E+00  0.13973844598E+04  0.18764992702E+04  0.12524241225E+04 0.  0.
        5    1    3    3  502    0 -0.40801172087E+03 -0.43707462990E+03  0.41994652427E+03  0.73067432534E+03  0.46999998093E+01 0. -1.
       -5    1    3    3    0  502  0.40801172087E+03  0.43707462990E+03  0.97743793555E+03  0.11458249449E+04  0.46999998093E+01 0.  1.
</event>
<event>
 5   0  0.1823154E-03  0.1283653E+04  0.7818609E-02  0.9042630E-01
       -1   -1    0    0    0  501  0.00000000000E+00  0.00000000000E+00  0.10339085058E+04  0.10339085058E+04  0.50400001928E-02 0. -1.
        1   -1    0    0  501    0  0.00000000000E+00  0.00000000000E+00 -0.39843121657E+03  0.39843121660E+03  0.50400001928E-02 0.  1.
    10030    2    1    2    0    0  0.00000000000E+00  0.00000000000E+00  0.63547728918E+03  0.14323397224E+04  0.12836532613E+04 0.  0.
        2    1    3    3  502    0 -0.81994745357E+02  0.34971744408E+03  0.91124730194E+03  0.97948816954E+03  0.25500000920E-02 0. -1.
       -2    1    3    3    0  502  0.81994745357E+02 -0.34971744408E+03 -0.27577001276E+03  0.45285155284E+03  0.25500000920E-02 0.  1.
</event>
<event>
 5   0  0.1857986E-03  0.1296820E+04  0.7818609E-02  0.9032091E-01
        1   -1    0    0  501    0  0.00000000000E+00  0.00000000000E+00  0.44239571208E+03  0.44239571211E+03  0.50400001928E-02 0.  1.
       -1   -1    0    0    0  501  0.00000000000E+00  0.00000000000E+00 -0.95036106174E+03  0.95036106175E+03  0.50400001928E-02 0. -1.
    10030    2    1    2    0    0  0.00000000000E+00  0.00000000000E+00 -0.50796534966E+03  0.13927567739E+04  0.12968202014E+04 0.  0.
        1    1    3    3  502    0 -0.46937226635E+02  0.36877552181E+03  0.31657902656E+03  0.48828349226E+03  0.50400001928E-02 0.  1.
       -1    1    3    3    0  502  0.46937226635E+02 -0.36877552181E+03 -0.82454437623E+03  0.90447328160E+03  0.50400001928E-02 0. -1.
</event>
<event>
 5   0  0.1814770E-03  0.1189673E+04  0.7818609E-02  0.9121944E-01
        1   -1    0    0  501    0  0.00000000000E+00  0.00000000000E+00  0.29840046599E+03  0.29840046603E+03  0.50400001928E-02 0.  1.
       -1   -1    0    0    0  501  0.00000000000E+00  0.00000000000E+00 -0.11857567388E+04  0.11857567388E+04  0.50400001928E-02 0. -1.
    10030    2    1    2    0    0  0.00000000000E+00  0.00000000000E+00 -0.88735627281E+03  0.14841572048E+04  0.11896728348E+04 0.  0.
        5    1    3    3  502    0 -0.43662919304E+03  0.47694914006E+02  0.56718922323E+02  0.44289838923E+03  0.46999998093E+01 0.  1.
       -5    1    3    3    0  502  0.43662919304E+03 -0.47694914006E+02 -0.94407519514E+03  0.10412588156E+04  0.46999998093E+01 0. -1.
</event>
<event>
 5   0  0.1803959E-03  0.1239849E+04  0.7818609E-02  0.9078675E-01
        1   -1    0    0  501    0  0.00000000000E+00  0.00000000000E+00  0.95133257173E+03  0.95133257175E+03  0.50400001928E-02 0. -1.
       -1   -1    0    0    0  501  0.00000000000E+00  0.00000000000E+00 -0.40396629168E+03  0.40396629171E+03  0.50400001928E-02 0.  1.
    10030    2    1    2    0    0  0.00000000000E+00  0.00000000000E+00  0.54736628006E+03  0.13552988635E+04  0.12398488475E+04 0.  0.
        4    1    3    3  502    0  0.33544559876E+03 -0.45444307740E+03  0.55293618130E+03  0.79043171357E+03  0.12699999809E+01 0. -1.
       -4    1    3    3    0  502 -0.33544559876E+03  0.45444307740E+03 -0.55699012430E+01  0.56486714989E+03  0.12699999809E+01 0.  1.
</event>
<event>
 5   0  0.3336609E-03  0.1318872E+04  0.7818609E-02  0.9014732E-01
        2   -1    0    0  501    0  0.00000000000E+00  0.00000000000E+00  0.17029099293E+04  0.17029099293E+04  0.25500000920E-02 0. -1.
       -2   -1    0    0    0  501  0.00000000000E+00  0.00000000000E+00 -0.25536030977E+03  0.25536030978E+03  0.25500000920E-02 0.  1.
    10030    2    1    2    0    0  0.00000000000E+00  0.00000000000E+00  0.14475496195E+04  0.19582702391E+04  0.13188716497E+04 0.  0.
        1    1    3    3  502    0  0.13984754543E+03  0.34319567102E+03 -0.86112373392E+02  0.38046806101E+03  0.50400001928E-02 0.  1.
       -1    1    3    3    0  502 -0.13984754543E+03 -0.34319567102E+03  0.15336619929E+04  0.15778021781E+04  0.50400001928E-02 0. -1.
</event>
<event>
 5   0  0.1857986E-03  0.1336501E+04  0.7818609E-02  0.9001110E-01
        1   -1    0    0  501    0  0.00000000000E+00  0.00000000000E+00  0.46098102976E+03  0.46098102979E+03  0.50400001928E-02 0.  1.
       -1   -1    0    0    0  501  0.00000000000E+00  0.00000000000E+00 -0.96871444480E+03  0.96871444481E+03  0.50400001928E-02 0. -1.
    10030    2    1    2    0    0  0.00000000000E+00  0.00000000000E+00 -0.50773341503E+03  0.14296954746E+04  0.13365013765E+04 0.  0.
        1    1    3    3  502    0  0.61225625455E+03  0.83632601265E+02 -0.52597968739E+03  0.81148429733E+03  0.50400001928E-02 0. -1.
       -1    1    3    3    0  502 -0.61225625455E+03 -0.83632601265E+02  0.18246272360E+02  0.61821117728E+03  0.50400001928E-02 0.  1.
</event>
<event>
 5   0  0.3262927E-03  0.1292652E+04  0.7818609E-02  0.9035413E-01
        2   -1    0    0  501    0  0.00000000000E+00  0.00000000000E+00  0.77864030091E+03  0.77864030091E+03  0.25500000920E-02 0. -1.
       -2   -1    0    0    0  501  0.00000000000E+00  0.00000000000E+00 -0.53649547033E+03  0.53649547034E+03  0.25500000920E-02 0.  1.
    10030    2    1    2    0    0  0.00000000000E+00  0.00000000000E+00  0.24214483058E+03  0.13151357713E+04  0.12926515299E+04 0.  0.
        3    1    3    3  502    0 -0.62463118665E+03 -0.14020462904E+03  0.21158918382E+03  0.67423397293E+03  0.10100000352E+00 0. -1.
       -3    1    3    3    0  502  0.62463118665E+03  0.14020462904E+03  0.30555646757E+02  0.64090179832E+03  0.10100000352E+00 0.  1.
</event>
<event>
 5   0  0.3336609E-03  0.1337331E+04  0.7818609E-02  0.9000474E-01
        2   -1    0    0  501    0  0.00000000000E+00  0.00000000000E+00  0.77056138912E+03  0.77056138912E+03  0.25500000920E-02 0.  1.
       -2   -1    0    0    0  501  0.00000000000E+00  0.00000000000E+00 -0.58024413694E+03  0.58024413694E+03  0.25500000920E-02 0. -1.
    10030    2    1    2    0    0  0.00000000000E+00  0.00000000000E+00  0.19031725218E+03  0.13508055261E+04  0.13373312652E+04 0.  0.
        1    1    3    3  502    0 -0.18114281748E+03 -0.32193985055E+03 -0.46782209403E+03  0.59608346679E+03  0.50400001928E-02 0. -1.
       -1    1    3    3    0  502  0.18114281748E+03  0.32193985055E+03  0.65813934621E+03  0.75472205927E+03  0.50400001928E-02 0.  1.
</event>
<event>
 5   0  0.3336609E-03  0.1344517E+04  0.7818609E-02  0.8994989E-01
       -2   -1    0    0    0  501  0.00000000000E+00  0.00000000000E+00  0.46557937916E+03  0.46557937917E+03  0.25500000920E-02 0. -1.
        2   -1    0    0  501    0  0.00000000000E+00  0.00000000000E+00 -0.97068689025E+03  0.97068689025E+03  0.25500000920E-02 0.  1.
    10030    2    1    2    0    0  0.00000000000E+00  0.00000000000E+00 -0.50510751109E+03  0.14362662694E+04  0.13445174595E+04 0.  0.
        1    1    3    3  502    0  0.24876682573E+03  0.39142993141E+02 -0.91839736893E+03  0.95229766081E+03  0.50400001928E-02 0.  1.
       -1    1    3    3    0  502 -0.24876682573E+03 -0.39142993141E+02  0.41328985784E+03  0.48396860861E+03  0.50400001928E-02 0. -1.
</event>
<event>
 5   0  0.3294720E-03  0.1323657E+04  0.7818609E-02  0.9011013E-01
       -2   -1    0    0    0  501  0.00000000000E+00  0.00000000000E+00  0.43605953880E+03  0.43605953881E+03  0.25500000920E-02 0.  1.
        2   -1    0    0  501    0  0.00000000000E+00  0.00000000000E+00 -0.10044885607E+04  0.10044885607E+04  0.25500000920E-02 0. -1.
    10030    2    1    2    0    0  0.00000000000E+00  0.00000000000E+00 -0.56842902194E+03  0.14405480996E+04  0.13236567811E+04 0.  0.
        5    1    3    3  502    0 -0.32214514461E+03  0.87087422829E+02  0.33777407473E+03  0.47484221482E+03  0.46999998093E+01 0.  1.
       -5    1    3    3    0  502  0.32214514461E+03 -0.87087422829E+02 -0.90620309667E+03  0.96570588474E+03  0.46999998093E+01 0. -1.
</event>
<event>
 5   0  0.1814770E-03  0.1339915E+04  0.7818609E-02  0.8998498E-01
       -1   -1    0    0    0  501  0.00000000000E+00  0.00000000000E+00  0.45947968821E+03  0.45947968824E+03  0.50400001928E-02 0. -1.
        1   -1    0    0  501    0  0.00000000000E+00  0.00000000000E+00 -0.97685039202E+03  0.97685039203E+03  0.50400001928E-02 0.  1.
    10030    2    1    2    0    0  0.00000000000E+00  0.00000000000E+00 -0.51737070381E+03  0.14363300803E+04  0.13399147937E+04 0.  0.
        5    1    3    3  502    0 -0.14206739418E+01  0.64153789470E+03 -0.46556995650E+03  0.79268553856E+03  0.46999998093E+01 0. -1.
       -5    1    3    3    0  502  0.14206739418E+01 -0.64153789470E+03 -0.51800747307E+02  0.64364454171E+03  0.46999998093E+01 0.  1.
</event>
<event>
 5   0  0.3262927E-03  0.1317649E+04  0.7818609E-02  0.9015686E-01
        2   -1    0    0  501    0  0.00000000000E+00  0.00000000000E+00  0.92027172369E+03  0.92027172369E+03  0.25500000920E-02 0.  1.
       -2   -1    0    0    0  501  0.00000000000E+00  0.00000000000E+00 -0.47165356037E+03  0.47165356038E+03  0.25500000920E-02 0. -1.
    10030    2    1    2    0    0  0.00000000000E+00  0.00000000000E+00  0.44861816332E+03  0.13919252841E+04  0.13176485647E+04 0.  0.
        3    1    3    3  502    0 -0.36041178008E+03  0.16118303594E+03  0.78146104269E+03  0.87553297695E+03  0.10100000352E+00 0.  1.
       -3    1    3    3    0  502  0.36041178008E+03 -0.16118303594E+03 -0.33284287937E+03  0.51639230711E+03  0.10100000352E+00 0. -1.
</event>
<event>
 5   0  0.1823154E-03  0.1296602E+04  0.7818609E-02  0.9032264E-01
        1   -1    0    0  501    0  0.00000000000E+00  0.00000000000E+00  0.12929625411E+04  0.12929625411E+04  0.50400001928E-02 0. -1.
       -1   -1    0    0    0  501  0.00000000000E+00  0.00000000000E+00 -0.32506295223E+03  0.32506295227E+03  0.50400001928E-02 0.  1.
    10030    2    1    2    0    0  0.00000000000E+00  0.00000000000E+00  0.96789958887E+03  0.16180254934E+04  0.12966020527E+04 0.  0.
        2    1    3    3  502    0  0.75284122156E+02 -0.32223067746E+02 -0.31858287866E+03  0.32893931922E+03  0.25500000920E-02 0.  1.
       -2    1    3    3    0  502 -0.75284122156E+02  0.32223067746E+02  0.12864824675E+04  0.12890861742E+04  0.25500000920E-02 0. -1.
</event>
<event>
 5   0  0.1857986E-03  0.1268456E+04  0.7818609E-02  0.9054961E-01
       -1   -1    0    0    0  501  0.00000000000E+00  0.00000000000E+00  0.29556268045E+03  0.29556268049E+03  0.50400001928E-02 0.  1.
        1   -1    0    0  501    0  0.00000000000E+00  0.00000000000E+00 -0.13609461137E+04  0.13609461138E+04  0.50400001928E-02 0. -1.
    10030    2    1    2    0    0  0.00000000000E+00  0.00000000000E+00 -0.10653834333E+04  0.16565087942E+04  0.12684555670E+04 0.  0.
        1    1    3    3  502    0 -0.20655177400E+03  0.59484382181E+03 -0.63165016260E+03  0.89189950983E+03  0.50400001928E-02 0.  1.
       -1    1    3    3    0  502  0.20655177400E+03 -0.59484382181E+03 -0.43373327070E+03  0.76460928442E+03  0.50400001928E-02 0. -1.
</event>
<event>
 5   0  0.1873488E-03  0.1217816E+04  0.7818609E-02  0.9097404E-01
        1   -1    0    0  501    0  0.00000000000E+00  0.00000000000E+00  0.13811628983E+04  0.13811628983E+04  0.50400001928E-02 0.  1.
       -1   -1    0    0    0  501  0.00000000000E+00  0.00000000000E+00 -0.26844677858E+03  0.26844677863E+03  0.50400001928E-02 0. -1.
    10030    2    1    2    0    0  0.00000000000E+00  0.00000000000E+00  0.11127161198E+04  0.16496096770E+04  0.12178156360E+04 0.  0.
        3    1    3    3  502    0  0.18997121911E+03 -0.30326577380E+03 -0.11097564728E+03  0.37466624900E+03  0.10100000352E+00 0. -1.
       -3    1    3    3    0  502 -0.18997121911E+03  0.30326577380E+03  0.12236917670E+04  0.12749434280E+04  0.10100000352E+00 0.  1.
</event>
<event>
 5   0  0.1873488E-03  0.1296779E+04  0.7818609E-02  0.9032124E-01
       -1   -1    0    0    0  501  0.00000000000E+00  0.00000000000E+00  0.40428796056E+03  0.40428796059E+03  0.50400001928E-02 0.  1.
        1   -1    0    0  501    0  0.00000000000E+00  0.00000000000E+00 -0.10398745940E+04  0.10398745940E+04  0.50400001928E-02 0. -1.
    10030    2    1    2    0    0  0.00000000000E+00  0.00000000000E+00 -0.63558663343E+03  0.14441625546E+04  0.12967787458E+04 0.  0.
        3    1    3    3  502    0  0.41735922928E+02 -0.63085817265E+02 -0.10349440366E+04  0.10377046192E+04  0.10100000352E+00 0. -1.
       -3    1    3    3    0  502 -0.41735922928E+02  0.63085817265E+02  0.39935740316E+03  0.40645793541E+03  0.10100000352E+00 0.  1.
</event>
<event>
 5   0  0.3299104E-03  0.1281132E+04  0.7818609E-02  0.9044663E-01
        2   -1    0    0  501    0  0.00000000000E+00  0.00000000000E+00  0.18710996880E+04  0.18710996881E+04  0.25500000920E-02 0. -1.
       -2   -1    0    0    0  501  0.00000000000E+00  0.00000000000E+00 -0.21929594423E+03  0.21929594424E+03  0.25500000920E-02 0.  1.
    10030    2    1    2    0    0  0.00000000000E+00  0.00000000000E+00  0.16518037438E+04  0.20903956323E+04  0.12811316448E+04 0.  0.
        2    1    3    3  502    0 -0.31736995711E+02  0.36425654016E+03 -0.32296938715E+02  0.36706015338E+03  0.25500000920E-02 0.  1.
       -2    1    3    3    0  502  0.31736995711E+02 -0.36425654016E+03  0.16841006825E+04  0.17233354789E+04  0.25500000920E-02 0. -1.
</event>
<event>
 5   0  0.1814770E-03  0.1333427E+04  0.7818609E-02  0.9003469E-01
        1   -1    0    0  501    0  0.00000000000E+00  0.00000000000E+00  0.13942069456E+04  0.13942069456E+04  0.50400001928E-02 0.  1.
       -1   -1    0    0    0  501  0.00000000000E+00  0.00000000000E+00 -0.31882434471E+03  0.31882434475E+03  0.50400001928E-02 0. -1.
    10030    2    1    2    0    0  0.00000000000E+00  0.00000000000E+00  0.10753826009E+04  0.17130312903E+04  0.13334273371E+04 0.  0.
        5    1    3    3  502    0  0.29054408360E+03  0.57282084752E+03  0.76730635815E+03  0.10006601447E+04  0.46999998093E+01 0. -1.
       -5    1    3    3    0  502 -0.29054408360E+03 -0.57282084752E+03  0.30807624273E+03  0.71237114568E+03  0.46999998093E+01 0.  1.
</event>
<event>
 5   0  0.3294720E-03  0.1261686E+04  0.7818609E-02  0.9060513E-01
       -2   -1    0    0    0  501  0.00000000000E+00  0.00000000000E+00  0.19973303163E+03  0.19973303164E+03  0.25500000920E-02 0.  1.
        2   -1    0    0  501    0  0.00000000000E+00  0.00000000000E+00 -0.19924740974E+04  0.19924740974E+04  0.25500000920E-02 0. -1.
    10030    2    1    2    0    0  0.00000000000E+00  0.00000000000E+00 -0.17927410657E+04  0.21922071290E+04  0.12616860020E+04 0.  0.
        5    1    3    3  502    0 -0.18911595461E+02 -0.35160826136E+03 -0.18058015149E+04  0.18398171700E+04  0.46999998093E+01 0. -1.
       -5    1    3    3    0  502  0.18911595461E+02  0.35160826136E+03  0.13060449110E+02  0.35238995904E+03  0.46999998093E+01 0.  1.
</event>
<event>
 5   0  0.1823154E-03  0.1299670E+04  0.7818609E-02  0.9029827E-01
        1   -1    0    0  501    0  0.00000000000E+00  0.00000000000E+00  0.85634408297E+03  0.85634408298E+03  0.50400001928E-02 0.  1.
       -1   -1    0    0    0  501  0.00000000000E+00  0.00000000000E+00 -0.49312598215E+03  0.49312598217E+03  0.50400001928E-02 0. -1.
    10030    2    1    2    0    0  0.00000000000E+00  0.00000000000E+00  0.36321810082E+03  0.13494700652E+04  0.12996699843E+04 0.  0.
        2    1    3    3  502    0  0.34451390831E+03  0.49073411419E+03  0.44176034633E+03  0.74475634099E+03  0.25500000920E-02 0.  1.
       -2    1    3    3    0  502 -0.34451390831E+03 -0.49073411419E+03 -0.78542245516E+02  0.60471372416E+03  0.25500000920E-02 0. -1.
</event>
<event>
 5   0  0.1254125E-03  0.1312010E+04  0.7818609E-02  0.9020095E-01
       -4   -1    0    0    0  501  0.00000000000E+00  0.00000000000E+00  0.44092365938E+03  0.44092548837E+03  0.12699999809E+01 0. -1.
        4   -1    0    0  501    0  0.00000000000E+00  0.00000000000E+00 -0.97599779517E+03  0.97599862145E+03  0.12699999809E+01 0.  1.
    10030    2    1    2    0    0  0.00000000000E+00  0.00000000000E+00 -0.53507413579E+03  0.14169241098E+04  0.13120097569E+04 0.  0.
        4    1    3    3  502    0 -0.62667331922E+02 -0.50482558111E+03 -0.71486243363E+03  0.87738587506E+03  0.12699999809E+01 0.  1.
       -4    1    3    3    0  502  0.62667331922E+02  0.50482558111E+03  0.17978829785E+03  0.53953823476E+03  0.12699999809E+01 0. -1.
</event>
<event>
 5   0  0.1857986E-03  0.1251618E+04  0.7818609E-02  0.9068838E-01
       -1   -1    0    0    0  501  0.00000000000E+00  0.00000000000E+00  0.90577460922E+03  0.90577460923E+03  0.50400001928E-02 0.  1.
        1   -1    0    0  501    0  0.00000000000E+00  0.00000000000E+00 -0.43237793000E+03  0.43237793003E+03  0.50400001928E-02 0. -1.
    10030    2    1    2    0    0  0.00000000000E+00  0.00000000000E+00  0.47339667921E+03  0.13381525393E+04  0.12516180737E+04 0.  0.
        1    1    3    3  502    0 -0.58782075787E+03  0.21379804386E+03  0.21547376359E+03  0.66156767588E+03  0.50400001928E-02 0.  1.
       -1    1    3    3    0  502  0.58782075787E+03 -0.21379804386E+03  0.25792291562E+03  0.67658486339E+03  0.50400001928E-02 0. -1.
</event>
<event>
 5   0  0.1823154E-03  0.1313143E+04  0.7818609E-02  0.9019207E-01
       -1   -1    0    0    0  501  0.00000000000E+00  0.00000000000E+00  0.11556877803E+04  0.11556877803E+04  0.50400001928E-02 0. -1.
        1   -1    0    0  501    0  0.00000000000E+00  0.00000000000E+00 -0.37301288642E+03  0.37301288645E+03  0.50400001928E-02 0.  1.
    10030    2    1    2    0    0  0.00000000000E+00  0.00000000000E+00  0.78267489389E+03  0.15287006668E+04  0.13131434571E+04 0.  0.
        2    1    3    3  502    0 -0.37180311970E+03  0.46567731056E+02  0.10189882614E+04  0.10856994015E+04  0.25500000920E-02 0. -1.
       -2    1    3    3    0  502  0.37180311970E+03 -0.46567731056E+02 -0.23631336753E+03  0.44300126532E+03  0.25500000920E-02 0.  1.
</event>
<event>
 5   0  0.3336609E-03  0.1273268E+04  0.7818609E-02  0.9051037E-01
        2   -1    0    0  501    0  0.00000000000E+00  0.00000000000E+00  0.79822527548E+03  0.79822527549E+03  0.25500000920E-02 0. -1.
       -2   -1    0    0    0  501  0.00000000000E+00  0.00000000000E+00 -0.50775461220E+03  0.50775461221E+03  0.25500000920E-02 0.  1.
    10030    2    1    2    0    0  0.00000000000E+00  0.00000000000E+00  0.29047066329E+03  0.13059798877E+04  0.12732675527E+04 0.  0.
        1    1    3    3  502    0 -0.17120922588E+03  0.44233255477E+03 -0.29032976267E+03  0.55611335100E+03  0.50400001928E-02 0.  1.
       -1    1    3    3    0  502  0.17120922588E+03 -0.44233255477E+03  0.58080042596E+03  0.74986653670E+03  0.50400001928E-02 0. -1.
</event>
<event>
 5   0  0.3336609E-03  0.1310545E+04  0.7818609E-02  0.9021245E-01
        2   -1    0    0  501    0  0.00000000000E+00  0.00000000000E+00  0.21280047439E+04  0.21280047439E+04  0.25500000920E-02 0. -1.
       -2   -1    0    0    0  501  0.00000000000E+00  0.00000000000E+00 -0.20177675520E+03  0.20177675522E+03  0.25500000920E-02 0.  1.
    10030    2    1    2    0    0  0.00000000000E+00  0.00000000000E+00  0.19262279887E+04  0.23297814991E+04  0.13105447605E+04 0.  0.
        1    1    3    3  502    0  0.17294304094E+03  0.62141111097E+03  0.75793686725E+03  0.99525341446E+03  0.50400001928E-02 0.  1.
       -1    1    3    3    0  502 -0.17294304094E+03 -0.62141111097E+03  0.11682911214E+04  0.13345280846E+04  0.50400001928E-02 0. -1.
</event>
<event>
 5   0  0.1254125E-03  0.1298484E+04  0.7818609E-02  0.9030768E-01
       -3   -1    0    0    0  501  0.00000000000E+00  0.00000000000E+00  0.49934685286E+03  0.49934686307E+03  0.10100000352E+00 0. -1.
        3   -1    0    0  501    0  0.00000000000E+00  0.00000000000E+00 -0.84413309368E+03  0.84413309972E+03  0.10100000352E+00 0.  1.
    10030    2    1    2    0    0  0.00000000000E+00  0.00000000000E+00 -0.34478624082E+03  0.13434799628E+04  0.12984840617E+04 0.  0.
        2    1    3    3  502    0 -0.15392840632E+03  0.10497799499E+03  0.47109168679E+03  0.50659817516E+03  0.25500000920E-02 0. -1.
       -2    1    3    3    0  502  0.15392840632E+03 -0.10497799499E+03 -0.81587792761E+03  0.83688178763E+03  0.25500000920E-02 0.  1.
</event>
<event>
 5   0  0.1803959E-03  0.1300756E+04  0.7818609E-02  0.9028966E-01
        1   -1    0    0  501    0  0.00000000000E+00  0.00000000000E+00  0.43975590172E+03  0.43975590175E+03  0.50400001928E-02 0.  1.
       -1   -1    0    0    0  501  0.00000000000E+00  0.00000000000E+00 -0.96187801633E+03  0.96187801634E+03  0.50400001928E-02 0. -1.
    10030    2    1    2    0    0  0.00000000000E+00  0.00000000000E+00 -0.52212211461E+03  0.14016339181E+04  0.13007559870E+04 0.  0.
        4    1    3    3  502    0 -0.44482790176E+03 -0.20170484648E+03  0.20170162797E+03  0.52843340820E+03  0.12699999809E+01 0.  1.
       -4    1    3    3    0  502  0.44482790176E+03  0.20170484648E+03 -0.72382374257E+03  0.87320050990E+03  0.12699999809E+01 0. -1.
</event>
<event>
 5   0  0.3294720E-03  0.1163510E+04  0.7818609E-02  0.9145410E-01
        2   -1    0    0  501    0  0.00000000000E+00  0.00000000000E+00  0.70804835822E+03  0.70804835823E+03  0.25500000920E-02 0. -1.
       -2   -1    0    0    0  501  0.00000000000E+00  0.00000000000E+00 -0.47798796497E+03  0.47798796498E+03  0.25500000920E-02 0.  1.
    10030    2    1    2    0    0  0.00000000000E+00  0.00000000000E+00  0.23006039325E+03  0.11860363232E+04  0.11635095081E+04 0.  0.
        5    1    3    3  502    0  0.48793150513E+03  0.21708181406E+03  0.35017989059E+03  0.63863112472E+03  0.46999998093E+01 0. -1.
       -5    1    3    3    0  502 -0.48793150513E+03 -0.21708181406E+03 -0.12011949734E+03  0.54740519849E+03  0.46999998093E+01 0.  1.
</event>
<event>
 5   0  0.1814770E-03  0.1233222E+04  0.7818609E-02  0.9084265E-01
       -1   -1    0    0    0  501  0.00000000000E+00  0.00000000000E+00  0.45702264825E+03  0.45702264828E+03  0.50400001928E-02 0. -1.
        1   -1    0    0  501    0  0.00000000000E+00  0.00000000000E+00 -0.83192560862E+03  0.83192560863E+03  0.50400001928E-02 0.  1.
    10030    2    1    2    0    0  0.00000000000E+00  0.00000000000E+00 -0.37490296037E+03  0.12889482569E+04  0.12332215451E+04 0.  0.
        5    1    3    3  502    0 -0.15703416164E+03 -0.17605334524E+03 -0.78287132898E+03  0.81765770101E+03  0.46999998093E+01 0.  1.
       -5    1    3    3    0  502  0.15703416164E+03  0.17605334524E+03  0.40796836861E+03  0.47129055589E+03  0.46999998093E+01 0. -1.
</event>
<event>
 5   0  0.1823154E-03  0.1321786E+04  0.7818609E-02  0.9012465E-01
       -1   -1    0    0    0  501  0.00000000000E+00  0.00000000000E+00  0.34225479391E+03  0.34225479395E+03  0.50400001928E-02 0. -1.
        1   -1    0    0  501    0  0.00000000000E+00  0.00000000000E+00 -0.12761826837E+04  0.12761826838E+04  0.50400001928E-02 0.  1.
    10030    2    1    2    0    0  0.00000000000E+00  0.00000000000E+00 -0.93392788984E+03  0.16184374777E+04  0.13217861271E+04 0.  0.
        2    1    3    3  502    0  0.22276104059E+03  0.60295361499E+03 -0.65508111879E+03  0.91777274706E+03  0.25500000920E-02 0. -1.
       -2    1    3    3    0  502 -0.22276104059E+03 -0.60295361499E+03 -0.27884677104E+03  0.70066473064E+03  0.25500000920E-02 0.  1.
</event>
<event>
 5   0  0.3294720E-03  0.1222191E+04  0.7818609E-02  0.9093651E-01
       -2   -1    0    0    0  501  0.00000000000E+00  0.00000000000E+00  0.26530123702E+03  0.26530123704E+03  0.25500000920E-02 0.  1.
        2   -1    0    0  501    0  0.00000000000E+00  0.00000000000E+00 -0.14075993732E+04  0.14075993732E+04  0.25500000920E-02 0. -1.
    10030    2    1    2    0    0  0.00000000000E+00  0.00000000000E+00 -0.11422981362E+04  0.16729006103E+04  0.12221912370E+04 0.  0.
        5    1    3    3  502    0 -0.59662211889E+03 -0.58676989066E+02 -0.73319001983E+03  0.94709589640E+03  0.46999998093E+01 0. -1.
       -5    1    3    3    0  502  0.59662211889E+03  0.58676989066E+02 -0.40910811638E+03  0.72580471388E+03  0.46999998093E+01 0.  1.
</event>
<event>
 5   0  0.3336609E-03  0.1190675E+04  0.7818609E-02  0.9121058E-01
        2   -1    0    0  501    0  0.00000000000E+00  0.00000000000E+00  0.36088598985E+03  0.36088598986E+03  0.25500000920E-02 0.  1.
       -2   -1    0    0    0  501  0.00000000000E+00  0.00000000000E+00 -0.98210247680E+03  0.98210247680E+03  0.25500000920E-02 0. -1.
    10030    2    1    2    0    0  0.00000000000E+00  0.00000000000E+00 -0.62121648695E+03  0.13429884667E+04  0.11906754797E+04 0.  0.
        1    1    3    3  502    0  0.50780361473E+03  0.23429366803E+03 -0.80365812393E+02  0.56499265291E+03  0.50400001928E-02 0.  1.
       -1    1    3    3    0  502 -0.50780361473E+03 -0.23429366803E+03 -0.54085067455E+03  0.77799581375E+03  0.50400001928E-02 0. -1.
</event>
<event>
 5   0  0.1823154E-03  0.1322708E+04  0.7818609E-02  0.9011749E-01
       -1   -1    0    0    0  501  0.00000000000E+00  0.00000000000E+00  0.33256081770E+03  0.33256081774E+03  0.50400001928E-02 0. -1.
        1   -1    0    0  501    0  0.00000000000E+00  0.00000000000E+00 -0.13152157209E+04  0.13152157209E+04  0.50400001928E-02 0.  1.
    10030    2    1    2    0    0  0.00000000000E+00  0.00000000000E+00 -0.98265490322E+03  0.16477765387E+04  0.13227081547E+04 0.  0.
        2    1    3    3  502    0 -0.23584950625E+03 -0.11689937734E+03  0.26448921111E+03  0.37315545931E+03  0.25500000920E-02 0. -1.
       -2    1    3    3    0  502  0.23584950625E+03  0.11689937734E+03 -0.12471441143E+04  0.12746210793E+04  0.25500000920E-02 0.  1.
</event>
<event>
 5   0  0.1814770E-03  0.1220511E+04  0.7818609E-02  0.9095090E-01
        1   -1    0    0  501    0  0.00000000000E+00  0.00000000000E+00  0.19304331421E+04  0.19304331421E+04  0.50400001928E-02 0. -1.
       -1   -1    0    0    0  501  0.00000000000E+00  0.00000000000E+00 -0.19291615350E+03  0.19291615357E+03  0.50400001928E-02 0.  1.
    10030    2    1    2    0    0  0.00000000000E+00  0.00000000000E+00  0.17375169886E+04  0.21233492957E+04  0.12205109364E+04 0.  0.
        5    1    3    3  502    0 -0.64468103065E+02 -0.11105169392E+03  0.19066319160E+04  0.19109568200E+04  0.46999998093E+01 0. -1.
       -5    1    3    3    0  502  0.64468103065E+02  0.11105169392E+03 -0.16911492739E+03  0.21239247562E+03  0.46999998093E+01 0.  1.
</event>
<event>
 5   0  0.1873488E-03  0.1321323E+04  0.7818609E-02  0.9012824E-01
        1   -1    0    0  501    0  0.00000000000E+00  0.00000000000E+00  0.59665718409E+03  0.59665718411E+03  0.50400001928E-02 0. -1.
       -1   -1    0    0    0  501  0.00000000000E+00  0.00000000000E+00 -0.73153213482E+03  0.73153213484E+03  0.50400001928E-02 0.  1.
    10030    2    1    2    0    0  0.00000000000E+00  0.00000000000E+00 -0.13487495073E+03  0.13281893190E+04  0.13213234330E+04 0.  0.
        3    1    3    3  502    0  0.32502591911E+03  0.10464988732E+03  0.50108114452E+03  0.60636273847E+03  0.10100000352E+00 0. -1.
       -3    1    3    3    0  502 -0.32502591911E+03 -0.10464988732E+03 -0.63595609525E+03  0.72182658049E+03  0.10100000352E+00 0.  1.
</event>
<event>
 5   0  0.1873488E-03  0.1298471E+04  0.7818609E-02  0.9030778E-01
        1   -1    0    0  501    0  0.00000000000E+00  0.00000000000E+00  0.10624726919E+04  0.10624726919E+04  0.50400001928E-02 0. -1.
       -1   -1    0    0    0  501  0.00000000000E+00  0.00000000000E+00 -0.39672269534E+03  0.39672269537E+03  0.50400001928E-02 0.  1.
    10030    2    1    2    0    0  0.00000000000E+00  0.00000000000E+00  0.66574999652E+03  0.14591953872E+04  0.12984714553E+04 0.  0.
        3    1    3    3  502    0  0.24491731541E+03 -0.44563492859E+03  0.78648673962E+03  0.93655559513E+03  0.10100000352E+00 0. -1.
       -3    1    3    3    0  502 -0.24491731541E+03  0.44563492859E+03 -0.12073674311E+03  0.52263979211E+03  0.10100000352E+00 0.  1.
</event>
<event>
 5   0  0.1814770E-03  0.1250549E+04  0.7818609E-02  0.9069727E-01
       -1   -1    0    0    0  501  0.00000000000E+00  0.00000000000E+00  0.17812957814E+04  0.17812957814E+04  0.50400001928E-02 0. -1.
        1   -1    0    0  501    0  0.00000000000E+00  0.00000000000E+00 -0.21948515061E+03  0.21948515067E+03  0.50400001928E-02 0.  1.
    10030    2    1    2    0    0  0.00000000000E+00  0.00000000000E+00  0.15618106308E+04  0.20007809321E+04  0.12505486363E+04 0.  0.
        5    1    3    3  502    0  0.18896460852E+03 -0.28292474112E+03  0.16202043763E+04  0.16555477472E+04  0.46999998093E+01 0. -1.
       -5    1    3    3    0  502 -0.18896460852E+03  0.28292474112E+03 -0.58393745495E+02  0.34523318485E+03  0.46999998093E+01 0.  1.
</event>
<event>
 5   0  0.1803959E-03  0.1313090E+04  0.7818609E-02  0.9019249E-01
       -1   -1    0    0    0  501  0.00000000000E+00  0.00000000000E+00  0.35437491194E+03  0.35437491198E+03  0.50400001928E-02 0. -1.
        1   -1    0    0  501    0  0.00000000000E+00  0.00000000000E+00 -0.12163707497E+04  0.12163707497E+04  0.50400001928E-02 0.  1.
    10030    2    1    2    0    0  0.00000000000E+00  0.00000000000E+00 -0.86199583773E+03  0.15707456617E+04  0.13130899091E+04 0.  0.
        4    1    3    3  502    0  0.59918234905E+03  0.89519538749E+02 -0.12833645522E+03  0.61927788098E+03  0.12699999809E+01 0. -1.
       -4    1    3    3    0  502 -0.59918234905E+03 -0.89519538749E+02 -0.73365938251E+03  0.95146778068E+03  0.12699999809E+01 0.  1.
</event>
<event>
 5   0  0.1814770E-03  0.1292850E+04  0.7818609E-02  0.9035254E-01
        1   -1    0    0  501    0  0.00000000000E+00  0.00000000000E+00  0.53832624331E+03  0.53832624334E+03  0.50400001928E-02 0. -1.
       -1   -1    0    0    0  501  0.00000000000E+00  0.00000000000E+00 -0.77623075340E+03  0.77623075341E+03  0.50400001928E-02 0.  1.
    10030    2    1    2    0    0  0.00000000000E+00  0.00000000000E+00 -0.23790451008E+03  0.13145569967E+04  0.12928501622E+04 0.  0.
        5    1    3    3  502    0  0.60551562240E+03  0.16707631754E+03  0.36186131034E+02  0.62920202712E+03  0.46999998093E+01 0. -1.
       -5    1    3    3    0  502 -0.60551562240E+03 -0.16707631754E+03 -0.27409064112E+03  0.68535496963E+03  0.46999998093E+01 0.  1.
</event>
<event>
 5   0  0.3259968E-03  0.1312814E+04  0.7818609E-02  0.9019465E-01
        2   -1    0    0  501    0  0.00000000000E+00  0.00000000000E+00  0.14097351640E+04  0.14097351640E+04  0.25500000920E-02 0. -1.
       -2   -1    0    0    0  501  0.00000000000E+00  0.00000000000E+00 -0.30563901742E+03  0.30563901743E+03  0.25500000920E-02 0.  1.
    10030    2    1    2    0    0  0.00000000000E+00  0.00000000000E+00  0.11040961465E+04  0.17153741814E+04  0.13128138792E+04 0.  0.
        4    1    3    3  502    0  0.45233722306E+03 -0.13147118390E+03  0.11493620699E+04  0.12421466967E+04  0.12699999809E+01 0. -1.
       -4    1    3    3    0  502 -0.45233722306E+03  0.13147118390E+03 -0.45265923326E+02  0.47322748470E+03  0.12699999809E+01 0.  1.
</event>
<event>
 5   0  0.1873488E-03  0.1294445E+04  0.7818609E-02  0.9033982E-01
       -1   -1    0    0    0  501  0.00000000000E+00  0.00000000000E+00  0.19476301853E+03  0.19476301859E+03  0.50400001928E-02 0. -1.
        1   -1    0    0  501    0  0.00000000000E+00  0.00000000000E+00 -0.21508022269E+04  0.21508022269E+04  0.50400001928E-02 0.  1.
    10030    2    1    2    0    0  0.00000000000E+00  0.00000000000E+00 -0.19560392084E+04  0.23455652455E+04  0.12944446439E+04 0.  0.
        3    1    3    3  502    0  0.40528143908E+03 -0.16541958974E+03 -0.18418822241E+04  0.18931843078E+04  0.10100000352E+00 0.  1.
       -3    1    3    3    0  502 -0.40528143908E+03  0.16541958974E+03 -0.11415698423E+03  0.45238093769E+03  0.10100000352E+00 0. -1.
</event>
<event>
 5   0  0.3262927E-03  0.1270681E+04  0.7818609E-02  0.9053144E-01
        2   -1    0    0  501    0  0.00000000000E+00  0.00000000000E+00  0.90235386385E+03  0.90235386386E+03  0.25500000920E-02 0. -1.
       -2   -1    0    0    0  501  0.00000000000E+00  0.00000000000E+00 -0.44733837889E+03  0.44733837889E+03  0.25500000920E-02 0.  1.
    10030    2    1    2    0    0  0.00000000000E+00  0.00000000000E+00  0.45501548497E+03  0.13496922427E+04  0.12706809429E+04 0.  0.
        3    1    3    3  502    0 -0.53607920926E+03 -0.30114631121E+03  0.57600443294E+02  0.61756606175E+03  0.10100000352E+00 0.  1.
       -3    1    3    3    0  502  0.53607920926E+03  0.30114631121E+03  0.39741504167E+03  0.73212618100E+03  0.10100000352E+00 0. -1.
</event>
<event>
 5   0  0.3262927E-03  0.1303855E+04  0.7818609E-02  0.9026513E-01
        2   -1    0    0  501    0  0.00000000000E+00  0.00000000000E+00  0.13166441106E+04  0.13166441106E+04  0.25500000920E-02 0. -1.
       -2   -1    0    0    0  501  0.00000000000E+00  0.00000000000E+00 -0.32279771784E+03  0.32279771785E+03  0.25500000920E-02 0.  1.
    10030    2    1    2    0    0  0.00000000000E+00  0.00000000000E+00  0.99384639278E+03  0.16394418285E+04  0.13038553817E+04 0.  0.
        3    1    3    3  502    0 -0.11263708791E+03  0.11516983599E+03  0.12912237586E+04  0.13012340334E+04  0.10100000352E+00 0. -1.
       -3    1    3    3    0  502  0.11263708791E+03 -0.11516983599E+03 -0.29737736586E+03  0.33820779503E+03  0.10100000352E+00 0.  1.
</event>
<event>
 5   0  0.1254125E-03  0.1294248E+04  0.7818609E-02  0.9034139E-01
        4   -1    0    0  501    0  0.00000000000E+00  0.00000000000E+00  0.57913482201E+03  0.57913621452E+03  0.12699999809E+01 0. -1.
       -4   -1    0    0    0  501  0.00000000000E+00  0.00000000000E+00 -0.72309192205E+03  0.72309303732E+03  0.12699999809E+01 0.  1.
    10030    2    1    2    0    0  0.00000000000E+00  0.00000000000E+00 -0.14395710003E+03  0.13022292518E+04  0.12942478038E+04 0.  0.
        4    1    3    3  502    0  0.35676792342E+03 -0.22892329629E+03  0.41999332459E+03  0.59672877622E+03  0.12699999809E+01 0. -1.
       -4    1    3    3    0  502 -0.35676792342E+03  0.22892329629E+03 -0.56395042463E+03  0.70550047562E+03  0.12699999809E+01 0.  1.
</event>
<event>
 5   0  0.3294720E-03  0.1306736E+04  0.7818609E-02  0.9024241E-01
        2   -1    0    0  501    0  0.00000000000E+00  0.00000000000E+00  0.16100937214E+04  0.16100937214E+04  0.25500000920E-02 0. -1.
       -2   -1    0    0    0  501  0.00000000000E+00  0.00000000000E+00 -0.26513330876E+03  0.26513330877E+03  0.25500000920E-02 0.  1.
    10030    2    1    2    0    0  0.00000000000E+00  0.00000000000E+00  0.13449604126E+04  0.18752270301E+04  0.13067355903E+04 0.  0.
        5    1    3    3  502    0  0.47396045561E+03  0.52105708951E+02  0.13134723081E+04  0.13973493166E+04  0.46999998093E+01 0. -1.
       -5    1    3    3    0  502 -0.47396045561E+03 -0.52105708951E+02  0.31488104499E+02  0.47787771355E+03  0.46999998093E+01 0.  1.
</event>
<event>
 5   0  0.1814770E-03  0.1304963E+04  0.7818609E-02  0.9025639E-01
        1   -1    0    0  501    0  0.00000000000E+00  0.00000000000E+00  0.12844896712E+04  0.12844896712E+04  0.50400001928E-02 0.  1.
       -1   -1    0    0    0  501  0.00000000000E+00  0.00000000000E+00 -0.33144076049E+03  0.33144076052E+03  0.50400001928E-02 0. -1.
    10030    2    1    2    0    0  0.00000000000E+00  0.00000000000E+00  0.95304891070E+03  0.16159304317E+04  0.13049631926E+04 0.  0.
        5    1    3    3  502    0 -0.59662529027E+02  0.49820010307E+03  0.99298018275E+03  0.11125622200E+04  0.46999998093E+01 0.  1.
       -5    1    3    3    0  502  0.59662529027E+02 -0.49820010307E+03 -0.39931272051E+02  0.50336821171E+03  0.46999998093E+01 0. -1.
</event>
<event>
 5   0  0.1823154E-03  0.1153702E+04  0.7818609E-02  0.9154375E-01
       -1   -1    0    0    0  501  0.00000000000E+00  0.00000000000E+00  0.49996188184E+03  0.49996188187E+03  0.50400001928E-02 0. -1.
        1   -1    0    0  501    0  0.00000000000E+00  0.00000000000E+00 -0.66556505582E+03  0.66556505583E+03  0.50400001928E-02 0.  1.
    10030    2    1    2    0    0  0.00000000000E+00  0.00000000000E+00 -0.16560317398E+03  0.11655269377E+04  0.11537021415E+04 0.  0.
        2    1    3    3  502    0 -0.35296624101E+03  0.43983014000E+03  0.39773931969E+02  0.56534740206E+03  0.25500000920E-02 0. -1.
       -2    1    3    3    0  502  0.35296624101E+03 -0.43983014000E+03 -0.20537710594E+03  0.60017953564E+03  0.25500000920E-02 0.  1.
</event>
<event>
 5   0  0.3294720E-03  0.1283537E+04  0.7818609E-02  0.9042723E-01
        2   -1    0    0  501    0  0.00000000000E+00  0.00000000000E+00  0.19413268145E+04  0.19413268145E+04  0.25500000920E-02 0. -1.
       -2   -1    0    0    0  501  0.00000000000E+00  0.00000000000E+00 -0.21215733959E+03  0.21215733960E+03  0.25500000920E-02 0.  1.
    10030    2    1    2    0    0  0.00000000000E+00  0.00000000000E+00  0.17291694749E+04  0.21534841541E+04  0.12835368826E+04 0.  0.
        5    1    3    3  502    0 -0.27504839733E+03 -0.45837230572E+03  0.14603428277E+04  0.15551141617E+04  0.46999998093E+01 0. -1.
       -5    1    3    3    0  502  0.27504839733E+03  0.45837230572E+03  0.26882664718E+03  0.59836999237E+03  0.46999998093E+01 0.  1.
</event>
<event>
 5   0  0.3336609E-03  0.1582226E+04  0.7818609E-02  0.8831542E-01
       -2   -1    0    0    0  501  0.00000000000E+00  0.00000000000E+00  0.87563676199E+03  0.87563676200E+03  0.25500000920E-02 0.  1.
        2   -1    0    0  501    0  0.00000000000E+00  0.00000000000E+00 -0.71474789628E+03  0.71474789628E+03  0.25500000920E-02 0. -1.
    10030    2    1    2    0    0  0.00000000000E+00  0.00000000000E+00  0.16088886571E+03  0.15903846583E+04  0.15822256900E+04 0.  0.
        1    1    3    3  502    0 -0.69215742846E+03  0.36914287487E+03 -0.22608222516E+02  0.78476716266E+03  0.50400001928E-02 0. -1.
       -1    1    3    3    0  502  0.69215742846E+03 -0.36914287487E+03  0.18349708823E+03  0.80561749562E+03  0.50400001928E-02 0.  1.
</event>
<event>
 5   0  0.1823154E-03  0.1294906E+04  0.7818609E-02  0.9033615E-01
       -1   -1    0    0    0  501  0.00000000000E+00  0.00000000000E+00  0.45497423991E+03  0.45497423994E+03  0.50400001928E-02 0.  1.
        1   -1    0    0  501    0  0.00000000000E+00  0.00000000000E+00 -0.92136068947E+03  0.92136068949E+03  0.50400001928E-02 0. -1.
    10030    2    1    2    0    0  0.00000000000E+00  0.00000000000E+00 -0.46638644956E+03  0.13763349294E+04  0.12949059879E+04 0.  0.
        2    1    3    3  502    0 -0.58129167180E+03 -0.31423448490E+02 -0.53440027412E+03  0.79023483460E+03  0.25500000920E-02 0.  1.
       -2    1    3    3    0  502  0.58129167180E+03  0.31423448490E+02  0.68013824561E+02  0.58610009483E+03  0.25500000920E-02 0. -1.
</event>
<event>
 5   0  0.3336609E-03  0.1324980E+04  0.7818609E-02  0.9009987E-01
        2   -1    0    0  501    0  0.00000000000E+00  0.00000000000E+00  0.15098144009E+04  0.15098144009E+04  0.25500000920E-02 0.  1.
       -2   -1    0    0    0  501  0.00000000000E+00  0.00000000000E+00 -0.29069323116E+03  0.29069323117E+03  0.25500000920E-02 0. -1.
    10030    2    1    2    0    0  0.00000000000E+00  0.00000000000E+00  0.12191211697E+04  0.18005076321E+04  0.13249797382E+04 0.  0.
        1    1    3    3  502    0 -0.52125996684E+03 -0.31314345623E+03  0.96682851402E+03  0.11421594253E+04  0.50400001928E-02 0.  1.
       -1    1    3    3    0  502  0.52125996684E+03  0.31314345623E+03  0.25229265571E+03  0.65834820677E+03  0.50400001928E-02 0. -1.
</event>
<event>
 5   0  0.1803959E-03  0.1296213E+04  0.7818609E-02  0.9032574E-01
       -1   -1    0    0    0  501  0.00000000000E+00  0.00000000000E+00  0.41162157124E+03  0.41162157127E+03  0.50400001928E-02 0. -1.
        1   -1    0    0  501    0  0.00000000000E+00  0.00000000000E+00 -0.10204566481E+04  0.10204566481E+04  0.50400001928E-02 0.  1.
    10030    2    1    2    0    0  0.00000000000E+00  0.00000000000E+00 -0.60883507682E+03  0.14320782193E+04  0.12962128975E+04 0.  0.
        4    1    3    3  502    0 -0.29057058738E+03  0.20953656577E+03 -0.90112467781E+03  0.96972374236E+03  0.12699999809E+01 0. -1.
       -4    1    3    3    0  502  0.29057058738E+03 -0.20953656577E+03  0.29228960099E+03  0.46235447699E+03  0.12699999809E+01 0.  1.
</event>
<event>
 5   0  0.3262927E-03  0.1302686E+04  0.7818609E-02  0.9027438E-01
       -2   -1    0    0    0  501  0.00000000000E+00  0.00000000000E+00  0.89959011189E+03  0.89959011189E+03  0.25500000920E-02 0. -1.
        2   -1    0    0  501    0  0.00000000000E+00  0.00000000000E+00 -0.47160097403E+03  0.47160097403E+03  0.25500000920E-02 0.  1.
    10030    2    1    2    0    0  0.00000000000E+00  0.00000000000E+00  0.42798913786E+03  0.13711910859E+04  0.13026857994E+04 0.  0.
        3    1    3    3  502    0 -0.64732097518E+03  0.72254415814E+02  0.21235804585E+03  0.68508473589E+03  0.10100000352E+00 0. -1.
       -3    1    3    3    0  502  0.64732097518E+03 -0.72254415814E+02  0.21563109201E+03  0.68610635003E+03  0.10100000352E+00 0.  1.
</event>
<event>
 5   0  0.1803959E-03  0.1264085E+04  0.7818609E-02  0.9058541E-01
        1   -1    0    0  501    0  0.00000000000E+00  0.00000000000E+00  0.50621860036E+03  0.50621860038E+03  0.50400001928E-02 0.  1.
       -1   -1    0    0    0  501  0.00000000000E+00  0.00000000000E+00 -0.78914116894E+03  0.78914116896E+03  0.50400001928E-02 0. -1.
    10030    2    1    2    0    0  0.00000000000E+00  0.00000000000E+00 -0.28292256858E+03  0.12953597693E+04  0.12640853421E+04 0.  0.
        4    1    3    3  502    0 -0.38796999425E+03  0.47188599185E+03  0.24658072106E+02  0.61139736601E+03  0.12699999809E+01 0. -1.
       -4    1    3    3    0  502  0.38796999425E+03 -0.47188599185E+03 -0.30758064069E+03  0.68396240333E+03  0.12699999809E+01 0.  1.
</event>
<event>
 5   0  0.3262927E-03  0.1337079E+04  0.7818609E-02  0.9000667E-01
        2   -1    0    0  501    0  0.00000000000E+00  0.00000000000E+00  0.11923474048E+04  0.11923474048E+04  0.25500000920E-02 0.  1.
       -2   -1    0    0    0  501  0.00000000000E+00  0.00000000000E+00 -0.37484456229E+03  0.37484456230E+03  0.25500000920E-02 0. -1.
    10030    2    1    2    0    0  0.00000000000E+00  0.00000000000E+00  0.81750284249E+03  0.15671919671E+04  0.13370788175E+04 0.  0.
        3    1    3    3  502    0  0.65065474240E+02 -0.57798680118E+03  0.22415216957E+02  0.58206933473E+03  0.10100000352E+00 0. -1.
       -3    1    3    3    0  502 -0.65065474240E+02  0.57798680118E+03  0.79508762554E+03  0.98512263235E+03  0.10100000352E+00 0.  1.
</event>
<event>
 5   0  0.3259968E-03  0.1260748E+04  0.7818609E-02  0.9061285E-01
        2   -1    0    0  501    0  0.00000000000E+00  0.00000000000E+00  0.12102430669E+04  0.12102430669E+04  0.25500000920E-02 0. -1.
       -2   -1    0    0    0  501  0.00000000000E+00  0.00000000000E+00 -0.32834030998E+03  0.32834030999E+03  0.25500000920E-02 0.  1.
    10030    2    1    2    0    0  0.00000000000E+00  0.00000000000E+00  0.88190275693E+03  0.15385833769E+04  0.12607483234E+04 0.  0.
        4    1    3    3  502    0 -0.27526440092E+03 -0.56176723319E+03  0.34628741826E+03  0.71503112076E+03  0.12699999809E+01 0.  1.
       -4    1    3    3    0  502  0.27526440092E+03  0.56176723319E+03  0.53561533867E+03  0.82355225615E+03  0.12699999809E+01 0. -1.
</event>
<event>
 5   0  0.3299104E-03  0.1281924E+04  0.7818609E-02  0.9044024E-01
        2   -1    0    0  501    0  0.00000000000E+00  0.00000000000E+00  0.17693828179E+04  0.17693828179E+04  0.25500000920E-02 0.  1.
       -2   -1    0    0    0  501  0.00000000000E+00  0.00000000000E+00 -0.23218943335E+03  0.23218943336E+03  0.25500000920E-02 0. -1.
    10030    2    1    2    0    0  0.00000000000E+00  0.00000000000E+00  0.15371933845E+04  0.20015722512E+04  0.12819235451E+04 0.  0.
        2    1    3    3  502    0 -0.47087322522E+02  0.17091666603E+03  0.17303398615E+04  0.17393981025E+04  0.25500000920E-02 0.  1.
       -2    1    3    3    0  502  0.47087322522E+02 -0.17091666603E+03 -0.19314647700E+03  0.26217414871E+03  0.25500000920E-02 0. -1.
</event>
<event>
 5   0  0.3299104E-03  0.1222167E+04  0.7818609E-02  0.9093672E-01
       -2   -1    0    0    0  501  0.00000000000E+00  0.00000000000E+00  0.36973766078E+03  0.36973766079E+03  0.25500000920E-02 0.  1.
        2   -1    0    0  501    0  0.00000000000E+00  0.00000000000E+00 -0.10099668098E+04  0.10099668098E+04  0.25500000920E-02 0. -1.
    10030    2    1    2    0    0  0.00000000000E+00  0.00000000000E+00 -0.64022914902E+03  0.13797044706E+04  0.12221665447E+04 0.  0.
        2    1    3    3  502    0 -0.85717964979E+02  0.89418446647E+02 -0.99564580590E+03  0.10033213837E+04  0.25500000920E-02 0. -1.
       -2    1    3    3    0  502  0.85717964979E+02 -0.89418446647E+02  0.35541665688E+03  0.37638308692E+03  0.25500000920E-02 0.  1.
</event>
<event>
 5   0  0.1823154E-03  0.1258356E+04  0.7818609E-02  0.9063257E-01
        1   -1    0    0  501    0  0.00000000000E+00  0.00000000000E+00  0.85613203749E+03  0.85613203751E+03  0.50400001928E-02 0. -1.
       -1   -1    0    0    0  501  0.00000000000E+00  0.00000000000E+00 -0.46238747700E+03  0.46238747703E+03  0.50400001928E-02 0.  1.
    10030    2    1    2    0    0  0.00000000000E+00  0.00000000000E+00  0.39374456049E+03  0.13185195145E+04  0.12583556458E+04 0.  0.
        2    1    3    3  502    0  0.27584769116E+03 -0.53553091109E+03  0.65872098710E+01  0.60243563705E+03  0.25500000920E-02 0.  1.
       -2    1    3    3    0  502 -0.27584769116E+03  0.53553091109E+03  0.38715735062E+03  0.71608387749E+03  0.25500000920E-02 0. -1.
</event>
<event>
 5   0  0.3299104E-03  0.1264423E+04  0.7818609E-02  0.9058264E-01
       -2   -1    0    0    0  501  0.00000000000E+00  0.00000000000E+00  0.43555433946E+03  0.43555433946E+03  0.25500000920E-02 0.  1.
        2   -1    0    0  501    0  0.00000000000E+00  0.00000000000E+00 -0.91766150113E+03  0.91766150113E+03  0.25500000920E-02 0. -1.
    10030    2    1    2    0    0  0.00000000000E+00  0.00000000000E+00 -0.48210716167E+03  0.13532158406E+04  0.12644231079E+04 0.  0.
        2    1    3    3  502    0  0.56958567926E+03  0.27434136651E+03 -0.24174515584E+03  0.67685430617E+03  0.25500000920E-02 0.  1.
       -2    1    3    3    0  502 -0.56958567926E+03 -0.27434136651E+03 -0.24036200584E+03  0.67636153443E+03  0.25500000920E-02 0. -1.
</event>
<event>
 5   0  0.3294720E-03  0.1291771E+04  0.7818609E-02  0.9036116E-01
        2   -1    0    0  501    0  0.00000000000E+00  0.00000000000E+00  0.32889468588E+03  0.32889468589E+03  0.25500000920E-02 0. -1.
       -2   -1    0    0    0  501  0.00000000000E+00  0.00000000000E+00 -0.12683941061E+04  0.12683941061E+04  0.25500000920E-02 0.  1.
    10030    2    1    2    0    0  0.00000000000E+00  0.00000000000E+00 -0.93949942021E+03  0.15972887920E+04  0.12917710031E+04 0.  0.
        5    1    3    3  502    0  0.37803522037E+03 -0.24627503171E+03 -0.10412049801E+04  0.11347651385E+04  0.46999998093E+01 0.  1.
       -5    1    3    3    0  502 -0.37803522037E+03  0.24627503171E+03  0.10170555988E+03  0.46252365344E+03  0.46999998093E+01 0. -1.
</event>
<event>
 5   0  0.3294720E-03  0.1366220E+04  0.7818609E-02  0.8978640E-01
        2   -1    0    0  501    0  0.00000000000E+00  0.00000000000E+00  0.92080646981E+03  0.92080646981E+03  0.25500000920E-02 0. -1.
       -2   -1    0    0    0  501  0.00000000000E+00  0.00000000000E+00 -0.50677240228E+03  0.50677240229E+03  0.25500000920E-02 0.  1.
    10030    2    1    2    0    0  0.00000000000E+00  0.00000000000E+00  0.41403406753E+03  0.14275788721E+04  0.13662200507E+04 0.  0.
        5    1    3    3  502    0 -0.19457143132E+02 -0.23542185132E+03 -0.46271751487E+03  0.51954943660E+03  0.46999998093E+01 0.  1.
       -5    1    3    3    0  502  0.19457143132E+02  0.23542185132E+03  0.87675158240E+03  0.90802943550E+03  0.46999998093E+01 0. -1.
</event>
<event>
 5   0  0.3262927E-03  0.1302632E+04  0.7818609E-02  0.9027480E-01
        2   -1    0    0  501    0  0.00000000000E+00  0.00000000000E+00  0.14222539542E+04  0.14222539542E+04  0.25500000920E-02 0.  1.
       -2   -1    0    0    0  501  0.00000000000E+00  0.00000000000E+00 -0.29826799130E+03  0.29826799131E+03  0.25500000920E-02 0. -1.
    10030    2    1    2    0    0  0.00000000000E+00  0.00000000000E+00  0.11239859629E+04  0.17205219455E+04  0.13026324578E+04 0.  0.
        3    1    3    3  502    0  0.61081803763E+03  0.21832644752E+03  0.48443910663E+03  0.80959642477E+03  0.10100000352E+00 0.  1.
       -3    1    3    3    0  502 -0.61081803763E+03 -0.21832644752E+03  0.63954685631E+03  0.91092552077E+03  0.10100000352E+00 0. -1.
</event>
<event>
 5   0  0.1814770E-03  0.1283370E+04  0.7818609E-02  0.9042858E-01
        1   -1    0    0  501    0  0.00000000000E+00  0.00000000000E+00  0.23545596184E+04  0.23545596184E+04  0.50400001928E-02 0.  1.
       -1   -1    0    0    0  501  0.00000000000E+00  0.00000000000E+00 -0.17487744001E+03  0.17487744009E+03  0.50400001928E-02 0. -1.
    10030    2    1    2    0    0  0.00000000000E+00  0.00000000000E+00  0.21796821784E+04  0.25294370585E+04  0.12833695626E+04 0.  0.
        5    1    3    3  502    0 -0.16319582091E+02 -0.36689836197E+03  0.21268906911E+04  0.21583713394E+04  0.46999998093E+01 0.  1.
       -5    1    3    3    0  502  0.16319582091E+02  0.36689836197E+03  0.52791487287E+02  0.37106571911E+03  0.46999998093E+01 0. -1.
</event>
<event>
 5   0  0.1857986E-03  0.1319092E+04  0.7818609E-02  0.9014561E-01
        1   -1    0    0  501    0  0.00000000000E+00  0.00000000000E+00  0.61043566784E+03  0.61043566786E+03  0.50400001928E-02 0.  1.
       -1   -1    0    0    0  501  0.00000000000E+00  0.00000000000E+00 -0.71260714155E+03  0.71260714157E+03  0.50400001928E-02 0. -1.
    10030    2    1    2    0    0  0.00000000000E+00  0.00000000000E+00 -0.10217147371E+03  0.13230428094E+04  0.13190918336E+04 0.  0.
        1    1    3    3  502    0  0.58296559270E+03  0.20847543092E+03 -0.27912090600E+03  0.67913133323E+03  0.50400001928E-02 0. -1.
       -1    1    3    3    0  502 -0.58296559270E+03 -0.20847543092E+03  0.17694943229E+03  0.64391147621E+03  0.50400001928E-02 0.  1.
</event>
<event>
 5   0  0.3262927E-03  0.8646833E+03  0.7818609E-02  0.9470839E-01
        2   -1    0    0  501    0  0.00000000000E+00  0.00000000000E+00  0.41664152736E+03  0.41664152736E+03  0.25500000920E-02 0. -1.
       -2   -1    0    0    0  501  0.00000000000E+00  0.00000000000E+00 -0.44863343603E+03  0.44863343604E+03  0.25500000920E-02 0.  1.
    10030    2    1    2    0    0  0.00000000000E+00  0.00000000000E+00 -0.31991908676E+02  0.86527496340E+03  0.86468334093E+03 0.  0.
        3    1    3    3  502    0  0.20881095182E+03 -0.31203752577E+03 -0.23050184868E+03  0.44056843229E+03  0.10100000352E+00 0.  1.
       -3    1    3    3    0  502 -0.20881095182E+03  0.31203752577E+03  0.19850994000E+03  0.42470653111E+03  0.10100000352E+00 0. -1.
</event>
<event>
 5   0  0.1254125E-03  0.1349643E+04  0.7818609E-02  0.8991099E-01
        4   -1    0    0  501    0  0.00000000000E+00  0.00000000000E+00  0.35939021884E+03  0.35939246277E+03  0.12699999809E+01 0.  1.
       -4   -1    0    0    0  501  0.00000000000E+00  0.00000000000E+00 -0.12670948960E+04  0.12670955324E+04  0.12699999809E+01 0. -1.
    10030    2    1    2    0    0  0.00000000000E+00  0.00000000000E+00 -0.90770467712E+03  0.16264879952E+04  0.13496427000E+04 0.  0.
        5    1    3    3  502    0  0.55364305484E+03 -0.18379275887E+03 -0.86263907145E+03  0.10413782540E+04  0.46999998093E+01 0. -1.
       -5    1    3    3    0  502 -0.55364305484E+03  0.18379275887E+03 -0.45065605668E+02  0.58510974115E+03  0.46999998093E+01 0.  1.
</event>
<event>
 5   0  0.3259968E-03  0.1310118E+04  0.7818609E-02  0.9021580E-01
       -2   -1    0    0    0  501  0.00000000000E+00  0.00000000000E+00  0.25886360689E+03  0.25886360691E+03  0.25500000920E-02 0.  1.
        2   -1    0    0  501    0  0.00000000000E+00  0.00000000000E+00 -0.16576393748E+04  0.16576393748E+04  0.25500000920E-02 0. -1.
    10030    2    1    2    0    0  0.00000000000E+00  0.00000000000E+00 -0.13987757679E+04  0.19165029817E+04  0.13101183267E+04 0.  0.
        4    1    3    3  502    0 -0.25634225482E+03  0.42821711098E+03 -0.78720487547E+02  0.50525218832E+03  0.12699999809E+01 0.  1.
       -4    1    3    3    0  502  0.25634225482E+03 -0.42821711098E+03 -0.13200552804E+04  0.14112507934E+04  0.12699999809E+01 0. -1.
</event>
<event>
 5   0  0.1254125E-03  0.9189526E+03  0.7818609E-02  0.9402195E-01
        3   -1    0    0  501    0  0.00000000000E+00  0.00000000000E+00  0.38546959293E+03  0.38546960616E+03  0.10100000352E+00 0.  1.
       -3   -1    0    0    0  501  0.00000000000E+00  0.00000000000E+00 -0.54769155448E+03  0.54769156379E+03  0.10100000352E+00 0. -1.
    10030    2    1    2    0    0  0.00000000000E+00  0.00000000000E+00 -0.16222196155E+03  0.93316116996E+03  0.91895255825E+03 0.  0.
        3    1    3    3  502    0 -0.14785438943E+03  0.33370302356E+03  0.20230985469E+03  0.41731033526E+03  0.10100000352E+00 0.  1.
       -3    1    3    3    0  502  0.14785438943E+03 -0.33370302356E+03 -0.36453181624E+03  0.51585083470E+03  0.10100000352E+00 0. -1.
</event>
<event>
 5   0  0.1803959E-03  0.1300458E+04  0.7818609E-02  0.9029202E-01
       -1   -1    0    0    0  501  0.00000000000E+00  0.00000000000E+00  0.28024941844E+03  0.28024941848E+03  0.50400001928E-02 0.  1.
        1   -1    0    0  501    0  0.00000000000E+00  0.00000000000E+00 -0.15086488330E+04  0.15086488330E+04  0.50400001928E-02 0. -1.
    10030    2    1    2    0    0  0.00000000000E+00  0.00000000000E+00 -0.12283994145E+04  0.17888982515E+04  0.13004583163E+04 0.  0.
        4    1    3    3  502    0 -0.40684423792E+03 -0.20637112881E+03 -0.12515675135E+04  0.13321164103E+04  0.12699999809E+01 0. -1.
       -4    1    3    3    0  502  0.40684423792E+03  0.20637112881E+03  0.23168098973E+02  0.45678184120E+03  0.12699999809E+01 0.  1.
</event>
<event>
 5   0  0.3259968E-03  0.1251404E+04  0.7818609E-02  0.9069015E-01
       -2   -1    0    0    0  501  0.00000000000E+00  0.00000000000E+00  0.30125375091E+03  0.30125375092E+03  0.25500000920E-02 0.  1.
        2   -1    0    0  501    0  0.00000000000E+00  0.00000000000E+00 -0.12995790903E+04  0.12995790903E+04  0.25500000920E-02 0. -1.
    10030    2    1    2    0    0  0.00000000000E+00  0.00000000000E+00 -0.99832533939E+03  0.16008328412E+04  0.12514041323E+04 0.  0.
        4    1    3    3  502    0  0.42142605145E+02  0.38137808863E+03  0.13308755653E+03  0.40612701986E+03  0.12699999809E+01 0.  1.
       -4    1    3    3    0  502 -0.42142605145E+02 -0.38137808863E+03 -0.11314128959E+04  0.11947058214E+04  0.12699999809E+01 0. -1.
</event>
<event>
 5   0  0.3336609E-03  0.1264010E+04  0.7818609E-02  0.9058603E-01
        2   -1    0    0  501    0  0.00000000000E+00  0.00000000000E+00  0.96439869391E+03  0.96439869391E+03  0.25500000920E-02 0.  1.
       -2   -1    0    0    0  501  0.00000000000E+00  0.00000000000E+00 -0.41417541526E+03  0.41417541527E+03  0.25500000920E-02 0. -1.
    10030    2    1    2    0    0  0.00000000000E+00  0.00000000000E+00  0.55022327865E+03  0.13785741092E+04  0.12640098568E+04 0.  0.
        1    1    3    3  502    0  0.34330108160E+03  0.25927607823E+03 -0.22983085370E+03  0.48775192333E+03  0.50400001928E-02 0. -1.
       -1    1    3    3    0  502 -0.34330108160E+03 -0.25927607823E+03  0.78005413235E+03  0.89082218585E+03  0.50400001928E-02 0.  1.
</event>
<event>
 5   0  0.3299104E-03  0.1309849E+04  0.7818609E-02  0.9021791E-01
        2   -1    0    0  501    0  0.00000000000E+00  0.00000000000E+00  0.61568953596E+03  0.61568953596E+03  0.25500000920E-02 0. -1.
       -2   -1    0    0    0  501  0.00000000000E+00  0.00000000000E+00 -0.69666021000E+03  0.69666021000E+03  0.25500000920E-02 0.  1.
    10030    2    1    2    0    0  0.00000000000E+00  0.00000000000E+00 -0.80970674039E+02  0.13123497460E+04  0.13098494592E+04 0.  0.
        2    1    3    3  502    0  0.45955046162E+03 -0.13713445826E+02  0.42682938508E+03  0.62734201943E+03  0.25500000920E-02 0. -1.
       -2    1    3    3    0  502 -0.45955046162E+03  0.13713445826E+02 -0.50780005911E+03  0.68500772653E+03  0.25500000920E-02 0.  1.
</event>
<event>
 5   0  0.1873488E-03  0.1222379E+04  0.7818609E-02  0.9093490E-01
        1   -1    0    0  501    0  0.00000000000E+00  0.00000000000E+00  0.13760166023E+04  0.13760166023E+04  0.50400001928E-02 0. -1.
       -1   -1    0    0    0  501  0.00000000000E+00  0.00000000000E+00 -0.27147407235E+03  0.27147407239E+03  0.50400001928E-02 0.  1.
    10030    2    1    2    0    0  0.00000000000E+00  0.00000000000E+00  0.11045425300E+04  0.16474906747E+04  0.12223793694E+04 0.  0.
        3    1    3    3  502    0  0.14646705772E+03  0.15158063901E+03 -0.22093688064E+03  0.30535619291E+03  0.10100000352E+00 0.  1.
       -3    1    3    3    0  502 -0.14646705772E+03 -0.15158063901E+03  0.13254794106E+04  0.13421344818E+04  0.10100000352E+00 0. -1.
</event>
<event>
 5   0  0.1254125E-03  0.1279456E+04  0.7818609E-02  0.9046017E-01
        3   -1    0    0  501    0  0.00000000000E+00  0.00000000000E+00  0.72242604267E+03  0.72242604973E+03  0.10100000352E+00 0.  1.
       -3   -1    0    0    0  501  0.00000000000E+00  0.00000000000E+00 -0.56649692270E+03  0.56649693170E+03  0.10100000352E+00 0. -1.
    10030    2    1    2    0    0  0.00000000000E+00  0.00000000000E+00  0.15592911997E+03  0.12889229814E+04  0.12794563539E+04 0.  0.
        1    1    3    3  502    0 -0.21036620232E+03 -0.19099695824E+03  0.65537059263E+03  0.71431393018E+03  0.50400001928E-02 0.  1.
       -1    1    3    3    0  502  0.21036620232E+03  0.19099695824E+03 -0.49944147266E+03  0.57460905125E+03  0.50400001928E-02 0. -1.
</event>
<event>
 5   0  0.1857986E-03  0.1309542E+04  0.7818609E-02  0.9022032E-01
        1   -1    0    0  501    0  0.00000000000E+00  0.00000000000E+00  0.65322185350E+03  0.65322185352E+03  0.50400001928E-02 0.  1.
       -1   -1    0    0    0  501  0.00000000000E+00  0.00000000000E+00 -0.65632400726E+03  0.65632400728E+03  0.50400001928E-02 0. -1.
    10030    2    1    2    0    0  0.00000000000E+00  0.00000000000E+00 -0.31021537534E+01  0.13095458608E+04  0.13095421865E+04 0.  0.
        1    1    3    3  502    0 -0.16949079459E+03 -0.53257656952E+02  0.62865833733E+03  0.65328004148E+03  0.50400001928E-02 0.  1.
       -1    1    3    3    0  502  0.16949079459E+03  0.53257656952E+02 -0.63176049109E+03  0.65626581931E+03  0.50400001928E-02 0. -1.
</event>
<event>
 5   0  0.1823154E-03  0.1321209E+04  0.7818609E-02  0.9012914E-01
        1   -1    0    0  501    0  0.00000000000E+00  0.00000000000E+00  0.69872626168E+03  0.69872626169E+03  0.50400001928E-02 0. -1.
       -1   -1    0    0    0  501  0.00000000000E+00  0.00000000000E+00 -0.62456225530E+03  0.62456225532E+03  0.50400001928E-02 0.  1.
    10030    2    1    2    0    0  0.00000000000E+00  0.00000000000E+00  0.74164006372E+02  0.13232885170E+04  0.13212086131E+04 0.  0.
        2    1    3    3  502    0  0.61394065150E+03  0.24243384353E+03  0.10568499726E+02  0.66015830317E+03  0.25500000920E-02 0.  1.
       -2    1    3    3    0  502 -0.61394065150E+03 -0.24243384353E+03  0.63595506646E+02  0.66313021385E+03  0.25500000920E-02 0. -1.
</event>
<event>
 5   0  0.3299104E-03  0.1316727E+04  0.7818609E-02  0.9016404E-01
        2   -1    0    0  501    0  0.00000000000E+00  0.00000000000E+00  0.22040914083E+04  0.22040914083E+04  0.25500000920E-02 0. -1.
       -2   -1    0    0    0  501  0.00000000000E+00  0.00000000000E+00 -0.19665369102E+03  0.19665369104E+03  0.25500000920E-02 0.  1.
    10030    2    1    2    0    0  0.00000000000E+00  0.00000000000E+00  0.20074377173E+04  0.24007450993E+04  0.13167273230E+04 0.  0.
        2    1    3    3  502    0  0.25543187262E+03  0.19245220096E+03 -0.45506454915E+02  0.32303889650E+03  0.25500000920E-02 0.  1.
       -2    1    3    3    0  502 -0.25543187262E+03 -0.19245220096E+03  0.20529441722E+04  0.20777062028E+04  0.25500000920E-02 0. -1.
</event>
<event>
 5   0  0.3294720E-03  0.1283517E+04  0.7818609E-02  0.9042739E-01
        2   -1    0    0  501    0  0.00000000000E+00  0.00000000000E+00  0.19381947272E+04  0.19381947272E+04  0.25500000920E-02 0.  1.
       -2   -1    0    0    0  501  0.00000000000E+00  0.00000000000E+00 -0.21249356789E+03  0.21249356791E+03  0.25500000920E-02 0. -1.
    10030    2    1    2    0    0  0.00000000000E+00  0.00000000000E+00  0.17257011593E+04  0.21506882951E+04  0.12835169074E+04 0.  0.
        5    1    3    3  502    0  0.43416331696E+03  0.48390076351E+02  0.16505573600E+04  0.17073959922E+04  0.46999998093E+01 0.  1.
       -5    1    3    3    0  502 -0.43416331696E+03 -0.48390076351E+02  0.75143799269E+02  0.44329230295E+03  0.46999998093E+01 0. -1.
</event>
<event>
 5   0  0.1857986E-03  0.1300867E+04  0.7818609E-02  0.9028878E-01
        1   -1    0    0  501    0  0.00000000000E+00  0.00000000000E+00  0.58604382493E+03  0.58604382495E+03  0.50400001928E-02 0. -1.
       -1   -1    0    0    0  501  0.00000000000E+00  0.00000000000E+00 -0.72189734088E+03  0.72189734090E+03  0.50400001928E-02 0.  1.
    10030    2    1    2    0    0  0.00000000000E+00  0.00000000000E+00 -0.13585351595E+03  0.13079411659E+04  0.13008666017E+04 0.  0.
        1    1    3    3  502    0  0.28865125837E+03  0.51257393101E+03 -0.34694612587E+03  0.68295182699E+03  0.50400001928E-02 0.  1.
       -1    1    3    3    0  502 -0.28865125837E+03 -0.51257393101E+03  0.21109260992E+03  0.62498933887E+03  0.50400001928E-02 0. -1.
</event>
<event>
 5   0  0.3336609E-03  0.1279960E+04  0.7818609E-02  0.9045610E-01
        2   -1    0    0  501    0  0.00000000000E+00  0.00000000000E+00  0.11189407560E+04  0.11189407560E+04  0.25500000920E-02 0. -1.
       -2   -1    0    0    0  501  0.00000000000E+00  0.00000000000E+00 -0.36603735746E+03  0.36603735747E+03  0.25500000920E-02 0.  1.
    10030    2    1    2    0    0  0.00000000000E+00  0.00000000000E+00  0.75290339858E+03  0.14849781135E+04  0.12799595580E+04 0.  0.
        1    1    3    3  502    0  0.37383428067E+03  0.94072780316E+02 -0.21622937799E+03  0.44199196976E+03  0.50400001928E-02 0.  1.
       -1    1    3    3    0  502 -0.37383428067E+03 -0.94072780316E+02  0.96913277658E+03  0.10429861438E+04  0.50400001928E-02 0. -1.
</event>
<event>
 5   0  0.1857986E-03  0.1397096E+04  0.7818609E-02  0.8955923E-01
       -1   -1    0    0    0  501  0.00000000000E+00  0.00000000000E+00  0.31338230105E+03  0.31338230109E+03  0.50400001928E-02 0. -1.
        1   -1    0    0  501    0  0.00000000000E+00  0.00000000000E+00 -0.15571065318E+04  0.15571065318E+04  0.50400001928E-02 0.  1.
    10030    2    1    2    0    0  0.00000000000E+00  0.00000000000E+00 -0.12437242307E+04  0.18704888329E+04  0.13970964576E+04 0.  0.
        1    1    3    3  502    0  0.28561899746E+03  0.49275968722E+03 -0.80369036440E+02  0.57519518696E+03  0.50400001928E-02 0. -1.
       -1    1    3    3    0  502 -0.28561899746E+03 -0.49275968722E+03 -0.11633551943E+04  0.12952936459E+04  0.50400001928E-02 0.  1.
</event>
<event>
 5   0  0.3294720E-03  0.1311422E+04  0.7818609E-02  0.9020556E-01
        2   -1    0    0  501    0  0.00000000000E+00  0.00000000000E+00  0.10641946343E+04  0.10641946343E+04  0.25500000920E-02 0. -1.
       -2   -1    0    0    0  501  0.00000000000E+00  0.00000000000E+00 -0.40402084086E+03  0.40402084087E+03  0.25500000920E-02 0.  1.
    10030    2    1    2    0    0  0.00000000000E+00  0.00000000000E+00  0.66017379342E+03  0.14682154751E+04  0.13114218406E+04 0.  0.
        5    1    3    3  502    0  0.93109855296E+02  0.27400712620E+03 -0.32863445475E+03  0.43791785212E+03  0.46999998093E+01 0.  1.
       -5    1    3    3    0  502 -0.93109855296E+02 -0.27400712620E+03  0.98880824817E+03  0.10302976230E+04  0.46999998093E+01 0. -1.
</event>
<event>
 5   0  0.3336609E-03  0.1102903E+04  0.7818609E-02  0.9202367E-01
       -2   -1    0    0    0  501  0.00000000000E+00  0.00000000000E+00  0.71577670840E+03  0.71577670841E+03  0.25500000920E-02 0.  1.
        2   -1    0    0  501    0  0.00000000000E+00  0.00000000000E+00 -0.42485132996E+03  0.42485132996E+03  0.25500000920E-02 0. -1.
    10030    2    1    2    0    0  0.00000000000E+00  0.00000000000E+00  0.29092537844E+03  0.11406280384E+04  0.11029028725E+04 0.  0.
        1    1    3    3  502    0 -0.25361374159E+03 -0.34916237458E+03  0.50051969530E+03  0.66087386024E+03  0.50400001928E-02 0.  1.
       -1    1    3    3    0  502  0.25361374159E+03  0.34916237458E+03 -0.20959431685E+03  0.47975417813E+03  0.50400001928E-02 0. -1.
</event>
<event>
 5   0  0.3294720E-03  0.1301795E+04  0.7818609E-02  0.9028143E-01
       -2   -1    0    0    0  501  0.00000000000E+00  0.00000000000E+00  0.51064095522E+03  0.51064095523E+03  0.25500000920E-02 0.  1.
        2   -1    0    0  501    0  0.00000000000E+00  0.00000000000E+00 -0.82967837772E+03  0.82967837773E+03  0.25500000920E-02 0. -1.
    10030    2    1    2    0    0  0.00000000000E+00  0.00000000000E+00 -0.31903742250E+03  0.13403193330E+04  0.13017953131E+04 0.  0.
        5    1    3    3  502    0 -0.32156879701E+03  0.55448881313E+03 -0.27591889725E+03  0.69786650798E+03  0.46999998093E+01 0. -1.
       -5    1    3    3    0  502  0.32156879701E+03 -0.55448881313E+03 -0.43118525249E+02  0.64245282497E+03  0.46999998093E+01 0.  1.
</event>
<event>
 5   0  0.3294720E-03  0.1303143E+04  0.7818609E-02  0.9027077E-01
       -2   -1    0    0    0  501  0.00000000000E+00  0.00000000000E+00  0.34869283958E+03  0.34869283959E+03  0.25500000920E-02 0.  1.
        2   -1    0    0  501    0  0.00000000000E+00  0.00000000000E+00 -0.12175336087E+04  0.12175336087E+04  0.25500000920E-02 0. -1.
    10030    2    1    2    0    0  0.00000000000E+00  0.00000000000E+00 -0.86884076909E+03  0.15662264483E+04  0.13031427417E+04 0.  0.
        5    1    3    3  502    0 -0.46452076777E+02  0.18090813586E+03 -0.11846479213E+04  0.11992907639E+04  0.46999998093E+01 0. -1.
       -5    1    3    3    0  502  0.46452076777E+02 -0.18090813586E+03  0.31580715220E+03  0.36693568433E+03  0.46999998093E+01 0.  1.
</event>
<event>
 5   0  0.1254125E-03  0.1292212E+04  0.7818609E-02  0.9035764E-01
       -4   -1    0    0    0  501  0.00000000000E+00  0.00000000000E+00  0.52722532734E+03  0.52722685695E+03  0.12699999809E+01 0.  1.
        4   -1    0    0  501    0  0.00000000000E+00  0.00000000000E+00 -0.79178915301E+03  0.79179017153E+03  0.12699999809E+01 0. -1.
    10030    2    1    2    0    0  0.00000000000E+00  0.00000000000E+00 -0.26456382568E+03  0.13190170285E+04  0.12922120196E+04 0.  0.
        4    1    3    3  502    0  0.40087798197E+03  0.13645946399E+03 -0.63038698674E+03  0.75941668911E+03  0.12699999809E+01 0. -1.
       -4    1    3    3    0  502 -0.40087798197E+03 -0.13645946399E+03  0.36582316107E+03  0.55960033936E+03  0.12699999809E+01 0.  1.
</event>
<event>
 5   0  0.3336609E-03  0.1278042E+04  0.7818609E-02  0.9047162E-01
       -2   -1    0    0    0  501  0.00000000000E+00  0.00000000000E+00  0.76822932272E+03  0.76822932272E+03  0.25500000920E-02 0. -1.
        2   -1    0    0  501    0  0.00000000000E+00  0.00000000000E+00 -0.53154379108E+03  0.53154379109E+03  0.25500000920E-02 0.  1.
    10030    2    1    2    0    0  0.00000000000E+00  0.00000000000E+00  0.23668553164E+03  0.12997731138E+04  0.12780415120E+04 0.  0.
        1    1    3    3  502    0 -0.53821101911E+03  0.23670191873E+03  0.37289585285E+03  0.69624005668E+03  0.50400001928E-02 0. -1.
       -1    1    3    3    0  502  0.53821101911E+03 -0.23670191873E+03 -0.13621032121E+03  0.60353305713E+03  0.50400001928E-02 0.  1.
</event>
<event>
 5   0  0.1823154E-03  0.1307096E+04  0.7818609E-02  0.9023957E-01
        1   -1    0    0  501    0  0.00000000000E+00  0.00000000000E+00  0.54342932084E+03  0.54342932086E+03  0.50400001928E-02 0.  1.
       -1   -1    0    0    0  501  0.00000000000E+00  0.00000000000E+00 -0.78598089762E+03  0.78598089763E+03  0.50400001928E-02 0. -1.
    10030    2    1    2    0    0  0.00000000000E+00  0.00000000000E+00 -0.24255157678E+03  0.13294102185E+04  0.13070961180E+04 0.  0.
        2    1    3    3  502    0 -0.50124960522E+03 -0.23205331579E+03  0.23400864206E+03  0.59988328254E+03  0.25500000920E-02 0.  1.
       -2    1    3    3    0  502  0.50124960522E+03  0.23205331579E+03 -0.47656021884E+03  0.72952693596E+03  0.25500000920E-02 0. -1.
</event>
<event>
 5   0  0.3259968E-03  0.1327447E+04  0.7818609E-02  0.9008078E-01
       -2   -1    0    0    0  501  0.00000000000E+00  0.00000000000E+00  0.78925014531E+03  0.78925014532E+03  0.25500000920E-02 0.  1.
        2   -1    0    0  501    0  0.00000000000E+00  0.00000000000E+00 -0.55816138767E+03  0.55816138768E+03  0.25500000920E-02 0. -1.
    10030    2    1    2    0    0  0.00000000000E+00  0.00000000000E+00  0.23108875764E+03  0.13474115330E+04  0.13274471083E+04 0.  0.
        4    1    3    3  502    0 -0.32725053625E+03 -0.57084938130E+03  0.27256846351E+02  0.65856395148E+03  0.12699999809E+01 0. -1.
       -4    1    3    3    0  502  0.32725053625E+03  0.57084938130E+03  0.20383191129E+03  0.68884758152E+03  0.12699999809E+01 0.  1.
</event>
<event>
 5   0  0.1873488E-03  0.1253347E+04  0.7818609E-02  0.9067402E-01
       -1   -1    0    0    0  501  0.00000000000E+00  0.00000000000E+00  0.41108641513E+03  0.41108641516E+03  0.50400001928E-02 0.  1.
        1   -1    0    0  501    0  0.00000000000E+00  0.00000000000E+00 -0.95532094033E+03  0.95532094035E+03  0.50400001928E-02 0. -1.
    10030    2    1    2    0    0  0.00000000000E+00  0.00000000000E+00 -0.54423452520E+03  0.13664073555E+04  0.12533466571E+04 0.  0.
        3    1    3    3  502    0 -0.54027272921E+03  0.97715403153E+02  0.57256151488E+02  0.55201557861E+03  0.10100000352E+00 0.  1.
       -3    1    3    3    0  502  0.54027272921E+03 -0.97715403153E+02 -0.60149067669E+03  0.81439177690E+03  0.10100000352E+00 0. -1.
</event>
<event>
 5   0  0.3262927E-03  0.1318060E+04  0.7818609E-02  0.9015365E-01
       -2   -1    0    0    0  501  0.00000000000E+00  0.00000000000E+00  0.23429332589E+03  0.23429332590E+03  0.25500000920E-02 0.  1.
        2   -1    0    0  501    0  0.00000000000E+00  0.00000000000E+00 -0.18537455593E+04  0.18537455593E+04  0.25500000920E-02 0. -1.
    10030    2    1    2    0    0  0.00000000000E+00  0.00000000000E+00 -0.16194522334E+04  0.20880388852E+04  0.13180595016E+04 0.  0.
        3    1    3    3  502    0 -0.65631393861E+03  0.20731523739E+02 -0.72092146980E+03  0.97514386524E+03  0.10100000352E+00 0. -1.
       -3    1    3    3    0  502  0.65631393861E+03 -0.20731523739E+02 -0.89853076360E+03  0.11128950199E+04  0.10100000352E+00 0.  1.
</event>
<event>
 5   0  0.1803959E-03  0.1285671E+04  0.7818609E-02  0.9041006E-01
        1   -1    0    0  501    0  0.00000000000E+00  0.00000000000E+00  0.11921877328E+04  0.11921877328E+04  0.50400001928E-02 0. -1.
       -1   -1    0    0    0  501  0.00000000000E+00  0.00000000000E+00 -0.34662102678E+03  0.34662102682E+03  0.50400001928E-02 0.  1.
    10030    2    1    2    0    0  0.00000000000E+00  0.00000000000E+00  0.84556670604E+03  0.15388087597E+04  0.12856707761E+04 0.  0.
        4    1    3    3  502    0  0.51515295081E+03  0.22596511074E+03  0.79515507581E+03  0.97402053442E+03  0.12699999809E+01 0. -1.
       -4    1    3    3    0  502 -0.51515295081E+03 -0.22596511074E+03  0.50411630228E+02  0.56478822523E+03  0.12699999809E+01 0.  1.
</event>
<event>
 5   0  0.3336609E-03  0.1073066E+04  0.7818609E-02  0.9231849E-01
       -2   -1    0    0    0  501  0.00000000000E+00  0.00000000000E+00  0.36243480862E+03  0.36243480863E+03  0.25500000920E-02 0. -1.
        2   -1    0    0  501    0  0.00000000000E+00  0.00000000000E+00 -0.79426018279E+03  0.79426018280E+03  0.25500000920E-02 0.  1.
    10030    2    1    2    0    0  0.00000000000E+00  0.00000000000E+00 -0.43182537417E+03  0.11566949914E+04  0.10730657712E+04 0.  0.
        1    1    3    3  502    0 -0.34399385812E+03 -0.24664385875E+03  0.13948321745E+03  0.44566863864E+03  0.50400001928E-02 0. -1.
       -1    1    3    3    0  502  0.34399385812E+03  0.24664385875E+03 -0.57130859162E+03  0.71102635280E+03  0.50400001928E-02 0.  1.
</event>
<event>
 5   0  0.1814770E-03  0.1216139E+04  0.7818609E-02  0.9098847E-01
        1   -1    0    0  501    0  0.00000000000E+00  0.00000000000E+00  0.17101824426E+04  0.17101824426E+04  0.50400001928E-02 0.  1.
       -1   -1    0    0    0  501  0.00000000000E+00  0.00000000000E+00 -0.21620397957E+03  0.21620397963E+03  0.50400001928E-02 0. -1.
    10030    2    1    2    0    0  0.00000000000E+00  0.00000000000E+00  0.14939784630E+04  0.19263864222E+04  0.12161385611E+04 0.  0.
        5    1    3    3  502    0 -0.32751652603E+03 -0.47296257696E+03  0.43511250625E+03  0.72132215903E+03  0.46999998093E+01 0. -1.
       -5    1    3    3    0  502  0.32751652603E+03  0.47296257696E+03  0.10588659568E+04  0.12050642632E+04  0.46999998093E+01 0.  1.
</event>
<event>
 5   0  0.1803959E-03  0.1289081E+04  0.7818609E-02  0.9038269E-01
        1   -1    0    0  501    0  0.00000000000E+00  0.00000000000E+00  0.10411322872E+04  0.10411322872E+04  0.50400001928E-02 0.  1.
       -1   -1    0    0    0  501  0.00000000000E+00  0.00000000000E+00 -0.39901982337E+03  0.39901982340E+03  0.50400001928E-02 0. -1.
    10030    2    1    2    0    0  0.00000000000E+00  0.00000000000E+00  0.64211246379E+03  0.14401521106E+04  0.12890809460E+04 0.  0.
        4    1    3    3  502    0 -0.32485476868E+03  0.38776847047E+03 -0.12517221685E+03  0.52111870451E+03  0.12699999809E+01 0. -1.
       -4    1    3    3    0  502  0.32485476868E+03 -0.38776847047E+03  0.76728468063E+03  0.91903340606E+03  0.12699999809E+01 0.  1.
</event>
<event>
 5   0  0.3262927E-03  0.1312913E+04  0.7818609E-02  0.9019387E-01
        2   -1    0    0  501    0  0.00000000000E+00  0.00000000000E+00  0.30021883300E+03  0.30021883301E+03  0.25500000920E-02 0. -1.
       -2   -1    0    0    0  501  0.00000000000E+00  0.00000000000E+00 -0.14354040999E+04  0.14354040999E+04  0.25500000920E-02 0.  1.
    10030    2    1    2    0    0  0.00000000000E+00  0.00000000000E+00 -0.11351852669E+04  0.17356229329E+04  0.13129133159E+04 0.  0.
        3    1    3    3  502    0  0.55001997962E+03 -0.35739329043E+03 -0.60215107316E+03  0.89041443561E+03  0.10100000352E+00 0. -1.
       -3    1    3    3    0  502 -0.55001997962E+03  0.35739329043E+03 -0.53303419378E+03  0.84520849734E+03  0.10100000352E+00 0.  1.
</event>
<event>
 5   0  0.1814770E-03  0.1290415E+04  0.7818609E-02  0.9037201E-01
       -1   -1    0    0    0  501  0.00000000000E+00  0.00000000000E+00  0.46741401948E+03  0.46741401951E+03  0.50400001928E-02 0. -1.
        1   -1    0    0  501    0  0.00000000000E+00  0.00000000000E+00 -0.89062926032E+03  0.89062926033E+03  0.50400001928E-02 0.  1.
    10030    2    1    2    0    0  0.00000000000E+00  0.00000000000E+00 -0.42321524084E+03  0.13580432798E+04  0.12904148208E+04 0.  0.
        5    1    3    3  502    0 -0.51699861639E+03  0.38580849136E+03 -0.22382422306E+03  0.68282877369E+03  0.46999998093E+01 0.  1.
       -5    1    3    3    0  502  0.51699861639E+03 -0.38580849136E+03 -0.19939101777E+03  0.67521450615E+03  0.46999998093E+01 0. -1.
</event>
<event>
 5   0  0.1873488E-03  0.1290553E+04  0.7818609E-02  0.9037090E-01
        1   -1    0    0  501    0  0.00000000000E+00  0.00000000000E+00  0.64535552050E+03  0.64535552052E+03  0.50400001928E-02 0. -1.
       -1   -1    0    0    0  501  0.00000000000E+00  0.00000000000E+00 -0.64519790577E+03  0.64519790579E+03  0.50400001928E-02 0.  1.
    10030    2    1    2    0    0  0.00000000000E+00  0.00000000000E+00  0.15761473560E+00  0.12905534263E+04  0.12905534167E+04 0.  0.
        3    1    3    3  502    0 -0.13485210808E+02 -0.12299735025E+03 -0.63322351146E+03  0.64519936822E+03  0.10100000352E+00 0.  1.
       -3    1    3    3    0  502  0.13485210808E+02  0.12299735025E+03  0.63338112619E+03  0.64535405810E+03  0.10100000352E+00 0. -1.
</event>
<event>
 5   0  0.1823154E-03  0.1320988E+04  0.7818609E-02  0.9013085E-01
        1   -1    0    0  501    0  0.00000000000E+00  0.00000000000E+00  0.16705709402E+04  0.16705709402E+04  0.50400001928E-02 0. -1.
       -1   -1    0    0    0  501  0.00000000000E+00  0.00000000000E+00 -0.26113958858E+03  0.26113958863E+03  0.50400001928E-02 0.  1.
    10030    2    1    2    0    0  0.00000000000E+00  0.00000000000E+00  0.14094313517E+04  0.19317105289E+04  0.13209878244E+04 0.  0.
        2    1    3    3  502    0 -0.38912365394E+03  0.46693235954E+03  0.10826890810E+04  0.12416354910E+04  0.25500000920E-02 0. -1.
       -2    1    3    3    0  502  0.38912365394E+03 -0.46693235954E+03  0.32674227069E+03  0.69007503788E+03  0.25500000920E-02 0.  1.
</event>
<event>
 5   0  0.3299104E-03  0.1223195E+04  0.7818609E-02  0.9092793E-01
        2   -1    0    0  501    0  0.00000000000E+00  0.00000000000E+00  0.60522775776E+03  0.60522775777E+03  0.25500000920E-02 0. -1.
       -2   -1    0    0    0  501  0.00000000000E+00  0.00000000000E+00 -0.61803460915E+03  0.61803460915E+03  0.25500000920E-02 0.  1.
    10030    2    1    2    0    0  0.00000000000E+00  0.00000000000E+00 -0.12806851381E+02  0.12232623669E+04  0.12231953249E+04 0.  0.
        2    1    3    3  502    0 -0.64094014697E+02  0.45434901075E+03 -0.41079007061E+03  0.61586487837E+03  0.25500000920E-02 0.  1.
       -2    1    3    3    0  502  0.64094014697E+02 -0.45434901075E+03  0.39798321923E+03  0.60739748855E+03  0.25500000920E-02 0. -1.
</event>
<event>
 5   0  0.1823154E-03  0.1309270E+04  0.7818609E-02  0.9022246E-01
       -1   -1    0    0    0  501  0.00000000000E+00  0.00000000000E+00  0.77002253972E+03  0.77002253974E+03  0.50400001928E-02 0.  1.
        1   -1    0    0  501    0  0.00000000000E+00  0.00000000000E+00 -0.55653838392E+03  0.55653838395E+03  0.50400001928E-02 0. -1.
    10030    2    1    2    0    0  0.00000000000E+00  0.00000000000E+00  0.21348415580E+03  0.13265609237E+04  0.13092701782E+04 0.  0.
        2    1    3    3  502    0 -0.60063933231E+03  0.21126614104E+03  0.26088973582E+03  0.68808752651E+03  0.25500000920E-02 0. -1.
       -2    1    3    3    0  502  0.60063933231E+03 -0.21126614104E+03 -0.47405580023E+02  0.63847339717E+03  0.25500000920E-02 0.  1.
</event>
<event>
 5   0  0.1823154E-03  0.1033553E+04  0.7818609E-02  0.9272491E-01
        1   -1    0    0  501    0  0.00000000000E+00  0.00000000000E+00  0.11011604068E+04  0.11011604068E+04  0.50400001928E-02 0. -1.
       -1   -1    0    0    0  501  0.00000000000E+00  0.00000000000E+00 -0.24252419276E+03  0.24252419282E+03  0.50400001928E-02 0.  1.
    10030    2    1    2    0    0  0.00000000000E+00  0.00000000000E+00  0.85863621403E+03  0.13436845996E+04  0.10335531700E+04 0.  0.
        2    1    3    3  502    0 -0.24520901181E+03 -0.61280075853E+02  0.10153213304E+04  0.10463078472E+04  0.25500000920E-02 0. -1.
       -2    1    3    3    0  502  0.24520901181E+03  0.61280075853E+02 -0.15668511638E+03  0.29737675240E+03  0.25500000920E-02 0.  1.
</event>
<event>
 5   0  0.1873488E-03  0.1306753E+04  0.7818609E-02  0.9024227E-01
        1   -1    0    0  501    0  0.00000000000E+00  0.00000000000E+00  0.26265363546E+04  0.26265363546E+04  0.50400001928E-02 0.  1.
       -1   -1    0    0    0  501  0.00000000000E+00  0.00000000000E+00 -0.16253376756E+03  0.16253376764E+03  0.50400001928E-02 0. -1.
    10030    2    1    2    0    0  0.00000000000E+00  0.00000000000E+00  0.24640025870E+04  0.27890701222E+04  0.13067529980E+04 0.  0.
        3    1    3    3  502    0 -0.45868188043E+03  0.25946409995E+03  0.20563975431E+04  0.21228475103E+04  0.10100000352E+00 0.  1.
       -3    1    3    3    0  502  0.45868188043E+03 -0.25946409995E+03  0.40760504394E+03  0.66622261193E+03  0.10100000352E+00 0. -1.
</event>
<event>
 5   0  0.3336609E-03  0.1270526E+04  0.7818609E-02  0.9053270E-01
       -2   -1    0    0    0  501  0.00000000000E+00  0.00000000000E+00  0.41095999685E+03  0.41095999686E+03  0.25500000920E-02 0. -1.
        2   -1    0    0  501    0  0.00000000000E+00  0.00000000000E+00 -0.98199129462E+03  0.98199129463E+03  0.25500000920E-02 0.  1.
    10030    2    1    2    0    0  0.00000000000E+00  0.00000000000E+00 -0.57103129777E+03  0.13929512915E+04  0.12705260947E+04 0.  0.
        1    1    3    3  502    0  0.43565746572E+03  0.46226957562E+03 -0.27643827228E+03  0.69275443440E+03  0.50400001928E-02 0. -1.
       -1    1    3    3    0  502 -0.43565746572E+03 -0.46226957562E+03 -0.29459302549E+03  0.70019685708E+03  0.50400001928E-02 0.  1.
</event>
<event>
 5   0  0.3259968E-03  0.1298687E+04  0.7818609E-02  0.9030607E-01
       -2   -1    0    0    0  501  0.00000000000E+00  0.00000000000E+00  0.27976332863E+03  0.27976332864E+03  0.25500000920E-02 0.  1.
        2   -1    0    0  501    0  0.00000000000E+00  0.00000000000E+00 -0.15071555223E+04  0.15071555223E+04  0.25500000920E-02 0. -1.
    10030    2    1    2    0    0  0.00000000000E+00  0.00000000000E+00 -0.12273921936E+04  0.17869188509E+04  0.12986867916E+04 0.  0.
        4    1    3    3  502    0 -0.97341315224E+02 -0.49449476784E+03 -0.50323804602E+02  0.50649235461E+03  0.12699999809E+01 0.  1.
       -4    1    3    3    0  502  0.97341315224E+02  0.49449476784E+03 -0.11770683890E+04  0.12804264963E+04  0.12699999809E+01 0. -1.
</event>
<event>
 5   0  0.1857986E-03  0.1250940E+04  0.7818609E-02  0.9069401E-01
        1   -1    0    0  501    0  0.00000000000E+00  0.00000000000E+00  0.59685031866E+03  0.59685031868E+03  0.50400001928E-02 0. -1.
       -1   -1    0    0    0  501  0.00000000000E+00  0.00000000000E+00 -0.65546182370E+03  0.65546182372E+03  0.50400001928E-02 0.  1.
    10030    2    1    2    0    0  0.00000000000E+00  0.00000000000E+00 -0.58611505033E+02  0.12523121424E+04  0.12509398041E+04 0.  0.
        1    1    3    3  502    0  0.16540368369E+03  0.50340270346E+03 -0.36199537691E+03  0.64172682144E+03  0.50400001928E-02 0. -1.
       -1    1    3    3    0  502 -0.16540368369E+03 -0.50340270346E+03  0.30338387188E+03  0.61058532096E+03  0.50400001928E-02 0.  1.
</event>
<event>
 5   0  0.3336609E-03  0.1309648E+04  0.7818609E-02  0.9021949E-01
       -2   -1    0    0    0  501  0.00000000000E+00  0.00000000000E+00  0.20371983431E+03  0.20371983433E+03  0.25500000920E-02 0.  1.
        2   -1    0    0  501    0  0.00000000000E+00  0.00000000000E+00 -0.21048246630E+04  0.21048246630E+04  0.25500000920E-02 0. -1.
    10030    2    1    2    0    0  0.00000000000E+00  0.00000000000E+00 -0.19011048287E+04  0.23085444974E+04  0.13096480926E+04 0.  0.
        1    1    3    3  502    0 -0.76920203985E+01  0.14635214537E+03 -0.20755448208E+04  0.20807124792E+04  0.50400001928E-02 0. -1.
       -1    1    3    3    0  502  0.76920203985E+01 -0.14635214537E+03  0.17443999213E+03  0.22783201819E+03  0.50400001928E-02 0.  1.
</event>
<event>
 5   0  0.3259968E-03  0.1276431E+04  0.7818609E-02  0.9048467E-01
       -2   -1    0    0    0  501  0.00000000000E+00  0.00000000000E+00  0.32283180398E+03  0.32283180399E+03  0.25500000920E-02 0. -1.
        2   -1    0    0  501    0  0.00000000000E+00  0.00000000000E+00 -0.12617062759E+04  0.12617062759E+04  0.25500000920E-02 0.  1.
    10030    2    1    2    0    0  0.00000000000E+00  0.00000000000E+00 -0.93887447189E+03  0.15845380799E+04  0.12764308256E+04 0.  0.
        4    1    3    3  502    0 -0.55672503376E+03  0.10138200867E+03 -0.10307975541E+03  0.57519398795E+03  0.12699999809E+01 0. -1.
       -4    1    3    3    0  502  0.55672503376E+03 -0.10138200867E+03 -0.83579471647E+03  0.10093440919E+04  0.12699999809E+01 0.  1.
</event>
<event>
 5   0  0.3294720E-03  0.1339531E+04  0.7818609E-02  0.8998791E-01
       -2   -1    0    0    0  501  0.00000000000E+00  0.00000000000E+00  0.40486756049E+03  0.40486756049E+03  0.25500000920E-02 0. -1.
        2   -1    0    0  501    0  0.00000000000E+00  0.00000000000E+00 -0.11079817598E+04  0.11079817598E+04  0.25500000920E-02 0.  1.
    10030    2    1    2    0    0  0.00000000000E+00  0.00000000000E+00 -0.70311419935E+03  0.15128493203E+04  0.13395310705E+04 0.  0.
        5    1    3    3  502    0 -0.53377474458E+03  0.21001944981E+03 -0.74203796207E+03  0.93790515213E+03  0.46999998093E+01 0.  1.
       -5    1    3    3    0  502  0.53377474458E+03 -0.21001944981E+03  0.38923762715E+02  0.57494416820E+03  0.46999998093E+01 0. -1.
</event>
<event>
 5   0  0.3336609E-03  0.1285657E+04  0.7818609E-02  0.9041018E-01
        2   -1    0    0  501    0  0.00000000000E+00  0.00000000000E+00  0.15424820753E+04  0.15424820753E+04  0.25500000920E-02 0.  1.
       -2   -1    0    0    0  501  0.00000000000E+00  0.00000000000E+00 -0.26789822236E+03  0.26789822238E+03  0.25500000920E-02 0. -1.
    10030    2    1    2    0    0  0.00000000000E+00  0.00000000000E+00  0.12745838529E+04  0.18103802976E+04  0.12856565731E+04 0.  0.
        1    1    3    3  502    0 -0.34059714897E+03 -0.37463688972E+03  0.11950082922E+04  0.12978459213E+04  0.50400001928E-02 0.  1.
       -1    1    3    3    0  502  0.34059714897E+03  0.37463688972E+03  0.79575560701E+02  0.51253437633E+03  0.50400001928E-02 0. -1.
</event>
<event>
 5   0  0.3294720E-03  0.1300159E+04  0.7818609E-02  0.9029439E-01
       -2   -1    0    0    0  501  0.00000000000E+00  0.00000000000E+00  0.65631937217E+03  0.65631937217E+03  0.25500000920E-02 0.  1.
        2   -1    0    0  501    0  0.00000000000E+00  0.00000000000E+00 -0.64389865015E+03  0.64389865016E+03  0.25500000920E-02 0. -1.
    10030    2    1    2    0    0  0.00000000000E+00  0.00000000000E+00  0.12420722012E+02  0.13002180223E+04  0.13001586946E+04 0.  0.
        5    1    3    3  502    0 -0.25185755526E+02 -0.44530838474E+03  0.47914545065E+03  0.65462686523E+03  0.46999998093E+01 0.  1.
       -5    1    3    3    0  502  0.25185755526E+02  0.44530838474E+03 -0.46672472864E+03  0.64559115710E+03  0.46999998093E+01 0. -1.
</event>
<event>
 5   0  0.3336609E-03  0.1268936E+04  0.7818609E-02  0.9054569E-01
        2   -1    0    0  501    0  0.00000000000E+00  0.00000000000E+00  0.92923494379E+03  0.92923494379E+03  0.25500000920E-02 0.  1.
       -2   -1    0    0    0  501  0.00000000000E+00  0.00000000000E+00 -0.43320521572E+03  0.43320521573E+03  0.25500000920E-02 0. -1.
    10030    2    1    2    0    0  0.00000000000E+00  0.00000000000E+00  0.49602972807E+03  0.13624401595E+04  0.12689356552E+04 0.  0.
        1    1    3    3  502    0 -0.12763975263E+03 -0.62120959092E+03  0.22775196398E+03  0.67384287443E+03  0.50400001928E-02 0. -1.
       -1    1    3    3    0  502  0.12763975263E+03  0.62120959092E+03  0.26827776409E+03  0.68859728509E+03  0.50400001928E-02 0.  1.
</event>
<event>
 5   0  0.1803959E-03  0.1296602E+04  0.7818609E-02  0.9032264E-01
        1   -1    0    0  501    0  0.00000000000E+00  0.00000000000E+00  0.14253982434E+04  0.14253982434E+04  0.50400001928E-02 0. -1.
       -1   -1    0    0    0  501  0.00000000000E+00  0.00000000000E+00 -0.29486070627E+03  0.29486070631E+03  0.50400001928E-02 0.  1.
    10030    2    1    2    0    0  0.00000000000E+00  0.00000000000E+00  0.11305375371E+04  0.17202589497E+04  0.12966016085E+04 0.  0.
        4    1    3    3  502    0 -0.57267725945E+03  0.17986905528E+03  0.89019982486E+03  0.10736710211E+04  0.12699999809E+01 0. -1.
       -4    1    3    3    0  502  0.57267725945E+03 -0.17986905528E+03  0.24033771224E+03  0.64658792856E+03  0.12699999809E+01 0.  1.
</event>
<event>
 5   0  0.1873488E-03  0.9903653E+03  0.7818609E-02  0.9319176E-01
        1   -1    0    0  501    0  0.00000000000E+00  0.00000000000E+00  0.95360334988E+03  0.95360334989E+03  0.50400001928E-02 0. -1.
       -1   -1    0    0    0  501  0.00000000000E+00  0.00000000000E+00 -0.25713612084E+03  0.25713612089E+03  0.50400001928E-02 0.  1.
    10030    2    1    2    0    0  0.00000000000E+00  0.00000000000E+00  0.69646722904E+03  0.12107394708E+04  0.99036531896E+03 0.  0.
        3    1    3    3  502    0  0.59715387410E+02 -0.36224369923E+03 -0.58002032148E+02  0.37168625352E+03  0.10100000352E+00 0.  1.
       -3    1    3    3    0  502 -0.59715387410E+02  0.36224369923E+03  0.75446926118E+03  0.83905321726E+03  0.10100000352E+00 0. -1.
</event>
<event>
 5   0  0.3336609E-03  0.1256887E+04  0.7818609E-02  0.9064471E-01
        2   -1    0    0  501    0  0.00000000000E+00  0.00000000000E+00  0.16138331268E+04  0.16138331268E+04  0.25500000920E-02 0. -1.
       -2   -1    0    0    0  501  0.00000000000E+00  0.00000000000E+00 -0.24472253175E+03  0.24472253176E+03  0.25500000920E-02 0.  1.
    10030    2    1    2    0    0  0.00000000000E+00  0.00000000000E+00  0.13691105950E+04  0.18585556586E+04  0.12568871526E+04 0.  0.
        1    1    3    3  502    0  0.52038574723E+03 -0.27067311067E+03  0.10180861871E+04  0.11749743585E+04  0.50400001928E-02 0. -1.
       -1    1    3    3    0  502 -0.52038574723E+03  0.27067311067E+03  0.35102440792E+03  0.68358130002E+03  0.50400001928E-02 0.  1.
</event>
<event>
 5   0  0.1823154E-03  0.1269130E+04  0.7818609E-02  0.9054410E-01
        1   -1    0    0  501    0  0.00000000000E+00  0.00000000000E+00  0.81208434482E+03  0.81208434483E+03  0.50400001928E-02 0. -1.
       -1   -1    0    0    0  501  0.00000000000E+00  0.00000000000E+00 -0.49585081477E+03  0.49585081480E+03  0.50400001928E-02 0.  1.
    10030    2    1    2    0    0  0.00000000000E+00  0.00000000000E+00  0.31623353005E+03  0.13079351596E+04  0.12691299131E+04 0.  0.
        2    1    3    3  502    0 -0.56641481289E+03  0.63870138143E+02  0.44551185264E+03  0.72345417661E+03  0.25500000920E-02 0. -1.
       -2    1    3    3    0  502  0.56641481289E+03 -0.63870138143E+02 -0.12927832259E+03  0.58448098302E+03  0.25500000920E-02 0.  1.
</event>
<event>
 5   0  0.3299104E-03  0.1284372E+04  0.7818609E-02  0.9042051E-01
       -2   -1    0    0    0  501  0.00000000000E+00  0.00000000000E+00  0.25655413787E+03  0.25655413788E+03  0.25500000920E-02 0.  1.
        2   -1    0    0  501    0  0.00000000000E+00  0.00000000000E+00 -0.16074699157E+04  0.16074699157E+04  0.25500000920E-02 0. -1.
    10030    2    1    2    0    0  0.00000000000E+00  0.00000000000E+00 -0.13509157778E+04  0.18640240536E+04  0.12843723111E+04 0.  0.
        2    1    3    3  502    0  0.32078918370E+03  0.64389879320E+02 -0.14774322155E+04  0.15132275799E+04  0.25500000920E-02 0. -1.
       -2    1    3    3    0  502 -0.32078918370E+03 -0.64389879320E+02  0.12651643773E+03  0.35079647370E+03  0.25500000920E-02 0.  1.
</event>
<event>
 5   0  0.1803959E-03  0.1299469E+04  0.7818609E-02  0.9029987E-01
        1   -1    0    0  501    0  0.00000000000E+00  0.00000000000E+00  0.97482578554E+03  0.97482578556E+03  0.50400001928E-02 0. -1.
       -1   -1    0    0    0  501  0.00000000000E+00  0.00000000000E+00 -0.43305654462E+03  0.43305654465E+03  0.50400001928E-02 0.  1.
    10030    2    1    2    0    0  0.00000000000E+00  0.00000000000E+00  0.54176924093E+03  0.14078823302E+04  0.12994686396E+04 0.  0.
        4    1    3    3  502    0  0.62955228388E+03 -0.55109510838E+00  0.96803830607E+02  0.63695288394E+03  0.12699999809E+01 0.  1.
       -4    1    3    3    0  502 -0.62955228388E+03  0.55109510838E+00  0.44496541032E+03  0.77092944626E+03  0.12699999809E+01 0. -1.
</event>
<event>
 5   0  0.3294720E-03  0.1258191E+04  0.7818609E-02  0.9063393E-01
        2   -1    0    0  501    0  0.00000000000E+00  0.00000000000E+00  0.97078022174E+03  0.97078022175E+03  0.25500000920E-02 0.  1.
       -2   -1    0    0    0  501  0.00000000000E+00  0.00000000000E+00 -0.40767347235E+03  0.40767347236E+03  0.25500000920E-02 0. -1.
    10030    2    1    2    0    0  0.00000000000E+00  0.00000000000E+00  0.56310674939E+03  0.13784536941E+04  0.12581913112E+04 0.  0.
        5    1    3    3  502    0  0.25295669811E+03 -0.33610041012E+03  0.79401095432E+03  0.89856889684E+03  0.46999998093E+01 0.  1.
       -5    1    3    3    0  502 -0.25295669811E+03  0.33610041012E+03 -0.23090420492E+03  0.47988479727E+03  0.46999998093E+01 0. -1.
</event>
<event>
 5   0  0.1803959E-03  0.8501216E+03  0.7818609E-02  0.9490174E-01
        1   -1    0    0  501    0  0.00000000000E+00  0.00000000000E+00  0.29619174570E+04  0.29619174570E+04  0.50400001928E-02 0.  1.
       -1   -1    0    0    0  501  0.00000000000E+00  0.00000000000E+00 -0.60999897865E+02  0.60999898073E+02  0.50400001928E-02 0. -1.
    10030    2    1    2    0    0  0.00000000000E+00  0.00000000000E+00  0.29009175591E+04  0.30229173550E+04  0.85012155056E+03 0.  0.
        4    1    3    3  502    0 -0.28074729704E+03 -0.31236908813E+03  0.16831318666E+04  0.17347414750E+04  0.12699999809E+01 0. -1.
       -4    1    3    3    0  502  0.28074729704E+03  0.31236908813E+03  0.12177856925E+04  0.12881758800E+04  0.12699999809E+01 0.  1.
</event>
<event>
 5   0  0.3336609E-03  0.1269177E+04  0.7818609E-02  0.9054372E-01
        2   -1    0    0  501    0  0.00000000000E+00  0.00000000000E+00  0.85603425286E+03  0.85603425287E+03  0.25500000920E-02 0. -1.
       -2   -1    0    0    0  501  0.00000000000E+00  0.00000000000E+00 -0.47042811277E+03  0.47042811278E+03  0.25500000920E-02 0.  1.
    10030    2    1    2    0    0  0.00000000000E+00  0.00000000000E+00  0.38560614009E+03  0.13264623656E+04  0.12691770216E+04 0.  0.
        1    1    3    3  502    0  0.43859236186E+03 -0.45123258773E+03  0.27853268819E+03  0.68815301099E+03  0.50400001928E-02 0.  1.
       -1    1    3    3    0  502 -0.43859236186E+03  0.45123258773E+03  0.10707345190E+03  0.63830935466E+03  0.50400001928E-02 0. -1.
</event>
<event>
 5   0  0.1823154E-03  0.1384221E+04  0.7818609E-02  0.8965320E-01
        1   -1    0    0  501    0  0.00000000000E+00  0.00000000000E+00  0.24293744138E+03  0.24293744144E+03  0.50400001928E-02 0.  1.
       -1   -1    0    0    0  501  0.00000000000E+00  0.00000000000E+00 -0.19717705688E+04  0.19717705688E+04  0.50400001928E-02 0. -1.
    10030    2    1    2    0    0  0.00000000000E+00  0.00000000000E+00 -0.17288331274E+04  0.22147080102E+04  0.13842209318E+04 0.  0.
        2    1    3    3  502    0 -0.63768390894E+03 -0.21541680453E+03 -0.11222632181E+04  0.13086328355E+04  0.25500000920E-02 0. -1.
       -2    1    3    3    0  502  0.63768390894E+03  0.21541680453E+03 -0.60656990925E+03  0.90607517470E+03  0.25500000920E-02 0.  1.
</event>
<event>
 5   0  0.1823154E-03  0.1086155E+04  0.7818609E-02  0.9218792E-01
       -1   -1    0    0    0  501  0.00000000000E+00  0.00000000000E+00  0.21267525022E+03  0.21267525028E+03  0.50400001928E-02 0.  1.
        1   -1    0    0  501    0  0.00000000000E+00  0.00000000000E+00 -0.13867773649E+04  0.13867773649E+04  0.50400001928E-02 0. -1.
    10030    2    1    2    0    0  0.00000000000E+00  0.00000000000E+00 -0.11741021147E+04  0.15994526152E+04  0.10861550960E+04 0.  0.
        2    1    3    3  502    0 -0.23007566919E+03  0.37077918882E+03 -0.10631330263E+04  0.11492013975E+04  0.25500000920E-02 0. -1.
       -2    1    3    3    0  502  0.23007566919E+03 -0.37077918882E+03 -0.11096908834E+03  0.45025121765E+03  0.25500000920E-02 0.  1.
</event>
<event>
 5   0  0.1873488E-03  0.1271448E+04  0.7818609E-02  0.9052519E-01
       -1   -1    0    0    0  501  0.00000000000E+00  0.00000000000E+00  0.24802050491E+03  0.24802050496E+03  0.50400001928E-02 0.  1.
        1   -1    0    0  501    0  0.00000000000E+00  0.00000000000E+00 -0.16294826000E+04  0.16294826000E+04  0.50400001928E-02 0. -1.
    10030    2    1    2    0    0  0.00000000000E+00  0.00000000000E+00 -0.13814620951E+04  0.18775031050E+04  0.12714481464E+04 0.  0.
        3    1    3    3  502    0 -0.42313306518E+03 -0.14908312735E+03 -0.25612305444E+02  0.44935884336E+03  0.10100000352E+00 0.  1.
       -3    1    3    3    0  502  0.42313306518E+03  0.14908312735E+03 -0.13558497897E+04  0.14281442616E+04  0.10100000352E+00 0. -1.
</event>
<event>
 5   0  0.1814770E-03  0.1301386E+04  0.7818609E-02  0.9028467E-01
       -1   -1    0    0    0  501  0.00000000000E+00  0.00000000000E+00  0.20785116736E+03  0.20785116743E+03  0.50400001928E-02 0. -1.
        1   -1    0    0  501    0  0.00000000000E+00  0.00000000000E+00 -0.20370413911E+04  0.20370413911E+04  0.50400001928E-02 0.  1.
    10030    2    1    2    0    0  0.00000000000E+00  0.00000000000E+00 -0.18291902238E+04  0.22448925586E+04  0.13013860783E+04 0.  0.
        5    1    3    3  502    0 -0.23392356596E+02  0.20769217637E+03 -0.19775319810E+04  0.19885517514E+04  0.46999998093E+01 0.  1.
       -5    1    3    3    0  502  0.23392356596E+02 -0.20769217637E+03  0.14834175718E+03  0.25634080712E+03  0.46999998093E+01 0. -1.
</event>
<event>
 5   0  0.1803959E-03  0.1315112E+04  0.7818609E-02  0.9017667E-01
       -1   -1    0    0    0  501  0.00000000000E+00  0.00000000000E+00  0.55007144712E+03  0.55007144714E+03  0.50400001928E-02 0. -1.
        1   -1    0    0  501    0  0.00000000000E+00  0.00000000000E+00 -0.78604280759E+03  0.78604280761E+03  0.50400001928E-02 0.  1.
    10030    2    1    2    0    0  0.00000000000E+00  0.00000000000E+00 -0.23597136048E+03  0.13361142547E+04  0.13151117134E+04 0.  0.
        4    1    3    3  502    0  0.35617384142E+03  0.54809146997E+03 -0.19064017061E+03  0.68088864899E+03  0.12699999809E+01 0.  1.
       -4    1    3    3    0  502 -0.35617384142E+03 -0.54809146997E+03 -0.45331189864E+02  0.65522560576E+03  0.12699999809E+01 0. -1.
</event>
<event>
 5   0  0.3259968E-03  0.1375754E+04  0.7818609E-02  0.8971558E-01
       -2   -1    0    0    0  501  0.00000000000E+00  0.00000000000E+00  0.10064604764E+04  0.10064604764E+04  0.25500000920E-02 0. -1.
        2   -1    0    0  501    0  0.00000000000E+00  0.00000000000E+00 -0.47013778248E+03  0.47013778248E+03  0.25500000920E-02 0.  1.
    10030    2    1    2    0    0  0.00000000000E+00  0.00000000000E+00  0.53632269395E+03  0.14765982589E+04  0.13757544789E+04 0.  0.
        4    1    3    3  502    0  0.15495616812E+03 -0.58575401942E+03  0.61769222999E+03  0.86525400270E+03  0.12699999809E+01 0.  1.
       -4    1    3    3    0  502 -0.15495616812E+03  0.58575401942E+03 -0.81369536038E+02  0.61134425621E+03  0.12699999809E+01 0. -1.
</event>
<event>
 5   0  0.3336609E-03  0.1284239E+04  0.7818609E-02  0.9042158E-01
        2   -1    0    0  501    0  0.00000000000E+00  0.00000000000E+00  0.66472302846E+03  0.66472302847E+03  0.25500000920E-02 0. -1.
       -2   -1    0    0    0  501  0.00000000000E+00  0.00000000000E+00 -0.62028483961E+03  0.62028483962E+03  0.25500000920E-02 0.  1.
    10030    2    1    2    0    0  0.00000000000E+00  0.00000000000E+00  0.44438188850E+02  0.12850078681E+04  0.12842392567E+04 0.  0.
        1    1    3    3  502    0  0.16949155576E+03  0.38529552810E+03 -0.46298099566E+03  0.62572472687E+03  0.50400001928E-02 0.  1.
       -1    1    3    3    0  502 -0.16949155576E+03 -0.38529552810E+03  0.50741918451E+03  0.65928314121E+03  0.50400001928E-02 0. -1.
</event>
<event>
 5   0  0.3294720E-03  0.1309292E+04  0.7818609E-02  0.9022229E-01
        2   -1    0    0  501    0  0.00000000000E+00  0.00000000000E+00  0.89514787004E+03  0.89514787004E+03  0.25500000920E-02 0. -1.
       -2   -1    0    0    0  501  0.00000000000E+00  0.00000000000E+00 -0.47876039863E+03  0.47876039863E+03  0.25500000920E-02 0.  1.
    10030    2    1    2    0    0  0.00000000000E+00  0.00000000000E+00  0.41638747141E+03  0.13739082687E+04  0.13092919477E+04 0.  0.
        5    1    3    3  502    0  0.29920120197E+02 -0.96647859648E+02 -0.47048908149E+03  0.48126716922E+03  0.46999998093E+01 0.  1.
       -5    1    3    3    0  502 -0.29920120197E+02  0.96647859648E+02  0.88687655290E+03  0.89264109946E+03  0.46999998093E+01 0. -1.
</event>
<event>
 5   0  0.3299104E-03  0.1288055E+04  0.7818609E-02  0.9039092E-01
        2   -1    0    0  501    0  0.00000000000E+00  0.00000000000E+00  0.82256214472E+03  0.82256214473E+03  0.25500000920E-02 0. -1.
       -2   -1    0    0    0  501  0.00000000000E+00  0.00000000000E+00 -0.50424293584E+03  0.50424293585E+03  0.25500000920E-02 0.  1.
    10030    2    1    2    0    0  0.00000000000E+00  0.00000000000E+00  0.31831920888E+03  0.13268050806E+04  0.12880545808E+04 0.  0.
        2    1    3    3  502    0 -0.33829237203E+03  0.24629654002E+02  0.72309941141E+03  0.79869963542E+03  0.25500000920E-02 0. -1.
       -2    1    3    3    0  502  0.33829237203E+03 -0.24629654002E+02 -0.40478020253E+03  0.52810544515E+03  0.25500000920E-02 0.  1.
</event>
<event>
 5   0  0.1823154E-03  0.1329478E+04  0.7818609E-02  0.9006510E-01
        1   -1    0    0  501    0  0.00000000000E+00  0.00000000000E+00  0.62083605372E+03  0.62083605374E+03  0.50400001928E-02 0. -1.
       -1   -1    0    0    0  501  0.00000000000E+00  0.00000000000E+00 -0.71174631193E+03  0.71174631195E+03  0.50400001928E-02 0.  1.
    10030    2    1    2    0    0  0.00000000000E+00  0.00000000000E+00 -0.90910258214E+02  0.13325823657E+04  0.13294777495E+04 0.  0.
        2    1    3    3  502    0  0.48715516141E+02 -0.32154933365E+03  0.53564917298E+03  0.62664759794E+03  0.25500000920E-02 0. -1.
       -2    1    3    3    0  502 -0.48715516141E+02  0.32154933365E+03 -0.62655943119E+03  0.70593476774E+03  0.25500000920E-02 0.  1.
</event>
<event>
 5   0  0.1857986E-03  0.1319851E+04  0.7818609E-02  0.9013970E-01
        1   -1    0    0  501    0  0.00000000000E+00  0.00000000000E+00  0.18830047519E+04  0.18830047519E+04  0.50400001928E-02 0.  1.
       -1   -1    0    0    0  501  0.00000000000E+00  0.00000000000E+00 -0.23128002941E+03  0.23128002946E+03  0.50400001928E-02 0. -1.
    10030    2    1    2    0    0  0.00000000000E+00  0.00000000000E+00  0.16517247225E+04  0.21142847814E+04  0.13198505892E+04 0.  0.
        1    1    3    3  502    0  0.15279717059E+03  0.14562649875E+03  0.18274705015E+04  0.18396202017E+04  0.50400001928E-02 0.  1.
       -1    1    3    3    0  502 -0.15279717059E+03 -0.14562649875E+03 -0.17574577901E+03  0.27466457970E+03  0.50400001928E-02 0. -1.
</event>
<event>
 5   0  0.3294720E-03  0.1297672E+04  0.7818609E-02  0.9031413E-01
       -2   -1    0    0    0  501  0.00000000000E+00  0.00000000000E+00  0.56037036221E+03  0.56037036221E+03  0.25500000920E-02 0. -1.
        2   -1    0    0  501    0  0.00000000000E+00  0.00000000000E+00 -0.75126814971E+03  0.75126814972E+03  0.25500000920E-02 0.  1.
    10030    2    1    2    0    0  0.00000000000E+00  0.00000000000E+00 -0.19089778750E+03  0.13116385119E+04  0.12976723857E+04 0.  0.
        5    1    3    3  502    0 -0.40605949043E+03  0.48639427392E+03  0.45705866394E+02  0.63527538571E+03  0.46999998093E+01 0. -1.
       -5    1    3    3    0  502  0.40605949043E+03 -0.48639427392E+03 -0.23660365390E+03  0.67636312622E+03  0.46999998093E+01 0.  1.
</event>
<event>
 5   0  0.3336609E-03  0.1285154E+04  0.7818609E-02  0.9041421E-01
       -2   -1    0    0    0  501  0.00000000000E+00  0.00000000000E+00  0.68280473720E+03  0.68280473721E+03  0.25500000920E-02 0.  1.
        2   -1    0    0  501    0  0.00000000000E+00  0.00000000000E+00 -0.60471967019E+03  0.60471967020E+03  0.25500000920E-02 0. -1.
    10030    2    1    2    0    0  0.00000000000E+00  0.00000000000E+00  0.78085067008E+02  0.12875244074E+04  0.12851543962E+04 0.  0.
        1    1    3    3  502    0 -0.25587195886E+03  0.22389243497E+03 -0.50722181640E+03  0.61063266603E+03  0.50400001928E-02 0. -1.
       -1    1    3    3    0  502  0.25587195886E+03 -0.22389243497E+03  0.58530688340E+03  0.67689174138E+03  0.50400001928E-02 0.  1.
</event>
<event>
 5   0  0.1814770E-03  0.1252051E+04  0.7818609E-02  0.9068478E-01
        1   -1    0    0  501    0  0.00000000000E+00  0.00000000000E+00  0.88998611048E+03  0.88998611050E+03  0.50400001928E-02 0. -1.
       -1   -1    0    0    0  501  0.00000000000E+00  0.00000000000E+00 -0.44035297829E+03  0.44035297831E+03  0.50400001928E-02 0.  1.
    10030    2    1    2    0    0  0.00000000000E+00  0.00000000000E+00  0.44963313220E+03  0.13303390888E+04  0.12520511721E+04 0.  0.
        5    1    3    3  502    0  0.27606122137E+03 -0.12751090226E+03 -0.35658819582E+03  0.46866412231E+03  0.46999998093E+01 0.  1.
       -5    1    3    3    0  502 -0.27606122137E+03  0.12751090226E+03  0.80622132802E+03  0.86167496650E+03  0.46999998093E+01 0. -1.
</event>
<event>
 5   0  0.1873488E-03  0.1291181E+04  0.7818609E-02  0.9036588E-01
        1   -1    0    0  501    0  0.00000000000E+00  0.00000000000E+00  0.36451589726E+03  0.36451589729E+03  0.50400001928E-02 0. -1.
       -1   -1    0    0    0  501  0.00000000000E+00  0.00000000000E+00 -0.11433989862E+04  0.11433989862E+04  0.50400001928E-02 0.  1.
    10030    2    1    2    0    0  0.00000000000E+00  0.00000000000E+00 -0.77888308892E+03  0.15079148835E+04  0.12911810212E+04 0.  0.
        3    1    3    3  502    0 -0.20805222626E+03  0.57634249703E+03 -0.62686632503E+03  0.87659443439E+03  0.10100000352E+00 0. -1.
       -3    1    3    3    0  502  0.20805222626E+03 -0.57634249703E+03 -0.15201676388E+03  0.63132044909E+03  0.10100000352E+00 0.  1.
</event>
<event>
 5   0  0.3294720E-03  0.1301184E+04  0.7818609E-02  0.9028626E-01
        2   -1    0    0  501    0  0.00000000000E+00  0.00000000000E+00  0.10903331198E+04  0.10903331198E+04  0.25500000920E-02 0. -1.
       -2   -1    0    0    0  501  0.00000000000E+00  0.00000000000E+00 -0.38820264847E+03  0.38820264848E+03  0.25500000920E-02 0.  1.
    10030    2    1    2    0    0  0.00000000000E+00  0.00000000000E+00  0.70213047131E+03  0.14785357683E+04  0.13011843910E+04 0.  0.
        5    1    3    3  502    0  0.56228924036E+03  0.63234750394E+02  0.71588705866E+03  0.91251531178E+03  0.46999998093E+01 0. -1.
       -5    1    3    3    0  502 -0.56228924036E+03 -0.63234750394E+02 -0.13756587346E+02  0.56602045649E+03  0.46999998093E+01 0.  1.
</event>
<event>
 5   0  0.1873488E-03  0.1298962E+04  0.7818609E-02  0.9030389E-01
       -1   -1    0    0    0  501  0.00000000000E+00  0.00000000000E+00  0.78488320526E+03  0.78488320528E+03  0.50400001928E-02 0.  1.
        1   -1    0    0  501    0  0.00000000000E+00  0.00000000000E+00 -0.53743712987E+03  0.53743712989E+03  0.50400001928E-02 0. -1.
    10030    2    1    2    0    0  0.00000000000E+00  0.00000000000E+00  0.24744607539E+03  0.13223203352E+04  0.12989617040E+04 0.  0.
        3    1    3    3  502    0  0.18447357533E+03 -0.31563370615E+03 -0.42274515181E+03  0.55889946326E+03  0.10100000352E+00 0. -1.
       -3    1    3    3    0  502 -0.18447357533E+03  0.31563370615E+03  0.67019122720E+03  0.76342087191E+03  0.10100000352E+00 0.  1.
</event>
<event>
 5   0  0.3294720E-03  0.1293459E+04  0.7818609E-02  0.9034768E-01
       -2   -1    0    0    0  501  0.00000000000E+00  0.00000000000E+00  0.62108404558E+03  0.62108404558E+03  0.25500000920E-02 0.  1.
        2   -1    0    0  501    0  0.00000000000E+00  0.00000000000E+00 -0.67343402350E+03  0.67343402351E+03  0.25500000920E-02 0. -1.
    10030    2    1    2    0    0  0.00000000000E+00  0.00000000000E+00 -0.52349977925E+02  0.12945180691E+04  0.12934591261E+04 0.  0.
        5    1    3    3  502    0  0.34045725260E+03 -0.51523746972E+02 -0.57404548215E+03  0.66941477644E+03  0.46999998093E+01 0. -1.
       -5    1    3    3    0  502 -0.34045725260E+03  0.51523746972E+02  0.52169550422E+03  0.62510329264E+03  0.46999998093E+01 0.  1.
</event>
<event>
 5   0  0.1823154E-03  0.1315524E+04  0.7818609E-02  0.9017344E-01
       -1   -1    0    0    0  501  0.00000000000E+00  0.00000000000E+00  0.53336917888E+03  0.53336917890E+03  0.50400001928E-02 0.  1.
        1   -1    0    0  501    0  0.00000000000E+00  0.00000000000E+00 -0.81116612343E+03  0.81116612344E+03  0.50400001928E-02 0. -1.
    10030    2    1    2    0    0  0.00000000000E+00  0.00000000000E+00 -0.27779694455E+03  0.13445353023E+04  0.13155242441E+04 0.  0.
        2    1    3    3  502    0 -0.54833720544E+03  0.32526533513E+03 -0.30426832918E+03  0.70643502550E+03  0.25500000920E-02 0.  1.
       -2    1    3    3    0  502  0.54833720544E+03 -0.32526533513E+03  0.26471384624E+02  0.63810027685E+03  0.25500000920E-02 0. -1.
</event>
<event>
 5   0  0.3336609E-03  0.1268980E+04  0.7818609E-02  0.9054532E-01
        2   -1    0    0  501    0  0.00000000000E+00  0.00000000000E+00  0.37598219103E+03  0.37598219104E+03  0.25500000920E-02 0. -1.
       -2   -1    0    0    0  501  0.00000000000E+00  0.00000000000E+00 -0.10707358843E+04  0.10707358843E+04  0.25500000920E-02 0.  1.
    10030    2    1    2    0    0  0.00000000000E+00  0.00000000000E+00 -0.69475369331E+03  0.14467180754E+04  0.12689801004E+04 0.  0.
        1    1    3    3  502    0  0.59800477578E+03 -0.43617089617E+02 -0.58396535617E+03  0.83697532795E+03  0.50400001928E-02 0.  1.
       -1    1    3    3    0  502 -0.59800477578E+03  0.43617089617E+02 -0.11078833714E+03  0.60974274743E+03  0.50400001928E-02 0. -1.
</event>
<event>
 5   0  0.1823154E-03  0.1298091E+04  0.7818609E-02  0.9031080E-01
       -1   -1    0    0    0  501  0.00000000000E+00  0.00000000000E+00  0.63147417381E+03  0.63147417383E+03  0.50400001928E-02 0. -1.
        1   -1    0    0  501    0  0.00000000000E+00  0.00000000000E+00 -0.66710612178E+03  0.66710612180E+03  0.50400001928E-02 0.  1.
    10030    2    1    2    0    0  0.00000000000E+00  0.00000000000E+00 -0.35631947969E+02  0.12985802956E+04  0.12980913483E+04 0.  0.
        2    1    3    3  502    0  0.53278418369E+02  0.55584313928E+03  0.31315619580E+03  0.64020855065E+03  0.25500000920E-02 0. -1.
       -2    1    3    3    0  502 -0.53278418369E+02 -0.55584313928E+03 -0.34878814376E+03  0.65837174498E+03  0.25500000920E-02 0.  1.
</event>
<event>
 5   0  0.3259968E-03  0.1335236E+04  0.7818609E-02  0.9002080E-01
       -2   -1    0    0    0  501  0.00000000000E+00  0.00000000000E+00  0.63174363292E+03  0.63174363293E+03  0.25500000920E-02 0. -1.
        2   -1    0    0  501    0  0.00000000000E+00  0.00000000000E+00 -0.70552948548E+03  0.70552948549E+03  0.25500000920E-02 0.  1.
    10030    2    1    2    0    0  0.00000000000E+00  0.00000000000E+00 -0.73785852559E+02  0.13372731184E+04  0.13352359496E+04 0.  0.
        4    1    3    3  502    0  0.23270904424E+03 -0.22285791085E+03 -0.62250119763E+03  0.70094828743E+03  0.12699999809E+01 0.  1.
       -4    1    3    3    0  502 -0.23270904424E+03  0.22285791085E+03  0.54871534507E+03  0.63632483098E+03  0.12699999809E+01 0. -1.
</event>
<event>
 5   0  0.1803959E-03  0.1302678E+04  0.7818609E-02  0.9027444E-01
       -1   -1    0    0    0  501  0.00000000000E+00  0.00000000000E+00  0.37731122243E+03  0.37731122246E+03  0.50400001928E-02 0.  1.
        1   -1    0    0  501    0  0.00000000000E+00  0.00000000000E+00 -0.11243838072E+04  0.11243838072E+04  0.50400001928E-02 0. -1.
    10030    2    1    2    0    0  0.00000000000E+00  0.00000000000E+00 -0.74707258480E+03  0.15016950297E+04  0.13026782086E+04 0.  0.
        4    1    3    3  502    0  0.53911421593E+03 -0.17083787410E+03 -0.10430964177E+01  0.56553728259E+03  0.12699999809E+01 0.  1.
       -4    1    3    3    0  502 -0.53911421593E+03  0.17083787410E+03 -0.74602948838E+03  0.93615774711E+03  0.12699999809E+01 0. -1.
</event>
<event>
 5   0  0.1254125E-03  0.1303497E+04  0.7818609E-02  0.9026797E-01
       -4   -1    0    0    0  501  0.00000000000E+00  0.00000000000E+00  0.28313080929E+03  0.28313365761E+03  0.12699999809E+01 0.  1.
        4   -1    0    0  501    0  0.00000000000E+00  0.00000000000E+00 -0.15002713035E+04  0.15002718411E+04  0.12699999809E+01 0. -1.
    10030    2    1    2    0    0  0.00000000000E+00  0.00000000000E+00 -0.12171404942E+04  0.17834054987E+04  0.13034969083E+04 0.  0.
        1    1    3    3  502    0 -0.51844229157E+03 -0.96682247215E+02 -0.84637583688E+02  0.53412862422E+03  0.50400001928E-02 0.  1.
       -1    1    3    3    0  502  0.51844229157E+03  0.96682247215E+02 -0.11325029105E+04  0.12492768745E+04  0.50400001928E-02 0. -1.
</event>
<event>
 5   0  0.1873488E-03  0.1235678E+04  0.7818609E-02  0.9082188E-01
        1   -1    0    0  501    0  0.00000000000E+00  0.00000000000E+00  0.55421969262E+03  0.55421969264E+03  0.50400001928E-02 0.  1.
       -1   -1    0    0    0  501  0.00000000000E+00  0.00000000000E+00 -0.68876158496E+03  0.68876158498E+03  0.50400001928E-02 0. -1.
    10030    2    1    2    0    0  0.00000000000E+00  0.00000000000E+00 -0.13454189234E+03  0.12429812776E+04  0.12356783302E+04 0.  0.
        3    1    3    3  502    0  0.51092128304E+03  0.12791775961E+03  0.25762665997E+03  0.58632330400E+03  0.10100000352E+00 0.  1.
       -3    1    3    3    0  502 -0.51092128304E+03 -0.12791775961E+03 -0.39216855231E+03  0.65665797362E+03  0.10100000352E+00 0. -1.
</event>
<event>
 5   0  0.1823154E-03  0.1309475E+04  0.7818609E-02  0.9022085E-01
        1   -1    0    0  501    0  0.00000000000E+00  0.00000000000E+00  0.91477371750E+03  0.91477371751E+03  0.50400001928E-02 0.  1.
       -1   -1    0    0    0  501  0.00000000000E+00  0.00000000000E+00 -0.46861958152E+03  0.46861958155E+03  0.50400001928E-02 0. -1.
    10030    2    1    2    0    0  0.00000000000E+00  0.00000000000E+00  0.44615413598E+03  0.13833932991E+04  0.13094745155E+04 0.  0.
        2    1    3    3  502    0 -0.42278418175E+03 -0.95366533909E+02 -0.29537976008E+03  0.52449065082E+03  0.25500000920E-02 0. -1.
       -2    1    3    3    0  502  0.42278418175E+03  0.95366533909E+02  0.74153389606E+03  0.85890264823E+03  0.25500000920E-02 0.  1.
</event>
<event>
 5   0  0.1873488E-03  0.1277902E+04  0.7818609E-02  0.9047275E-01
       -1   -1    0    0    0  501  0.00000000000E+00  0.00000000000E+00  0.16073309357E+03  0.16073309365E+03  0.50400001928E-02 0.  1.
        1   -1    0    0  501    0  0.00000000000E+00  0.00000000000E+00 -0.25399780973E+04  0.25399780973E+04  0.50400001928E-02 0. -1.
    10030    2    1    2    0    0  0.00000000000E+00  0.00000000000E+00 -0.23792450038E+04  0.27007111910E+04  0.12779022455E+04 0.  0.
        3    1    3    3  502    0 -0.30449641639E+03  0.23197601785E+03 -0.22708205700E+04  0.23028584437E+04  0.10100000352E+00 0. -1.
       -3    1    3    3    0  502  0.30449641639E+03 -0.23197601785E+03 -0.10842443373E+03  0.39785274724E+03  0.10100000352E+00 0.  1.
</event>
<event>
 5   0  0.1814770E-03  0.1274874E+04  0.7818609E-02  0.9049731E-01
        1   -1    0    0  501    0  0.00000000000E+00  0.00000000000E+00  0.98526329973E+03  0.98526329974E+03  0.50400001928E-02 0.  1.
       -1   -1    0    0    0  501  0.00000000000E+00  0.00000000000E+00 -0.41240323104E+03  0.41240323107E+03  0.50400001928E-02 0. -1.
    10030    2    1    2    0    0  0.00000000000E+00  0.00000000000E+00  0.57286006869E+03  0.13976665308E+04  0.12748737479E+04 0.  0.
        5    1    3    3  502    0 -0.58930063410E+03  0.11329604668E+03  0.50804761472E+02  0.60225778977E+03  0.46999998093E+01 0. -1.
       -5    1    3    3    0  502  0.58930063410E+03 -0.11329604668E+03  0.52205530721E+03  0.79540874105E+03  0.46999998093E+01 0.  1.
</event>
<event>
 5   0  0.1814770E-03  0.1305704E+04  0.7818609E-02  0.9025054E-01
       -1   -1    0    0    0  501  0.00000000000E+00  0.00000000000E+00  0.23875261442E+03  0.23875261447E+03  0.50400001928E-02 0.  1.
        1   -1    0    0  501    0  0.00000000000E+00  0.00000000000E+00 -0.17851767541E+04  0.17851767541E+04  0.50400001928E-02 0. -1.
    10030    2    1    2    0    0  0.00000000000E+00  0.00000000000E+00 -0.15464241397E+04  0.20239293685E+04  0.13057038214E+04 0.  0.
        5    1    3    3  502    0  0.34377005292E+03  0.51906934020E+03 -0.46874034019E+03  0.77932690557E+03  0.46999998093E+01 0.  1.
       -5    1    3    3    0  502 -0.34377005292E+03 -0.51906934020E+03 -0.10776837995E+04  0.12446024630E+04  0.46999998093E+01 0. -1.
</event>
<event>
 5   0  0.1814770E-03  0.9028718E+03  0.7818609E-02  0.9421999E-01
       -1   -1    0    0    0  501  0.00000000000E+00  0.00000000000E+00  0.13336806465E+03  0.13336806474E+03  0.50400001928E-02 0.  1.
        1   -1    0    0  501    0  0.00000000000E+00  0.00000000000E+00 -0.15280596318E+04  0.15280596318E+04  0.50400001928E-02 0. -1.
    10030    2    1    2    0    0  0.00000000000E+00  0.00000000000E+00 -0.13946915672E+04  0.16614276966E+04  0.90287176463E+03 0.  0.
        5    1    3    3  502    0 -0.12925054540E+03  0.36341684701E+03 -0.26581078810E+03  0.46846021522E+03  0.46999998093E+01 0.  1.
       -5    1    3    3    0  502  0.12925054540E+03 -0.36341684701E+03 -0.11288807791E+04  0.11929674813E+04  0.46999998093E+01 0. -1.
</event>
<event>
 5   0  0.3259968E-03  0.1290477E+04  0.7818609E-02  0.9037151E-01
       -2   -1    0    0    0  501  0.00000000000E+00  0.00000000000E+00  0.38496474415E+03  0.38496474416E+03  0.25500000920E-02 0.  1.
        2   -1    0    0  501    0  0.00000000000E+00  0.00000000000E+00 -0.10814829478E+04  0.10814829478E+04  0.25500000920E-02 0. -1.
    10030    2    1    2    0    0  0.00000000000E+00  0.00000000000E+00 -0.69651820369E+03  0.14664476920E+04  0.12904771309E+04 0.  0.
        4    1    3    3  502    0 -0.19337981832E+03 -0.48201795174E+03 -0.78334455097E+03  0.93987624631E+03  0.12699999809E+01 0. -1.
       -4    1    3    3    0  502  0.19337981832E+03  0.48201795174E+03  0.86826347286E+02  0.52657144569E+03  0.12699999809E+01 0.  1.
</event>
<event>
 5   0  0.1803959E-03  0.1308302E+04  0.7818609E-02  0.9023008E-01
       -1   -1    0    0    0  501  0.00000000000E+00  0.00000000000E+00  0.69221805778E+03  0.69221805780E+03  0.50400001928E-02 0.  1.
        1   -1    0    0  501    0  0.00000000000E+00  0.00000000000E+00 -0.61817718099E+03  0.61817718101E+03  0.50400001928E-02 0. -1.
    10030    2    1    2    0    0  0.00000000000E+00  0.00000000000E+00  0.74040876785E+02  0.13103952388E+04  0.13083018117E+04 0.  0.
        4    1    3    3  502    0 -0.21693715853E+03  0.37154947456E+03  0.53055735745E+03  0.68308379079E+03  0.12699999809E+01 0.  1.
       -4    1    3    3    0  502  0.21693715853E+03 -0.37154947456E+03 -0.45651648066E+03  0.62731144802E+03  0.12699999809E+01 0. -1.
</event>
<event>
 5   0  0.3262927E-03  0.1299207E+04  0.7818609E-02  0.9030194E-01
        2   -1    0    0  501    0  0.00000000000E+00  0.00000000000E+00  0.19046416628E+04  0.19046416628E+04  0.25500000920E-02 0. -1.
       -2   -1    0    0    0  501  0.00000000000E+00  0.00000000000E+00 -0.22155599619E+03  0.22155599620E+03  0.25500000920E-02 0.  1.
    10030    2    1    2    0    0  0.00000000000E+00  0.00000000000E+00  0.16830856666E+04  0.21261976590E+04  0.12992071136E+04 0.  0.
        3    1    3    3  502    0 -0.64734762795E+03  0.45741944619E+02  0.88879007450E+03  0.11004994701E+04  0.10100000352E+00 0. -1.
       -3    1    3    3    0  502  0.64734762795E+03 -0.45741944619E+02  0.79429559210E+03  0.10256981889E+04  0.10100000352E+00 0.  1.
</event>
<event>
 5   0  0.3336609E-03  0.1256816E+04  0.7818609E-02  0.9064529E-01
        2   -1    0    0  501    0  0.00000000000E+00  0.00000000000E+00  0.15919692062E+04  0.15919692062E+04  0.25500000920E-02 0. -1.
       -2   -1    0    0    0  501  0.00000000000E+00  0.00000000000E+00 -0.24805539901E+03  0.24805539902E+03  0.25500000920E-02 0.  1.
    10030    2    1    2    0    0  0.00000000000E+00  0.00000000000E+00  0.13439138072E+04  0.18400246052E+04  0.12568159080E+04 0.  0.
        1    1    3    3  502    0 -0.15537294193E+03 -0.52337239759E+03  0.21636821125E+03  0.58726026641E+03  0.50400001928E-02 0.  1.
       -1    1    3    3    0  502  0.15537294193E+03  0.52337239759E+03  0.11275455959E+04  0.12527643388E+04  0.50400001928E-02 0. -1.
</event>
<event>
 5   0  0.1803959E-03  0.1311668E+04  0.7818609E-02  0.9020364E-01
        1   -1    0    0  501    0  0.00000000000E+00  0.00000000000E+00  0.93336816182E+03  0.93336816183E+03  0.50400001928E-02 0.  1.
       -1   -1    0    0    0  501  0.00000000000E+00  0.00000000000E+00 -0.46082347917E+03  0.46082347920E+03  0.50400001928E-02 0. -1.
    10030    2    1    2    0    0  0.00000000000E+00  0.00000000000E+00  0.47254468264E+03  0.13941916410E+04  0.13116675855E+04 0.  0.
        4    1    3    3  502    0  0.11804495646E+03 -0.44365627549E+03  0.73408776430E+03  0.86582444013E+03  0.12699999809E+01 0.  1.
       -4    1    3    3    0  502 -0.11804495646E+03  0.44365627549E+03 -0.26154308166E+03  0.52836720090E+03  0.12699999809E+01 0. -1.
</event>
<event>
 5   0  0.3336609E-03  0.1321714E+04  0.7818609E-02  0.9012521E-01
       -2   -1    0    0    0  501  0.00000000000E+00  0.00000000000E+00  0.13605246953E+03  0.13605246956E+03  0.25500000920E-02 0.  1.
        2   -1    0    0  501    0  0.00000000000E+00  0.00000000000E+00 -0.32100271671E+04  0.32100271671E+04  0.25500000920E-02 0. -1.
    10030    2    1    2    0    0  0.00000000000E+00  0.00000000000E+00 -0.30739746976E+04  0.33460796367E+04  0.13217142254E+04 0.  0.
        1    1    3    3  502    0  0.56026603104E+03  0.17089391123E+03 -0.76233871935E+03  0.96138601898E+03  0.50400001928E-02 0.  1.
       -1    1    3    3    0  502 -0.56026603104E+03 -0.17089391123E+03 -0.23116359783E+04  0.23846936177E+04  0.50400001928E-02 0. -1.
</event>
<event>
 5   0  0.3262927E-03  0.1292545E+04  0.7818609E-02  0.9035498E-01
        2   -1    0    0  501    0  0.00000000000E+00  0.00000000000E+00  0.27137753757E+04  0.27137753757E+04  0.25500000920E-02 0. -1.
       -2   -1    0    0    0  501  0.00000000000E+00  0.00000000000E+00 -0.15390670534E+03  0.15390670536E+03  0.25500000920E-02 0.  1.
    10030    2    1    2    0    0  0.00000000000E+00  0.00000000000E+00  0.25598686703E+04  0.28676820810E+04  0.12925451282E+04 0.  0.
        3    1    3    3  502    0  0.50638156764E+03  0.35514247057E+03  0.16957118493E+04  0.18049895159E+04  0.10100000352E+00 0. -1.
       -3    1    3    3    0  502 -0.50638156764E+03 -0.35514247057E+03  0.86415682103E+03  0.10626925651E+04  0.10100000352E+00 0.  1.
</event>
<event>
 5   0  0.1823154E-03  0.1301821E+04  0.7818609E-02  0.9028122E-01
       -1   -1    0    0    0  501  0.00000000000E+00  0.00000000000E+00  0.17563729972E+03  0.17563729979E+03  0.50400001928E-02 0. -1.
        1   -1    0    0  501    0  0.00000000000E+00  0.00000000000E+00 -0.24122703418E+04  0.24122703418E+04  0.50400001928E-02 0.  1.
    10030    2    1    2    0    0  0.00000000000E+00  0.00000000000E+00 -0.22366330421E+04  0.25879076416E+04  0.13018212613E+04 0.  0.
        2    1    3    3  502    0 -0.22311917882E+03 -0.57307574128E+03 -0.15422908028E+04  0.16603791415E+04  0.25500000920E-02 0. -1.
       -2    1    3    3    0  502  0.22311917882E+03  0.57307574128E+03 -0.69434223933E+03  0.92752850011E+03  0.25500000920E-02 0.  1.
</event>
<event>
 5   0  0.3262927E-03  0.1329558E+04  0.7818609E-02  0.9006448E-01
       -2   -1    0    0    0  501  0.00000000000E+00  0.00000000000E+00  0.34467018453E+03  0.34467018454E+03  0.25500000920E-02 0. -1.
        2   -1    0    0  501    0  0.00000000000E+00  0.00000000000E+00 -0.12821860429E+04  0.12821860429E+04  0.25500000920E-02 0.  1.
    10030    2    1    2    0    0  0.00000000000E+00  0.00000000000E+00 -0.93751585837E+03  0.16268562274E+04  0.13295582725E+04 0.  0.
        3    1    3    3  502    0  0.27901339469E+03 -0.25394166360E+03 -0.11385039265E+04  0.11993856944E+04  0.10100000352E+00 0.  1.
       -3    1    3    3    0  502 -0.27901339469E+03  0.25394166360E+03  0.20098806814E+03  0.42747053310E+03  0.10100000352E+00 0. -1.
</event>
<event>
 5   0  0.1803959E-03  0.1300780E+04  0.7818609E-02  0.9028947E-01
       -1   -1    0    0    0  501  0.00000000000E+00  0.00000000000E+00  0.32624928981E+03  0.32624928985E+03  0.50400001928E-02 0.  1.
        1   -1    0    0  501    0  0.00000000000E+00  0.00000000000E+00 -0.12965755766E+04  0.12965755766E+04  0.50400001928E-02 0. -1.
    10030    2    1    2    0    0  0.00000000000E+00  0.00000000000E+00 -0.97032628676E+03  0.16228248664E+04  0.13007795526E+04 0.  0.
        4    1    3    3  502    0  0.53840933359E+03  0.20670328573E+03 -0.86025591064E+03  0.10356894822E+04  0.12699999809E+01 0. -1.
       -4    1    3    3    0  502 -0.53840933359E+03 -0.20670328573E+03 -0.11007037612E+03  0.58713538424E+03  0.12699999809E+01 0.  1.
</event>
<event>
 5   0  0.1254125E-03  0.1256193E+04  0.7818609E-02  0.9065045E-01
       -4   -1    0    0    0  501  0.00000000000E+00  0.00000000000E+00  0.76870850696E+03  0.76870955606E+03  0.12699999809E+01 0. -1.
        4   -1    0    0  501    0  0.00000000000E+00  0.00000000000E+00 -0.51320280436E+03  0.51320437576E+03  0.12699999809E+01 0.  1.
    10030    2    1    2    0    0  0.00000000000E+00  0.00000000000E+00  0.25550570260E+03  0.12819139318E+04  0.12561927259E+04 0.  0.
        5    1    3    3  502    0  0.57213934735E+03  0.72024763945E+02 -0.12624502745E+03  0.59033117516E+03  0.46999998093E+01 0.  1.
       -5    1    3    3    0  502 -0.57213934735E+03 -0.72024763945E+02  0.38175073005E+03  0.69158275666E+03  0.46999998093E+01 0. -1.
</event>
<event>
 5   0  0.1803959E-03  0.1306902E+04  0.7818609E-02  0.9024110E-01
        1   -1    0    0  501    0  0.00000000000E+00  0.00000000000E+00  0.83624874737E+03  0.83624874739E+03  0.50400001928E-02 0.  1.
       -1   -1    0    0    0  501  0.00000000000E+00  0.00000000000E+00 -0.51061124298E+03  0.51061124301E+03  0.50400001928E-02 0. -1.
    10030    2    1    2    0    0  0.00000000000E+00  0.00000000000E+00  0.32563750439E+03  0.13468599904E+04  0.13069016985E+04 0.  0.
        4    1    3    3  502    0 -0.49335899693E+03  0.37801521754E+03  0.37072376903E+03  0.72369629705E+03  0.12699999809E+01 0. -1.
       -4    1    3    3    0  502  0.49335899693E+03 -0.37801521754E+03 -0.45086264643E+02  0.62316369334E+03  0.12699999809E+01 0.  1.
</event>
<event>
 5   0  0.3336609E-03  0.1272210E+04  0.7818609E-02  0.9051898E-01
        2   -1    0    0  501    0  0.00000000000E+00  0.00000000000E+00  0.17719123866E+04  0.17719123866E+04  0.25500000920E-02 0. -1.
       -2   -1    0    0    0  501  0.00000000000E+00  0.00000000000E+00 -0.22835756072E+03  0.22835756074E+03  0.25500000920E-02 0.  1.
    10030    2    1    2    0    0  0.00000000000E+00  0.00000000000E+00  0.15435548259E+04  0.20002699474E+04  0.12722100305E+04 0.  0.
        1    1    3    3  502    0 -0.50966176938E+02  0.46511106446E+03  0.94229337131E+02  0.47728924299E+03  0.50400001928E-02 0.  1.
       -1    1    3    3    0  502  0.50966176938E+02 -0.46511106446E+03  0.14493254888E+04  0.15229807044E+04  0.50400001928E-02 0. -1.
</event>
<event>
 5   0  0.1857986E-03  0.1296964E+04  0.7818609E-02  0.9031976E-01
       -1   -1    0    0    0  501  0.00000000000E+00  0.00000000000E+00  0.56787162337E+03  0.56787162339E+03  0.50400001928E-02 0. -1.
        1   -1    0    0  501    0  0.00000000000E+00  0.00000000000E+00 -0.74053542925E+03  0.74053542927E+03  0.50400001928E-02 0.  1.
    10030    2    1    2    0    0  0.00000000000E+00  0.00000000000E+00 -0.17266380588E+03  0.13084070527E+04  0.12969642345E+04 0.  0.
        1    1    3    3  502    0  0.61326961658E+03 -0.14652728633E+03  0.66527845176E+02  0.63403140495E+03  0.50400001928E-02 0.  1.
       -1    1    3    3    0  502 -0.61326961658E+03  0.14652728633E+03 -0.23919165106E+03  0.67437564771E+03  0.50400001928E-02 0. -1.
</event>
<event>
 5   0  0.1823154E-03  0.1311202E+04  0.7818609E-02  0.9020729E-01
        1   -1    0    0  501    0  0.00000000000E+00  0.00000000000E+00  0.37635046435E+03  0.37635046438E+03  0.50400001928E-02 0.  1.
       -1   -1    0    0    0  501  0.00000000000E+00  0.00000000000E+00 -0.11420542006E+04  0.11420542007E+04  0.50400001928E-02 0. -1.
    10030    2    1    2    0    0  0.00000000000E+00  0.00000000000E+00 -0.76570373630E+03  0.15184046650E+04  0.13112019353E+04 0.  0.
        2    1    3    3  502    0  0.20278058018E+03 -0.33722673139E+03 -0.99009307373E+03  0.10654229802E+04  0.25500000920E-02 0. -1.
       -2    1    3    3    0  502 -0.20278058018E+03  0.33722673139E+03  0.22438933742E+03  0.45298168485E+03  0.25500000920E-02 0.  1.
</event>
<event>
 5   0  0.3299104E-03  0.1324748E+04  0.7818609E-02  0.9010167E-01
       -2   -1    0    0    0  501  0.00000000000E+00  0.00000000000E+00  0.33306019702E+03  0.33306019703E+03  0.25500000920E-02 0. -1.
        2   -1    0    0  501    0  0.00000000000E+00  0.00000000000E+00 -0.13172972911E+04  0.13172972911E+04  0.25500000920E-02 0.  1.
    10030    2    1    2    0    0  0.00000000000E+00  0.00000000000E+00 -0.98423709406E+03  0.16503574881E+04  0.13247479689E+04 0.  0.
        2    1    3    3  502    0 -0.44271330341E+03 -0.49198229508E+03 -0.45921347689E+03  0.80555488022E+03  0.25500000920E-02 0.  1.
       -2    1    3    3    0  502  0.44271330341E+03  0.49198229508E+03 -0.52502361718E+03  0.84480260788E+03  0.25500000920E-02 0. -1.
</event>
<event>
 5   0  0.3299104E-03  0.1304954E+04  0.7818609E-02  0.9025646E-01
       -2   -1    0    0    0  501  0.00000000000E+00  0.00000000000E+00  0.26364010762E+03  0.26364010763E+03  0.25500000920E-02 0. -1.
        2   -1    0    0  501    0  0.00000000000E+00  0.00000000000E+00 -0.16148010564E+04  0.16148010564E+04  0.25500000920E-02 0.  1.
    10030    2    1    2    0    0  0.00000000000E+00  0.00000000000E+00 -0.13511609488E+04  0.18784411640E+04  0.13049541361E+04 0.  0.
        2    1    3    3  502    0 -0.39103043533E+03 -0.35083686852E+03 -0.11856913910E+03  0.53856285652E+03  0.25500000920E-02 0. -1.
       -2    1    3    3    0  502  0.39103043533E+03  0.35083686852E+03 -0.12325918097E+04  0.13398783075E+04  0.25500000920E-02 0.  1.
</event>
<event>
 5   0  0.3294720E-03  0.1302904E+04  0.7818609E-02  0.9027265E-01
       -2   -1    0    0    0  501  0.00000000000E+00  0.00000000000E+00  0.27672744508E+03  0.27672744509E+03  0.25500000920E-02 0.  1.
        2   -1    0    0  501    0  0.00000000000E+00  0.00000000000E+00 -0.15336019491E+04  0.15336019491E+04  0.25500000920E-02 0. -1.
    10030    2    1    2    0    0  0.00000000000E+00  0.00000000000E+00 -0.12568745041E+04  0.18103293942E+04  0.13029040627E+04 0.  0.
        5    1    3    3  502    0 -0.51040564247E+03 -0.31174199972E+03 -0.98720430896E+03  0.11542492936E+04  0.46999998093E+01 0. -1.
       -5    1    3    3    0  502  0.51040564247E+03  0.31174199972E+03 -0.26967019509E+03  0.65608010058E+03  0.46999998093E+01 0.  1.
</event>
<event>
 5   0  0.3336609E-03  0.1226400E+04  0.7818609E-02  0.9090057E-01
        2   -1    0    0  501    0  0.00000000000E+00  0.00000000000E+00  0.15017189901E+04  0.15017189901E+04  0.25500000920E-02 0. -1.
       -2   -1    0    0    0  501  0.00000000000E+00  0.00000000000E+00 -0.25038923489E+03  0.25038923490E+03  0.25500000920E-02 0.  1.
    10030    2    1    2    0    0  0.00000000000E+00  0.00000000000E+00  0.12513297552E+04  0.17521082250E+04  0.12264000472E+04 0.  0.
        1    1    3    3  502    0  0.19997055898E+03  0.44777394414E+03  0.99723015334E+02  0.50043422077E+03  0.50400001928E-02 0.  1.
       -1    1    3    3    0  502 -0.19997055898E+03 -0.44777394414E+03  0.11516067399E+04  0.12516740042E+04  0.50400001928E-02 0. -1.
</event>
<event>
 5   0  0.1873488E-03  0.1262357E+04  0.7818609E-02  0.9059961E-01
        1   -1    0    0  501    0  0.00000000000E+00  0.00000000000E+00  0.14515700689E+04  0.14515700689E+04  0.50400001928E-02 0.  1.
       -1   -1    0    0    0  501  0.00000000000E+00  0.00000000000E+00 -0.27445180276E+03  0.27445180281E+03  0.50400001928E-02 0. -1.
    10030    2    1    2    0    0  0.00000000000E+00  0.00000000000E+00  0.11771182661E+04  0.17260218717E+04  0.12623565618E+04 0.  0.
        3    1    3    3  502    0 -0.22811825710E+03  0.12817382816E+03  0.13739182209E+04  0.13986127975E+04  0.10100000352E+00 0.  1.
       -3    1    3    3    0  502  0.22811825710E+03 -0.12817382816E+03 -0.19679995479E+03  0.32740907418E+03  0.10100000352E+00 0. -1.
</event>
<event>
 5   0  0.3259968E-03  0.1298273E+04  0.7818609E-02  0.9030936E-01
        2   -1    0    0  501    0  0.00000000000E+00  0.00000000000E+00  0.62518239814E+03  0.62518239815E+03  0.25500000920E-02 0. -1.
       -2   -1    0    0    0  501  0.00000000000E+00  0.00000000000E+00 -0.67400867456E+03  0.67400867456E+03  0.25500000920E-02 0.  1.
    10030    2    1    2    0    0  0.00000000000E+00  0.00000000000E+00 -0.48826276417E+02  0.12991910727E+04  0.12982732525E+04 0.  0.
        4    1    3    3  502    0  0.32682729405E+03 -0.47980850665E+03 -0.31503963564E+03  0.66051787872E+03  0.12699999809E+01 0.  1.
       -4    1    3    3    0  502 -0.32682729405E+03  0.47980850665E+03  0.26621335922E+03  0.63867319399E+03  0.12699999809E+01 0. -1.
</event>
<event>
 5   0  0.3294720E-03  0.1286981E+04  0.7818609E-02  0.9039953E-01
        2   -1    0    0  501    0  0.00000000000E+00  0.00000000000E+00  0.73701947136E+03  0.73701947136E+03  0.25500000920E-02 0. -1.
       -2   -1    0    0    0  501  0.00000000000E+00  0.00000000000E+00 -0.56183078002E+03  0.56183078003E+03  0.25500000920E-02 0.  1.
    10030    2    1    2    0    0  0.00000000000E+00  0.00000000000E+00  0.17518869134E+03  0.12988502514E+04  0.12869813122E+04 0.  0.
        5    1    3    3  502    0  0.23197740285E+03 -0.42963112755E+03 -0.33539107566E+03  0.59237292716E+03  0.46999998093E+01 0.  1.
       -5    1    3    3    0  502 -0.23197740285E+03  0.42963112755E+03  0.51057976700E+03  0.70647732424E+03  0.46999998093E+01 0. -1.
</event>
<event>
 5   0  0.3262927E-03  0.1288368E+04  0.7818609E-02  0.9038840E-01
       -2   -1    0    0    0  501  0.00000000000E+00  0.00000000000E+00  0.27262817063E+03  0.27262817065E+03  0.25500000920E-02 0.  1.
        2   -1    0    0  501    0  0.00000000000E+00  0.00000000000E+00 -0.15221213470E+04  0.15221213470E+04  0.25500000920E-02 0. -1.
    10030    2    1    2    0    0  0.00000000000E+00  0.00000000000E+00 -0.12494931763E+04  0.17947495176E+04  0.12883682056E+04 0.  0.
        3    1    3    3  502    0  0.23638864788E+02 -0.33718108604E+03  0.13917250049E+03  0.36553915769E+03  0.10100000352E+00 0.  1.
       -3    1    3    3    0  502 -0.23638864788E+02  0.33718108604E+03 -0.13886656768E+04  0.14292103599E+04  0.10100000352E+00 0. -1.
</event>
<event>
 5   0  0.1857986E-03  0.1329966E+04  0.7818609E-02  0.9006134E-01
       -1   -1    0    0    0  501  0.00000000000E+00  0.00000000000E+00  0.80733151317E+03  0.80733151319E+03  0.50400001928E-02 0. -1.
        1   -1    0    0  501    0  0.00000000000E+00  0.00000000000E+00 -0.54773320439E+03  0.54773320441E+03  0.50400001928E-02 0.  1.
    10030    2    1    2    0    0  0.00000000000E+00  0.00000000000E+00  0.25959830879E+03  0.13550647176E+04  0.13299658292E+04 0.  0.
        1    1    3    3  502    0  0.23335958267E+03  0.71444656903E+02 -0.50045460371E+03  0.55679066463E+03  0.50400001928E-02 0.  1.
       -1    1    3    3    0  502 -0.23335958267E+03 -0.71444656903E+02  0.76005291249E+03  0.79827405297E+03  0.50400001928E-02 0. -1.
</event>
<event>
 5   0  0.1254125E-03  0.1309546E+04  0.7818609E-02  0.9022029E-01
       -4   -1    0    0    0  501  0.00000000000E+00  0.00000000000E+00  0.32550356563E+03  0.32550604317E+03  0.12699999809E+01 0. -1.
        4   -1    0    0  501    0  0.00000000000E+00  0.00000000000E+00 -0.13171137847E+04  0.13171143970E+04  0.12699999809E+01 0.  1.
    10030    2    1    2    0    0  0.00000000000E+00  0.00000000000E+00 -0.99161021907E+03  0.16426204402E+04  0.13095461366E+04 0.  0.
        1    1    3    3  502    0 -0.49916668882E+03 -0.42366582368E+03 -0.50612261155E+03  0.82753864643E+03  0.50400001928E-02 0.  1.
       -1    1    3    3    0  502  0.49916668882E+03  0.42366582368E+03 -0.48548760752E+03  0.81508179373E+03  0.50400001928E-02 0. -1.
</event>
<event>
 5   0  0.1823154E-03  0.1323424E+04  0.7818609E-02  0.9011193E-01
        1   -1    0    0  501    0  0.00000000000E+00  0.00000000000E+00  0.12200091744E+04  0.12200091744E+04  0.50400001928E-02 0.  1.
       -1   -1    0    0    0  501  0.00000000000E+00  0.00000000000E+00 -0.35890113288E+03  0.35890113291E+03  0.50400001928E-02 0. -1.
    10030    2    1    2    0    0  0.00000000000E+00  0.00000000000E+00  0.86110804152E+03  0.15789103073E+04  0.13234238548E+04 0.  0.
        2    1    3    3  502    0 -0.10608204032E+03 -0.63325449833E+03  0.23967348133E+03  0.68535249076E+03  0.25500000920E-02 0. -1.
       -2    1    3    3    0  502  0.10608204032E+03  0.63325449833E+03  0.62143456020E+03  0.89355781656E+03  0.25500000920E-02 0.  1.
</event>
<event>
 5   0  0.3299104E-03  0.1302295E+04  0.7818609E-02  0.9027747E-01
       -2   -1    0    0    0  501  0.00000000000E+00  0.00000000000E+00  0.43829854437E+03  0.43829854437E+03  0.25500000920E-02 0.  1.
        2   -1    0    0  501    0  0.00000000000E+00  0.00000000000E+00 -0.96736150412E+03  0.96736150412E+03  0.25500000920E-02 0. -1.
    10030    2    1    2    0    0  0.00000000000E+00  0.00000000000E+00 -0.52906295975E+03  0.14056600485E+04  0.13022951112E+04 0.  0.
        2    1    3    3  502    0  0.33189419208E+03 -0.53660925939E+03 -0.43820594494E+03  0.76819769733E+03  0.25500000920E-02 0. -1.
       -2    1    3    3    0  502 -0.33189419208E+03  0.53660925939E+03 -0.90857014809E+02  0.63746235116E+03  0.25500000920E-02 0.  1.
</event>
<event>
 5   0  0.3259968E-03  0.1291850E+04  0.7818609E-02  0.9036053E-01
       -2   -1    0    0    0  501  0.00000000000E+00  0.00000000000E+00  0.27438096889E+03  0.27438096890E+03  0.25500000920E-02 0.  1.
        2   -1    0    0  501    0  0.00000000000E+00  0.00000000000E+00 -0.15205841228E+04  0.15205841228E+04  0.25500000920E-02 0. -1.
    10030    2    1    2    0    0  0.00000000000E+00  0.00000000000E+00 -0.12462031539E+04  0.17949650917E+04  0.12918503704E+04 0.  0.
        4    1    3    3  502    0 -0.56924356256E+03  0.24437515661E+03 -0.36894076647E+03  0.72102451605E+03  0.12699999809E+01 0.  1.
       -4    1    3    3    0  502  0.56924356256E+03 -0.24437515661E+03 -0.87726238743E+03  0.10739405756E+04  0.12699999809E+01 0. -1.
</event>
<event>
 5   0  0.3294720E-03  0.1312951E+04  0.7818609E-02  0.9019358E-01
        2   -1    0    0  501    0  0.00000000000E+00  0.00000000000E+00  0.10062761988E+04  0.10062761988E+04  0.25500000920E-02 0. -1.
       -2   -1    0    0    0  501  0.00000000000E+00  0.00000000000E+00 -0.42827188316E+03  0.42827188317E+03  0.25500000920E-02 0.  1.
    10030    2    1    2    0    0  0.00000000000E+00  0.00000000000E+00  0.57800431564E+03  0.14345480820E+04  0.13129505743E+04 0.  0.
        5    1    3    3  502    0 -0.11066128252E+03  0.53887921268E+02 -0.41553296266E+03  0.43340461530E+03  0.46999998093E+01 0.  1.
       -5    1    3    3    0  502  0.11066128252E+03 -0.53887921268E+02  0.99353727830E+03  0.10011434667E+04  0.46999998093E+01 0. -1.
</event>
<event>
 5   0  0.1803959E-03  0.1317096E+04  0.7818609E-02  0.9016117E-01
       -1   -1    0    0    0  501  0.00000000000E+00  0.00000000000E+00  0.10424650439E+04  0.10424650439E+04  0.50400001928E-02 0.  1.
        1   -1    0    0  501    0  0.00000000000E+00  0.00000000000E+00 -0.41601927710E+03  0.41601927713E+03  0.50400001928E-02 0. -1.
    10030    2    1    2    0    0  0.00000000000E+00  0.00000000000E+00  0.62644576682E+03  0.14584843211E+04  0.13170961301E+04 0.  0.
        4    1    3    3  502    0 -0.18136920083E+03  0.59533862391E+03  0.55165296594E+03  0.83165225417E+03  0.12699999809E+01 0.  1.
       -4    1    3    3    0  502  0.18136920083E+03 -0.59533862391E+03  0.74792800878E+02  0.62683206690E+03  0.12699999809E+01 0. -1.
</event>
<event>
 5   0  0.1803959E-03  0.1291012E+04  0.7818609E-02  0.9036723E-01
       -1   -1    0    0    0  501  0.00000000000E+00  0.00000000000E+00  0.44466930552E+03  0.44466930555E+03  0.50400001928E-02 0. -1.
        1   -1    0    0  501    0  0.00000000000E+00  0.00000000000E+00 -0.93705208727E+03  0.93705208729E+03  0.50400001928E-02 0.  1.
    10030    2    1    2    0    0  0.00000000000E+00  0.00000000000E+00 -0.49238278175E+03  0.13817213928E+04  0.12910124723E+04 0.  0.
        4    1    3    3  502    0  0.27057136596E+03 -0.94969680343E+01  0.38096527717E+03  0.46737052944E+03  0.12699999809E+01 0. -1.
       -4    1    3    3    0  502 -0.27057136596E+03  0.94969680343E+01 -0.87334805892E+03  0.91435086340E+03  0.12699999809E+01 0.  1.
</event>
<event>
 5   0  0.3299104E-03  0.1295427E+04  0.7818609E-02  0.9033199E-01
        2   -1    0    0  501    0  0.00000000000E+00  0.00000000000E+00  0.65475064614E+03  0.65475064615E+03  0.25500000920E-02 0.  1.
       -2   -1    0    0    0  501  0.00000000000E+00  0.00000000000E+00 -0.64075226107E+03  0.64075226107E+03  0.25500000920E-02 0. -1.
    10030    2    1    2    0    0  0.00000000000E+00  0.00000000000E+00  0.13998385074E+02  0.12955029072E+04  0.12954272762E+04 0.  0.
        2    1    3    3  502    0  0.19234645819E+03 -0.17418052436E+03 -0.58649728412E+03  0.64133850604E+03  0.25500000920E-02 0. -1.
       -2    1    3    3    0  502 -0.19234645819E+03  0.17418052436E+03  0.60049566919E+03  0.65416440118E+03  0.25500000920E-02 0.  1.
</event>
<event>
 5   0  0.3336609E-03  0.1256667E+04  0.7818609E-02  0.9064653E-01
        2   -1    0    0  501    0  0.00000000000E+00  0.00000000000E+00  0.29762114975E+03  0.29762114976E+03  0.25500000920E-02 0. -1.
       -2   -1    0    0    0  501  0.00000000000E+00  0.00000000000E+00 -0.13265278789E+04  0.13265278789E+04  0.25500000920E-02 0.  1.
    10030    2    1    2    0    0  0.00000000000E+00  0.00000000000E+00 -0.10289067292E+04  0.16241490287E+04  0.12566666265E+04 0.  0.
        1    1    3    3  502    0  0.11970704062E+03  0.61345821222E+03 -0.59763180592E+03  0.86476848300E+03  0.50400001928E-02 0.  1.
       -1    1    3    3    0  502 -0.11970704062E+03 -0.61345821222E+03 -0.43127492327E+03  0.75938054570E+03  0.50400001928E-02 0. -1.
</event>
<event>
 5   0  0.3336609E-03  0.1290482E+04  0.7818609E-02  0.9037147E-01
       -2   -1    0    0    0  501  0.00000000000E+00  0.00000000000E+00  0.29560977729E+03  0.29560977730E+03  0.25500000920E-02 0.  1.
        2   -1    0    0  501    0  0.00000000000E+00  0.00000000000E+00 -0.14083975305E+04  0.14083975305E+04  0.25500000920E-02 0. -1.
    10030    2    1    2    0    0  0.00000000000E+00  0.00000000000E+00 -0.11127877532E+04  0.17040073078E+04  0.12904822050E+04 0.  0.
        1    1    3    3  502    0 -0.24548901077E+03  0.37824471051E+03 -0.11658064937E+04  0.12499754782E+04  0.50400001928E-02 0. -1.
       -1    1    3    3    0  502  0.24548901077E+03 -0.37824471051E+03  0.53018740428E+02  0.45403182961E+03  0.50400001928E-02 0.  1.
</event>
<event>
 5   0  0.1823154E-03  0.1304818E+04  0.7818609E-02  0.9025753E-01
       -1   -1    0    0    0  501  0.00000000000E+00  0.00000000000E+00  0.39762629758E+03  0.39762629761E+03  0.50400001928E-02 0. -1.
        1   -1    0    0  501    0  0.00000000000E+00  0.00000000000E+00 -0.10704460178E+04  0.10704460178E+04  0.50400001928E-02 0.  1.
    10030    2    1    2    0    0  0.00000000000E+00  0.00000000000E+00 -0.67281972019E+03  0.14680723154E+04  0.13048179748E+04 0.  0.
        2    1    3    3  502    0  0.65611901723E+02 -0.45961931382E+02 -0.10648913969E+04  0.10679003268E+04  0.25500000920E-02 0.  1.
       -2    1    3    3    0  502 -0.65611901723E+02  0.45961931382E+02  0.39207167670E+03  0.40017198860E+03  0.25500000920E-02 0. -1.
</event>
<event>
 5   0  0.3294720E-03  0.1291640E+04  0.7818609E-02  0.9036221E-01
       -2   -1    0    0    0  501  0.00000000000E+00  0.00000000000E+00  0.18441039297E+03  0.18441039299E+03  0.25500000920E-02 0. -1.
        2   -1    0    0  501    0  0.00000000000E+00  0.00000000000E+00 -0.22617147759E+04  0.22617147759E+04  0.25500000920E-02 0.  1.
    10030    2    1    2    0    0  0.00000000000E+00  0.00000000000E+00 -0.20773043829E+04  0.24461251689E+04  0.12916403689E+04 0.  0.
        5    1    3    3  502    0  0.26030453466E+03  0.47677076804E+02 -0.21542833053E+04  0.21704815604E+04  0.46999998093E+01 0.  1.
       -5    1    3    3    0  502 -0.26030453466E+03 -0.47677076804E+02  0.76978922382E+02  0.27564360850E+03  0.46999998093E+01 0. -1.
</event>
<event>
 5   0  0.1803959E-03  0.1292960E+04  0.7818609E-02  0.9035167E-01
       -1   -1    0    0    0  501  0.00000000000E+00  0.00000000000E+00  0.30484290987E+03  0.30484290991E+03  0.50400001928E-02 0. -1.
        1   -1    0    0  501    0  0.00000000000E+00  0.00000000000E+00 -0.13709891130E+04  0.13709891130E+04  0.50400001928E-02 0.  1.
    10030    2    1    2    0    0  0.00000000000E+00  0.00000000000E+00 -0.10661462031E+04  0.16758320229E+04  0.12929598766E+04 0.  0.
        4    1    3    3  502    0 -0.48476426916E+03 -0.34745904139E+03 -0.85635198507E+03  0.10435825398E+04  0.12699999809E+01 0.  1.
       -4    1    3    3    0  502  0.48476426916E+03  0.34745904139E+03 -0.20979421806E+03  0.63224948314E+03  0.12699999809E+01 0. -1.
</event>
<event>
 5   0  0.1857986E-03  0.1226308E+04  0.7818609E-02  0.9090136E-01
       -1   -1    0    0    0  501  0.00000000000E+00  0.00000000000E+00  0.69064212934E+03  0.69064212936E+03  0.50400001928E-02 0. -1.
        1   -1    0    0  501    0  0.00000000000E+00  0.00000000000E+00 -0.54435949898E+03  0.54435949900E+03  0.50400001928E-02 0.  1.
    10030    2    1    2    0    0  0.00000000000E+00  0.00000000000E+00  0.14628263036E+03  0.12350016284E+04  0.12263076344E+04 0.  0.
        1    1    3    3  502    0 -0.13463873350E+02  0.18590573608E+03  0.66141903522E+03  0.68718073224E+03  0.50400001928E-02 0. -1.
       -1    1    3    3    0  502  0.13463873350E+02 -0.18590573608E+03 -0.51513640485E+03  0.54782089612E+03  0.50400001928E-02 0.  1.
</event>
<event>
 5   0  0.1857986E-03  0.1319873E+04  0.7818609E-02  0.9013953E-01
       -1   -1    0    0    0  501  0.00000000000E+00  0.00000000000E+00  0.37496594453E+03  0.37496594456E+03  0.50400001928E-02 0. -1.
        1   -1    0    0  501    0  0.00000000000E+00  0.00000000000E+00 -0.11614818381E+04  0.11614818381E+04  0.50400001928E-02 0.  1.
    10030    2    1    2    0    0  0.00000000000E+00  0.00000000000E+00 -0.78651589353E+03  0.15364477826E+04  0.13198729249E+04 0.  0.
        1    1    3    3  502    0  0.58422779336E+02 -0.91049736174E+02 -0.11510896151E+04  0.11561620032E+04  0.50400001928E-02 0.  1.
       -1    1    3    3    0  502 -0.58422779336E+02  0.91049736174E+02  0.36457372154E+03  0.38028577947E+03  0.50400001928E-02 0. -1.
</event>
<event>
 5   0  0.1823154E-03  0.1332253E+04  0.7818609E-02  0.9004372E-01
        1   -1    0    0  501    0  0.00000000000E+00  0.00000000000E+00  0.63015425143E+03  0.63015425145E+03  0.50400001928E-02 0. -1.
       -1   -1    0    0    0  501  0.00000000000E+00  0.00000000000E+00 -0.70415252472E+03  0.70415252474E+03  0.50400001928E-02 0.  1.
    10030    2    1    2    0    0  0.00000000000E+00  0.00000000000E+00 -0.73998273290E+02  0.13343067762E+04  0.13322532899E+04 0.  0.
        2    1    3    3  502    0 -0.62501242841E+03 -0.22560474109E+03  0.98348079563E+01  0.66455606108E+03  0.25500000920E-02 0.  1.
       -2    1    3    3    0  502  0.62501242841E+03  0.22560474109E+03 -0.83833081246E+02  0.66975071511E+03  0.25500000920E-02 0. -1.
</event>
<event>
 5   0  0.1857986E-03  0.1303243E+04  0.7818609E-02  0.9026997E-01
       -1   -1    0    0    0  501  0.00000000000E+00  0.00000000000E+00  0.91689508770E+03  0.91689508772E+03  0.50400001928E-02 0. -1.
        1   -1    0    0  501    0  0.00000000000E+00  0.00000000000E+00 -0.46309641041E+03  0.46309641043E+03  0.50400001928E-02 0.  1.
    10030    2    1    2    0    0  0.00000000000E+00  0.00000000000E+00  0.45379867730E+03  0.13799914982E+04  0.13032433754E+04 0.  0.
        1    1    3    3  502    0  0.43254269096E+03  0.23551751456E+03  0.67869827715E+03  0.83856605619E+03  0.50400001928E-02 0. -1.
       -1    1    3    3    0  502 -0.43254269096E+03 -0.23551751456E+03 -0.22489959985E+03  0.54142544196E+03  0.50400001928E-02 0.  1.
</event>
<event>
 5   0  0.3262927E-03  0.1292144E+04  0.7818609E-02  0.9035818E-01
       -2   -1    0    0    0  501  0.00000000000E+00  0.00000000000E+00  0.24232831268E+03  0.24232831270E+03  0.25500000920E-02 0.  1.
        2   -1    0    0  501    0  0.00000000000E+00  0.00000000000E+00 -0.17224948532E+04  0.17224948532E+04  0.25500000920E-02 0. -1.
    10030    2    1    2    0    0  0.00000000000E+00  0.00000000000E+00 -0.14801665406E+04  0.19648231659E+04  0.12921443749E+04 0.  0.
        3    1    3    3  502    0 -0.15083689373E+03 -0.33332912072E+03  0.69621381174E+02  0.37243417961E+03  0.10100000352E+00 0.  1.
       -3    1    3    3    0  502  0.15083689373E+03  0.33332912072E+03 -0.15497879217E+04  0.15923889863E+04  0.10100000352E+00 0. -1.
</event>
<event>
 5   0  0.1873488E-03  0.1343577E+04  0.7818609E-02  0.8995705E-01
        1   -1    0    0  501    0  0.00000000000E+00  0.00000000000E+00  0.10697727260E+04  0.10697727260E+04  0.50400001928E-02 0.  1.
       -1   -1    0    0    0  501  0.00000000000E+00  0.00000000000E+00 -0.42186480195E+03  0.42186480198E+03  0.50400001928E-02 0. -1.
    10030    2    1    2    0    0  0.00000000000E+00  0.00000000000E+00  0.64790792402E+03  0.14916375280E+04  0.13435765095E+04 0.  0.
        3    1    3    3  502    0  0.44941416831E+03  0.26605096942E+03 -0.14515377940E+03  0.54205704763E+03  0.10100000352E+00 0. -1.
       -3    1    3    3    0  502 -0.44941416831E+03 -0.26605096942E+03  0.79306170342E+03  0.94958048034E+03  0.10100000352E+00 0.  1.
</event>
<event>
 5   0  0.3259968E-03  0.1308911E+04  0.7818609E-02  0.9022529E-01
        2   -1    0    0  501    0  0.00000000000E+00  0.00000000000E+00  0.17649661086E+04  0.17649661086E+04  0.25500000920E-02 0. -1.
       -2   -1    0    0    0  501  0.00000000000E+00  0.00000000000E+00 -0.24267423575E+03  0.24267423576E+03  0.25500000920E-02 0.  1.
    10030    2    1    2    0    0  0.00000000000E+00  0.00000000000E+00  0.15222918728E+04  0.20076403443E+04  0.13089106945E+04 0.  0.
        4    1    3    3  502    0  0.64032519325E+03 -0.89834594362E+02  0.91623366059E+03  0.11214153295E+04  0.12699999809E+01 0.  1.
       -4    1    3    3    0  502 -0.64032519325E+03  0.89834594362E+02  0.60605821222E+03  0.88622501486E+03  0.12699999809E+01 0. -1.
</event>
<event>
 5   0  0.3262927E-03  0.1286491E+04  0.7818609E-02  0.9040347E-01
       -2   -1    0    0    0  501  0.00000000000E+00  0.00000000000E+00  0.57959607546E+03  0.57959607547E+03  0.25500000920E-02 0.  1.
        2   -1    0    0  501    0  0.00000000000E+00  0.00000000000E+00 -0.71388469249E+03  0.71388469249E+03  0.25500000920E-02 0. -1.
    10030    2    1    2    0    0  0.00000000000E+00  0.00000000000E+00 -0.13428861702E+03  0.12934807680E+04  0.12864909889E+04 0.  0.
        3    1    3    3  502    0  0.56755305253E+03 -0.16458131251E+03  0.18832532999E+03  0.62021763598E+03  0.10100000352E+00 0.  1.
       -3    1    3    3    0  502 -0.56755305253E+03  0.16458131251E+03 -0.32261394702E+03  0.67326313198E+03  0.10100000352E+00 0. -1.
</event>
<event>
 5   0  0.3299104E-03  0.1307909E+04  0.7818609E-02  0.9023316E-01
        2   -1    0    0  501    0  0.00000000000E+00  0.00000000000E+00  0.14555419033E+04  0.14555419033E+04  0.25500000920E-02 0. -1.
       -2   -1    0    0    0  501  0.00000000000E+00  0.00000000000E+00 -0.29381274374E+03  0.29381274375E+03  0.25500000920E-02 0.  1.
    10030    2    1    2    0    0  0.00000000000E+00  0.00000000000E+00  0.11617291595E+04  0.17493546470E+04  0.13079094162E+04 0.  0.
        2    1    3    3  502    0  0.29845210195E+03  0.29460387502E+03  0.12520165462E+04  0.13203827219E+04  0.25500000920E-02 0. -1.
       -2    1    3    3    0  502 -0.29845210195E+03 -0.29460387502E+03 -0.90287386685E+02  0.42897192511E+03  0.25500000920E-02 0.  1.
</event>
<event>
 5   0  0.1814770E-03  0.1298599E+04  0.7818609E-02  0.9030677E-01
       -1   -1    0    0    0  501  0.00000000000E+00  0.00000000000E+00  0.50956821980E+03  0.50956821983E+03  0.50400001928E-02 0. -1.
        1   -1    0    0  501    0  0.00000000000E+00  0.00000000000E+00 -0.82734747905E+03  0.82734747906E+03  0.50400001928E-02 0.  1.
    10030    2    1    2    0    0  0.00000000000E+00  0.00000000000E+00 -0.31777925924E+03  0.13369156989E+04  0.12985992177E+04 0.  0.
        5    1    3    3  502    0 -0.19376424995E+03  0.17293872500E+03 -0.77152399903E+03  0.81407847179E+03  0.46999998093E+01 0.  1.
       -5    1    3    3    0  502  0.19376424995E+03 -0.17293872500E+03  0.45374473978E+03  0.52283722710E+03  0.46999998093E+01 0. -1.
</event>
<event>
 5   0  0.1857986E-03  0.1297000E+04  0.7818609E-02  0.9031947E-01
       -1   -1    0    0    0  501  0.00000000000E+00  0.00000000000E+00  0.48226188389E+03  0.48226188392E+03  0.50400001928E-02 0.  1.
        1   -1    0    0  501    0  0.00000000000E+00  0.00000000000E+00 -0.87204147574E+03  0.87204147575E+03  0.50400001928E-02 0. -1.
    10030    2    1    2    0    0  0.00000000000E+00  0.00000000000E+00 -0.38977959185E+03  0.13543033597E+04  0.12970001773E+04 0.  0.
        1    1    3    3  502    0 -0.51353771174E+03  0.35366559760E+03 -0.38095349855E+03  0.73070233638E+03  0.50400001928E-02 0. -1.
       -1    1    3    3    0  502  0.51353771174E+03 -0.35366559760E+03 -0.88260932956E+01  0.62360102329E+03  0.50400001928E-02 0.  1.
</event>
<event>
 5   0  0.3259968E-03  0.1300083E+04  0.7818609E-02  0.9029500E-01
       -2   -1    0    0    0  501  0.00000000000E+00  0.00000000000E+00  0.19789757601E+03  0.19789757603E+03  0.25500000920E-02 0.  1.
        2   -1    0    0  501    0  0.00000000000E+00  0.00000000000E+00 -0.21352141097E+04  0.21352141097E+04  0.25500000920E-02 0. -1.
    10030    2    1    2    0    0  0.00000000000E+00  0.00000000000E+00 -0.19373165337E+04  0.23331116858E+04  0.13000826075E+04 0.  0.
        4    1    3    3  502    0 -0.48685207035E+03  0.37599023718E+03 -0.13457714131E+04  0.14796945313E+04  0.12699999809E+01 0. -1.
       -4    1    3    3    0  502  0.48685207035E+03 -0.37599023718E+03 -0.59154512067E+03  0.85341715448E+03  0.12699999809E+01 0.  1.
</event>
<event>
 5   0  0.3259968E-03  0.1303134E+04  0.7818609E-02  0.9027084E-01
        2   -1    0    0  501    0  0.00000000000E+00  0.00000000000E+00  0.14043487917E+04  0.14043487917E+04  0.25500000920E-02 0. -1.
       -2   -1    0    0    0  501  0.00000000000E+00  0.00000000000E+00 -0.30230348343E+03  0.30230348344E+03  0.25500000920E-02 0.  1.
    10030    2    1    2    0    0  0.00000000000E+00  0.00000000000E+00  0.11020453083E+04  0.17066522751E+04  0.13031339635E+04 0.  0.
        4    1    3    3  502    0 -0.27921676151E+03  0.27494541142E+03  0.12327729770E+04  0.12935562627E+04  0.12699999809E+01 0. -1.
       -4    1    3    3    0  502  0.27921676151E+03 -0.27494541142E+03 -0.13072766874E+03  0.41309601238E+03  0.12699999809E+01 0.  1.
</event>
<event>
 5   0  0.3294720E-03  0.1321666E+04  0.7818609E-02  0.9012558E-01
       -2   -1    0    0    0  501  0.00000000000E+00  0.00000000000E+00  0.21877799509E+03  0.21877799510E+03  0.25500000920E-02 0. -1.
        2   -1    0    0  501    0  0.00000000000E+00  0.00000000000E+00 -0.19960874564E+04  0.19960874564E+04  0.25500000920E-02 0.  1.
    10030    2    1    2    0    0  0.00000000000E+00  0.00000000000E+00 -0.17773094614E+04  0.22148654516E+04  0.13216656336E+04 0.  0.
        5    1    3    3  502    0 -0.25100752008E+02 -0.35889925744E+03 -0.18175442486E+04  0.18528162106E+04  0.46999998093E+01 0.  1.
       -5    1    3    3    0  502  0.25100752008E+02  0.35889925744E+03  0.40234787256E+02  0.36204924091E+03  0.46999998093E+01 0. -1.
</event>
<event>
 5   0  0.3262927E-03  0.1333679E+04  0.7818609E-02  0.9003275E-01
        2   -1    0    0  501    0  0.00000000000E+00  0.00000000000E+00  0.10737694876E+04  0.10737694876E+04  0.25500000920E-02 0. -1.
       -2   -1    0    0    0  501  0.00000000000E+00  0.00000000000E+00 -0.41412539845E+03  0.41412539846E+03  0.25500000920E-02 0.  1.
    10030    2    1    2    0    0  0.00000000000E+00  0.00000000000E+00  0.65964408914E+03  0.14878948861E+04  0.13336794471E+04 0.  0.
        3    1    3    3  502    0 -0.30040471115E+03  0.51130122920E+03  0.67004992547E+03  0.89478424790E+03  0.10100000352E+00 0. -1.
       -3    1    3    3    0  502  0.30040471115E+03 -0.51130122920E+03 -0.10405836322E+02  0.59311063816E+03  0.10100000352E+00 0.  1.
</event>
<event>
 5   0  0.3259968E-03  0.1190268E+04  0.7818609E-02  0.9121418E-01
       -2   -1    0    0    0  501  0.00000000000E+00  0.00000000000E+00  0.33733289667E+03  0.33733289668E+03  0.25500000920E-02 0. -1.
        2   -1    0    0  501    0  0.00000000000E+00  0.00000000000E+00 -0.10499547315E+04  0.10499547315E+04  0.25500000920E-02 0.  1.
    10030    2    1    2    0    0  0.00000000000E+00  0.00000000000E+00 -0.71262183483E+03  0.13872876282E+04  0.11902676522E+04 0.  0.
        4    1    3    3  502    0  0.53254831382E+03  0.25577481841E+03 -0.27263465876E+03  0.65066099801E+03  0.12699999809E+01 0. -1.
       -4    1    3    3    0  502 -0.53254831382E+03 -0.25577481841E+03 -0.43998717608E+03  0.73662663018E+03  0.12699999809E+01 0.  1.
</event>
<event>
 5   0  0.1814770E-03  0.9001710E+03  0.7818609E-02  0.9425368E-01
       -1   -1    0    0    0  501  0.00000000000E+00  0.00000000000E+00  0.36968722867E+03  0.36968722870E+03  0.50400001928E-02 0.  1.
        1   -1    0    0  501    0  0.00000000000E+00  0.00000000000E+00 -0.54796846518E+03  0.54796846521E+03  0.50400001928E-02 0. -1.
    10030    2    1    2    0    0  0.00000000000E+00  0.00000000000E+00 -0.17828123651E+03  0.91765569391E+03  0.90017096891E+03 0.  0.
        5    1    3    3  502    0  0.33668333653E+03 -0.28242132926E+03  0.98924907614E+01  0.43958779293E+03  0.46999998093E+01 0.  1.
       -5    1    3    3    0  502 -0.33668333653E+03  0.28242132926E+03 -0.18817372727E+03  0.47806790098E+03  0.46999998093E+01 0. -1.
</event>
<event>
 5   0  0.1823154E-03  0.1288461E+04  0.7818609E-02  0.9038766E-01
       -1   -1    0    0    0  501  0.00000000000E+00  0.00000000000E+00  0.25740563453E+03  0.25740563458E+03  0.50400001928E-02 0.  1.
        1   -1    0    0  501    0  0.00000000000E+00  0.00000000000E+00 -0.16123688086E+04  0.16123688086E+04  0.50400001928E-02 0. -1.
    10030    2    1    2    0    0  0.00000000000E+00  0.00000000000E+00 -0.13549631740E+04  0.18697744432E+04  0.12884608125E+04 0.  0.
        2    1    3    3  502    0  0.45293757560E+03 -0.10722857959E+03 -0.31128874545E+02  0.46649696945E+03  0.25500000920E-02 0.  1.
       -2    1    3    3    0  502 -0.45293757560E+03  0.10722857959E+03 -0.13238342995E+04  0.14032774737E+04  0.25500000920E-02 0. -1.
</event>
<event>
 5   0  0.1254125E-03  0.1310541E+04  0.7818609E-02  0.9021248E-01
        3   -1    0    0  501    0  0.00000000000E+00  0.00000000000E+00  0.66650632037E+03  0.66650632802E+03  0.10100000352E+00 0. -1.
       -3   -1    0    0    0  501  0.00000000000E+00  0.00000000000E+00 -0.64422384474E+03  0.64422385265E+03  0.10100000352E+00 0.  1.
    10030    2    1    2    0    0  0.00000000000E+00  0.00000000000E+00  0.22282475633E+02  0.13107301807E+04  0.13105407654E+04 0.  0.
        5    1    3    3  502    0  0.21973161341E+03 -0.49283580609E+03  0.38293152666E+03  0.66168554299E+03  0.46999998093E+01 0.  1.
       -5    1    3    3    0  502 -0.21973161341E+03  0.49283580609E+03 -0.36064905103E+03  0.64904463768E+03  0.46999998093E+01 0. -1.
</event>
<event>
 5   0  0.3259968E-03  0.1193459E+04  0.7818609E-02  0.9118601E-01
        2   -1    0    0  501    0  0.00000000000E+00  0.00000000000E+00  0.10126525885E+04  0.10126525885E+04  0.25500000920E-02 0. -1.
       -2   -1    0    0    0  501  0.00000000000E+00  0.00000000000E+00 -0.35163724364E+03  0.35163724365E+03  0.25500000920E-02 0.  1.
    10030    2    1    2    0    0  0.00000000000E+00  0.00000000000E+00  0.66101534486E+03  0.13642898322E+04  0.11934594505E+04 0.  0.
        4    1    3    3  502    0  0.62635441934E+02 -0.10933561881E+03 -0.33625422435E+03  0.35909050728E+03  0.12699999809E+01 0.  1.
       -4    1    3    3    0  502 -0.62635441934E+02  0.10933561881E+03  0.99726956922E+03  0.10051993249E+04  0.12699999809E+01 0. -1.
</event>
<event>
 5   0  0.3262927E-03  0.1315040E+04  0.7818609E-02  0.9017723E-01
        2   -1    0    0  501    0  0.00000000000E+00  0.00000000000E+00  0.84454039056E+03  0.84454039056E+03  0.25500000920E-02 0. -1.
       -2   -1    0    0    0  501  0.00000000000E+00  0.00000000000E+00 -0.51191429246E+03  0.51191429246E+03  0.25500000920E-02 0.  1.
    10030    2    1    2    0    0  0.00000000000E+00  0.00000000000E+00  0.33262609810E+03  0.13564546830E+04  0.13150396138E+04 0.  0.
        3    1    3    3  502    0 -0.32808806970E+03  0.34215184662E+03 -0.30369336628E+03  0.56297365706E+03  0.10100000352E+00 0.  1.
       -3    1    3    3    0  502  0.32808806970E+03 -0.34215184662E+03  0.63631946437E+03  0.79348102597E+03  0.10100000352E+00 0. -1.
</event>
<event>
 5   0  0.1814770E-03  0.1283407E+04  0.7818609E-02  0.9042828E-01
       -1   -1    0    0    0  501  0.00000000000E+00  0.00000000000E+00  0.76891670033E+03  0.76891670035E+03  0.50400001928E-02 0.  1.
        1   -1    0    0  501    0  0.00000000000E+00  0.00000000000E+00 -0.53553685751E+03  0.53553685754E+03  0.50400001928E-02 0. -1.
    10030    2    1    2    0    0  0.00000000000E+00  0.00000000000E+00  0.23337984282E+03  0.13044535579E+04  0.12834067686E+04 0.  0.
        5    1    3    3  502    0 -0.26871149686E+03  0.37833912130E+03 -0.33376504891E+03  0.57163586060E+03  0.46999998093E+01 0. -1.
       -5    1    3    3    0  502  0.26871149686E+03 -0.37833912130E+03  0.56714489173E+03  0.73281769729E+03  0.46999998093E+01 0.  1.
</event>
<event>
 5   0  0.3299104E-03  0.1273338E+04  0.7818609E-02  0.9050980E-01
       -2   -1    0    0    0  501  0.00000000000E+00  0.00000000000E+00  0.55061538638E+03  0.55061538638E+03  0.25500000920E-02 0.  1.
        2   -1    0    0  501    0  0.00000000000E+00  0.00000000000E+00 -0.73617111169E+03  0.73617111169E+03  0.25500000920E-02 0. -1.
    10030    2    1    2    0    0  0.00000000000E+00  0.00000000000E+00 -0.18555572531E+03  0.12867864981E+04  0.12733375689E+04 0.  0.
        2    1    3    3  502    0  0.38798785724E+03  0.50350235888E+03 -0.12918528843E+03  0.64864323130E+03  0.25500000920E-02 0. -1.
       -2    1    3    3    0  502 -0.38798785724E+03 -0.50350235888E+03 -0.56370436878E+02  0.63814326677E+03  0.25500000920E-02 0.  1.
</event>
<event>
 5   0  0.3259968E-03  0.1336971E+04  0.7818609E-02  0.9000750E-01
       -2   -1    0    0    0  501  0.00000000000E+00  0.00000000000E+00  0.28501006455E+03  0.28501006456E+03  0.25500000920E-02 0.  1.
        2   -1    0    0  501    0  0.00000000000E+00  0.00000000000E+00 -0.15679191974E+04  0.15679191974E+04  0.25500000920E-02 0. -1.
    10030    2    1    2    0    0  0.00000000000E+00  0.00000000000E+00 -0.12829091328E+04  0.18529292620E+04  0.13369708324E+04 0.  0.
        4    1    3    3  502    0  0.48528473770E+03  0.35046441011E+03 -0.22905533457E+03  0.64093255385E+03  0.12699999809E+01 0.  1.
       -4    1    3    3    0  502 -0.48528473770E+03 -0.35046441011E+03 -0.10538537983E+04  0.12119967081E+04  0.12699999809E+01 0. -1.
</event>
<event>
 5   0  0.1857986E-03  0.1290440E+04  0.7818609E-02  0.9037181E-01
        1   -1    0    0  501    0  0.00000000000E+00  0.00000000000E+00  0.77660410187E+03  0.77660410189E+03  0.50400001928E-02 0. -1.
       -1   -1    0    0    0  501  0.00000000000E+00  0.00000000000E+00 -0.53606312378E+03  0.53606312381E+03  0.50400001928E-02 0.  1.
    10030    2    1    2    0    0  0.00000000000E+00  0.00000000000E+00  0.24054097809E+03  0.13126672257E+04  0.12904399573E+04 0.  0.
        1    1    3    3  502    0 -0.92960023389E+02 -0.44724645445E+03 -0.34325125938E+03  0.57139512079E+03  0.50400001928E-02 0. -1.
       -1    1    3    3    0  502  0.92960023389E+02  0.44724645445E+03  0.58379223747E+03  0.74127210491E+03  0.50400001928E-02 0.  1.
</event>
<event>
 5   0  0.3299104E-03  0.1299148E+04  0.7818609E-02  0.9030241E-01
        2   -1    0    0  501    0  0.00000000000E+00  0.00000000000E+00  0.74456153677E+03  0.74456153677E+03  0.25500000920E-02 0.  1.
       -2   -1    0    0    0  501  0.00000000000E+00  0.00000000000E+00 -0.56670434266E+03  0.56670434267E+03  0.25500000920E-02 0. -1.
    10030    2    1    2    0    0  0.00000000000E+00  0.00000000000E+00  0.17785719411E+03  0.13112658794E+04  0.12991478073E+04 0.  0.
        2    1    3    3  502    0  0.54872415212E+03  0.24689334625E+03 -0.15808203635E+03  0.62212896554E+03  0.25500000920E-02 0.  1.
       -2    1    3    3    0  502 -0.54872415212E+03 -0.24689334625E+03  0.33593923045E+03  0.68913691390E+03  0.25500000920E-02 0. -1.
</event>
<event>
 5   0  0.1814770E-03  0.1323653E+04  0.7818609E-02  0.9011016E-01
       -1   -1    0    0    0  501  0.00000000000E+00  0.00000000000E+00  0.70157793377E+03  0.70157793379E+03  0.50400001928E-02 0.  1.
        1   -1    0    0  501    0  0.00000000000E+00  0.00000000000E+00 -0.62432715210E+03  0.62432715212E+03  0.50400001928E-02 0. -1.
    10030    2    1    2    0    0  0.00000000000E+00  0.00000000000E+00  0.77250781670E+02  0.13259050859E+04  0.13236527542E+04 0.  0.
        5    1    3    3  502    0  0.12565646792E+03 -0.54219595540E+03  0.39732137971E+03  0.68385113202E+03  0.46999998093E+01 0. -1.
       -5    1    3    3    0  502 -0.12565646792E+03  0.54219595540E+03 -0.32007059805E+03  0.64205395390E+03  0.46999998093E+01 0.  1.
</event>
<event>
 5   0  0.1254125E-03  0.1307294E+04  0.7818609E-02  0.9023801E-01
       -3   -1    0    0    0  501  0.00000000000E+00  0.00000000000E+00  0.71831091815E+03  0.71831092525E+03  0.10100000352E+00 0.  1.
        3   -1    0    0  501    0  0.00000000000E+00  0.00000000000E+00 -0.59480450606E+03  0.59480451463E+03  0.10100000352E+00 0. -1.
    10030    2    1    2    0    0  0.00000000000E+00  0.00000000000E+00  0.12350641209E+03  0.13131154399E+04  0.13072942762E+04 0.  0.
        3    1    3    3  502    0  0.39332204440E+02  0.43186925080E+01  0.71710683692E+03  0.71819767416E+03  0.10100000352E+00 0.  1.
       -3    1    3    3    0  502 -0.39332204440E+02 -0.43186925080E+01 -0.59360042483E+03  0.59491776572E+03  0.10100000352E+00 0. -1.
</event>
<event>
 5   0  0.1857986E-03  0.1266586E+04  0.7818609E-02  0.9056491E-01
       -1   -1    0    0    0  501  0.00000000000E+00  0.00000000000E+00  0.32416718721E+03  0.32416718725E+03  0.50400001928E-02 0.  1.
        1   -1    0    0  501    0  0.00000000000E+00  0.00000000000E+00 -0.12372005800E+04  0.12372005800E+04  0.50400001928E-02 0. -1.
    10030    2    1    2    0    0  0.00000000000E+00  0.00000000000E+00 -0.91303339275E+03  0.15613677672E+04  0.12665856971E+04 0.  0.
        1    1    3    3  502    0  0.61608497184E+03  0.11235861138E+03 -0.57264739241E+03  0.84859306275E+03  0.50400001928E-02 0.  1.
       -1    1    3    3    0  502 -0.61608497184E+03 -0.11235861138E+03 -0.34038600033E+03  0.71277470447E+03  0.50400001928E-02 0. -1.
</event>
<event>
 5   0  0.3294720E-03  0.1298441E+04  0.7818609E-02  0.9030803E-01
        2   -1    0    0  501    0  0.00000000000E+00  0.00000000000E+00  0.61913839823E+03  0.61913839824E+03  0.25500000920E-02 0. -1.
       -2   -1    0    0    0  501  0.00000000000E+00  0.00000000000E+00 -0.68076374721E+03  0.68076374722E+03  0.25500000920E-02 0.  1.
    10030    2    1    2    0    0  0.00000000000E+00  0.00000000000E+00 -0.61625348979E+02  0.12999021455E+04  0.12984405663E+04 0.  0.
        5    1    3    3  502    0 -0.17000236984E+03  0.66181099267E+02 -0.65455825320E+03  0.67952140546E+03  0.46999998093E+01 0.  1.
       -5    1    3    3    0  502  0.17000236984E+03 -0.66181099267E+02  0.59293290422E+03  0.62038074000E+03  0.46999998093E+01 0. -1.
</event>
<event>
 5   0  0.1814770E-03  0.1298701E+04  0.7818609E-02  0.9030596E-01
       -1   -1    0    0    0  501  0.00000000000E+00  0.00000000000E+00  0.17071420630E+04  0.17071420630E+04  0.50400001928E-02 0.  1.
        1   -1    0    0  501    0  0.00000000000E+00  0.00000000000E+00 -0.24699526162E+03  0.24699526167E+03  0.50400001928E-02 0. -1.
    10030    2    1    2    0    0  0.00000000000E+00  0.00000000000E+00  0.14601468014E+04  0.19541373247E+04  0.12987008902E+04 0.  0.
        5    1    3    3  502    0  0.89760031175E+02  0.37990350534E+03  0.15108451653E+04  0.15604674749E+04  0.46999998093E+01 0. -1.
       -5    1    3    3    0  502 -0.89760031175E+02 -0.37990350534E+03 -0.50698363914E+02  0.39366984984E+03  0.46999998093E+01 0.  1.
</event>
<event>
 5   0  0.3262927E-03  0.1312927E+04  0.7818609E-02  0.9019376E-01
        2   -1    0    0  501    0  0.00000000000E+00  0.00000000000E+00  0.41849500680E+03  0.41849500681E+03  0.25500000920E-02 0. -1.
       -2   -1    0    0    0  501  0.00000000000E+00  0.00000000000E+00 -0.10297482083E+04  0.10297482083E+04  0.25500000920E-02 0.  1.
    10030    2    1    2    0    0  0.00000000000E+00  0.00000000000E+00 -0.61125320149E+03  0.14482432151E+04  0.13129272386E+04 0.  0.
        3    1    3    3  502    0  0.38051277319E+03 -0.25755275393E+03 -0.82279920856E+03  0.94240221743E+03  0.10100000352E+00 0.  1.
       -3    1    3    3    0  502 -0.38051277319E+03  0.25755275393E+03  0.21154600707E+03  0.50584099767E+03  0.10100000352E+00 0. -1.
</event>
<event>
 5   0  0.1857986E-03  0.1289097E+04  0.7818609E-02  0.9038256E-01
        1   -1    0    0  501    0  0.00000000000E+00  0.00000000000E+00  0.41460102390E+03  0.41460102393E+03  0.50400001928E-02 0. -1.
       -1   -1    0    0    0  501  0.00000000000E+00  0.00000000000E+00 -0.10020300204E+04  0.10020300204E+04  0.50400001928E-02 0.  1.
    10030    2    1    2    0    0  0.00000000000E+00  0.00000000000E+00 -0.58742899647E+03  0.14166310443E+04  0.12890968504E+04 0.  0.
        1    1    3    3  502    0 -0.50878858087E+03  0.36264479584E+03 -0.46769889368E+03  0.78046096837E+03  0.50400001928E-02 0.  1.
       -1    1    3    3    0  502  0.50878858087E+03 -0.36264479584E+03 -0.11973010278E+03  0.63617007593E+03  0.50400001928E-02 0. -1.
</event>
<event>
 5   0  0.1873488E-03  0.1288560E+04  0.7818609E-02  0.9038686E-01
        1   -1    0    0  501    0  0.00000000000E+00  0.00000000000E+00  0.11151419783E+04  0.11151419783E+04  0.50400001928E-02 0.  1.
       -1   -1    0    0    0  501  0.00000000000E+00  0.00000000000E+00 -0.37223681848E+03  0.37223681852E+03  0.50400001928E-02 0. -1.
    10030    2    1    2    0    0  0.00000000000E+00  0.00000000000E+00  0.74290515980E+03  0.14873787968E+04  0.12885602853E+04 0.  0.
        3    1    3    3  502    0 -0.25077055534E+03 -0.30731226152E+03  0.95750058767E+03  0.10364044013E+04  0.10100000352E+00 0.  1.
       -3    1    3    3    0  502  0.25077055534E+03  0.30731226152E+03 -0.21459542788E+03  0.45097439547E+03  0.10100000352E+00 0. -1.
</event>
<event>
 5   0  0.3262927E-03  0.1308025E+04  0.7818609E-02  0.9023225E-01
        2   -1    0    0  501    0  0.00000000000E+00  0.00000000000E+00  0.11812902049E+04  0.11812902049E+04  0.25500000920E-02 0.  1.
       -2   -1    0    0    0  501  0.00000000000E+00  0.00000000000E+00 -0.36208938744E+03  0.36208938745E+03  0.25500000920E-02 0. -1.
    10030    2    1    2    0    0  0.00000000000E+00  0.00000000000E+00  0.81920081743E+03  0.15433795923E+04  0.13080254534E+04 0.  0.
        3    1    3    3  502    0 -0.83001281193E+02 -0.37658189481E+03 -0.21367733457E+03  0.44086409435E+03  0.10100000352E+00 0. -1.
       -3    1    3    3    0  502  0.83001281193E+02  0.37658189481E+03  0.10328781520E+04  0.11025154980E+04  0.10100000352E+00 0.  1.
</event>
<event>
 5   0  0.3294720E-03  0.1294470E+04  0.7818609E-02  0.9033962E-01
       -2   -1    0    0    0  501  0.00000000000E+00  0.00000000000E+00  0.12801698005E+04  0.12801698005E+04  0.25500000920E-02 0. -1.
        2   -1    0    0  501    0  0.00000000000E+00  0.00000000000E+00 -0.32723240262E+03  0.32723240263E+03  0.25500000920E-02 0.  1.
    10030    2    1    2    0    0  0.00000000000E+00  0.00000000000E+00  0.95293739785E+03  0.16074022031E+04  0.12944698368E+04 0.  0.
        5    1    3    3  502    0 -0.55195818942E+03 -0.33811020017E+02  0.89405339664E+03  0.10512633324E+04  0.46999998093E+01 0. -1.
       -5    1    3    3    0  502  0.55195818942E+03  0.33811020017E+02  0.58884001205E+02  0.55613887073E+03  0.46999998093E+01 0.  1.
</event>
<event>
 5   0  0.3294720E-03  0.1304691E+04  0.7818609E-02  0.9025853E-01
       -2   -1    0    0    0  501  0.00000000000E+00  0.00000000000E+00  0.77431881919E+03  0.77431881919E+03  0.25500000920E-02 0. -1.
        2   -1    0    0  501    0  0.00000000000E+00  0.00000000000E+00 -0.54958608872E+03  0.54958608873E+03  0.25500000920E-02 0.  1.
    10030    2    1    2    0    0  0.00000000000E+00  0.00000000000E+00  0.22473273047E+03  0.13239049079E+04  0.13046913064E+04 0.  0.
        5    1    3    3  502    0  0.18625952388E+03  0.50473644535E+01  0.74672441489E+03  0.76963467172E+03  0.46999998093E+01 0. -1.
       -5    1    3    3    0  502 -0.18625952388E+03 -0.50473644535E+01 -0.52199168442E+03  0.55427023619E+03  0.46999998093E+01 0.  1.
</event>
<event>
 5   0  0.1803959E-03  0.1335646E+04  0.7818609E-02  0.9001766E-01
       -1   -1    0    0    0  501  0.00000000000E+00  0.00000000000E+00  0.26903236840E+03  0.26903236845E+03  0.50400001928E-02 0. -1.
        1   -1    0    0  501    0  0.00000000000E+00  0.00000000000E+00 -0.16577465997E+04  0.16577465997E+04  0.50400001928E-02 0.  1.
    10030    2    1    2    0    0  0.00000000000E+00  0.00000000000E+00 -0.13887142313E+04  0.19267789682E+04  0.13356459022E+04 0.  0.
        4    1    3    3  502    0 -0.10617541951E+03  0.22330733006E+03 -0.15892773555E+04  0.16083978081E+04  0.12699999809E+01 0.  1.
       -4    1    3    3    0  502  0.10617541951E+03 -0.22330733006E+03  0.20056312425E+03  0.31838116005E+03  0.12699999809E+01 0. -1.
</event>
<event>
 5   0  0.1814770E-03  0.1325910E+04  0.7818609E-02  0.9009267E-01
        1   -1    0    0  501    0  0.00000000000E+00  0.00000000000E+00  0.41908976720E+03  0.41908976723E+03  0.50400001928E-02 0. -1.
       -1   -1    0    0    0  501  0.00000000000E+00  0.00000000000E+00 -0.10487236438E+04  0.10487236438E+04  0.50400001928E-02 0.  1.
    10030    2    1    2    0    0  0.00000000000E+00  0.00000000000E+00 -0.62963387659E+03  0.14678134110E+04  0.13259100237E+04 0.  0.
        5    1    3    3  502    0 -0.44445424097E+03 -0.13630885984E+03  0.20838201595E+03  0.50947505548E+03  0.46999998093E+01 0. -1.
       -5    1    3    3    0  502  0.44445424097E+03  0.13630885984E+03 -0.83801589254E+03  0.95833835556E+03  0.46999998093E+01 0.  1.
</event>
<event>
 5   0  0.1803959E-03  0.1186679E+04  0.7818609E-02  0.9124597E-01
       -1   -1    0    0    0  501  0.00000000000E+00  0.00000000000E+00  0.36448821991E+03  0.36448821995E+03  0.50400001928E-02 0.  1.
        1   -1    0    0  501    0  0.00000000000E+00  0.00000000000E+00 -0.96587939513E+03  0.96587939514E+03  0.50400001928E-02 0. -1.
    10030    2    1    2    0    0  0.00000000000E+00  0.00000000000E+00 -0.60139117522E+03  0.13303676151E+04  0.11866788300E+04 0.  0.
        4    1    3    3  502    0 -0.59253406653E+03 -0.26797277266E+02 -0.31789371709E+03  0.67295820252E+03  0.12699999809E+01 0.  1.
       -4    1    3    3    0  502  0.59253406653E+03  0.26797277266E+02 -0.28349745813E+03  0.65740941257E+03  0.12699999809E+01 0. -1.
</event>
<event>
 5   0  0.1857986E-03  0.1290228E+04  0.7818609E-02  0.9037350E-01
       -1   -1    0    0    0  501  0.00000000000E+00  0.00000000000E+00  0.36337029434E+03  0.36337029437E+03  0.50400001928E-02 0.  1.
        1   -1    0    0  501    0  0.00000000000E+00  0.00000000000E+00 -0.11453114653E+04  0.11453114654E+04  0.50400001928E-02 0. -1.
    10030    2    1    2    0    0  0.00000000000E+00  0.00000000000E+00 -0.78194117101E+03  0.15086817597E+04  0.12902281415E+04 0.  0.
        1    1    3    3  502    0 -0.31460959466E+03 -0.55098430215E+02  0.26442662710E+03  0.41465223406E+03  0.50400001928E-02 0.  1.
       -1    1    3    3    0  502  0.31460959466E+03  0.55098430215E+02 -0.10463677981E+04  0.10940295257E+04  0.50400001928E-02 0. -1.
</event>
<event>
 5   0  0.1803959E-03  0.1309813E+04  0.7818609E-02  0.9021819E-01
       -1   -1    0    0    0  501  0.00000000000E+00  0.00000000000E+00  0.10817838088E+04  0.10817838088E+04  0.50400001928E-02 0.  1.
        1   -1    0    0  501    0  0.00000000000E+00  0.00000000000E+00 -0.39647711118E+03  0.39647711121E+03  0.50400001928E-02 0. -1.
    10030    2    1    2    0    0  0.00000000000E+00  0.00000000000E+00  0.68530669763E+03  0.14782609200E+04  0.13098129935E+04 0.  0.
        4    1    3    3  502    0 -0.40621734777E+03  0.76401699917E+02  0.91597019559E+03  0.10049143075E+04  0.12699999809E+01 0.  1.
       -4    1    3    3    0  502  0.40621734777E+03 -0.76401699917E+02 -0.23066349796E+03  0.47334661250E+03  0.12699999809E+01 0. -1.
</event>
<event>
 5   0  0.3262927E-03  0.1304070E+04  0.7818609E-02  0.9026344E-01
       -2   -1    0    0    0  501  0.00000000000E+00  0.00000000000E+00  0.61385671787E+03  0.61385671788E+03  0.25500000920E-02 0. -1.
        2   -1    0    0  501    0  0.00000000000E+00  0.00000000000E+00 -0.69258795868E+03  0.69258795868E+03  0.25500000920E-02 0.  1.
    10030    2    1    2    0    0  0.00000000000E+00  0.00000000000E+00 -0.78731240805E+02  0.13064446766E+04  0.13040701993E+04 0.  0.
        3    1    3    3  502    0  0.56928936877E+03 -0.20237610416E+03  0.20624049078E+03  0.63842119574E+03  0.10100000352E+00 0. -1.
       -3    1    3    3    0  502 -0.56928936877E+03  0.20237610416E+03 -0.28497173159E+03  0.66802348082E+03  0.10100000352E+00 0.  1.
</event>
<event>
 5   0  0.3294720E-03  0.1099385E+04  0.7818609E-02  0.9205791E-01
        2   -1    0    0  501    0  0.00000000000E+00  0.00000000000E+00  0.15107002690E+04  0.15107002690E+04  0.25500000920E-02 0.  1.
       -2   -1    0    0    0  501  0.00000000000E+00  0.00000000000E+00 -0.20001446471E+03  0.20001446473E+03  0.25500000920E-02 0. -1.
    10030    2    1    2    0    0  0.00000000000E+00  0.00000000000E+00  0.13106858043E+04  0.17107147338E+04  0.10993851112E+04 0.  0.
        5    1    3    3  502    0 -0.32180367894E+03  0.30653903045E+03  0.11586428250E+04  0.12409669903E+04  0.46999998093E+01 0.  1.
       -5    1    3    3    0  502  0.32180367894E+03 -0.30653903045E+03  0.15204297929E+03  0.46974774349E+03  0.46999998093E+01 0. -1.
</event>
<event>
 5   0  0.3294720E-03  0.1223506E+04  0.7818609E-02  0.9092527E-01
        2   -1    0    0  501    0  0.00000000000E+00  0.00000000000E+00  0.24194901742E+04  0.24194901742E+04  0.25500000920E-02 0. -1.
       -2   -1    0    0    0  501  0.00000000000E+00  0.00000000000E+00 -0.15467798195E+03  0.15467798198E+03  0.25500000920E-02 0.  1.
    10030    2    1    2    0    0  0.00000000000E+00  0.00000000000E+00  0.22648121923E+04  0.25741681562E+04  0.12235062036E+04 0.  0.
        5    1    3    3  502    0 -0.65392832671E+02 -0.45603899405E+03  0.19791472821E+04  0.20320663968E+04  0.46999998093E+01 0. -1.
       -5    1    3    3    0  502  0.65392832671E+02  0.45603899405E+03  0.28566491014E+03  0.54210175939E+03  0.46999998093E+01 0.  1.
</event>
<event>
 5   0  0.1857986E-03  0.9639216E+03  0.7818609E-02  0.9349025E-01
       -1   -1    0    0    0  501  0.00000000000E+00  0.00000000000E+00  0.24069879166E+03  0.24069879171E+03  0.50400001928E-02 0.  1.
        1   -1    0    0  501    0  0.00000000000E+00  0.00000000000E+00 -0.96504930561E+03  0.96504930563E+03  0.50400001928E-02 0. -1.
    10030    2    1    2    0    0  0.00000000000E+00  0.00000000000E+00 -0.72435051396E+03  0.12057480973E+04  0.96392157729E+03 0.  0.
        1    1    3    3  502    0  0.28827167148E+03  0.35743471548E+03 -0.17907618782E+03  0.49287768612E+03  0.50400001928E-02 0.  1.
       -1    1    3    3    0  502 -0.28827167148E+03 -0.35743471548E+03 -0.54527432614E+03  0.71287041121E+03  0.50400001928E-02 0. -1.
</event>
<event>
 5   0  0.3336609E-03  0.1277893E+04  0.7818609E-02  0.9047282E-01
       -2   -1    0    0    0  501  0.00000000000E+00  0.00000000000E+00  0.45111064630E+03  0.45111064630E+03  0.25500000920E-02 0. -1.
        2   -1    0    0  501    0  0.00000000000E+00  0.00000000000E+00 -0.90499485989E+03  0.90499485989E+03  0.25500000920E-02 0.  1.
    10030    2    1    2    0    0  0.00000000000E+00  0.00000000000E+00 -0.45388421359E+03  0.13561055062E+04  0.12778932916E+04 0.  0.
        1    1    3    3  502    0  0.16798006733E+03 -0.58047643484E+03 -0.44720936749E+03  0.75177550693E+03  0.50400001928E-02 0. -1.
       -1    1    3    3    0  502 -0.16798006733E+03  0.58047643484E+03 -0.66748461055E+01  0.60432999927E+03  0.50400001928E-02 0.  1.
</event>
<event>
 5   0  0.3336609E-03  0.1331696E+04  0.7818609E-02  0.9004801E-01
        2   -1    0    0  501    0  0.00000000000E+00  0.00000000000E+00  0.72430053526E+03  0.72430053526E+03  0.25500000920E-02 0. -1.
       -2   -1    0    0    0  501  0.00000000000E+00  0.00000000000E+00 -0.61211252966E+03  0.61211252966E+03  0.25500000920E-02 0.  1.
    10030    2    1    2    0    0  0.00000000000E+00  0.00000000000E+00  0.11218800560E+03  0.13364130649E+04  0.13316958104E+04 0.  0.
        1    1    3    3  502    0  0.31704260408E+03  0.45931413525E+03 -0.30832859422E+03  0.63761431107E+03  0.50400001928E-02 0.  1.
       -1    1    3    3    0  502 -0.31704260408E+03 -0.45931413525E+03  0.42051659982E+03  0.69879875385E+03  0.50400001928E-02 0. -1.
</event>
<event>
 5   0  0.1873488E-03  0.1300216E+04  0.7818609E-02  0.9029394E-01
        1   -1    0    0  501    0  0.00000000000E+00  0.00000000000E+00  0.47607418886E+03  0.47607418888E+03  0.50400001928E-02 0. -1.
       -1   -1    0    0    0  501  0.00000000000E+00  0.00000000000E+00 -0.88776114788E+03  0.88776114790E+03  0.50400001928E-02 0.  1.
    10030    2    1    2    0    0  0.00000000000E+00  0.00000000000E+00 -0.41168695903E+03  0.13638353368E+04  0.13002156258E+04 0.  0.
        3    1    3    3  502    0 -0.29916517593E+03 -0.96572551579E+02 -0.80273365978E+03  0.86209477376E+03  0.10100000352E+00 0.  1.
       -3    1    3    3    0  502  0.29916517593E+03  0.96572551579E+02  0.39104670075E+03  0.50174056302E+03  0.10100000352E+00 0. -1.
</event>
<event>
 5   0  0.3259968E-03  0.1317336E+04  0.7818609E-02  0.9015929E-01
       -2   -1    0    0    0  501  0.00000000000E+00  0.00000000000E+00  0.30432710927E+03  0.30432710928E+03  0.25500000920E-02 0.  1.
        2   -1    0    0  501    0  0.00000000000E+00  0.00000000000E+00 -0.14255839930E+04  0.14255839930E+04  0.25500000920E-02 0. -1.
    10030    2    1    2    0    0  0.00000000000E+00  0.00000000000E+00 -0.11212568837E+04  0.17299111023E+04  0.13173364880E+04 0.  0.
        4    1    3    3  502    0 -0.46831416977E+03  0.28919162197E+03 -0.85529467896E+02  0.55701603083E+03  0.12699999809E+01 0.  1.
       -4    1    3    3    0  502  0.46831416977E+03 -0.28919162197E+03 -0.10357274158E+04  0.11728950715E+04  0.12699999809E+01 0. -1.
</event>
<event>
 5   0  0.1823154E-03  0.1324729E+04  0.7818609E-02  0.9010182E-01
        1   -1    0    0  501    0  0.00000000000E+00  0.00000000000E+00  0.18618454599E+04  0.18618454600E+04  0.50400001928E-02 0.  1.
       -1   -1    0    0    0  501  0.00000000000E+00  0.00000000000E+00 -0.23564061917E+03  0.23564061922E+03  0.50400001928E-02 0. -1.
    10030    2    1    2    0    0  0.00000000000E+00  0.00000000000E+00  0.16262048408E+04  0.20974860792E+04  0.13247285262E+04 0.  0.
        2    1    3    3  502    0 -0.88547467877E+02 -0.61886851288E+03  0.11595865943E+04  0.13173761650E+04  0.25500000920E-02 0.  1.
       -2    1    3    3    0  502  0.88547467877E+02  0.61886851288E+03  0.46661824646E+03  0.78010991421E+03  0.25500000920E-02 0. -1.
</event>
<event>
 5   0  0.3299104E-03  0.1303404E+04  0.7818609E-02  0.9026870E-01
        2   -1    0    0  501    0  0.00000000000E+00  0.00000000000E+00  0.74565646643E+03  0.74565646644E+03  0.25500000920E-02 0.  1.
       -2   -1    0    0    0  501  0.00000000000E+00  0.00000000000E+00 -0.56958593825E+03  0.56958593825E+03  0.25500000920E-02 0. -1.
    10030    2    1    2    0    0  0.00000000000E+00  0.00000000000E+00  0.17607052819E+03  0.13152424047E+04  0.13034039098E+04 0.  0.
        2    1    3    3  502    0  0.34861727170E+03 -0.36864384951E+02  0.64240888310E+03  0.73183478880E+03  0.25500000920E-02 0.  1.
       -2    1    3    3    0  502 -0.34861727170E+03  0.36864384951E+02 -0.46633835491E+03  0.58340761589E+03  0.25500000920E-02 0. -1.
</event>
<event>
 5   0  0.1857986E-03  0.1277960E+04  0.7818609E-02  0.9047228E-01
       -1   -1    0    0    0  501  0.00000000000E+00  0.00000000000E+00  0.29633206537E+03  0.29633206541E+03  0.50400001928E-02 0.  1.
        1   -1    0    0  501    0  0.00000000000E+00  0.00000000000E+00 -0.13778301064E+04  0.13778301064E+04  0.50400001928E-02 0. -1.
    10030    2    1    2    0    0  0.00000000000E+00  0.00000000000E+00 -0.10814980410E+04  0.16741621718E+04  0.12779596883E+04 0.  0.
        1    1    3    3  502    0 -0.12353958176E+03 -0.40079353430E+03 -0.11722824362E+04  0.12450476279E+04  0.50400001928E-02 0. -1.
       -1    1    3    3    0  502  0.12353958176E+03  0.40079353430E+03  0.90784395179E+02  0.42911454395E+03  0.50400001928E-02 0.  1.
</event>
<event>
 5   0  0.3299104E-03  0.1275960E+04  0.7818609E-02  0.9048849E-01
       -2   -1    0    0    0  501  0.00000000000E+00  0.00000000000E+00  0.59166168328E+03  0.59166168329E+03  0.25500000920E-02 0.  1.
        2   -1    0    0  501    0  0.00000000000E+00  0.00000000000E+00 -0.68792447298E+03  0.68792447298E+03  0.25500000920E-02 0. -1.
    10030    2    1    2    0    0  0.00000000000E+00  0.00000000000E+00 -0.96262789694E+02  0.12795861563E+04  0.12759601117E+04 0.  0.
        2    1    3    3  502    0  0.33779084988E+03 -0.19158857817E+03  0.45947867325E+03  0.60160576188E+03  0.25500000920E-02 0.  1.
       -2    1    3    3    0  502 -0.33779084988E+03  0.19158857817E+03 -0.55574146294E+03  0.67798039440E+03  0.25500000920E-02 0. -1.
</event>
<event>
 5   0  0.3294720E-03  0.1285272E+04  0.7818609E-02  0.9041327E-01
        2   -1    0    0  501    0  0.00000000000E+00  0.00000000000E+00  0.95766547647E+03  0.95766547648E+03  0.25500000920E-02 0. -1.
       -2   -1    0    0    0  501  0.00000000000E+00  0.00000000000E+00 -0.43123695225E+03  0.43123695225E+03  0.25500000920E-02 0.  1.
    10030    2    1    2    0    0  0.00000000000E+00  0.00000000000E+00  0.52642852423E+03  0.13889024287E+04  0.12852715532E+04 0.  0.
        5    1    3    3  502    0  0.13375382013E+03  0.62200958202E+03  0.16552244047E+03  0.65742358706E+03  0.46999998093E+01 0. -1.
       -5    1    3    3    0  502 -0.13375382013E+03 -0.62200958202E+03  0.36090608376E+03  0.73147884167E+03  0.46999998093E+01 0.  1.
</event>
<event>
 5   0  0.3294720E-03  0.1303856E+04  0.7818609E-02  0.9026513E-01
        2   -1    0    0  501    0  0.00000000000E+00  0.00000000000E+00  0.94802169640E+03  0.94802169640E+03  0.25500000920E-02 0. -1.
       -2   -1    0    0    0  501  0.00000000000E+00  0.00000000000E+00 -0.44831280293E+03  0.44831280294E+03  0.25500000920E-02 0.  1.
    10030    2    1    2    0    0  0.00000000000E+00  0.00000000000E+00  0.49970889347E+03  0.13963344993E+04  0.13038562251E+04 0.  0.
        5    1    3    3  502    0 -0.59243222640E+03  0.13786231584E+03 -0.13143218594E+01  0.60828100287E+03  0.46999998093E+01 0.  1.
       -5    1    3    3    0  502  0.59243222640E+03 -0.13786231584E+03  0.50102321533E+03  0.78805349647E+03  0.46999998093E+01 0. -1.
</event>
<event>
 5   0  0.3294720E-03  0.1293309E+04  0.7818609E-02  0.9034888E-01
       -2   -1    0    0    0  501  0.00000000000E+00  0.00000000000E+00  0.55846943520E+03  0.55846943521E+03  0.25500000920E-02 0.  1.
        2   -1    0    0  501    0  0.00000000000E+00  0.00000000000E+00 -0.74876392998E+03  0.74876392999E+03  0.25500000920E-02 0. -1.
    10030    2    1    2    0    0  0.00000000000E+00  0.00000000000E+00 -0.19029449478E+03  0.13072333652E+04  0.12933085774E+04 0.  0.
        5    1    3    3  502    0  0.87633077263E+02 -0.72866117202E+02 -0.73851492310E+03  0.74727197787E+03  0.46999998093E+01 0. -1.
       -5    1    3    3    0  502 -0.87633077263E+02  0.72866117202E+02  0.54822042832E+03  0.55996138733E+03  0.46999998093E+01 0.  1.
</event>
<event>
 5   0  0.1857986E-03  0.1203073E+04  0.7818609E-02  0.9110171E-01
       -1   -1    0    0    0  501  0.00000000000E+00  0.00000000000E+00  0.88247488366E+03  0.88247488367E+03  0.50400001928E-02 0.  1.
        1   -1    0    0  501    0  0.00000000000E+00  0.00000000000E+00 -0.41003548341E+03  0.41003548344E+03  0.50400001928E-02 0. -1.
    10030    2    1    2    0    0  0.00000000000E+00  0.00000000000E+00  0.47243940025E+03  0.12925103671E+04  0.12030727585E+04 0.  0.
        1    1    3    3  502    0  0.21223803363E+03 -0.27672313695E+03 -0.29034476637E+03  0.45378492794E+03  0.50400001928E-02 0. -1.
       -1    1    3    3    0  502 -0.21223803363E+03  0.27672313695E+03  0.76278416662E+03  0.83872543917E+03  0.50400001928E-02 0.  1.
</event>
<event>
 5   0  0.1857986E-03  0.1263575E+04  0.7818609E-02  0.9058960E-01
       -1   -1    0    0    0  501  0.00000000000E+00  0.00000000000E+00  0.15779191425E+04  0.15779191425E+04  0.50400001928E-02 0. -1.
        1   -1    0    0  501    0  0.00000000000E+00  0.00000000000E+00 -0.25296329668E+03  0.25296329673E+03  0.50400001928E-02 0.  1.
    10030    2    1    2    0    0  0.00000000000E+00  0.00000000000E+00  0.13249558458E+04  0.18308824392E+04  0.12635752898E+04 0.  0.
        1    1    3    3  502    0  0.25446333875E+03 -0.23644476956E+03  0.14271413233E+04  0.14688056633E+04  0.50400001928E-02 0. -1.
       -1    1    3    3    0  502 -0.25446333875E+03  0.23644476956E+03 -0.10218547751E+03  0.36207677592E+03  0.50400001928E-02 0.  1.
</event>
<event>
 5   0  0.1873488E-03  0.1306599E+04  0.7818609E-02  0.9024349E-01
        1   -1    0    0  501    0  0.00000000000E+00  0.00000000000E+00  0.10861782928E+04  0.10861782928E+04  0.50400001928E-02 0.  1.
       -1   -1    0    0    0  501  0.00000000000E+00  0.00000000000E+00 -0.39293727273E+03  0.39293727276E+03  0.50400001928E-02 0. -1.
    10030    2    1    2    0    0  0.00000000000E+00  0.00000000000E+00  0.69324102010E+03  0.14791155656E+04  0.13065985399E+04 0.  0.
        3    1    3    3  502    0  0.63011970077E+03 -0.10614447304E+03  0.19272016800E+03  0.66742681981E+03  0.10100000352E+00 0. -1.
       -3    1    3    3    0  502 -0.63011970077E+03  0.10614447304E+03  0.50052085210E+03  0.81168874579E+03  0.10100000352E+00 0.  1.
</event>
<event>
 5   0  0.3336609E-03  0.1317624E+04  0.7818609E-02  0.9015704E-01
        2   -1    0    0  501    0  0.00000000000E+00  0.00000000000E+00  0.79853862728E+03  0.79853862729E+03  0.25500000920E-02 0.  1.
       -2   -1    0    0    0  501  0.00000000000E+00  0.00000000000E+00 -0.54353481937E+03  0.54353481937E+03  0.25500000920E-02 0. -1.
    10030    2    1    2    0    0  0.00000000000E+00  0.00000000000E+00  0.25500380792E+03  0.13420734467E+04  0.13176244511E+04 0.  0.
        1    1    3    3  502    0  0.11305803875E+03  0.46916157552E+03 -0.32930495240E+03  0.58424006690E+03  0.50400001928E-02 0. -1.
       -1    1    3    3    0  502 -0.11305803875E+03 -0.46916157552E+03  0.58430876032E+03  0.75783337976E+03  0.50400001928E-02 0.  1.
</event>
<event>
 5   0  0.1814770E-03  0.1240243E+04  0.7818609E-02  0.9078343E-01
        1   -1    0    0  501    0  0.00000000000E+00  0.00000000000E+00  0.25191575721E+03  0.25191575726E+03  0.50400001928E-02 0. -1.
       -1   -1    0    0    0  501  0.00000000000E+00  0.00000000000E+00 -0.15265060415E+04  0.15265060415E+04  0.50400001928E-02 0.  1.
    10030    2    1    2    0    0  0.00000000000E+00  0.00000000000E+00 -0.12745902843E+04  0.17784217988E+04  0.12402434042E+04 0.  0.
        5    1    3    3  502    0  0.54730994632E+03  0.27839610700E+03 -0.76128044563E+03  0.97807084439E+03  0.46999998093E+01 0. -1.
       -5    1    3    3    0  502 -0.54730994632E+03 -0.27839610700E+03 -0.51330983868E+03  0.80035095440E+03  0.46999998093E+01 0.  1.
</event>
<event>
 5   0  0.3336609E-03  0.1297532E+04  0.7818609E-02  0.9031525E-01
       -2   -1    0    0    0  501  0.00000000000E+00  0.00000000000E+00  0.46293863459E+03  0.46293863460E+03  0.25500000920E-02 0. -1.
        2   -1    0    0  501    0  0.00000000000E+00  0.00000000000E+00 -0.90918614831E+03  0.90918614832E+03  0.25500000920E-02 0.  1.
    10030    2    1    2    0    0  0.00000000000E+00  0.00000000000E+00 -0.44624751372E+03  0.13721247829E+04  0.12975321100E+04 0.  0.
        1    1    3    3  502    0 -0.19741051110E+02  0.27827853298E+03  0.39626892530E+03  0.48462120486E+03  0.50400001928E-02 0. -1.
       -1    1    3    3    0  502  0.19741051110E+02 -0.27827853298E+03 -0.84251643902E+03  0.88750357805E+03  0.50400001928E-02 0.  1.
</event>
<event>
 5   0  0.3262927E-03  0.1348377E+04  0.7818609E-02  0.8992057E-01
       -2   -1    0    0    0  501  0.00000000000E+00  0.00000000000E+00  0.25511235844E+03  0.25511235845E+03  0.25500000920E-02 0.  1.
        2   -1    0    0  501    0  0.00000000000E+00  0.00000000000E+00 -0.17816866635E+04  0.17816866635E+04  0.25500000920E-02 0. -1.
    10030    2    1    2    0    0  0.00000000000E+00  0.00000000000E+00 -0.15265743051E+04  0.20367990220E+04  0.13483772273E+04 0.  0.
        3    1    3    3  502    0  0.17638967973E+03  0.57554654831E+03 -0.30470687570E+03  0.67469507089E+03  0.10100000352E+00 0.  1.
       -3    1    3    3    0  502 -0.17638967973E+03 -0.57554654831E+03 -0.12218674294E+04  0.13621039511E+04  0.10100000352E+00 0. -1.
</event>
<event>
 5   0  0.3299104E-03  0.1262021E+04  0.7818609E-02  0.9060237E-01
       -2   -1    0    0    0  501  0.00000000000E+00  0.00000000000E+00  0.65120474649E+03  0.65120474650E+03  0.25500000920E-02 0.  1.
        2   -1    0    0  501    0  0.00000000000E+00  0.00000000000E+00 -0.61144252307E+03  0.61144252308E+03  0.25500000920E-02 0. -1.
    10030    2    1    2    0    0  0.00000000000E+00  0.00000000000E+00  0.39762223422E+02  0.12626472696E+04  0.12620210351E+04 0.  0.
        2    1    3    3  502    0  0.48852201775E+03  0.20025213104E+03 -0.32586177043E+03  0.62043579140E+03  0.25500000920E-02 0. -1.
       -2    1    3    3    0  502 -0.48852201775E+03 -0.20025213104E+03  0.36562399385E+03  0.64221147818E+03  0.25500000920E-02 0.  1.
</event>
<event>
 5   0  0.1823154E-03  0.1299311E+04  0.7818609E-02  0.9030111E-01
        1   -1    0    0  501    0  0.00000000000E+00  0.00000000000E+00  0.17399120095E+04  0.17399120095E+04  0.50400001928E-02 0. -1.
       -1   -1    0    0    0  501  0.00000000000E+00  0.00000000000E+00 -0.24257121542E+03  0.24257121547E+03  0.50400001928E-02 0.  1.
    10030    2    1    2    0    0  0.00000000000E+00  0.00000000000E+00  0.14973407941E+04  0.19824832250E+04  0.12993114652E+04 0.  0.
        2    1    3    3  502    0 -0.35939950211E+03 -0.22942806079E+03  0.14965394093E+04  0.15560962184E+04  0.25500000920E-02 0. -1.
       -2    1    3    3    0  502  0.35939950211E+03  0.22942806079E+03  0.80138478595E+00  0.42638700662E+03  0.25500000920E-02 0.  1.
</event>
<event>
 5   0  0.3294720E-03  0.1301981E+04  0.7818609E-02  0.9027996E-01
       -2   -1    0    0    0  501  0.00000000000E+00  0.00000000000E+00  0.35858533421E+03  0.35858533421E+03  0.25500000920E-02 0.  1.
        2   -1    0    0  501    0  0.00000000000E+00  0.00000000000E+00 -0.11818343611E+04  0.11818343611E+04  0.25500000920E-02 0. -1.
    10030    2    1    2    0    0  0.00000000000E+00  0.00000000000E+00 -0.82324902686E+03  0.15404196953E+04  0.13019807515E+04 0.  0.
        5    1    3    3  502    0  0.30783334319E+03  0.57355307296E+03 -0.40396745385E+03  0.76611767272E+03  0.46999998093E+01 0. -1.
       -5    1    3    3    0  502 -0.30783334319E+03 -0.57355307296E+03 -0.41928157300E+03  0.77430202256E+03  0.46999998093E+01 0.  1.
</event>
<event>
 5   0  0.1254125E-03  0.1304613E+04  0.7818609E-02  0.9025915E-01
       -3   -1    0    0    0  501  0.00000000000E+00  0.00000000000E+00  0.19738283718E+04  0.19738283743E+04  0.10100000352E+00 0.  1.
        3   -1    0    0  501    0  0.00000000000E+00  0.00000000000E+00 -0.21557283125E+03  0.21557285491E+03  0.10100000352E+00 0. -1.
    10030    2    1    2    0    0  0.00000000000E+00  0.00000000000E+00  0.17582555405E+04  0.21894012292E+04  0.13046130449E+04 0.  0.
        2    1    3    3  502    0 -0.38708243648E+03 -0.43473287430E+03  0.13732095855E+04  0.14914858532E+04  0.25500000920E-02 0.  1.
       -2    1    3    3    0  502  0.38708243648E+03  0.43473287430E+03  0.38504595502E+03  0.69791537604E+03  0.25500000920E-02 0. -1.
</event>
<event>
 5   0  0.3294720E-03  0.1281093E+04  0.7818609E-02  0.9044694E-01
        2   -1    0    0  501    0  0.00000000000E+00  0.00000000000E+00  0.19077603257E+04  0.19077603257E+04  0.25500000920E-02 0. -1.
       -2   -1    0    0    0  501  0.00000000000E+00  0.00000000000E+00 -0.21506898343E+03  0.21506898344E+03  0.25500000920E-02 0.  1.
    10030    2    1    2    0    0  0.00000000000E+00  0.00000000000E+00  0.16926913423E+04  0.21228293092E+04  0.12810933985E+04 0.  0.
        5    1    3    3  502    0  0.61325602677E+03  0.18026207537E+03  0.91467971469E+03  0.11159025229E+04  0.46999998093E+01 0.  1.
       -5    1    3    3    0  502 -0.61325602677E+03 -0.18026207537E+03  0.77801162762E+03  0.10069267863E+04  0.46999998093E+01 0. -1.
</event>
<event>
 5   0  0.3336609E-03  0.1353913E+04  0.7818609E-02  0.8987871E-01
        2   -1    0    0  501    0  0.00000000000E+00  0.00000000000E+00  0.15309355779E+04  0.15309355779E+04  0.25500000920E-02 0.  1.
       -2   -1    0    0    0  501  0.00000000000E+00  0.00000000000E+00 -0.29933979753E+03  0.29933979754E+03  0.25500000920E-02 0. -1.
    10030    2    1    2    0    0  0.00000000000E+00  0.00000000000E+00  0.12315957804E+04  0.18302753754E+04  0.13539127681E+04 0.  0.
        1    1    3    3  502    0 -0.21775816487E+03  0.50410072777E+03  0.11509867465E+04  0.12752672868E+04  0.50400001928E-02 0. -1.
       -1    1    3    3    0  502  0.21775816487E+03 -0.50410072777E+03  0.80609033852E+02  0.55500808865E+03  0.50400001928E-02 0.  1.
</event>
<event>
 5   0  0.3259968E-03  0.1330771E+04  0.7818609E-02  0.9005513E-01
       -2   -1    0    0    0  501  0.00000000000E+00  0.00000000000E+00  0.20148721484E+03  0.20148721485E+03  0.25500000920E-02 0.  1.
        2   -1    0    0  501    0  0.00000000000E+00  0.00000000000E+00 -0.21973508866E+04  0.21973508866E+04  0.25500000920E-02 0. -1.
    10030    2    1    2    0    0  0.00000000000E+00  0.00000000000E+00 -0.19958636717E+04  0.23988381014E+04  0.13307713706E+04 0.  0.
        4    1    3    3  502    0 -0.46886051595E+03  0.47042470135E+03 -0.92567252174E+03  0.11392983865E+04  0.12699999809E+01 0.  1.
       -4    1    3    3    0  502  0.46886051595E+03 -0.47042470135E+03 -0.10701911500E+04  0.12595397149E+04  0.12699999809E+01 0. -1.
</event>
<event>
 5   0  0.1823154E-03  0.1135004E+04  0.7818609E-02  0.9171730E-01
       -1   -1    0    0    0  501  0.00000000000E+00  0.00000000000E+00  0.94281734791E+03  0.94281734792E+03  0.50400001928E-02 0.  1.
        1   -1    0    0  501    0  0.00000000000E+00  0.00000000000E+00 -0.34159175574E+03  0.34159175578E+03  0.50400001928E-02 0. -1.
    10030    2    1    2    0    0  0.00000000000E+00  0.00000000000E+00  0.60122559217E+03  0.12844091037E+04  0.11350041996E+04 0.  0.
        2    1    3    3  502    0  0.91676110295E+02  0.43106581925E+03 -0.10399397340E+03  0.45281011057E+03  0.25500000920E-02 0. -1.
       -2    1    3    3    0  502 -0.91676110295E+02 -0.43106581925E+03  0.70521956557E+03  0.83159899314E+03  0.25500000920E-02 0.  1.
</event>
<event>
 5   0  0.1823154E-03  0.1329172E+04  0.7818609E-02  0.9006746E-01
       -1   -1    0    0    0  501  0.00000000000E+00  0.00000000000E+00  0.59254946017E+03  0.59254946019E+03  0.50400001928E-02 0. -1.
        1   -1    0    0  501    0  0.00000000000E+00  0.00000000000E+00 -0.74538015027E+03  0.74538015029E+03  0.50400001928E-02 0.  1.
    10030    2    1    2    0    0  0.00000000000E+00  0.00000000000E+00 -0.15283069010E+03  0.13379296105E+04  0.13291720817E+04 0.  0.
        2    1    3    3  502    0  0.24023550407E+03 -0.61817840134E+03 -0.11932215417E+03  0.67386601767E+03  0.25500000920E-02 0.  1.
       -2    1    3    3    0  502 -0.24023550407E+03  0.61817840134E+03 -0.33508535935E+02  0.66406359280E+03  0.25500000920E-02 0. -1.
</event>
<event>
 5   0  0.3294720E-03  0.1297997E+04  0.7818609E-02  0.9031155E-01
        2   -1    0    0  501    0  0.00000000000E+00  0.00000000000E+00  0.34874208448E+03  0.34874208449E+03  0.25500000920E-02 0. -1.
       -2   -1    0    0    0  501  0.00000000000E+00  0.00000000000E+00 -0.12077664781E+04  0.12077664781E+04  0.25500000920E-02 0.  1.
    10030    2    1    2    0    0  0.00000000000E+00  0.00000000000E+00 -0.85902439362E+03  0.15565085626E+04  0.12979969170E+04 0.  0.
        5    1    3    3  502    0 -0.32730992137E+03 -0.52201252555E+03 -0.18508295314E+03  0.64335577326E+03  0.46999998093E+01 0. -1.
       -5    1    3    3    0  502  0.32730992137E+03  0.52201252555E+03 -0.67394144048E+03  0.91315278932E+03  0.46999998093E+01 0.  1.
</event>
<event>
 5   0  0.3262927E-03  0.1267541E+04  0.7818609E-02  0.9055709E-01
        2   -1    0    0  501    0  0.00000000000E+00  0.00000000000E+00  0.65173174832E+03  0.65173174832E+03  0.25500000920E-02 0. -1.
       -2   -1    0    0    0  501  0.00000000000E+00  0.00000000000E+00 -0.61630389812E+03  0.61630389813E+03  0.25500000920E-02 0.  1.
    10030    2    1    2    0    0  0.00000000000E+00  0.00000000000E+00  0.35427850192E+02  0.12680356465E+04  0.12675406377E+04 0.  0.
        3    1    3    3  502    0  0.43138763423E+03  0.43864402531E+03 -0.13453267878E+03  0.62976418107E+03  0.10100000352E+00 0.  1.
       -3    1    3    3    0  502 -0.43138763423E+03 -0.43864402531E+03  0.16996052897E+03  0.63827146538E+03  0.10100000352E+00 0. -1.
</event>
<event>
 5   0  0.1823154E-03  0.1312730E+04  0.7818609E-02  0.9019531E-01
        1   -1    0    0  501    0  0.00000000000E+00  0.00000000000E+00  0.91528599676E+03  0.91528599678E+03  0.50400001928E-02 0.  1.
       -1   -1    0    0    0  501  0.00000000000E+00  0.00000000000E+00 -0.47068880699E+03  0.47068880702E+03  0.50400001928E-02 0. -1.
    10030    2    1    2    0    0  0.00000000000E+00  0.00000000000E+00  0.44459718977E+03  0.13859748038E+04  0.13127297877E+04 0.  0.
        2    1    3    3  502    0  0.15056935112E+03  0.37103878656E+03  0.77138757455E+03  0.86912582564E+03  0.25500000920E-02 0.  1.
       -2    1    3    3    0  502 -0.15056935112E+03 -0.37103878656E+03 -0.32679038478E+03  0.51684897815E+03  0.25500000920E-02 0. -1.
</event>
<event>
 5   0  0.3259968E-03  0.1148794E+04  0.7818609E-02  0.9158897E-01
        2   -1    0    0  501    0  0.00000000000E+00  0.00000000000E+00  0.18380924557E+04  0.18380924557E+04  0.25500000920E-02 0.  1.
       -2   -1    0    0    0  501  0.00000000000E+00  0.00000000000E+00 -0.17949696429E+03  0.17949696431E+03  0.25500000920E-02 0. -1.
    10030    2    1    2    0    0  0.00000000000E+00  0.00000000000E+00  0.16585954915E+04  0.20175894201E+04  0.11487941781E+04 0.  0.
        4    1    3    3  502    0 -0.34608251519E+03 -0.22986160648E+02  0.16334090673E+04  0.16698288131E+04  0.12699999809E+01 0.  1.
       -4    1    3    3    0  502  0.34608251519E+03  0.22986160648E+02  0.25186424123E+02  0.34776060697E+03  0.12699999809E+01 0. -1.
</event>
<event>
 5   0  0.1823154E-03  0.1289355E+04  0.7818609E-02  0.9038050E-01
       -1   -1    0    0    0  501  0.00000000000E+00  0.00000000000E+00  0.43697616136E+03  0.43697616139E+03  0.50400001928E-02 0. -1.
        1   -1    0    0  501    0  0.00000000000E+00  0.00000000000E+00 -0.95110198724E+03  0.95110198725E+03  0.50400001928E-02 0.  1.
    10030    2    1    2    0    0  0.00000000000E+00  0.00000000000E+00 -0.51412582588E+03  0.13880781486E+04  0.12893547153E+04 0.  0.
        2    1    3    3  502    0 -0.51311919614E+03  0.22590338811E+03  0.85558574933E+02  0.56713659727E+03  0.25500000920E-02 0. -1.
       -2    1    3    3    0  502  0.51311919614E+03 -0.22590338811E+03 -0.59968440081E+03  0.82094155138E+03  0.25500000920E-02 0.  1.
</event>
<event>
 5   0  0.1873488E-03  0.1250378E+04  0.7818609E-02  0.9069869E-01
       -1   -1    0    0    0  501  0.00000000000E+00  0.00000000000E+00  0.80039858487E+03  0.80039858489E+03  0.50400001928E-02 0.  1.
        1   -1    0    0  501    0  0.00000000000E+00  0.00000000000E+00 -0.48833336422E+03  0.48833336424E+03  0.50400001928E-02 0. -1.
    10030    2    1    2    0    0  0.00000000000E+00  0.00000000000E+00  0.31206522066E+03  0.12887319491E+04  0.12503780767E+04 0.  0.
        3    1    3    3  502    0 -0.35739945223E+02 -0.20045773717E+03  0.76526518308E+03  0.79189106493E+03  0.10100000352E+00 0.  1.
       -3    1    3    3    0  502  0.35739945223E+02  0.20045773717E+03 -0.45319996242E+03  0.49684088421E+03  0.10100000352E+00 0. -1.
</event>
<event>
 5   0  0.3336609E-03  0.1271169E+04  0.7818609E-02  0.9052746E-01
        2   -1    0    0  501    0  0.00000000000E+00  0.00000000000E+00  0.88299049011E+03  0.88299049012E+03  0.25500000920E-02 0.  1.
       -2   -1    0    0    0  501  0.00000000000E+00  0.00000000000E+00 -0.45749972216E+03  0.45749972216E+03  0.25500000920E-02 0. -1.
    10030    2    1    2    0    0  0.00000000000E+00  0.00000000000E+00  0.42549076796E+03  0.13404902123E+04  0.12711693890E+04 0.  0.
        1    1    3    3  502    0  0.27352363938E+03 -0.46214867837E+03 -0.14575139758E+03  0.55645309968E+03  0.50400001928E-02 0. -1.
       -1    1    3    3    0  502 -0.27352363938E+03  0.46214867837E+03  0.57124216554E+03  0.78403711260E+03  0.50400001928E-02 0.  1.
</event>
<event>
 5   0  0.1823154E-03  0.1304792E+04  0.7818609E-02  0.9025774E-01
       -1   -1    0    0    0  501  0.00000000000E+00  0.00000000000E+00  0.23530773045E+03  0.23530773051E+03  0.50400001928E-02 0.  1.
        1   -1    0    0  501    0  0.00000000000E+00  0.00000000000E+00 -0.18087822918E+04  0.18087822918E+04  0.50400001928E-02 0. -1.
    10030    2    1    2    0    0  0.00000000000E+00  0.00000000000E+00 -0.15734745614E+04  0.20440900224E+04  0.13047918701E+04 0.  0.
        2    1    3    3  502    0 -0.12938877043E+03  0.52319607198E+02 -0.17851211292E+04  0.17905686921E+04  0.25500000920E-02 0. -1.
       -2    1    3    3    0  502  0.12938877043E+03 -0.52319607198E+02  0.21164656782E+03  0.25352133025E+03  0.25500000920E-02 0.  1.
</event>
<event>
 5   0  0.3336609E-03  0.1307746E+04  0.7818609E-02  0.9023445E-01
        2   -1    0    0  501    0  0.00000000000E+00  0.00000000000E+00  0.75386786905E+03  0.75386786905E+03  0.25500000920E-02 0. -1.
       -2   -1    0    0    0  501  0.00000000000E+00  0.00000000000E+00 -0.56714176413E+03  0.56714176413E+03  0.25500000920E-02 0.  1.
    10030    2    1    2    0    0  0.00000000000E+00  0.00000000000E+00  0.18672610492E+03  0.13210096332E+04  0.13077460811E+04 0.  0.
        1    1    3    3  502    0 -0.53945303050E+03 -0.72214580646E+02 -0.27270091469E+03  0.60876128875E+03  0.50400001928E-02 0.  1.
       -1    1    3    3    0  502  0.53945303050E+03  0.72214580646E+02  0.45942701961E+03  0.71224834444E+03  0.50400001928E-02 0. -1.
</event>
<event>
 5   0  0.3262927E-03  0.1238015E+04  0.7818609E-02  0.9080218E-01
       -2   -1    0    0    0  501  0.00000000000E+00  0.00000000000E+00  0.68681926495E+03  0.68681926495E+03  0.25500000920E-02 0.  1.
        2   -1    0    0  501    0  0.00000000000E+00  0.00000000000E+00 -0.55789115478E+03  0.55789115479E+03  0.25500000920E-02 0. -1.
    10030    2    1    2    0    0  0.00000000000E+00  0.00000000000E+00  0.12892811017E+03  0.12447104197E+04  0.12380151742E+04 0.  0.
        3    1    3    3  502    0 -0.70542587104E+02  0.81862407756E+02 -0.54833414805E+03  0.55888107726E+03  0.10100000352E+00 0. -1.
       -3    1    3    3    0  502  0.70542587104E+02 -0.81862407756E+02  0.67726225822E+03  0.68582934248E+03  0.10100000352E+00 0.  1.
</event>
<event>
 5   0  0.1857986E-03  0.1287757E+04  0.7818609E-02  0.9039331E-01
       -1   -1    0    0    0  501  0.00000000000E+00  0.00000000000E+00  0.29297856616E+03  0.29297856620E+03  0.50400001928E-02 0. -1.
        1   -1    0    0  501    0  0.00000000000E+00  0.00000000000E+00 -0.14150508977E+04  0.14150508977E+04  0.50400001928E-02 0.  1.
    10030    2    1    2    0    0  0.00000000000E+00  0.00000000000E+00 -0.11220723316E+04  0.17080294639E+04  0.12877570937E+04 0.  0.
        1    1    3    3  502    0  0.93812761376E+02  0.21459970793E+03 -0.13565489237E+04  0.13766186296E+04  0.50400001928E-02 0.  1.
       -1    1    3    3    0  502 -0.93812761376E+02 -0.21459970793E+03  0.23447659215E+03  0.33141083436E+03  0.50400001928E-02 0. -1.
</event>
<event>
 5   0  0.1857986E-03  0.1292696E+04  0.7818609E-02  0.9035378E-01
        1   -1    0    0  501    0  0.00000000000E+00  0.00000000000E+00  0.18949076309E+04  0.18949076309E+04  0.50400001928E-02 0. -1.
       -1   -1    0    0    0  501  0.00000000000E+00  0.00000000000E+00 -0.22046750614E+03  0.22046750620E+03  0.50400001928E-02 0.  1.
    10030    2    1    2    0    0  0.00000000000E+00  0.00000000000E+00  0.16744401248E+04  0.21153751371E+04  0.12926957257E+04 0.  0.
        1    1    3    3  502    0  0.43162096479E+03  0.47671496599E+03  0.94341946013E+03  0.11417504516E+04  0.50400001928E-02 0. -1.
       -1    1    3    3    0  502 -0.43162096479E+03 -0.47671496599E+03  0.73102066466E+03  0.97362468551E+03  0.50400001928E-02 0.  1.
</event>
<event>
 5   0  0.3336609E-03  0.1310409E+04  0.7818609E-02  0.9021351E-01
       -2   -1    0    0    0  501  0.00000000000E+00  0.00000000000E+00  0.24730094542E+03  0.24730094543E+03  0.25500000920E-02 0.  1.
        2   -1    0    0  501    0  0.00000000000E+00  0.00000000000E+00 -0.17359128987E+04  0.17359128987E+04  0.25500000920E-02 0. -1.
    10030    2    1    2    0    0  0.00000000000E+00  0.00000000000E+00 -0.14886119533E+04  0.19832138442E+04  0.13104089454E+04 0.  0.
        1    1    3    3  502    0 -0.29565009114E+02  0.28776048890E+03  0.14542262219E+03  0.32377141289E+03  0.50400001928E-02 0.  1.
       -1    1    3    3    0  502  0.29565009114E+02 -0.28776048890E+03 -0.16340345755E+04  0.16594424313E+04  0.50400001928E-02 0. -1.
</event>
<event>
 5   0  0.1823154E-03  0.1284860E+04  0.7818609E-02  0.9041658E-01
       -1   -1    0    0    0  501  0.00000000000E+00  0.00000000000E+00  0.81775123782E+03  0.81775123783E+03  0.50400001928E-02 0. -1.
        1   -1    0    0  501    0  0.00000000000E+00  0.00000000000E+00 -0.50469649565E+03  0.50469649568E+03  0.50400001928E-02 0.  1.
    10030    2    1    2    0    0  0.00000000000E+00  0.00000000000E+00  0.31305474217E+03  0.13224477335E+04  0.12848598119E+04 0.  0.
        2    1    3    3  502    0 -0.38571177988E+03 -0.23073702874E+03 -0.31592514070E+03  0.54938315236E+03  0.25500000920E-02 0.  1.
       -2    1    3    3    0  502  0.38571177988E+03  0.23073702874E+03  0.62897988287E+03  0.77306458115E+03  0.25500000920E-02 0. -1.
</event>
<event>
 5   0  0.1857986E-03  0.1302264E+04  0.7818609E-02  0.9027772E-01
       -1   -1    0    0    0  501  0.00000000000E+00  0.00000000000E+00  0.49085646216E+03  0.49085646218E+03  0.50400001928E-02 0. -1.
        1   -1    0    0  501    0  0.00000000000E+00  0.00000000000E+00 -0.86374137277E+03  0.86374137279E+03  0.50400001928E-02 0.  1.
    10030    2    1    2    0    0  0.00000000000E+00  0.00000000000E+00 -0.37288491061E+03  0.13545978350E+04  0.13022642351E+04 0.  0.
        1    1    3    3  502    0  0.67766249666E+02 -0.64160260732E+03 -0.27787754640E+03  0.70246857662E+03  0.50400001928E-02 0. -1.
       -1    1    3    3    0  502 -0.67766249666E+02  0.64160260732E+03 -0.95007364218E+02  0.65212925835E+03  0.50400001928E-02 0.  1.
</event>
<event>
 5   0  0.3262927E-03  0.1299836E+04  0.7818609E-02  0.9029695E-01
        2   -1    0    0  501    0  0.00000000000E+00  0.00000000000E+00  0.71121554518E+03  0.71121554518E+03  0.25500000920E-02 0. -1.
       -2   -1    0    0    0  501  0.00000000000E+00  0.00000000000E+00 -0.59390323154E+03  0.59390323154E+03  0.25500000920E-02 0.  1.
    10030    2    1    2    0    0  0.00000000000E+00  0.00000000000E+00  0.11731231364E+03  0.13051187767E+04  0.12998356982E+04 0.  0.
        3    1    3    3  502    0  0.43152047054E+03 -0.43122807365E+03 -0.16636548273E+03  0.63233302305E+03  0.10100000352E+00 0.  1.
       -3    1    3    3    0  502 -0.43152047054E+03  0.43122807365E+03  0.28367779637E+03  0.67278575368E+03  0.10100000352E+00 0. -1.
</event>
<event>
 5   0  0.1803959E-03  0.1321178E+04  0.7818609E-02  0.9012937E-01
       -1   -1    0    0    0  501  0.00000000000E+00  0.00000000000E+00  0.33761069302E+03  0.33761069306E+03  0.50400001928E-02 0. -1.
        1   -1    0    0  501    0  0.00000000000E+00  0.00000000000E+00 -0.12925480821E+04  0.12925480821E+04  0.50400001928E-02 0.  1.
    10030    2    1    2    0    0  0.00000000000E+00  0.00000000000E+00 -0.95493738910E+03  0.16301587752E+04  0.13211783435E+04 0.  0.
        4    1    3    3  502    0  0.94919498636E+02 -0.23556483227E+03 -0.12299011152E+04  0.12558498587E+04  0.12699999809E+01 0.  1.
       -4    1    3    3    0  502 -0.94919498636E+02  0.23556483227E+03  0.27496372610E+03  0.37430891653E+03  0.12699999809E+01 0. -1.
</event>
<event>
 5   0  0.1803959E-03  0.1362543E+04  0.7818609E-02  0.8981387E-01
        1   -1    0    0  501    0  0.00000000000E+00  0.00000000000E+00  0.14159564651E+04  0.14159564651E+04  0.50400001928E-02 0. -1.
       -1   -1    0    0    0  501  0.00000000000E+00  0.00000000000E+00 -0.32778610034E+03  0.32778610038E+03  0.50400001928E-02 0.  1.
    10030    2    1    2    0    0  0.00000000000E+00  0.00000000000E+00  0.10881703647E+04  0.17437425655E+04  0.13625429872E+04 0.  0.
        4    1    3    3  502    0  0.40403356836E+03  0.15641582753E+03  0.12169333039E+04  0.12917574519E+04  0.12699999809E+01 0. -1.
       -4    1    3    3    0  502 -0.40403356836E+03 -0.15641582753E+03 -0.12876293919E+03  0.45198511356E+03  0.12699999809E+01 0.  1.
</event>
<event>
 5   0  0.1803959E-03  0.1335539E+04  0.7818609E-02  0.9001848E-01
        1   -1    0    0  501    0  0.00000000000E+00  0.00000000000E+00  0.45115859865E+03  0.45115859868E+03  0.50400001928E-02 0. -1.
       -1   -1    0    0    0  501  0.00000000000E+00  0.00000000000E+00 -0.98837967742E+03  0.98837967743E+03  0.50400001928E-02 0.  1.
    10030    2    1    2    0    0  0.00000000000E+00  0.00000000000E+00 -0.53722107877E+03  0.14395382761E+04  0.13355388279E+04 0.  0.
        4    1    3    3  502    0 -0.26427055419E+02  0.28167249682E+03  0.38336906652E+03  0.47645696426E+03  0.12699999809E+01 0. -1.
       -4    1    3    3    0  502  0.26427055419E+02 -0.28167249682E+03 -0.92059014529E+03  0.96308131185E+03  0.12699999809E+01 0.  1.
</event>
<event>
 5   0  0.3299104E-03  0.1359291E+04  0.7818609E-02  0.8983825E-01
       -2   -1    0    0    0  501  0.00000000000E+00  0.00000000000E+00  0.33992085772E+03  0.33992085773E+03  0.25500000920E-02 0. -1.
        2   -1    0    0  501    0  0.00000000000E+00  0.00000000000E+00 -0.13588988872E+04  0.13588988872E+04  0.25500000920E-02 0.  1.
    10030    2    1    2    0    0  0.00000000000E+00  0.00000000000E+00 -0.10189780295E+04  0.16988197450E+04  0.13592911025E+04 0.  0.
        2    1    3    3  502    0 -0.16258597767E+03  0.39288483767E+03 -0.11721400080E+04  0.12468780590E+04  0.25500000920E-02 0.  1.
       -2    1    3    3    0  502  0.16258597767E+03 -0.39288483767E+03  0.15316197849E+03  0.45194168591E+03  0.25500000920E-02 0. -1.
</event>
<event>
 5   0  0.3259968E-03  0.1289445E+04  0.7818609E-02  0.9037978E-01
        2   -1    0    0  501    0  0.00000000000E+00  0.00000000000E+00  0.32537302197E+03  0.32537302198E+03  0.25500000920E-02 0.  1.
       -2   -1    0    0    0  501  0.00000000000E+00  0.00000000000E+00 -0.12775086592E+04  0.12775086592E+04  0.25500000920E-02 0. -1.
    10030    2    1    2    0    0  0.00000000000E+00  0.00000000000E+00 -0.95213563723E+03  0.16028816812E+04  0.12894446138E+04 0.  0.
        4    1    3    3  502    0 -0.67120189810E+02 -0.19932574519E+03  0.28152681994E+03  0.35141832026E+03  0.12699999809E+01 0.  1.
       -4    1    3    3    0  502  0.67120189810E+02  0.19932574519E+03 -0.12336624572E+04  0.12514633609E+04  0.12699999809E+01 0. -1.
</event>
<event>
 5   0  0.3262927E-03  0.1293427E+04  0.7818609E-02  0.9034794E-01
       -2   -1    0    0    0  501  0.00000000000E+00  0.00000000000E+00  0.35489822570E+03  0.35489822571E+03  0.25500000920E-02 0. -1.
        2   -1    0    0  501    0  0.00000000000E+00  0.00000000000E+00 -0.11784744634E+04  0.11784744634E+04  0.25500000920E-02 0.  1.
    10030    2    1    2    0    0  0.00000000000E+00  0.00000000000E+00 -0.82357623769E+03  0.15333726891E+04  0.12934272242E+04 0.  0.
        3    1    3    3  502    0  0.13341220925E+03 -0.42206098728E+03 -0.97074660169E+03  0.10669035896E+04  0.10100000352E+00 0.  1.
       -3    1    3    3    0  502 -0.13341220925E+03  0.42206098728E+03  0.14717036400E+03  0.46646909952E+03  0.10100000352E+00 0. -1.
</event>
<event>
 5   0  0.1873488E-03  0.1293893E+04  0.7818609E-02  0.9034422E-01
        1   -1    0    0  501    0  0.00000000000E+00  0.00000000000E+00  0.49032651619E+03  0.49032651621E+03  0.50400001928E-02 0. -1.
       -1   -1    0    0    0  501  0.00000000000E+00  0.00000000000E+00 -0.85359440497E+03  0.85359440499E+03  0.50400001928E-02 0.  1.
    10030    2    1    2    0    0  0.00000000000E+00  0.00000000000E+00 -0.36326788879E+03  0.13439209212E+04  0.12938933045E+04 0.  0.
        3    1    3    3  502    0 -0.51828120616E+03  0.16973867201E+03  0.17983520006E+03  0.57425371990E+03  0.10100000352E+00 0. -1.
       -3    1    3    3    0  502  0.51828120616E+03 -0.16973867201E+03 -0.54310308885E+03  0.76966720130E+03  0.10100000352E+00 0.  1.
</event>
<event>
 5   0  0.3294720E-03  0.1262333E+04  0.7818609E-02  0.9059980E-01
        2   -1    0    0  501    0  0.00000000000E+00  0.00000000000E+00  0.12708321914E+04  0.12708321915E+04  0.25500000920E-02 0. -1.
       -2   -1    0    0    0  501  0.00000000000E+00  0.00000000000E+00 -0.31347285619E+03  0.31347285620E+03  0.25500000920E-02 0.  1.
    10030    2    1    2    0    0  0.00000000000E+00  0.00000000000E+00  0.95735933526E+03  0.15843050477E+04  0.12623333899E+04 0.  0.
        5    1    3    3  502    0  0.41746962596E+03  0.14622034267E+03  0.10437191383E+04  0.11335929635E+04  0.46999998093E+01 0. -1.
       -5    1    3    3    0  502 -0.41746962596E+03 -0.14622034267E+03 -0.86359803068E+02  0.45071208414E+03  0.46999998093E+01 0.  1.
</event>
<event>
 5   0  0.3299104E-03  0.1302313E+04  0.7818609E-02  0.9027733E-01
        2   -1    0    0  501    0  0.00000000000E+00  0.00000000000E+00  0.17029923714E+04  0.17029923714E+04  0.25500000920E-02 0.  1.
       -2   -1    0    0    0  501  0.00000000000E+00  0.00000000000E+00 -0.24897630844E+03  0.24897630846E+03  0.25500000920E-02 0. -1.
    10030    2    1    2    0    0  0.00000000000E+00  0.00000000000E+00  0.14540160629E+04  0.19519686798E+04  0.13023129485E+04 0.  0.
        2    1    3    3  502    0 -0.10541935087E+01  0.60434380731E+03  0.36364270812E+03  0.70531451703E+03  0.25500000920E-02 0.  1.
       -2    1    3    3    0  502  0.10541935087E+01 -0.60434380731E+03  0.10903733548E+04  0.12466541628E+04  0.25500000920E-02 0. -1.
</event>
<event>
 5   0  0.1873488E-03  0.1272441E+04  0.7818609E-02  0.9051710E-01
       -1   -1    0    0    0  501  0.00000000000E+00  0.00000000000E+00  0.14234642133E+04  0.14234642133E+04  0.50400001928E-02 0.  1.
        1   -1    0    0  501    0  0.00000000000E+00  0.00000000000E+00 -0.28436011023E+03  0.28436011028E+03  0.50400001928E-02 0. -1.
    10030    2    1    2    0    0  0.00000000000E+00  0.00000000000E+00  0.11391041031E+04  0.17078243236E+04  0.12724408680E+04 0.  0.
        3    1    3    3  502    0  0.36295205520E+03 -0.43340308628E+03  0.17777807970E+03  0.59260229952E+03  0.10100000352E+00 0. -1.
       -3    1    3    3    0  502 -0.36295205520E+03  0.43340308628E+03  0.96132602338E+03  0.11152220241E+04  0.10100000352E+00 0.  1.
</event>
<event>
 5   0  0.3294720E-03  0.1296732E+04  0.7818609E-02  0.9032160E-01
       -2   -1    0    0    0  501  0.00000000000E+00  0.00000000000E+00  0.23322688390E+03  0.23322688391E+03  0.25500000920E-02 0.  1.
        2   -1    0    0  501    0  0.00000000000E+00  0.00000000000E+00 -0.18024452608E+04  0.18024452608E+04  0.25500000920E-02 0. -1.
    10030    2    1    2    0    0  0.00000000000E+00  0.00000000000E+00 -0.15692183769E+04  0.20356721447E+04  0.12967323418E+04 0.  0.
        5    1    3    3  502    0 -0.45452801342E+03 -0.42214550710E+03 -0.10806162530E+04  0.12460160996E+04  0.46999998093E+01 0. -1.
       -5    1    3    3    0  502  0.45452801342E+03  0.42214550710E+03 -0.48860212391E+03  0.78965604514E+03  0.46999998093E+01 0.  1.
</event>
<event>
 5   0  0.1814770E-03  0.1345612E+04  0.7818609E-02  0.8994156E-01
       -1   -1    0    0    0  501  0.00000000000E+00  0.00000000000E+00  0.44224434585E+03  0.44224434588E+03  0.50400001928E-02 0. -1.
        1   -1    0    0  501    0  0.00000000000E+00  0.00000000000E+00 -0.10235695915E+04  0.10235695915E+04  0.50400001928E-02 0.  1.
    10030    2    1    2    0    0  0.00000000000E+00  0.00000000000E+00 -0.58132524562E+03  0.14658139374E+04  0.13456119269E+04 0.  0.
        5    1    3    3  502    0 -0.36470041333E+03 -0.61857110870E+02  0.32151024328E+03  0.49012612680E+03  0.46999998093E+01 0. -1.
       -5    1    3    3    0  502  0.36470041333E+03  0.61857110870E+02 -0.90283548890E+03  0.97568781055E+03  0.46999998093E+01 0.  1.
</event>
<event>
 5   0  0.3294720E-03  0.1354682E+04  0.7818609E-02  0.8987292E-01
       -2   -1    0    0    0  501  0.00000000000E+00  0.00000000000E+00  0.72906511714E+03  0.72906511715E+03  0.25500000920E-02 0.  1.
        2   -1    0    0  501    0  0.00000000000E+00  0.00000000000E+00 -0.62928620090E+03  0.62928620091E+03  0.25500000920E-02 0. -1.
    10030    2    1    2    0    0  0.00000000000E+00  0.00000000000E+00  0.99778916241E+02  0.13583513181E+04  0.13546816863E+04 0.  0.
        5    1    3    3  502    0 -0.50879274685E+03  0.49044786353E+02 -0.39571629314E+03  0.64644328829E+03  0.46999998093E+01 0. -1.
       -5    1    3    3    0  502  0.50879274685E+03 -0.49044786353E+02  0.49549520938E+03  0.71190802976E+03  0.46999998093E+01 0.  1.
</event>
<event>
 5   0  0.3336609E-03  0.1305162E+04  0.7818609E-02  0.9025481E-01
        2   -1    0    0  501    0  0.00000000000E+00  0.00000000000E+00  0.98393033694E+03  0.98393033694E+03  0.25500000920E-02 0.  1.
       -2   -1    0    0    0  501  0.00000000000E+00  0.00000000000E+00 -0.43281742518E+03  0.43281742519E+03  0.25500000920E-02 0. -1.
    10030    2    1    2    0    0  0.00000000000E+00  0.00000000000E+00  0.55111291176E+03  0.14167477621E+04  0.13051623577E+04 0.  0.
        1    1    3    3  502    0 -0.63038095575E+03 -0.15302795026E+02  0.93116125943E+02  0.63740484611E+03  0.50400001928E-02 0.  1.
       -1    1    3    3    0  502  0.63038095575E+03  0.15302795026E+02  0.45799678581E+03  0.77934291602E+03  0.50400001928E-02 0. -1.
</event>
<event>
 5   0  0.3259968E-03  0.1276535E+04  0.7818609E-02  0.9048383E-01
        2   -1    0    0  501    0  0.00000000000E+00  0.00000000000E+00  0.58998972468E+03  0.58998972469E+03  0.25500000920E-02 0. -1.
       -2   -1    0    0    0  501  0.00000000000E+00  0.00000000000E+00 -0.69049521607E+03  0.69049521607E+03  0.25500000920E-02 0.  1.
    10030    2    1    2    0    0  0.00000000000E+00  0.00000000000E+00 -0.10050549139E+03  0.12804849408E+04  0.12765345000E+04 0.  0.
        4    1    3    3  502    0  0.33865439612E+03 -0.39814098060E+03 -0.41769280860E+03  0.66908290645E+03  0.12699999809E+01 0.  1.
       -4    1    3    3    0  502 -0.33865439612E+03  0.39814098060E+03  0.31718731721E+03  0.61140203430E+03  0.12699999809E+01 0. -1.
</event>
<event>
 5   0  0.1873488E-03  0.1277769E+04  0.7818609E-02  0.9047382E-01
        1   -1    0    0  501    0  0.00000000000E+00  0.00000000000E+00  0.83161230130E+03  0.83161230131E+03  0.50400001928E-02 0. -1.
       -1   -1    0    0    0  501  0.00000000000E+00  0.00000000000E+00 -0.49082207535E+03  0.49082207538E+03  0.50400001928E-02 0.  1.
    10030    2    1    2    0    0  0.00000000000E+00  0.00000000000E+00  0.34079022595E+03  0.13224343767E+04  0.12777694246E+04 0.  0.
        3    1    3    3  502    0  0.77545339494E+02  0.12018603199E+03  0.81482894764E+03  0.82728724520E+03  0.10100000352E+00 0. -1.
       -3    1    3    3    0  502 -0.77545339494E+02 -0.12018603199E+03 -0.47403872169E+03  0.49514713149E+03  0.10100000352E+00 0.  1.
</event>
<event>
 5   0  0.1803959E-03  0.1293695E+04  0.7818609E-02  0.9034580E-01
        1   -1    0    0  501    0  0.00000000000E+00  0.00000000000E+00  0.40624490811E+03  0.40624490814E+03  0.50400001928E-02 0.  1.
       -1   -1    0    0    0  501  0.00000000000E+00  0.00000000000E+00 -0.10299493999E+04  0.10299493999E+04  0.50400001928E-02 0. -1.
    10030    2    1    2    0    0  0.00000000000E+00  0.00000000000E+00 -0.62370449174E+03  0.14361943080E+04  0.12936950171E+04 0.  0.
        4    1    3    3  502    0 -0.38271009568E+03  0.63486125914E+02 -0.88646842479E+03  0.96763907867E+03  0.12699999809E+01 0. -1.
       -4    1    3    3    0  502  0.38271009568E+03 -0.63486125914E+02  0.26276393305E+03  0.46855522933E+03  0.12699999809E+01 0.  1.
</event>
<event>
 5   0  0.3336609E-03  0.1313100E+04  0.7818609E-02  0.9019241E-01
       -2   -1    0    0    0  501  0.00000000000E+00  0.00000000000E+00  0.94151469873E+03  0.94151469874E+03  0.25500000920E-02 0.  1.
        2   -1    0    0  501    0  0.00000000000E+00  0.00000000000E+00 -0.45783418407E+03  0.45783418407E+03  0.25500000920E-02 0. -1.
    10030    2    1    2    0    0  0.00000000000E+00  0.00000000000E+00  0.48368051467E+03  0.13993488828E+04  0.13130995604E+04 0.  0.
        1    1    3    3  502    0  0.10450909253E+03  0.47931454724E+03 -0.22316072483E+03  0.53894832290E+03  0.50400001928E-02 0. -1.
       -1    1    3    3    0  502 -0.10450909253E+03 -0.47931454724E+03  0.70684123950E+03  0.86040055991E+03  0.50400001928E-02 0.  1.
</event>
<event>
 5   0  0.1803959E-03  0.1306152E+04  0.7818609E-02  0.9024701E-01
        1   -1    0    0  501    0  0.00000000000E+00  0.00000000000E+00  0.68087583353E+03  0.68087583354E+03  0.50400001928E-02 0.  1.
       -1   -1    0    0    0  501  0.00000000000E+00  0.00000000000E+00 -0.62641144561E+03  0.62641144563E+03  0.50400001928E-02 0. -1.
    10030    2    1    2    0    0  0.00000000000E+00  0.00000000000E+00  0.54464387911E+02  0.13072872792E+04  0.13061522349E+04 0.  0.
        4    1    3    3  502    0  0.80069984054E+02 -0.41729325519E+03 -0.46914428207E+03  0.63296353249E+03  0.12699999809E+01 0. -1.
       -4    1    3    3    0  502 -0.80069984054E+02  0.41729325519E+03  0.52360866998E+03  0.67432374669E+03  0.12699999809E+01 0.  1.
</event>
<event>
 5   0  0.3259968E-03  0.1268025E+04  0.7818609E-02  0.9055313E-01
       -2   -1    0    0    0  501  0.00000000000E+00  0.00000000000E+00  0.41242977190E+03  0.41242977191E+03  0.25500000920E-02 0. -1.
        2   -1    0    0  501    0  0.00000000000E+00  0.00000000000E+00 -0.97464384905E+03  0.97464384906E+03  0.25500000920E-02 0.  1.
    10030    2    1    2    0    0  0.00000000000E+00  0.00000000000E+00 -0.56221407715E+03  0.13870736210E+04  0.12680254577E+04 0.  0.
        4    1    3    3  502    0  0.46005633318E+02 -0.26833204936E+03  0.34523333307E+03  0.43966609396E+03  0.12699999809E+01 0. -1.
       -4    1    3    3    0  502 -0.46005633318E+02  0.26833204936E+03 -0.90744741023E+03  0.94740752701E+03  0.12699999809E+01 0.  1.
</event>
<event>
 5   0  0.3294720E-03  0.1287745E+04  0.7818609E-02  0.9039340E-01
       -2   -1    0    0    0  501  0.00000000000E+00  0.00000000000E+00  0.34415849603E+03  0.34415849604E+03  0.25500000920E-02 0. -1.
        2   -1    0    0  501    0  0.00000000000E+00  0.00000000000E+00 -0.12045958764E+04  0.12045958764E+04  0.25500000920E-02 0.  1.
    10030    2    1    2    0    0  0.00000000000E+00  0.00000000000E+00 -0.86043738040E+03  0.15487543725E+04  0.12877451692E+04 0.  0.
        5    1    3    3  502    0 -0.93624334662E+02 -0.18465420655E+03  0.30301324825E+03  0.36701745279E+03  0.46999998093E+01 0. -1.
       -5    1    3    3    0  502  0.93624334662E+02  0.18465420655E+03 -0.11634506287E+04  0.11817369197E+04  0.46999998093E+01 0.  1.
</event>
<event>
 5   0  0.3294720E-03  0.1398798E+04  0.7818609E-02  0.8954689E-01
       -2   -1    0    0    0  501  0.00000000000E+00  0.00000000000E+00  0.19043289900E+03  0.19043289902E+03  0.25500000920E-02 0. -1.
        2   -1    0    0  501    0  0.00000000000E+00  0.00000000000E+00 -0.25686666252E+04  0.25686666252E+04  0.25500000920E-02 0.  1.
    10030    2    1    2    0    0  0.00000000000E+00  0.00000000000E+00 -0.23782337262E+04  0.27590995242E+04  0.13987975293E+04 0.  0.
        5    1    3    3  502    0  0.75938212216E+02  0.43260452507E+03 -0.11556733703E+03  0.45419289578E+03  0.46999998093E+01 0. -1.
       -5    1    3    3    0  502 -0.75938212216E+02 -0.43260452507E+03 -0.22626663891E+04  0.23049066284E+04  0.46999998093E+01 0.  1.
</event>
<event>
 5   0  0.1803959E-03  0.1286011E+04  0.7818609E-02  0.9040733E-01
       -1   -1    0    0    0  501  0.00000000000E+00  0.00000000000E+00  0.59532623930E+03  0.59532623933E+03  0.50400001928E-02 0.  1.
        1   -1    0    0  501    0  0.00000000000E+00  0.00000000000E+00 -0.69450291777E+03  0.69450291779E+03  0.50400001928E-02 0. -1.
    10030    2    1    2    0    0  0.00000000000E+00  0.00000000000E+00 -0.99176678465E+02  0.12898291571E+04  0.12860105913E+04 0.  0.
        4    1    3    3  502    0  0.99583741406E+02  0.50708506437E+03  0.33417295428E+03  0.61540666256E+03  0.12699999809E+01 0.  1.
       -4    1    3    3    0  502 -0.99583741406E+02 -0.50708506437E+03 -0.43334963274E+03  0.67442249455E+03  0.12699999809E+01 0. -1.
</event>
<event>
 5   0  0.1803959E-03  0.1316449E+04  0.7818609E-02  0.9016621E-01
        1   -1    0    0  501    0  0.00000000000E+00  0.00000000000E+00  0.52584995773E+03  0.52584995775E+03  0.50400001928E-02 0.  1.
       -1   -1    0    0    0  501  0.00000000000E+00  0.00000000000E+00 -0.82392287935E+03  0.82392287936E+03  0.50400001928E-02 0. -1.
    10030    2    1    2    0    0  0.00000000000E+00  0.00000000000E+00 -0.29807292162E+03  0.13497728371E+04  0.13164494845E+04 0.  0.
        4    1    3    3  502    0  0.39696216352E+03 -0.22744887817E+03 -0.63424493773E+03  0.78203593611E+03  0.12699999809E+01 0. -1.
       -4    1    3    3    0  502 -0.39696216352E+03  0.22744887817E+03  0.33617201611E+03  0.56773690100E+03  0.12699999809E+01 0.  1.
</event>
<event>
 5   0  0.1254125E-03  0.1306035E+04  0.7818609E-02  0.9024793E-01
       -3   -1    0    0    0  501  0.00000000000E+00  0.00000000000E+00  0.78433597414E+03  0.78433598064E+03  0.10100000352E+00 0. -1.
        3   -1    0    0  501    0  0.00000000000E+00  0.00000000000E+00 -0.54368550347E+03  0.54368551285E+03  0.10100000352E+00 0.  1.
    10030    2    1    2    0    0  0.00000000000E+00  0.00000000000E+00  0.24065047068E+03  0.13280214935E+04  0.13060353893E+04 0.  0.
        5    1    3    3  502    0  0.10991879347E+03 -0.53698642627E+03  0.48122756179E+03  0.72940977466E+03  0.46999998093E+01 0. -1.
       -5    1    3    3    0  502 -0.10991879347E+03  0.53698642627E+03 -0.24057709111E+03  0.59861171883E+03  0.46999998093E+01 0.  1.
</event>
<event>
 5   0  0.1857986E-03  0.1291141E+04  0.7818609E-02  0.9036620E-01
       -1   -1    0    0    0  501  0.00000000000E+00  0.00000000000E+00  0.37866088442E+03  0.37866088446E+03  0.50400001928E-02 0. -1.
        1   -1    0    0  501    0  0.00000000000E+00  0.00000000000E+00 -0.11006187970E+04  0.11006187970E+04  0.50400001928E-02 0.  1.
    10030    2    1    2    0    0  0.00000000000E+00  0.00000000000E+00 -0.72195791254E+03  0.14792796814E+04  0.12911410258E+04 0.  0.
        1    1    3    3  502    0 -0.16458714900E+03 -0.56518753495E+03 -0.66461593768E+03  0.88782893844E+03  0.50400001928E-02 0.  1.
       -1    1    3    3    0  502  0.16458714900E+03  0.56518753495E+03 -0.57341974864E+02  0.59145074300E+03  0.50400001928E-02 0. -1.
</event>
<event>
 5   0  0.3294720E-03  0.1217456E+04  0.7818609E-02  0.9097713E-01
       -2   -1    0    0    0  501  0.00000000000E+00  0.00000000000E+00  0.49556178127E+03  0.49556178128E+03  0.25500000920E-02 0. -1.
        2   -1    0    0  501    0  0.00000000000E+00  0.00000000000E+00 -0.74773722272E+03  0.74773722272E+03  0.25500000920E-02 0.  1.
    10030    2    1    2    0    0  0.00000000000E+00  0.00000000000E+00 -0.25217544144E+03  0.12432990040E+04  0.12174563483E+04 0.  0.
        5    1    3    3  502    0 -0.43798817729E+03  0.21030141605E+03 -0.50056973752E+03  0.69760481733E+03  0.46999998093E+01 0.  1.
       -5    1    3    3    0  502  0.43798817729E+03 -0.21030141605E+03  0.24839429608E+03  0.54569418667E+03  0.46999998093E+01 0. -1.
</event>
<event>
 5   0  0.3259968E-03  0.1299264E+04  0.7818609E-02  0.9030149E-01
       -2   -1    0    0    0  501  0.00000000000E+00  0.00000000000E+00  0.48709258199E+03  0.48709258199E+03  0.25500000920E-02 0.  1.
        2   -1    0    0  501    0  0.00000000000E+00  0.00000000000E+00 -0.86640985504E+03  0.86640985505E+03  0.25500000920E-02 0. -1.
    10030    2    1    2    0    0  0.00000000000E+00  0.00000000000E+00 -0.37931727306E+03  0.13535024370E+04  0.12992641200E+04 0.  0.
        4    1    3    3  502    0 -0.14679957831E+03  0.14350191313E+03 -0.83172993922E+03  0.85669085437E+03  0.12699999809E+01 0. -1.
       -4    1    3    3    0  502  0.14679957831E+03 -0.14350191313E+03  0.45241266617E+03  0.49681158267E+03  0.12699999809E+01 0.  1.
</event>
<event>
 5   0  0.3336609E-03  0.1314292E+04  0.7818609E-02  0.9018308E-01
       -2   -1    0    0    0  501  0.00000000000E+00  0.00000000000E+00  0.31522055047E+03  0.31522055048E+03  0.25500000920E-02 0. -1.
        2   -1    0    0  501    0  0.00000000000E+00  0.00000000000E+00 -0.13699637888E+04  0.13699637888E+04  0.25500000920E-02 0.  1.
    10030    2    1    2    0    0  0.00000000000E+00  0.00000000000E+00 -0.10547432383E+04  0.16851843393E+04  0.13142918088E+04 0.  0.
        1    1    3    3  502    0  0.30158983251E+03 -0.37664686849E+03 -0.10993841664E+04  0.12006101932E+04  0.50400001928E-02 0.  1.
       -1    1    3    3    0  502 -0.30158983251E+03  0.37664686849E+03  0.44640928035E+02  0.48457414613E+03  0.50400001928E-02 0. -1.
</event>
<event>
 5   0  0.3336609E-03  0.1278457E+04  0.7818609E-02  0.9046826E-01
        2   -1    0    0  501    0  0.00000000000E+00  0.00000000000E+00  0.50523366330E+03  0.50523366330E+03  0.25500000920E-02 0. -1.
       -2   -1    0    0    0  501  0.00000000000E+00  0.00000000000E+00 -0.80876035982E+03  0.80876035982E+03  0.25500000920E-02 0.  1.
    10030    2    1    2    0    0  0.00000000000E+00  0.00000000000E+00 -0.30352669652E+03  0.13139940231E+04  0.12784568187E+04 0.  0.
        1    1    3    3  502    0  0.39852648165E+03  0.23872735070E+03  0.29953064268E+03  0.55275013386E+03  0.50400001928E-02 0. -1.
       -1    1    3    3    0  502 -0.39852648165E+03 -0.23872735070E+03 -0.60305733920E+03  0.76124388927E+03  0.50400001928E-02 0.  1.
</event>
<event>
 5   0  0.1823154E-03  0.1244443E+04  0.7818609E-02  0.9074821E-01
       -1   -1    0    0    0  501  0.00000000000E+00  0.00000000000E+00  0.34947770725E+03  0.34947770729E+03  0.50400001928E-02 0. -1.
        1   -1    0    0  501    0  0.00000000000E+00  0.00000000000E+00 -0.11078242438E+04  0.11078242438E+04  0.50400001928E-02 0.  1.
    10030    2    1    2    0    0  0.00000000000E+00  0.00000000000E+00 -0.75834653652E+03  0.14573019511E+04  0.12444434528E+04 0.  0.
        2    1    3    3  502    0  0.11287733735E+03 -0.39161984561E+03 -0.92975535192E+03  0.10151612735E+04  0.25500000920E-02 0.  1.
       -2    1    3    3    0  502 -0.11287733735E+03  0.39161984561E+03  0.17140881540E+03  0.44214067757E+03  0.25500000920E-02 0. -1.
</event>
<event>
 5   0  0.1814770E-03  0.1249171E+04  0.7818609E-02  0.9070874E-01
        1   -1    0    0  501    0  0.00000000000E+00  0.00000000000E+00  0.43277912468E+03  0.43277912470E+03  0.50400001928E-02 0. -1.
       -1   -1    0    0    0  501  0.00000000000E+00  0.00000000000E+00 -0.90139925859E+03  0.90139925860E+03  0.50400001928E-02 0.  1.
    10030    2    1    2    0    0  0.00000000000E+00  0.00000000000E+00 -0.46862013391E+03  0.13341783833E+04  0.12491705763E+04 0.  0.
        5    1    3    3  502    0 -0.49094342003E+03 -0.22715396155E+03 -0.56774115425E+03  0.78420435611E+03  0.46999998093E+01 0.  1.
       -5    1    3    3    0  502  0.49094342003E+03  0.22715396155E+03  0.99121020335E+02  0.54997402720E+03  0.46999998093E+01 0. -1.
</event>
<event>
 5   0  0.3294720E-03  0.1292713E+04  0.7818609E-02  0.9035364E-01
       -2   -1    0    0    0  501  0.00000000000E+00  0.00000000000E+00  0.66817527858E+03  0.66817527859E+03  0.25500000920E-02 0. -1.
        2   -1    0    0  501    0  0.00000000000E+00  0.00000000000E+00 -0.62525011749E+03  0.62525011750E+03  0.25500000920E-02 0.  1.
    10030    2    1    2    0    0  0.00000000000E+00  0.00000000000E+00  0.42925161094E+02  0.12934253961E+04  0.12927129170E+04 0.  0.
        5    1    3    3  502    0  0.51248283243E+03 -0.39258265601E+03 -0.10095032930E+02  0.64566538936E+03  0.46999998093E+01 0.  1.
       -5    1    3    3    0  502 -0.51248283243E+03  0.39258265601E+03  0.53020194023E+02  0.64776000672E+03  0.46999998093E+01 0. -1.
</event>
<event>
 5   0  0.1803959E-03  0.1309843E+04  0.7818609E-02  0.9021795E-01
        1   -1    0    0  501    0  0.00000000000E+00  0.00000000000E+00  0.46319517843E+03  0.46319517846E+03  0.50400001928E-02 0. -1.
       -1   -1    0    0    0  501  0.00000000000E+00  0.00000000000E+00 -0.92600811865E+03  0.92600811867E+03  0.50400001928E-02 0.  1.
    10030    2    1    2    0    0  0.00000000000E+00  0.00000000000E+00 -0.46281294023E+03  0.13892032971E+04  0.13098434956E+04 0.  0.
        4    1    3    3  502    0 -0.35036755855E+03  0.12022556936E+03  0.34141793430E+03  0.50376525522E+03  0.12699999809E+01 0. -1.
       -4    1    3    3    0  502  0.35036755855E+03 -0.12022556936E+03 -0.80423087452E+03  0.88543804190E+03  0.12699999809E+01 0.  1.
</event>
<event>
 5   0  0.3299104E-03  0.1374733E+04  0.7818609E-02  0.8972314E-01
        2   -1    0    0  501    0  0.00000000000E+00  0.00000000000E+00  0.77209768674E+03  0.77209768674E+03  0.25500000920E-02 0. -1.
       -2   -1    0    0    0  501  0.00000000000E+00  0.00000000000E+00 -0.61193422124E+03  0.61193422125E+03  0.25500000920E-02 0.  1.
    10030    2    1    2    0    0  0.00000000000E+00  0.00000000000E+00  0.16016346549E+03  0.13840319080E+04  0.13747334239E+04 0.  0.
        2    1    3    3  502    0 -0.34138621434E+02 -0.68428181501E+03  0.13582726441E+03  0.69846695956E+03  0.25500000920E-02 0. -1.
       -2    1    3    3    0  502  0.34138621434E+02  0.68428181501E+03  0.24336201085E+02  0.68556494843E+03  0.25500000920E-02 0.  1.
</event>
<event>
 5   0  0.1857986E-03  0.1292702E+04  0.7818609E-02  0.9035373E-01
       -1   -1    0    0    0  501  0.00000000000E+00  0.00000000000E+00  0.35550737183E+03  0.35550737186E+03  0.50400001928E-02 0. -1.
        1   -1    0    0  501    0  0.00000000000E+00  0.00000000000E+00 -0.11751363095E+04  0.11751363095E+04  0.50400001928E-02 0.  1.
    10030    2    1    2    0    0  0.00000000000E+00  0.00000000000E+00 -0.81962893767E+03  0.15306436814E+04  0.12927020089E+04 0.  0.
        1    1    3    3  502    0 -0.36104472871E+03 -0.13892910262E+02 -0.10443932147E+04  0.11051260092E+04  0.50400001928E-02 0.  1.
       -1    1    3    3    0  502  0.36104472871E+03  0.13892910262E+02  0.22476427708E+03  0.42551767221E+03  0.50400001928E-02 0. -1.
</event>
<event>
 5   0  0.3262927E-03  0.1266948E+04  0.7818609E-02  0.9056195E-01
       -2   -1    0    0    0  501  0.00000000000E+00  0.00000000000E+00  0.55322453134E+03  0.55322453135E+03  0.25500000920E-02 0. -1.
        2   -1    0    0  501    0  0.00000000000E+00  0.00000000000E+00 -0.72536384308E+03  0.72536384308E+03  0.25500000920E-02 0.  1.
    10030    2    1    2    0    0  0.00000000000E+00  0.00000000000E+00 -0.17213931174E+03  0.12785883744E+04  0.12669476266E+04 0.  0.
        3    1    3    3  502    0  0.54708926690E+03  0.89263574087E+02 -0.39550456132E+03  0.68095412462E+03  0.10100000352E+00 0.  1.
       -3    1    3    3    0  502 -0.54708926690E+03 -0.89263574087E+02  0.22336524958E+03  0.59763424980E+03  0.10100000352E+00 0. -1.
</event>
<event>
 5   0  0.3294720E-03  0.1327469E+04  0.7818609E-02  0.9008061E-01
       -2   -1    0    0    0  501  0.00000000000E+00  0.00000000000E+00  0.60807789655E+03  0.60807789655E+03  0.25500000920E-02 0.  1.
        2   -1    0    0  501    0  0.00000000000E+00  0.00000000000E+00 -0.72448524490E+03  0.72448524491E+03  0.25500000920E-02 0. -1.
    10030    2    1    2    0    0  0.00000000000E+00  0.00000000000E+00 -0.11640734836E+03  0.13325631415E+04  0.13274689658E+04 0.  0.
        5    1    3    3  502    0 -0.41910156957E+03 -0.17494348849E+03 -0.54407557210E+03  0.70872538260E+03  0.46999998093E+01 0. -1.
       -5    1    3    3    0  502  0.41910156957E+03  0.17494348849E+03  0.42766822374E+03  0.62383775886E+03  0.46999998093E+01 0.  1.
</event>
<event>
 5   0  0.1857986E-03  0.1285957E+04  0.7818609E-02  0.9040776E-01
        1   -1    0    0  501    0  0.00000000000E+00  0.00000000000E+00  0.82445725708E+03  0.82445725710E+03  0.50400001928E-02 0. -1.
       -1   -1    0    0    0  501  0.00000000000E+00  0.00000000000E+00 -0.50144632426E+03  0.50144632428E+03  0.50400001928E-02 0.  1.
    10030    2    1    2    0    0  0.00000000000E+00  0.00000000000E+00  0.32301093283E+03  0.13259035814E+04  0.12859565484E+04 0.  0.
        1    1    3    3  502    0  0.34083994293E+02 -0.29268916276E+01  0.82351827178E+03  0.82422850553E+03  0.50400001928E-02 0. -1.
       -1    1    3    3    0  502 -0.34083994293E+02  0.29268916276E+01 -0.50050733895E+03  0.50167507585E+03  0.50400001928E-02 0.  1.
</event>
<event>
 5   0  0.1803959E-03  0.1298148E+04  0.7818609E-02  0.9031035E-01
        1   -1    0    0  501    0  0.00000000000E+00  0.00000000000E+00  0.19915893331E+04  0.19915893331E+04  0.50400001928E-02 0. -1.
       -1   -1    0    0    0  501  0.00000000000E+00  0.00000000000E+00 -0.21153800393E+03  0.21153800399E+03  0.50400001928E-02 0.  1.
    10030    2    1    2    0    0  0.00000000000E+00  0.00000000000E+00  0.17800513291E+04  0.22031273370E+04  0.12981476530E+04 0.  0.
        4    1    3    3  502    0  0.46987316568E+03 -0.12104890090E+03  0.15836394700E+03  0.51040609405E+03  0.12699999809E+01 0.  1.
       -4    1    3    3    0  502 -0.46987316568E+03  0.12104890090E+03  0.16216873821E+04  0.16927212430E+04  0.12699999809E+01 0. -1.
</event>
<event>
 5   0  0.1814770E-03  0.1304087E+04  0.7818609E-02  0.9026330E-01
        1   -1    0    0  501    0  0.00000000000E+00  0.00000000000E+00  0.67455880487E+03  0.67455880489E+03  0.50400001928E-02 0. -1.
       -1   -1    0    0    0  501  0.00000000000E+00  0.00000000000E+00 -0.63027992083E+03  0.63027992085E+03  0.50400001928E-02 0.  1.
    10030    2    1    2    0    0  0.00000000000E+00  0.00000000000E+00  0.44278884042E+02  0.13048387257E+04  0.13040872212E+04 0.  0.
        5    1    3    3  502    0 -0.16924037546E+03 -0.55792372618E+02  0.64970394594E+03  0.67371537084E+03  0.46999998093E+01 0. -1.
       -5    1    3    3    0  502  0.16924037546E+03  0.55792372618E+02 -0.60542506190E+03  0.63112335490E+03  0.46999998093E+01 0.  1.
</event>
<event>
 5   0  0.1814770E-03  0.1320871E+04  0.7818609E-02  0.9013176E-01
        1   -1    0    0  501    0  0.00000000000E+00  0.00000000000E+00  0.11198414850E+04  0.11198414850E+04  0.50400001928E-02 0. -1.
       -1   -1    0    0    0  501  0.00000000000E+00  0.00000000000E+00 -0.38949703266E+03  0.38949703270E+03  0.50400001928E-02 0.  1.
    10030    2    1    2    0    0  0.00000000000E+00  0.00000000000E+00  0.73034445234E+03  0.15093385177E+04  0.13208708271E+04 0.  0.
        5    1    3    3  502    0  0.60476021907E+03 -0.16787168015E+03  0.13033175050E+03  0.64103375789E+03  0.46999998093E+01 0.  1.
       -5    1    3    3    0  502 -0.60476021907E+03  0.16787168015E+03  0.60001270184E+03  0.86830475982E+03  0.46999998093E+01 0. -1.
</event>
<event>
 5   0  0.3294720E-03  0.1309952E+04  0.7818609E-02  0.9021710E-01
        2   -1    0    0  501    0  0.00000000000E+00  0.00000000000E+00  0.11045196838E+04  0.11045196838E+04  0.25500000920E-02 0.  1.
       -2   -1    0    0    0  501  0.00000000000E+00  0.00000000000E+00 -0.38839842658E+03  0.38839842659E+03  0.25500000920E-02 0. -1.
    10030    2    1    2    0    0  0.00000000000E+00  0.00000000000E+00  0.71612125719E+03  0.14929181104E+04  0.13099522240E+04 0.  0.
        5    1    3    3  502    0  0.21266222476E+03  0.40161290458E+03  0.89558742901E+03  0.10042992980E+04  0.46999998093E+01 0.  1.
       -5    1    3    3    0  502 -0.21266222476E+03 -0.40161290458E+03 -0.17946617182E+03  0.48861881236E+03  0.46999998093E+01 0. -1.
</event>
<event>
 5   0  0.3294720E-03  0.1322045E+04  0.7818609E-02  0.9012264E-01
       -2   -1    0    0    0  501  0.00000000000E+00  0.00000000000E+00  0.73536308272E+03  0.73536308273E+03  0.25500000920E-02 0. -1.
        2   -1    0    0  501    0  0.00000000000E+00  0.00000000000E+00 -0.59419685443E+03  0.59419685444E+03  0.25500000920E-02 0.  1.
    10030    2    1    2    0    0  0.00000000000E+00  0.00000000000E+00  0.14116622829E+03  0.13295599372E+04  0.13220445236E+04 0.  0.
        5    1    3    3  502    0 -0.88712111601E+02 -0.32577963826E+03  0.64207942625E+03  0.72545867633E+03  0.46999998093E+01 0. -1.
       -5    1    3    3    0  502  0.88712111601E+02  0.32577963826E+03 -0.50091319797E+03  0.60410126083E+03  0.46999998093E+01 0.  1.
</event>
<event>
 5   0  0.3262927E-03  0.1424346E+04  0.7818609E-02  0.8936382E-01
       -2   -1    0    0    0  501  0.00000000000E+00  0.00000000000E+00  0.71548022475E+03  0.71548022475E+03  0.25500000920E-02 0.  1.
        2   -1    0    0  501    0  0.00000000000E+00  0.00000000000E+00 -0.70888109905E+03  0.70888109906E+03  0.25500000920E-02 0. -1.
    10030    2    1    2    0    0  0.00000000000E+00  0.00000000000E+00  0.65991256982E+01  0.14243613238E+04  0.14243460367E+04 0.  0.
        3    1    3    3  502    0  0.43593848081E+03  0.47583634213E+03  0.30451337703E+03  0.71357619813E+03  0.10100000352E+00 0.  1.
       -3    1    3    3    0  502 -0.43593848081E+03 -0.47583634213E+03 -0.29791425133E+03  0.71078512568E+03  0.10100000352E+00 0. -1.
</event>
<event>
 5   0  0.3294720E-03  0.1294942E+04  0.7818609E-02  0.9033586E-01
       -2   -1    0    0    0  501  0.00000000000E+00  0.00000000000E+00  0.47894096702E+03  0.47894096703E+03  0.25500000920E-02 0. -1.
        2   -1    0    0  501    0  0.00000000000E+00  0.00000000000E+00 -0.87530377156E+03  0.87530377156E+03  0.25500000920E-02 0.  1.
    10030    2    1    2    0    0  0.00000000000E+00  0.00000000000E+00 -0.39636280454E+03  0.13542447386E+04  0.12949422146E+04 0.  0.
        5    1    3    3  502    0  0.48936770262E+03 -0.86146235030E+02 -0.63227450127E+03  0.80417352426E+03  0.46999998093E+01 0.  1.
       -5    1    3    3    0  502 -0.48936770262E+03  0.86146235030E+02  0.23591169673E+03  0.55007121432E+03  0.46999998093E+01 0. -1.
</event>
<event>
 5   0  0.1823154E-03  0.1269263E+04  0.7818609E-02  0.9054301E-01
       -1   -1    0    0    0  501  0.00000000000E+00  0.00000000000E+00  0.18230740454E+03  0.18230740461E+03  0.50400001928E-02 0. -1.
        1   -1    0    0  501    0  0.00000000000E+00  0.00000000000E+00 -0.22092196215E+04  0.22092196215E+04  0.50400001928E-02 0.  1.
    10030    2    1    2    0    0  0.00000000000E+00  0.00000000000E+00 -0.20269122169E+04  0.23915270261E+04  0.12692629284E+04 0.  0.
        2    1    3    3  502    0 -0.30553579623E+03 -0.45613712437E+03 -0.41363396272E+03  0.68739090344E+03  0.25500000920E-02 0. -1.
       -2    1    3    3    0  502  0.30553579623E+03  0.45613712437E+03 -0.16132782542E+04  0.17041361226E+04  0.25500000920E-02 0.  1.
</event>
<event>
 5   0  0.3262927E-03  0.1314122E+04  0.7818609E-02  0.9018441E-01
       -2   -1    0    0    0  501  0.00000000000E+00  0.00000000000E+00  0.64946381861E+03  0.64946381862E+03  0.25500000920E-02 0. -1.
        2   -1    0    0  501    0  0.00000000000E+00  0.00000000000E+00 -0.66474659514E+03  0.66474659514E+03  0.25500000920E-02 0.  1.
    10030    2    1    2    0    0  0.00000000000E+00  0.00000000000E+00 -0.15282776528E+02  0.13142104138E+04  0.13141215501E+04 0.  0.
        3    1    3    3  502    0 -0.94259425031E+02 -0.10979458378E+02  0.64257445053E+03  0.64954393415E+03  0.10100000352E+00 0. -1.
       -3    1    3    3    0  502  0.94259425031E+02  0.10979458378E+02 -0.65785722706E+03  0.66466647961E+03  0.10100000352E+00 0.  1.
</event>
<event>
 5   0  0.3259968E-03  0.1300893E+04  0.7818609E-02  0.9028858E-01
        2   -1    0    0  501    0  0.00000000000E+00  0.00000000000E+00  0.15612059970E+04  0.15612059970E+04  0.25500000920E-02 0.  1.
       -2   -1    0    0    0  501  0.00000000000E+00  0.00000000000E+00 -0.27099590117E+03  0.27099590118E+03  0.25500000920E-02 0. -1.
    10030    2    1    2    0    0  0.00000000000E+00  0.00000000000E+00  0.12902100958E+04  0.18322018982E+04  0.13008926567E+04 0.  0.
        4    1    3    3  502    0 -0.31879131598E+03  0.13269946576E+02  0.14434125490E+04  0.14782575534E+04  0.12699999809E+01 0.  1.
       -4    1    3    3    0  502  0.31879131598E+03 -0.13269946576E+02 -0.15320245319E+03  0.35394434477E+03  0.12699999809E+01 0. -1.
</event>
<event>
 5   0  0.3262927E-03  0.1283631E+04  0.7818609E-02  0.9042647E-01
       -2   -1    0    0    0  501  0.00000000000E+00  0.00000000000E+00  0.46462626635E+03  0.46462626635E+03  0.25500000920E-02 0. -1.
        2   -1    0    0  501    0  0.00000000000E+00  0.00000000000E+00 -0.88657799723E+03  0.88657799724E+03  0.25500000920E-02 0.  1.
    10030    2    1    2    0    0  0.00000000000E+00  0.00000000000E+00 -0.42195173089E+03  0.13512042636E+04  0.12836314497E+04 0.  0.
        3    1    3    3  502    0 -0.44996134095E+03 -0.28859809247E+03  0.16293188729E+03  0.55883886535E+03  0.10100000352E+00 0. -1.
       -3    1    3    3    0  502  0.44996134095E+03  0.28859809247E+03 -0.58488361817E+03  0.79236539824E+03  0.10100000352E+00 0.  1.
</event>
<event>
 5   0  0.1823154E-03  0.1297566E+04  0.7818609E-02  0.9031497E-01
        1   -1    0    0  501    0  0.00000000000E+00  0.00000000000E+00  0.25445437924E+03  0.25445437929E+03  0.50400001928E-02 0.  1.
       -1   -1    0    0    0  501  0.00000000000E+00  0.00000000000E+00 -0.16542042084E+04  0.16542042084E+04  0.50400001928E-02 0. -1.
    10030    2    1    2    0    0  0.00000000000E+00  0.00000000000E+00 -0.13997498292E+04  0.19086585877E+04  0.12975661911E+04 0.  0.
        2    1    3    3  502    0 -0.27701812697E+03  0.23251133664E+03  0.92419822423E+02  0.37328539741E+03  0.25500000920E-02 0.  1.
       -2    1    3    3    0  502  0.27701812697E+03 -0.23251133664E+03 -0.14921696516E+04  0.15353731903E+04  0.25500000920E-02 0. -1.
</event>
<event>
 5   0  0.3299104E-03  0.1292428E+04  0.7818609E-02  0.9035592E-01
        2   -1    0    0  501    0  0.00000000000E+00  0.00000000000E+00  0.12538214387E+04  0.12538214387E+04  0.25500000920E-02 0. -1.
       -2   -1    0    0    0  501  0.00000000000E+00  0.00000000000E+00 -0.33305572649E+03  0.33305572650E+03  0.25500000920E-02 0.  1.
    10030    2    1    2    0    0  0.00000000000E+00  0.00000000000E+00  0.92076571221E+03  0.15868771652E+04  0.12924278087E+04 0.  0.
        2    1    3    3  502    0  0.30335938610E+03 -0.52501649132E+03  0.73472221775E+03  0.95262058058E+03  0.25500000920E-02 0. -1.
       -2    1    3    3    0  502 -0.30335938610E+03  0.52501649132E+03  0.18604349446E+03  0.63425658462E+03  0.25500000920E-02 0.  1.
</event>
<event>
 5   0  0.1803959E-03  0.1294922E+04  0.7818609E-02  0.9033601E-01
       -1   -1    0    0    0  501  0.00000000000E+00  0.00000000000E+00  0.36031798393E+03  0.36031798397E+03  0.50400001928E-02 0.  1.
        1   -1    0    0  501    0  0.00000000000E+00  0.00000000000E+00 -0.11634335320E+04  0.11634335320E+04  0.50400001928E-02 0. -1.
    10030    2    1    2    0    0  0.00000000000E+00  0.00000000000E+00 -0.80311554803E+03  0.15237515159E+04  0.12949224297E+04 0.  0.
        4    1    3    3  502    0  0.14457789368E+03 -0.51381485141E+03  0.29665153577E+02  0.53459339980E+03  0.12699999809E+01 0.  1.
       -4    1    3    3    0  502 -0.14457789368E+03  0.51381485141E+03 -0.83278070161E+03  0.98915811615E+03  0.12699999809E+01 0. -1.
</event>
<event>
 5   0  0.1803959E-03  0.1271985E+04  0.7818609E-02  0.9052081E-01
        1   -1    0    0  501    0  0.00000000000E+00  0.00000000000E+00  0.17169965767E+04  0.17169965767E+04  0.50400001928E-02 0.  1.
       -1   -1    0    0    0  501  0.00000000000E+00  0.00000000000E+00 -0.23557789403E+03  0.23557789409E+03  0.50400001928E-02 0. -1.
    10030    2    1    2    0    0  0.00000000000E+00  0.00000000000E+00  0.14814186826E+04  0.19525744708E+04  0.12719849648E+04 0.  0.
        4    1    3    3  502    0  0.11836054122E+03  0.42509648752E+03  0.14437749453E+04  0.15097032646E+04  0.12699999809E+01 0.  1.
       -4    1    3    3    0  502 -0.11836054122E+03 -0.42509648752E+03  0.37643737324E+02  0.44287120620E+03  0.12699999809E+01 0. -1.
</event>
<event>
 5   0  0.3259968E-03  0.1284032E+04  0.7818609E-02  0.9042325E-01
        2   -1    0    0  501    0  0.00000000000E+00  0.00000000000E+00  0.96712601327E+03  0.96712601327E+03  0.25500000920E-02 0.  1.
       -2   -1    0    0    0  501  0.00000000000E+00  0.00000000000E+00 -0.42619511182E+03  0.42619511183E+03  0.25500000920E-02 0. -1.
    10030    2    1    2    0    0  0.00000000000E+00  0.00000000000E+00  0.54093090144E+03  0.13933211251E+04  0.12840317432E+04 0.  0.
        4    1    3    3  502    0  0.45260011158E+03  0.89769581371E+01  0.76446699301E+03  0.88844743406E+03  0.12699999809E+01 0.  1.
       -4    1    3    3    0  502 -0.45260011158E+03 -0.89769581371E+01 -0.22353609157E+03  0.50487369105E+03  0.12699999809E+01 0. -1.
</event>
<event>
 5   0  0.1873488E-03  0.1232442E+04  0.7818609E-02  0.9084925E-01
        1   -1    0    0  501    0  0.00000000000E+00  0.00000000000E+00  0.64538234048E+03  0.64538234050E+03  0.50400001928E-02 0. -1.
       -1   -1    0    0    0  501  0.00000000000E+00  0.00000000000E+00 -0.58837688681E+03  0.58837688683E+03  0.50400001928E-02 0.  1.
    10030    2    1    2    0    0  0.00000000000E+00  0.00000000000E+00  0.57005453666E+02  0.12337592273E+04  0.12324415642E+04 0.  0.
        3    1    3    3  502    0  0.16242797634E+03 -0.58646173930E+03  0.12560036032E+03  0.62136597901E+03  0.10100000352E+00 0. -1.
       -3    1    3    3    0  502 -0.16242797634E+03  0.58646173930E+03 -0.68594906656E+02  0.61239324831E+03  0.10100000352E+00 0.  1.
</event>
<event>
 5   0  0.1254125E-03  0.1301411E+04  0.7818609E-02  0.9028447E-01
        4   -1    0    0  501    0  0.00000000000E+00  0.00000000000E+00  0.11713819727E+04  0.11713826611E+04  0.12699999809E+01 0. -1.
       -4   -1    0    0    0  501  0.00000000000E+00  0.00000000000E+00 -0.36146636839E+03  0.36146859943E+03  0.12699999809E+01 0.  1.
    10030    2    1    2    0    0  0.00000000000E+00  0.00000000000E+00  0.80991560428E+03  0.15328512606E+04  0.13014106581E+04 0.  0.
        3    1    3    3  502    0  0.27449948247E+03 -0.48459152838E+03  0.86042910362E+01  0.55700355410E+03  0.10100000352E+00 0. -1.
       -3    1    3    3    0  502 -0.27449948247E+03  0.48459152838E+03  0.80131131324E+03  0.97584770645E+03  0.10100000352E+00 0.  1.
</event>
<event>
 5   0  0.3262927E-03  0.1334821E+04  0.7818609E-02  0.9002398E-01
        2   -1    0    0  501    0  0.00000000000E+00  0.00000000000E+00  0.49894797460E+03  0.49894797461E+03  0.25500000920E-02 0.  1.
       -2   -1    0    0    0  501  0.00000000000E+00  0.00000000000E+00 -0.89275213945E+03  0.89275213946E+03  0.25500000920E-02 0. -1.
    10030    2    1    2    0    0  0.00000000000E+00  0.00000000000E+00 -0.39380416485E+03  0.13917001141E+04  0.13348211443E+04 0.  0.
        3    1    3    3  502    0 -0.16487627847E+03  0.13320208359E+03  0.46292357928E+03  0.50914166273E+03  0.10100000352E+00 0.  1.
       -3    1    3    3    0  502  0.16487627847E+03 -0.13320208359E+03 -0.85672774412E+03  0.88255845134E+03  0.10100000352E+00 0. -1.
</event>
<event>
 5   0  0.3262927E-03  0.1324959E+04  0.7818609E-02  0.9010003E-01
       -2   -1    0    0    0  501  0.00000000000E+00  0.00000000000E+00  0.43570313153E+03  0.43570313154E+03  0.25500000920E-02 0.  1.
        2   -1    0    0  501    0  0.00000000000E+00  0.00000000000E+00 -0.10072889808E+04  0.10072889808E+04  0.25500000920E-02 0. -1.
    10030    2    1    2    0    0  0.00000000000E+00  0.00000000000E+00 -0.57158584931E+03  0.14429921124E+04  0.13249588119E+04 0.  0.
        3    1    3    3  502    0 -0.43861674201E+03 -0.13164952502E+03 -0.80714793716E+03  0.92801080084E+03  0.10100000352E+00 0. -1.
       -3    1    3    3    0  502  0.43861674201E+03  0.13164952502E+03  0.23556208785E+03  0.51498131154E+03  0.10100000352E+00 0.  1.
</event>
<event>
 5   0  0.3259968E-03  0.1315483E+04  0.7818609E-02  0.9017377E-01
        2   -1    0    0  501    0  0.00000000000E+00  0.00000000000E+00  0.79136125245E+03  0.79136125245E+03  0.25500000920E-02 0.  1.
       -2   -1    0    0    0  501  0.00000000000E+00  0.00000000000E+00 -0.54668285391E+03  0.54668285392E+03  0.25500000920E-02 0. -1.
    10030    2    1    2    0    0  0.00000000000E+00  0.00000000000E+00  0.24467839854E+03  0.13380441064E+04  0.13154826156E+04 0.  0.
        4    1    3    3  502    0 -0.17552609660E+03  0.48170282694E+02 -0.52055496538E+03  0.55146067095E+03  0.12699999809E+01 0. -1.
       -4    1    3    3    0  502  0.17552609660E+03 -0.48170282694E+02  0.76523336392E+03  0.78658343542E+03  0.12699999809E+01 0.  1.
</event>
<event>
 5   0  0.1857986E-03  0.1267012E+04  0.7818609E-02  0.9056142E-01
       -1   -1    0    0    0  501  0.00000000000E+00  0.00000000000E+00  0.14745777974E+03  0.14745777982E+03  0.50400001928E-02 0. -1.
        1   -1    0    0  501    0  0.00000000000E+00  0.00000000000E+00 -0.27216588594E+04  0.27216588594E+04  0.50400001928E-02 0.  1.
    10030    2    1    2    0    0  0.00000000000E+00  0.00000000000E+00 -0.25742010797E+04  0.28691166393E+04  0.12670118748E+04 0.  0.
        1    1    3    3  502    0 -0.46865214383E+03 -0.41217814008E+03 -0.15331284384E+04  0.16552970911E+04  0.50400001928E-02 0.  1.
       -1    1    3    3    0  502  0.46865214383E+03  0.41217814008E+03 -0.10410726413E+04  0.12138195482E+04  0.50400001928E-02 0. -1.
</event>
<event>
 5   0  0.3259968E-03  0.9271175E+03  0.7818609E-02  0.9392304E-01
        2   -1    0    0  501    0  0.00000000000E+00  0.00000000000E+00  0.17512964483E+04  0.17512964483E+04  0.25500000920E-02 0. -1.
       -2   -1    0    0    0  501  0.00000000000E+00  0.00000000000E+00 -0.12270149583E+03  0.12270149585E+03  0.25500000920E-02 0.  1.
    10030    2    1    2    0    0  0.00000000000E+00  0.00000000000E+00  0.16285949525E+04  0.18739979442E+04  0.92711745507E+03 0.  0.
        4    1    3    3  502    0  0.98651140311E+02  0.59780091631E+02 -0.93225018369E+02  0.14831798202E+03  0.12699999809E+01 0.  1.
       -4    1    3    3    0  502 -0.98651140311E+02 -0.59780091631E+02  0.17218199709E+04  0.17256799622E+04  0.12699999809E+01 0. -1.
</event>
<event>
 5   0  0.1873488E-03  0.1297606E+04  0.7818609E-02  0.9031465E-01
        1   -1    0    0  501    0  0.00000000000E+00  0.00000000000E+00  0.35638669483E+03  0.35638669487E+03  0.50400001928E-02 0.  1.
       -1   -1    0    0    0  501  0.00000000000E+00  0.00000000000E+00 -0.11811484142E+04  0.11811484142E+04  0.50400001928E-02 0. -1.
    10030    2    1    2    0    0  0.00000000000E+00  0.00000000000E+00 -0.82476171932E+03  0.15375351090E+04  0.12976063802E+04 0.  0.
        3    1    3    3  502    0  0.27807938587E+03  0.17194352408E+03  0.25164262283E+03  0.41257331487E+03  0.10100000352E+00 0.  1.
       -3    1    3    3    0  502 -0.27807938587E+03 -0.17194352408E+03 -0.10764043422E+04  0.11249617942E+04  0.10100000352E+00 0. -1.
</event>
<event>
 5   0  0.3262927E-03  0.1246215E+04  0.7818609E-02  0.9073339E-01
       -2   -1    0    0    0  501  0.00000000000E+00  0.00000000000E+00  0.30564725668E+03  0.30564725669E+03  0.25500000920E-02 0.  1.
        2   -1    0    0  501    0  0.00000000000E+00  0.00000000000E+00 -0.12702983171E+04  0.12702983171E+04  0.25500000920E-02 0. -1.
    10030    2    1    2    0    0  0.00000000000E+00  0.00000000000E+00 -0.96465106040E+03  0.15759455738E+04  0.12462153839E+04 0.  0.
        3    1    3    3  502    0 -0.42886240722E+03  0.43621667824E+03 -0.33240293242E+03  0.69620375924E+03  0.10100000352E+00 0.  1.
       -3    1    3    3    0  502  0.42886240722E+03 -0.43621667824E+03 -0.63224812798E+03  0.87974181453E+03  0.10100000352E+00 0. -1.
</event>
<event>
 5   0  0.3262927E-03  0.1311818E+04  0.7818609E-02  0.9020246E-01
       -2   -1    0    0    0  501  0.00000000000E+00  0.00000000000E+00  0.79833341540E+03  0.79833341541E+03  0.25500000920E-02 0.  1.
        2   -1    0    0  501    0  0.00000000000E+00  0.00000000000E+00 -0.53889322298E+03  0.53889322298E+03  0.25500000920E-02 0. -1.
    10030    2    1    2    0    0  0.00000000000E+00  0.00000000000E+00  0.25944019243E+03  0.13372266384E+04  0.13118177728E+04 0.  0.
        3    1    3    3  502    0 -0.55651077299E+03  0.34129342564E+03  0.19444012072E+03  0.68116988600E+03  0.10100000352E+00 0.  1.
       -3    1    3    3    0  502  0.55651077299E+03 -0.34129342564E+03  0.65000071702E+02  0.65605675239E+03  0.10100000352E+00 0. -1.
</event>
<event>
 5   0  0.1803959E-03  0.1407657E+04  0.7818609E-02  0.8948295E-01
        1   -1    0    0  501    0  0.00000000000E+00  0.00000000000E+00  0.74783152856E+03  0.74783152858E+03  0.50400001928E-02 0.  1.
       -1   -1    0    0    0  501  0.00000000000E+00  0.00000000000E+00 -0.66241460335E+03  0.66241460337E+03  0.50400001928E-02 0. -1.
    10030    2    1    2    0    0  0.00000000000E+00  0.00000000000E+00  0.85416925211E+02  0.14102461319E+04  0.14076569545E+04 0.  0.
        4    1    3    3  502    0  0.55041879275E+02 -0.18072052371E+03 -0.63653817243E+03  0.66398190791E+03  0.12699999809E+01 0. -1.
       -4    1    3    3    0  502 -0.55041879275E+02  0.18072052371E+03  0.72195509765E+03  0.74626422404E+03  0.12699999809E+01 0.  1.
</event>
<event>
 5   0  0.1857986E-03  0.1308440E+04  0.7818609E-02  0.9022899E-01
       -1   -1    0    0    0  501  0.00000000000E+00  0.00000000000E+00  0.12065807246E+04  0.12065807246E+04  0.50400001928E-02 0.  1.
        1   -1    0    0  501    0  0.00000000000E+00  0.00000000000E+00 -0.35472466380E+03  0.35472466383E+03  0.50400001928E-02 0. -1.
    10030    2    1    2    0    0  0.00000000000E+00  0.00000000000E+00  0.85185606079E+03  0.15613053884E+04  0.13084402041E+04 0.  0.
        1    1    3    3  502    0 -0.45739114796E+02 -0.24012077923E+03 -0.29818714317E+03  0.38557181902E+03  0.50400001928E-02 0. -1.
       -1    1    3    3    0  502  0.45739114796E+02  0.24012077923E+03  0.11500432040E+04  0.11757335694E+04  0.50400001928E-02 0.  1.
</event>
<event>
 5   0  0.3336609E-03  0.1325107E+04  0.7818609E-02  0.9009888E-01
       -2   -1    0    0    0  501  0.00000000000E+00  0.00000000000E+00  0.14564769205E+03  0.14564769207E+03  0.25500000920E-02 0. -1.
        2   -1    0    0  501    0  0.00000000000E+00  0.00000000000E+00 -0.30139672654E+04  0.30139672654E+04  0.25500000920E-02 0.  1.
    10030    2    1    2    0    0  0.00000000000E+00  0.00000000000E+00 -0.28683195734E+04  0.31596149575E+04  0.13251073559E+04 0.  0.
        1    1    3    3  502    0  0.52661664508E+03  0.57342526723E+02 -0.48527935160E+03  0.71840747864E+03  0.50400001928E-02 0. -1.
       -1    1    3    3    0  502 -0.52661664508E+03 -0.57342526723E+02 -0.23830402218E+04  0.24412074788E+04  0.50400001928E-02 0.  1.
</event>
<event>
 5   0  0.1803959E-03  0.1210245E+04  0.7818609E-02  0.9103936E-01
        1   -1    0    0  501    0  0.00000000000E+00  0.00000000000E+00  0.32288482999E+03  0.32288483003E+03  0.50400001928E-02 0.  1.
       -1   -1    0    0    0  501  0.00000000000E+00  0.00000000000E+00 -0.11340671195E+04  0.11340671195E+04  0.50400001928E-02 0. -1.
    10030    2    1    2    0    0  0.00000000000E+00  0.00000000000E+00 -0.81118228948E+03  0.14569519495E+04  0.12102447176E+04 0.  0.
        4    1    3    3  502    0  0.12893505332E+03 -0.12785298849E+03 -0.11004955502E+04  0.11153755885E+04  0.12699999809E+01 0. -1.
       -4    1    3    3    0  502 -0.12893505332E+03  0.12785298849E+03  0.28931326071E+03  0.34157636096E+03  0.12699999809E+01 0.  1.
</event>
<event>
 5   0  0.3294720E-03  0.1309068E+04  0.7818609E-02  0.9022405E-01
        2   -1    0    0  501    0  0.00000000000E+00  0.00000000000E+00  0.62220473873E+03  0.62220473873E+03  0.25500000920E-02 0.  1.
       -2   -1    0    0    0  501  0.00000000000E+00  0.00000000000E+00 -0.68854272876E+03  0.68854272877E+03  0.25500000920E-02 0. -1.
    10030    2    1    2    0    0  0.00000000000E+00  0.00000000000E+00 -0.66337990037E+02  0.13107474675E+04  0.13090676815E+04 0.  0.
        5    1    3    3  502    0  0.14811617905E+02  0.11882926159E+03  0.61112595430E+03  0.62276544498E+03  0.46999998093E+01 0.  1.
       -5    1    3    3    0  502 -0.14811617905E+02 -0.11882926159E+03 -0.67746394434E+03  0.68798202252E+03  0.46999998093E+01 0. -1.
</event>
<event>
 5   0  0.1823154E-03  0.1255494E+04  0.7818609E-02  0.9065623E-01
       -1   -1    0    0    0  501  0.00000000000E+00  0.00000000000E+00  0.20548879473E+03  0.20548879480E+03  0.50400001928E-02 0.  1.
        1   -1    0    0  501    0  0.00000000000E+00  0.00000000000E+00 -0.19177021371E+04  0.19177021371E+04  0.50400001928E-02 0. -1.
    10030    2    1    2    0    0  0.00000000000E+00  0.00000000000E+00 -0.17122133424E+04  0.21231909319E+04  0.12554940078E+04 0.  0.
        2    1    3    3  502    0 -0.25801418768E+03  0.26173411703E+03 -0.17167359139E+04  0.17556361432E+04  0.25500000920E-02 0. -1.
       -2    1    3    3    0  502  0.25801418768E+03 -0.26173411703E+03  0.45225715537E+01  0.36755478873E+03  0.25500000920E-02 0.  1.
</event>
<event>
 5   0  0.1814770E-03  0.1301204E+04  0.7818609E-02  0.9028611E-01
       -1   -1    0    0    0  501  0.00000000000E+00  0.00000000000E+00  0.35790989840E+03  0.35790989844E+03  0.50400001928E-02 0.  1.
        1   -1    0    0  501    0  0.00000000000E+00  0.00000000000E+00 -0.11826525915E+04  0.11826525915E+04  0.50400001928E-02 0. -1.
    10030    2    1    2    0    0  0.00000000000E+00  0.00000000000E+00 -0.82474269305E+03  0.15405624899E+04  0.13012041637E+04 0.  0.
        5    1    3    3  502    0 -0.52949611235E+03  0.36129570590E+03 -0.28074353615E+03  0.69981407759E+03  0.46999998093E+01 0.  1.
       -5    1    3    3    0  502  0.52949611235E+03 -0.36129570590E+03 -0.54399915690E+03  0.84074841231E+03  0.46999998093E+01 0. -1.
</event>
<event>
 5   0  0.1857986E-03  0.1251346E+04  0.7818609E-02  0.9069063E-01
       -1   -1    0    0    0  501  0.00000000000E+00  0.00000000000E+00  0.69232162169E+03  0.69232162171E+03  0.50400001928E-02 0. -1.
        1   -1    0    0  501    0  0.00000000000E+00  0.00000000000E+00 -0.56544084009E+03  0.56544084012E+03  0.50400001928E-02 0.  1.
    10030    2    1    2    0    0  0.00000000000E+00  0.00000000000E+00  0.12688078159E+03  0.12577624618E+04  0.12513463460E+04 0.  0.
        1    1    3    3  502    0 -0.11342277408E+03  0.54835327340E+03  0.34399677616E+03  0.65718324702E+03  0.50400001928E-02 0. -1.
       -1    1    3    3    0  502  0.11342277408E+03 -0.54835327340E+03 -0.21711599457E+03  0.60057921480E+03  0.50400001928E-02 0.  1.
</event>
<event>
 5   0  0.3294720E-03  0.1302515E+04  0.7818609E-02  0.9027573E-01
        2   -1    0    0  501    0  0.00000000000E+00  0.00000000000E+00  0.58099128687E+03  0.58099128688E+03  0.25500000920E-02 0.  1.
       -2   -1    0    0    0  501  0.00000000000E+00  0.00000000000E+00 -0.73002212127E+03  0.73002212128E+03  0.25500000920E-02 0. -1.
    10030    2    1    2    0    0  0.00000000000E+00  0.00000000000E+00 -0.14903083440E+03  0.13110134082E+04  0.13025152463E+04 0.  0.
        5    1    3    3  502    0  0.11302904775E+02  0.36537279067E+03 -0.61700254807E+03  0.71717450187E+03  0.46999998093E+01 0. -1.
       -5    1    3    3    0  502 -0.11302904775E+02 -0.36537279067E+03  0.46797171367E+03  0.59383890628E+03  0.46999998093E+01 0.  1.
</event>
<event>
 5   0  0.1823154E-03  0.1317206E+04  0.7818609E-02  0.9016031E-01
        1   -1    0    0  501    0  0.00000000000E+00  0.00000000000E+00  0.14273964069E+04  0.14273964069E+04  0.50400001928E-02 0. -1.
       -1   -1    0    0    0  501  0.00000000000E+00  0.00000000000E+00 -0.30388055766E+03  0.30388055770E+03  0.50400001928E-02 0.  1.
    10030    2    1    2    0    0  0.00000000000E+00  0.00000000000E+00  0.11235158493E+04  0.17312769646E+04  0.13172061588E+04 0.  0.
        2    1    3    3  502    0 -0.18453171782E+02 -0.32404414396E+03 -0.19146389930E+03  0.37683358599E+03  0.25500000920E-02 0.  1.
       -2    1    3    3    0  502  0.18453171782E+02  0.32404414396E+03  0.13149797486E+04  0.13544433786E+04  0.25500000920E-02 0. -1.
</event>
<event>
 5   0  0.1873488E-03  0.1275571E+04  0.7818609E-02  0.9049165E-01
       -1   -1    0    0    0  501  0.00000000000E+00  0.00000000000E+00  0.83459419015E+03  0.83459419016E+03  0.50400001928E-02 0. -1.
        1   -1    0    0  501    0  0.00000000000E+00  0.00000000000E+00 -0.48738696150E+03  0.48738696153E+03  0.50400001928E-02 0.  1.
    10030    2    1    2    0    0  0.00000000000E+00  0.00000000000E+00  0.34720722865E+03  0.13219811517E+04  0.12755709725E+04 0.  0.
        3    1    3    3  502    0  0.23013735726E+03  0.99861112355E+02  0.78131251278E+03  0.82060020582E+03  0.10100000352E+00 0. -1.
       -3    1    3    3    0  502 -0.23013735726E+03 -0.99861112355E+02 -0.43410528413E+03  0.50138094587E+03  0.10100000352E+00 0.  1.
</event>
<event>
 5   0  0.3262927E-03  0.1295852E+04  0.7818609E-02  0.9032861E-01
        2   -1    0    0  501    0  0.00000000000E+00  0.00000000000E+00  0.10824061264E+04  0.10824061264E+04  0.25500000920E-02 0. -1.
       -2   -1    0    0    0  501  0.00000000000E+00  0.00000000000E+00 -0.38784698214E+03  0.38784698215E+03  0.25500000920E-02 0.  1.
    10030    2    1    2    0    0  0.00000000000E+00  0.00000000000E+00  0.69455914421E+03  0.14702531085E+04  0.12958517655E+04 0.  0.
        3    1    3    3  502    0 -0.59410296511E+03 -0.15479539585E+03  0.58224536252E+03  0.84612624361E+03  0.10100000352E+00 0.  1.
       -3    1    3    3    0  502  0.59410296511E+03  0.15479539585E+03  0.11231378169E+03  0.62412686490E+03  0.10100000352E+00 0. -1.
</event>
<event>
 5   0  0.3294720E-03  0.1307893E+04  0.7818609E-02  0.9023329E-01
       -2   -1    0    0    0  501  0.00000000000E+00  0.00000000000E+00  0.44476727795E+03  0.44476727795E+03  0.25500000920E-02 0.  1.
        2   -1    0    0  501    0  0.00000000000E+00  0.00000000000E+00 -0.96150515955E+03  0.96150515955E+03  0.25500000920E-02 0. -1.
    10030    2    1    2    0    0  0.00000000000E+00  0.00000000000E+00 -0.51673788160E+03  0.14062724375E+04  0.13078930118E+04 0.  0.
        5    1    3    3  502    0 -0.62747704760E+03 -0.10727201030E+03 -0.97483531238E+02  0.64401852328E+03  0.46999998093E+01 0.  1.
       -5    1    3    3    0  502  0.62747704760E+03  0.10727201030E+03 -0.41925435037E+03  0.76225391423E+03  0.46999998093E+01 0. -1.
</event>
<event>
 5   0  0.3336609E-03  0.1355022E+04  0.7818609E-02  0.8987036E-01
        2   -1    0    0  501    0  0.00000000000E+00  0.00000000000E+00  0.50382737516E+03  0.50382737517E+03  0.25500000920E-02 0. -1.
       -2   -1    0    0    0  501  0.00000000000E+00  0.00000000000E+00 -0.91106768274E+03  0.91106768274E+03  0.25500000920E-02 0.  1.
    10030    2    1    2    0    0  0.00000000000E+00  0.00000000000E+00 -0.40724030757E+03  0.14148950579E+04  0.13550215337E+04 0.  0.
        1    1    3    3  502    0 -0.64991544444E+02  0.50823554800E+03 -0.66648287036E+03  0.84067038107E+03  0.50400001928E-02 0.  1.
       -1    1    3    3    0  502  0.64991544444E+02 -0.50823554800E+03  0.25924256279E+03  0.57422467684E+03  0.50400001928E-02 0. -1.
</event>
<event>
 5   0  0.1803959E-03  0.8217473E+03  0.7818609E-02  0.9529061E-01
       -1   -1    0    0    0  501  0.00000000000E+00  0.00000000000E+00  0.38787757532E+03  0.38787757535E+03  0.50400001928E-02 0.  1.
        1   -1    0    0  501    0  0.00000000000E+00  0.00000000000E+00 -0.43523312502E+03  0.43523312505E+03  0.50400001928E-02 0. -1.
    10030    2    1    2    0    0  0.00000000000E+00  0.00000000000E+00 -0.47355549703E+02  0.82311070041E+03  0.82174733163E+03 0.  0.
        4    1    3    3  502    0 -0.16427657961E+03  0.30927262674E+02 -0.39963003109E+03  0.43318479294E+03  0.12699999809E+01 0. -1.
       -4    1    3    3    0  502  0.16427657961E+03 -0.30927262674E+02  0.35227448138E+03  0.38992590747E+03  0.12699999809E+01 0.  1.
</event>
<event>
 5   0  0.1873488E-03  0.1364366E+04  0.7818609E-02  0.8980024E-01
       -1   -1    0    0    0  501  0.00000000000E+00  0.00000000000E+00  0.70077141681E+03  0.70077141683E+03  0.50400001928E-02 0. -1.
        1   -1    0    0  501    0  0.00000000000E+00  0.00000000000E+00 -0.66408741156E+03  0.66408741157E+03  0.50400001928E-02 0.  1.
    10030    2    1    2    0    0  0.00000000000E+00  0.00000000000E+00  0.36684005258E+02  0.13648588284E+04  0.13643657520E+04 0.  0.
        3    1    3    3  502    0  0.33814096367E+03 -0.52950266720E+03 -0.24757558372E+03  0.67528221192E+03  0.10100000352E+00 0.  1.
       -3    1    3    3    0  502 -0.33814096367E+03  0.52950266720E+03  0.28425958898E+03  0.68957661649E+03  0.10100000352E+00 0. -1.
</event>
<event>
 5   0  0.1857986E-03  0.1135919E+04  0.7818609E-02  0.9170873E-01
        1   -1    0    0  501    0  0.00000000000E+00  0.00000000000E+00  0.82419990020E+03  0.82419990021E+03  0.50400001928E-02 0.  1.
       -1   -1    0    0    0  501  0.00000000000E+00  0.00000000000E+00 -0.39138309044E+03  0.39138309048E+03  0.50400001928E-02 0. -1.
    10030    2    1    2    0    0  0.00000000000E+00  0.00000000000E+00  0.43281680975E+03  0.12155829907E+04  0.11359188424E+04 0.  0.
        1    1    3    3  502    0 -0.26495010490E+03  0.36591324167E+03  0.58476833312E+03  0.73894861930E+03  0.50400001928E-02 0.  1.
       -1    1    3    3    0  502  0.26495010490E+03 -0.36591324167E+03 -0.15195152337E+03  0.47663437139E+03  0.50400001928E-02 0. -1.
</event>
<event>
 5   0  0.3299104E-03  0.1407658E+04  0.7818609E-02  0.8948294E-01
       -2   -1    0    0    0  501  0.00000000000E+00  0.00000000000E+00  0.55692960080E+03  0.55692960081E+03  0.25500000920E-02 0. -1.
        2   -1    0    0  501    0  0.00000000000E+00  0.00000000000E+00 -0.88947509706E+03  0.88947509706E+03  0.25500000920E-02 0.  1.
    10030    2    1    2    0    0  0.00000000000E+00  0.00000000000E+00 -0.33254549625E+03  0.14464046979E+04  0.14076576441E+04 0.  0.
        2    1    3    3  502    0  0.98624734746E+01  0.12411526439E+03 -0.87806950209E+03  0.88685281628E+03  0.25500000920E-02 0.  1.
       -2    1    3    3    0  502 -0.98624734746E+01 -0.12411526439E+03  0.54552400584E+03  0.55955188159E+03  0.25500000920E-02 0. -1.
</event>
<event>
 5   0  0.1857986E-03  0.1343054E+04  0.7818609E-02  0.8996103E-01
       -1   -1    0    0    0  501  0.00000000000E+00  0.00000000000E+00  0.50947724738E+03  0.50947724740E+03  0.50400001928E-02 0. -1.
        1   -1    0    0  501    0  0.00000000000E+00  0.00000000000E+00 -0.88512039132E+03  0.88512039133E+03  0.50400001928E-02 0.  1.
    10030    2    1    2    0    0  0.00000000000E+00  0.00000000000E+00 -0.37564314394E+03  0.13945976387E+04  0.13430542812E+04 0.  0.
        1    1    3    3  502    0  0.20990041048E+03 -0.53700140083E+03 -0.54530112526E+03  0.79358805690E+03  0.50400001928E-02 0.  1.
       -1    1    3    3    0  502 -0.20990041048E+03  0.53700140083E+03  0.16965798132E+03  0.60100958184E+03  0.50400001928E-02 0. -1.
</event>
<event>
 5   0  0.1254125E-03  0.1289540E+04  0.7818609E-02  0.9037901E-01
       -4   -1    0    0    0  501  0.00000000000E+00  0.00000000000E+00  0.42236975484E+03  0.42237166418E+03  0.12699999809E+01 0.  1.
        4   -1    0    0  501    0  0.00000000000E+00  0.00000000000E+00 -0.98427112207E+03  0.98427194140E+03  0.12699999809E+01 0. -1.
    10030    2    1    2    0    0  0.00000000000E+00  0.00000000000E+00 -0.56190136722E+03  0.14066436056E+04  0.12895398740E+04 0.  0.
        1    1    3    3  502    0 -0.26759800307E+03  0.32357953168E+03 -0.81468578516E+03  0.91652895925E+03  0.50400001928E-02 0. -1.
       -1    1    3    3    0  502  0.26759800307E+03 -0.32357953168E+03  0.25278441794E+03  0.49011464633E+03  0.50400001928E-02 0.  1.
</event>
<event>
 5   0  0.1803959E-03  0.1284236E+04  0.7818609E-02  0.9042160E-01
       -1   -1    0    0    0  501  0.00000000000E+00  0.00000000000E+00  0.67425240477E+03  0.67425240479E+03  0.50400001928E-02 0. -1.
        1   -1    0    0  501    0  0.00000000000E+00  0.00000000000E+00 -0.61151518286E+03  0.61151518288E+03  0.50400001928E-02 0.  1.
    10030    2    1    2    0    0  0.00000000000E+00  0.00000000000E+00  0.62737221918E+02  0.12857675877E+04  0.12842360883E+04 0.  0.
        4    1    3    3  502    0  0.73483547628E+02  0.52667788413E+03 -0.32895576264E+03  0.62530227257E+03  0.12699999809E+01 0.  1.
       -4    1    3    3    0  502 -0.73483547628E+02 -0.52667788413E+03  0.39169298456E+03  0.66046531510E+03  0.12699999809E+01 0. -1.
</event>
<event>
 5   0  0.3336609E-03  0.1306677E+04  0.7818609E-02  0.9024287E-01
        2   -1    0    0  501    0  0.00000000000E+00  0.00000000000E+00  0.12732683189E+04  0.12732683189E+04  0.25500000920E-02 0.  1.
       -2   -1    0    0    0  501  0.00000000000E+00  0.00000000000E+00 -0.33524041647E+03  0.33524041648E+03  0.25500000920E-02 0. -1.
    10030    2    1    2    0    0  0.00000000000E+00  0.00000000000E+00  0.93802790240E+03  0.16085087354E+04  0.13066767030E+04 0.  0.
        1    1    3    3  502    0  0.27759929771E+03 -0.57118375437E+03  0.65787699090E+03  0.91439290599E+03  0.50400001928E-02 0.  1.
       -1    1    3    3    0  502 -0.27759929771E+03  0.57118375437E+03  0.28015091150E+03  0.69411582937E+03  0.50400001928E-02 0. -1.
</event>
<event>
 5   0  0.3262927E-03  0.1276814E+04  0.7818609E-02  0.9048156E-01
        2   -1    0    0  501    0  0.00000000000E+00  0.00000000000E+00  0.11934811328E+04  0.11934811328E+04  0.25500000920E-02 0. -1.
       -2   -1    0    0    0  501  0.00000000000E+00  0.00000000000E+00 -0.34149158677E+03  0.34149158678E+03  0.25500000920E-02 0.  1.
    10030    2    1    2    0    0  0.00000000000E+00  0.00000000000E+00  0.85198954601E+03  0.15349727196E+04  0.12768144201E+04 0.  0.
        3    1    3    3  502    0 -0.47848536022E+03  0.34762981669E+03  0.71494324752E+03  0.92786776362E+03  0.10100000352E+00 0. -1.
       -3    1    3    3    0  502  0.47848536022E+03 -0.34762981669E+03  0.13704629849E+03  0.60710495594E+03  0.10100000352E+00 0.  1.
</event>
<event>
 5   0  0.1823154E-03  0.1315729E+04  0.7818609E-02  0.9017184E-01
        1   -1    0    0  501    0  0.00000000000E+00  0.00000000000E+00  0.29977791349E+03  0.29977791353E+03  0.50400001928E-02 0. -1.
       -1   -1    0    0    0  501  0.00000000000E+00  0.00000000000E+00 -0.14436877727E+04  0.14436877727E+04  0.50400001928E-02 0.  1.
    10030    2    1    2    0    0  0.00000000000E+00  0.00000000000E+00 -0.11439098592E+04  0.17434656862E+04  0.13157290120E+04 0.  0.
        2    1    3    3  502    0  0.11981493387E+03 -0.53640856130E+03 -0.10510018033E+04  0.11860415480E+04  0.25500000920E-02 0.  1.
       -2    1    3    3    0  502 -0.11981493387E+03  0.53640856130E+03 -0.92908055886E+02  0.55742413822E+03  0.25500000920E-02 0. -1.
</event>
<event>
 5   0  0.1254125E-03  0.1366776E+04  0.7818609E-02  0.8978225E-01
        3   -1    0    0  501    0  0.00000000000E+00  0.00000000000E+00  0.57538079764E+03  0.57538080650E+03  0.10100000352E+00 0. -1.
       -3   -1    0    0    0  501  0.00000000000E+00  0.00000000000E+00 -0.81166973515E+03  0.81166974143E+03  0.10100000352E+00 0.  1.
    10030    2    1    2    0    0  0.00000000000E+00  0.00000000000E+00 -0.23628893751E+03  0.13870505479E+04  0.13667760462E+04 0.  0.
        1    1    3    3  502    0  0.88260034334E+02 -0.46148354863E+03 -0.62175393740E+03  0.77931691757E+03  0.50400001928E-02 0.  1.
       -1    1    3    3    0  502 -0.88260034334E+02  0.46148354863E+03  0.38546499989E+03  0.60773363037E+03  0.50400001928E-02 0. -1.
</event>
<event>
 5   0  0.1814770E-03  0.1297475E+04  0.7818609E-02  0.9031570E-01
       -1   -1    0    0    0  501  0.00000000000E+00  0.00000000000E+00  0.51018183992E+03  0.51018183995E+03  0.50400001928E-02 0. -1.
        1   -1    0    0  501    0  0.00000000000E+00  0.00000000000E+00 -0.82492248038E+03  0.82492248040E+03  0.50400001928E-02 0.  1.
    10030    2    1    2    0    0  0.00000000000E+00  0.00000000000E+00 -0.31474064046E+03  0.13351043203E+04  0.12974751926E+04 0.  0.
        5    1    3    3  502    0  0.15489131204E+03 -0.56324270936E+03  0.13295540687E+03  0.59911008872E+03  0.46999998093E+01 0. -1.
       -5    1    3    3    0  502 -0.15489131204E+03  0.56324270936E+03 -0.44769604733E+03  0.73599423162E+03  0.46999998093E+01 0.  1.
</event>
<event>
 5   0  0.3294720E-03  0.1347503E+04  0.7818609E-02  0.8992720E-01
       -2   -1    0    0    0  501  0.00000000000E+00  0.00000000000E+00  0.47011170279E+03  0.47011170280E+03  0.25500000920E-02 0. -1.
        2   -1    0    0  501    0  0.00000000000E+00  0.00000000000E+00 -0.96560299037E+03  0.96560299038E+03  0.25500000920E-02 0.  1.
    10030    2    1    2    0    0  0.00000000000E+00  0.00000000000E+00 -0.49549128758E+03  0.14357146932E+04  0.13475032705E+04 0.  0.
        5    1    3    3  502    0  0.40852679399E+03  0.45378446154E+03 -0.55117760238E+03  0.82257724154E+03  0.46999998093E+01 0.  1.
       -5    1    3    3    0  502 -0.40852679399E+03 -0.45378446154E+03  0.55686314790E+02  0.61313745163E+03  0.46999998093E+01 0. -1.
</event>
<event>
 5   0  0.3336609E-03  0.1301167E+04  0.7818609E-02  0.9028641E-01
       -2   -1    0    0    0  501  0.00000000000E+00  0.00000000000E+00  0.24207771781E+03  0.24207771782E+03  0.25500000920E-02 0.  1.
        2   -1    0    0  501    0  0.00000000000E+00  0.00000000000E+00 -0.17484411387E+04  0.17484411387E+04  0.25500000920E-02 0. -1.
    10030    2    1    2    0    0  0.00000000000E+00  0.00000000000E+00 -0.15063634209E+04  0.19905188565E+04  0.13011666159E+04 0.  0.
        1    1    3    3  502    0 -0.42276449206E+03  0.24523893672E+03 -0.96283367020E+02  0.49813897521E+03  0.50400001928E-02 0.  1.
       -1    1    3    3    0  502  0.42276449206E+03 -0.24523893672E+03 -0.14100800539E+04  0.14923798813E+04  0.50400001928E-02 0. -1.
</event>
<event>
 5   0  0.1814770E-03  0.1381115E+04  0.7818609E-02  0.8967603E-01
        1   -1    0    0  501    0  0.00000000000E+00  0.00000000000E+00  0.15373851360E+04  0.15373851360E+04  0.50400001928E-02 0.  1.
       -1   -1    0    0    0  501  0.00000000000E+00  0.00000000000E+00 -0.31018207944E+03  0.31018207948E+03  0.50400001928E-02 0. -1.
    10030    2    1    2    0    0  0.00000000000E+00  0.00000000000E+00  0.12272030566E+04  0.18475672155E+04  0.13811145042E+04 0.  0.
        5    1    3    3  502    0 -0.20118327392E+03  0.45349053750E+03  0.12561591825E+04  0.13505874126E+04  0.46999998093E+01 0.  1.
       -5    1    3    3    0  502  0.20118327392E+03 -0.45349053750E+03 -0.28956125882E+02  0.49697980294E+03  0.46999998093E+01 0. -1.
</event>
<event>
 5   0  0.1803959E-03  0.1283889E+04  0.7818609E-02  0.9042440E-01
        1   -1    0    0  501    0  0.00000000000E+00  0.00000000000E+00  0.12828437527E+04  0.12828437527E+04  0.50400001928E-02 0. -1.
       -1   -1    0    0    0  501  0.00000000000E+00  0.00000000000E+00 -0.32123391834E+03  0.32123391838E+03  0.50400001928E-02 0.  1.
    10030    2    1    2    0    0  0.00000000000E+00  0.00000000000E+00  0.96160983435E+03  0.16040776711E+04  0.12838892870E+04 0.  0.
        4    1    3    3  502    0 -0.52541241531E+02  0.35117409267E+03 -0.18736438584E+03  0.40148580474E+03  0.12699999809E+01 0.  1.
       -4    1    3    3    0  502  0.52541241531E+02 -0.35117409267E+03  0.11489742202E+04  0.12025918663E+04  0.12699999809E+01 0. -1.
</event>
<event>
 5   0  0.3259968E-03  0.1231951E+04  0.7818609E-02  0.9085341E-01
       -2   -1    0    0    0  501  0.00000000000E+00  0.00000000000E+00  0.46210366857E+03  0.46210366857E+03  0.25500000920E-02 0.  1.
        2   -1    0    0  501    0  0.00000000000E+00  0.00000000000E+00 -0.82108357141E+03  0.82108357141E+03  0.25500000920E-02 0. -1.
    10030    2    1    2    0    0  0.00000000000E+00  0.00000000000E+00 -0.35897990284E+03  0.12831872400E+04  0.12319508603E+04 0.  0.
        4    1    3    3  502    0 -0.45182000303E+03  0.15559976109E+03 -0.58433417040E+03  0.75485140020E+03  0.12699999809E+01 0. -1.
       -4    1    3    3    0  502  0.45182000303E+03 -0.15559976109E+03  0.22535426756E+03  0.52833583978E+03  0.12699999809E+01 0.  1.
</event>
<event>
 5   0  0.3262927E-03  0.1292106E+04  0.7818609E-02  0.9035848E-01
       -2   -1    0    0    0  501  0.00000000000E+00  0.00000000000E+00  0.36280475432E+03  0.36280475432E+03  0.25500000920E-02 0. -1.
        2   -1    0    0  501    0  0.00000000000E+00  0.00000000000E+00 -0.11504390389E+04  0.11504390389E+04  0.25500000920E-02 0.  1.
    10030    2    1    2    0    0  0.00000000000E+00  0.00000000000E+00 -0.78763428461E+03  0.15132437932E+04  0.12921064242E+04 0.  0.
        3    1    3    3  502    0  0.35100413695E+03 -0.48687793242E+03 -0.11388971387E+03  0.61092135530E+03  0.10100000352E+00 0. -1.
       -3    1    3    3    0  502 -0.35100413695E+03  0.48687793242E+03 -0.67374457073E+03  0.90232243795E+03  0.10100000352E+00 0.  1.
</event>
<event>
 5   0  0.3294720E-03  0.1320948E+04  0.7818609E-02  0.9013116E-01
        2   -1    0    0  501    0  0.00000000000E+00  0.00000000000E+00  0.59298577620E+03  0.59298577620E+03  0.25500000920E-02 0. -1.
       -2   -1    0    0    0  501  0.00000000000E+00  0.00000000000E+00 -0.73564352377E+03  0.73564352378E+03  0.25500000920E-02 0.  1.
    10030    2    1    2    0    0  0.00000000000E+00  0.00000000000E+00 -0.14265774757E+03  0.13286293000E+04  0.13209483653E+04 0.  0.
        5    1    3    3  502    0 -0.42044522347E+02 -0.27208724385E+03  0.53249919147E+03  0.59948034917E+03  0.46999998093E+01 0. -1.
       -5    1    3    3    0  502  0.42044522347E+02  0.27208724385E+03 -0.67515693904E+03  0.72914895081E+03  0.46999998093E+01 0.  1.
</event>
<event>
 5   0  0.3294720E-03  0.1269402E+04  0.7818609E-02  0.9054187E-01
       -2   -1    0    0    0  501  0.00000000000E+00  0.00000000000E+00  0.14219315335E+04  0.14219315335E+04  0.25500000920E-02 0. -1.
        2   -1    0    0  501    0  0.00000000000E+00  0.00000000000E+00 -0.28330876159E+03  0.28330876160E+03  0.25500000920E-02 0.  1.
    10030    2    1    2    0    0  0.00000000000E+00  0.00000000000E+00  0.11386227719E+04  0.17052402951E+04  0.12694024765E+04 0.  0.
        5    1    3    3  502    0 -0.23276669191E+03 -0.27673401193E+03 -0.13136875688E+03  0.38476211678E+03  0.46999998093E+01 0.  1.
       -5    1    3    3    0  502  0.23276669191E+03  0.27673401193E+03  0.12699915288E+04  0.13204781783E+04  0.46999998093E+01 0. -1.
</event>
<event>
 5   0  0.3294720E-03  0.1393786E+04  0.7818609E-02  0.8958329E-01
       -2   -1    0    0    0  501  0.00000000000E+00  0.00000000000E+00  0.24354231716E+03  0.24354231717E+03  0.25500000920E-02 0.  1.
        2   -1    0    0  501    0  0.00000000000E+00  0.00000000000E+00 -0.19941487393E+04  0.19941487393E+04  0.25500000920E-02 0. -1.
    10030    2    1    2    0    0  0.00000000000E+00  0.00000000000E+00 -0.17506064221E+04  0.22376910564E+04  0.13937856431E+04 0.  0.
        5    1    3    3  502    0 -0.52537977988E+03  0.23627963826E+02 -0.14123781418E+03  0.54456625302E+03  0.46999998093E+01 0.  1.
       -5    1    3    3    0  502  0.52537977988E+03 -0.23627963826E+02 -0.16093686079E+04  0.16931248034E+04  0.46999998093E+01 0. -1.
</event>
<event>
 5   0  0.1814770E-03  0.1320623E+04  0.7818609E-02  0.9013369E-01
       -1   -1    0    0    0  501  0.00000000000E+00  0.00000000000E+00  0.29108799248E+03  0.29108799253E+03  0.50400001928E-02 0.  1.
        1   -1    0    0  501    0  0.00000000000E+00  0.00000000000E+00 -0.14978686037E+04  0.14978686037E+04  0.50400001928E-02 0. -1.
    10030    2    1    2    0    0  0.00000000000E+00  0.00000000000E+00 -0.12067806112E+04  0.17889565962E+04  0.13206234359E+04 0.  0.
        5    1    3    3  502    0 -0.37209170336E+02  0.60937948986E+03 -0.26267561856E+03  0.66464159936E+03  0.46999998093E+01 0.  1.
       -5    1    3    3    0  502  0.37209170336E+02 -0.60937948986E+03 -0.94410499260E+03  0.11243149968E+04  0.46999998093E+01 0. -1.
</event>
<event>
 5   0  0.3336609E-03  0.1318336E+04  0.7818609E-02  0.9015150E-01
        2   -1    0    0  501    0  0.00000000000E+00  0.00000000000E+00  0.90714677446E+03  0.90714677446E+03  0.25500000920E-02 0.  1.
       -2   -1    0    0    0  501  0.00000000000E+00  0.00000000000E+00 -0.47897704086E+03  0.47897704087E+03  0.25500000920E-02 0. -1.
    10030    2    1    2    0    0  0.00000000000E+00  0.00000000000E+00  0.42816973360E+03  0.13861238153E+04  0.13183360386E+04 0.  0.
        1    1    3    3  502    0 -0.35388818784E+03 -0.55510031250E+03  0.24941742064E+03  0.70397603381E+03  0.50400001928E-02 0.  1.
       -1    1    3    3    0  502  0.35388818784E+03  0.55510031250E+03  0.17875231296E+03  0.68214778153E+03  0.50400001928E-02 0. -1.
</event>
<event>
 5   0  0.1823154E-03  0.1309741E+04  0.7818609E-02  0.9021876E-01
       -1   -1    0    0    0  501  0.00000000000E+00  0.00000000000E+00  0.30624463352E+03  0.30624463356E+03  0.50400001928E-02 0.  1.
        1   -1    0    0  501    0  0.00000000000E+00  0.00000000000E+00 -0.14003692537E+04  0.14003692537E+04  0.50400001928E-02 0. -1.
    10030    2    1    2    0    0  0.00000000000E+00  0.00000000000E+00 -0.10941246202E+04  0.17066138873E+04  0.13097413011E+04 0.  0.
        2    1    3    3  502    0  0.43879154916E+03  0.44615869170E+03 -0.29554320078E+03  0.69205591200E+03  0.25500000920E-02 0. -1.
       -2    1    3    3    0  502 -0.43879154916E+03 -0.44615869170E+03 -0.79858141944E+03  0.10145579753E+04  0.25500000920E-02 0.  1.
</event>
<event>
 5   0  0.1823154E-03  0.1291539E+04  0.7818609E-02  0.9036302E-01
       -1   -1    0    0    0  501  0.00000000000E+00  0.00000000000E+00  0.19127737636E+03  0.19127737642E+03  0.50400001928E-02 0. -1.
        1   -1    0    0  501    0  0.00000000000E+00  0.00000000000E+00 -0.21801741854E+04  0.21801741854E+04  0.50400001928E-02 0.  1.
    10030    2    1    2    0    0  0.00000000000E+00  0.00000000000E+00 -0.19888968091E+04  0.23714515618E+04  0.12915386146E+04 0.  0.
        2    1    3    3  502    0 -0.57871510632E+03  0.29997353688E+02 -0.15176915532E+04  0.16245610687E+04  0.25500000920E-02 0.  1.
       -2    1    3    3    0  502  0.57871510632E+03 -0.29997353688E+02 -0.47120525590E+03  0.74689049311E+03  0.25500000920E-02 0. -1.
</event>
<event>
 5   0  0.1873488E-03  0.1268493E+04  0.7818609E-02  0.9054930E-01
       -1   -1    0    0    0  501  0.00000000000E+00  0.00000000000E+00  0.10327521403E+04  0.10327521403E+04  0.50400001928E-02 0.  1.
        1   -1    0    0  501    0  0.00000000000E+00  0.00000000000E+00 -0.38951154983E+03  0.38951154987E+03  0.50400001928E-02 0. -1.
    10030    2    1    2    0    0  0.00000000000E+00  0.00000000000E+00  0.64324059044E+03  0.14222636902E+04  0.12684934163E+04 0.  0.
        3    1    3    3  502    0 -0.41347673404E+03  0.45477182080E+03  0.49707807310E+03  0.79048531900E+03  0.10100000352E+00 0.  1.
       -3    1    3    3    0  502  0.41347673404E+03 -0.45477182080E+03  0.14616251734E+03  0.63177837116E+03  0.10100000352E+00 0. -1.
</event>
<event>
 5   0  0.3336609E-03  0.1309411E+04  0.7818609E-02  0.9022135E-01
       -2   -1    0    0    0  501  0.00000000000E+00  0.00000000000E+00  0.26696409867E+03  0.26696409868E+03  0.25500000920E-02 0. -1.
        2   -1    0    0  501    0  0.00000000000E+00  0.00000000000E+00 -0.16056068127E+04  0.16056068127E+04  0.25500000920E-02 0.  1.
    10030    2    1    2    0    0  0.00000000000E+00  0.00000000000E+00 -0.13386427140E+04  0.18725709113E+04  0.13094111281E+04 0.  0.
        1    1    3    3  502    0  0.24855647819E+03 -0.27784461237E+03 -0.14389967037E+04  0.14865024268E+04  0.50400001928E-02 0.  1.
       -1    1    3    3    0  502 -0.24855647819E+03  0.27784461237E+03  0.10035398975E+03  0.38606848454E+03  0.50400001928E-02 0. -1.
</event>
<event>
 5   0  0.1803959E-03  0.1313615E+04  0.7818609E-02  0.9018837E-01
        1   -1    0    0  501    0  0.00000000000E+00  0.00000000000E+00  0.51642111096E+03  0.51642111099E+03  0.50400001928E-02 0. -1.
       -1   -1    0    0    0  501  0.00000000000E+00  0.00000000000E+00 -0.83535760967E+03  0.83535760969E+03  0.50400001928E-02 0.  1.
    10030    2    1    2    0    0  0.00000000000E+00  0.00000000000E+00 -0.31893649871E+03  0.13517787207E+04  0.13136153240E+04 0.  0.
        4    1    3    3  502    0 -0.69922524035E+02  0.34647766823E+03  0.41020184106E+03  0.54148231481E+03  0.12699999809E+01 0. -1.
       -4    1    3    3    0  502  0.69922524035E+02 -0.34647766823E+03 -0.72913833976E+03  0.81029640587E+03  0.12699999809E+01 0.  1.
</event>
<event>
 5   0  0.1803959E-03  0.1293941E+04  0.7818609E-02  0.9034384E-01
       -1   -1    0    0    0  501  0.00000000000E+00  0.00000000000E+00  0.40774450418E+03  0.40774450421E+03  0.50400001928E-02 0. -1.
        1   -1    0    0  501    0  0.00000000000E+00  0.00000000000E+00 -0.10265510364E+04  0.10265510364E+04  0.50400001928E-02 0.  1.
    10030    2    1    2    0    0  0.00000000000E+00  0.00000000000E+00 -0.61880653220E+03  0.14342955406E+04  0.12939405603E+04 0.  0.
        4    1    3    3  502    0  0.55667668343E+03 -0.18642225936E+03 -0.61079067479E+03  0.84717710661E+03  0.12699999809E+01 0.  1.
       -4    1    3    3    0  502 -0.55667668343E+03  0.18642225936E+03 -0.80158574092E+01  0.58711843399E+03  0.12699999809E+01 0. -1.
</event>
<event>
 5   0  0.1814770E-03  0.1293401E+04  0.7818609E-02  0.9034815E-01
        1   -1    0    0  501    0  0.00000000000E+00  0.00000000000E+00  0.92116983998E+03  0.92116983999E+03  0.50400001928E-02 0. -1.
       -1   -1    0    0    0  501  0.00000000000E+00  0.00000000000E+00 -0.45401131251E+03  0.45401131254E+03  0.50400001928E-02 0.  1.
    10030    2    1    2    0    0  0.00000000000E+00  0.00000000000E+00  0.46715852747E+03  0.13751811525E+04  0.12934009867E+04 0.  0.
        5    1    3    3  502    0 -0.22154935621E+03 -0.45177918976E+02  0.87775401633E+03  0.90642118509E+03  0.46999998093E+01 0. -1.
       -5    1    3    3    0  502  0.22154935621E+03  0.45177918976E+02 -0.41059548886E+03  0.46875996744E+03  0.46999998093E+01 0.  1.
</event>
<event>
 5   0  0.3299104E-03  0.1437202E+04  0.7818609E-02  0.8927321E-01
        2   -1    0    0  501    0  0.00000000000E+00  0.00000000000E+00  0.10600715066E+04  0.10600715066E+04  0.25500000920E-02 0. -1.
       -2   -1    0    0    0  501  0.00000000000E+00  0.00000000000E+00 -0.48712530215E+03  0.48712530216E+03  0.25500000920E-02 0.  1.
    10030    2    1    2    0    0  0.00000000000E+00  0.00000000000E+00  0.57294620444E+03  0.15471968088E+04  0.14372023559E+04 0.  0.
        2    1    3    3  502    0 -0.15151539412E+02  0.71369372897E+03  0.19770413224E+03  0.74072615171E+03  0.25500000920E-02 0.  1.
       -2    1    3    3    0  502  0.15151539412E+02 -0.71369372897E+03  0.37524207219E+03  0.80647065704E+03  0.25500000920E-02 0. -1.
</event>
<event>
 5   0  0.3259968E-03  0.1002918E+04  0.7818609E-02  0.9305350E-01
       -2   -1    0    0    0  501  0.00000000000E+00  0.00000000000E+00  0.43459311163E+03  0.43459311164E+03  0.25500000920E-02 0. -1.
        2   -1    0    0  501    0  0.00000000000E+00  0.00000000000E+00 -0.57861277343E+03  0.57861277343E+03  0.25500000920E-02 0.  1.
    10030    2    1    2    0    0  0.00000000000E+00  0.00000000000E+00 -0.14401966179E+03  0.10132058851E+04  0.10029179939E+04 0.  0.
        4    1    3    3  502    0  0.63273181446E+02  0.79149846800E+01 -0.57449854147E+03  0.57802796604E+03  0.12699999809E+01 0.  1.
       -4    1    3    3    0  502 -0.63273181446E+02 -0.79149846800E+01  0.43047887967E+03  0.43517791904E+03  0.12699999809E+01 0. -1.
</event>
<event>
 5   0  0.3294720E-03  0.1302215E+04  0.7818609E-02  0.9027811E-01
       -2   -1    0    0    0  501  0.00000000000E+00  0.00000000000E+00  0.43573430345E+03  0.43573430346E+03  0.25500000920E-02 0. -1.
        2   -1    0    0  501    0  0.00000000000E+00  0.00000000000E+00 -0.97293456454E+03  0.97293456454E+03  0.25500000920E-02 0.  1.
    10030    2    1    2    0    0  0.00000000000E+00  0.00000000000E+00 -0.53720026109E+03  0.14086688680E+04  0.13022149819E+04 0.  0.
        5    1    3    3  502    0  0.80353626924E+02 -0.62327452937E+02  0.42707208576E+03  0.43903766716E+03  0.46999998093E+01 0. -1.
       -5    1    3    3    0  502 -0.80353626924E+02  0.62327452937E+02 -0.96427234685E+03  0.96963120084E+03  0.46999998093E+01 0.  1.
</event>
<event>
 5   0  0.3262927E-03  0.1292710E+04  0.7818609E-02  0.9035366E-01
       -2   -1    0    0    0  501  0.00000000000E+00  0.00000000000E+00  0.55468443234E+03  0.55468443235E+03  0.25500000920E-02 0.  1.
        2   -1    0    0  501    0  0.00000000000E+00  0.00000000000E+00 -0.75317595075E+03  0.75317595076E+03  0.25500000920E-02 0. -1.
    10030    2    1    2    0    0  0.00000000000E+00  0.00000000000E+00 -0.19849151841E+03  0.13078603831E+04  0.12927102919E+04 0.  0.
        3    1    3    3  502    0  0.21628310175E+03  0.30661071066E+03 -0.63170877220E+03  0.73474110479E+03  0.10100000352E+00 0. -1.
       -3    1    3    3    0  502 -0.21628310175E+03 -0.30661071066E+03  0.43321725378E+03  0.57311927831E+03  0.10100000352E+00 0.  1.
</event>
<event>
 5   0  0.3294720E-03  0.1334417E+04  0.7818609E-02  0.9002709E-01
       -2   -1    0    0    0  501  0.00000000000E+00  0.00000000000E+00  0.47613453181E+03  0.47613453182E+03  0.25500000920E-02 0.  1.
        2   -1    0    0  501    0  0.00000000000E+00  0.00000000000E+00 -0.93496034808E+03  0.93496034809E+03  0.25500000920E-02 0. -1.
    10030    2    1    2    0    0  0.00000000000E+00  0.00000000000E+00 -0.45882581627E+03  0.14110948799E+04  0.13344165880E+04 0.  0.
        5    1    3    3  502    0  0.12541181271E+01  0.58548315685E+03 -0.56772262653E+03  0.81555083866E+03  0.46999998093E+01 0. -1.
       -5    1    3    3    0  502 -0.12541181271E+01 -0.58548315685E+03  0.10889681026E+03  0.59554404124E+03  0.46999998093E+01 0.  1.
</event>
<event>
 5   0  0.3299104E-03  0.1291045E+04  0.7818609E-02  0.9036697E-01
       -2   -1    0    0    0  501  0.00000000000E+00  0.00000000000E+00  0.78983911268E+03  0.78983911269E+03  0.25500000920E-02 0.  1.
        2   -1    0    0  501    0  0.00000000000E+00  0.00000000000E+00 -0.52757480313E+03  0.52757480313E+03  0.25500000920E-02 0. -1.
    10030    2    1    2    0    0  0.00000000000E+00  0.00000000000E+00  0.26226430956E+03  0.13174139158E+04  0.12910448705E+04 0.  0.
        2    1    3    3  502    0 -0.62844058435E+02 -0.56614902032E+03 -0.17875640063E+03  0.59701586216E+03  0.25500000920E-02 0.  1.
       -2    1    3    3    0  502  0.62844058435E+02  0.56614902032E+03  0.44102071019E+03  0.72039805366E+03  0.25500000920E-02 0. -1.
</event>
<event>
 5   0  0.1857986E-03  0.1279166E+04  0.7818609E-02  0.9046252E-01
       -1   -1    0    0    0  501  0.00000000000E+00  0.00000000000E+00  0.31396634511E+03  0.31396634515E+03  0.50400001928E-02 0. -1.
        1   -1    0    0  501    0  0.00000000000E+00  0.00000000000E+00 -0.13028987721E+04  0.13028987722E+04  0.50400001928E-02 0.  1.
    10030    2    1    2    0    0  0.00000000000E+00  0.00000000000E+00 -0.98893242704E+03  0.16168651173E+04  0.12791659245E+04 0.  0.
        1    1    3    3  502    0  0.38378948559E+03 -0.48476357128E+03 -0.28763218068E+03  0.68192548029E+03  0.50400001928E-02 0.  1.
       -1    1    3    3    0  502 -0.38378948559E+03  0.48476357128E+03 -0.70130024635E+03  0.93493963700E+03  0.50400001928E-02 0. -1.
</event>
<event>
 5   0  0.1803959E-03  0.1295416E+04  0.7818609E-02  0.9033208E-01
       -1   -1    0    0    0  501  0.00000000000E+00  0.00000000000E+00  0.88605051151E+03  0.88605051152E+03  0.50400001928E-02 0.  1.
        1   -1    0    0  501    0  0.00000000000E+00  0.00000000000E+00 -0.47347847116E+03  0.47347847118E+03  0.50400001928E-02 0. -1.
    10030    2    1    2    0    0  0.00000000000E+00  0.00000000000E+00  0.41257204035E+03  0.13595289827E+04  0.12954162907E+04 0.  0.
        4    1    3    3  502    0  0.35477982163E+03 -0.36762414799E+03 -0.21154886751E+03  0.55296543496E+03  0.12699999809E+01 0. -1.
       -4    1    3    3    0  502 -0.35477982163E+03  0.36762414799E+03  0.62412090786E+03  0.80656354774E+03  0.12699999809E+01 0.  1.
</event>
<event>
 5   0  0.3259968E-03  0.1304542E+04  0.7818609E-02  0.9025971E-01
       -2   -1    0    0    0  501  0.00000000000E+00  0.00000000000E+00  0.72757043035E+03  0.72757043035E+03  0.25500000920E-02 0. -1.
        2   -1    0    0  501    0  0.00000000000E+00  0.00000000000E+00 -0.58476425905E+03  0.58476425906E+03  0.25500000920E-02 0.  1.
    10030    2    1    2    0    0  0.00000000000E+00  0.00000000000E+00  0.14280617130E+03  0.13123346894E+04  0.13045415802E+04 0.  0.
        4    1    3    3  502    0  0.26526010115E+03  0.27935996638E+03  0.60090346576E+03  0.71378673296E+03  0.12699999809E+01 0. -1.
       -4    1    3    3    0  502 -0.26526010115E+03 -0.27935996638E+03 -0.45809729446E+03  0.59854795645E+03  0.12699999809E+01 0.  1.
</event>
<event>
 5   0  0.3259968E-03  0.1254222E+04  0.7818609E-02  0.9066677E-01
       -2   -1    0    0    0  501  0.00000000000E+00  0.00000000000E+00  0.61946449701E+03  0.61946449702E+03  0.25500000920E-02 0.  1.
        2   -1    0    0  501    0  0.00000000000E+00  0.00000000000E+00 -0.63485148844E+03  0.63485148844E+03  0.25500000920E-02 0. -1.
    10030    2    1    2    0    0  0.00000000000E+00  0.00000000000E+00 -0.15386991425E+02  0.12543159855E+04  0.12542216040E+04 0.  0.
        4    1    3    3  502    0  0.23037360261E+03 -0.21599410776E+03 -0.54952840958E+03  0.63380481002E+03  0.12699999809E+01 0. -1.
       -4    1    3    3    0  502 -0.23037360261E+03  0.21599410776E+03  0.53414141816E+03  0.62051117544E+03  0.12699999809E+01 0.  1.
</event>
<event>
 5   0  0.1823154E-03  0.1301623E+04  0.7818609E-02  0.9028279E-01
        1   -1    0    0  501    0  0.00000000000E+00  0.00000000000E+00  0.23635979530E+04  0.23635979530E+04  0.50400001928E-02 0. -1.
       -1   -1    0    0    0  501  0.00000000000E+00  0.00000000000E+00 -0.17919957159E+03  0.17919957166E+03  0.50400001928E-02 0.  1.
    10030    2    1    2    0    0  0.00000000000E+00  0.00000000000E+00  0.21843983814E+04  0.25427975247E+04  0.13016232031E+04 0.  0.
        2    1    3    3  502    0  0.15944580927E+03  0.76791952727E+02 -0.13128988736E+03  0.22035653979E+03  0.25500000920E-02 0.  1.
       -2    1    3    3    0  502 -0.15944580927E+03 -0.76791952727E+02  0.23156882688E+04  0.23224409849E+04  0.25500000920E-02 0. -1.
</event>
<event>
 5   0  0.1823154E-03  0.1356914E+04  0.7818609E-02  0.8985611E-01
       -1   -1    0    0    0  501  0.00000000000E+00  0.00000000000E+00  0.82768412277E+03  0.82768412278E+03  0.50400001928E-02 0. -1.
        1   -1    0    0  501    0  0.00000000000E+00  0.00000000000E+00 -0.55613500175E+03  0.55613500178E+03  0.50400001928E-02 0.  1.
    10030    2    1    2    0    0  0.00000000000E+00  0.00000000000E+00  0.27154912101E+03  0.13838191246E+04  0.13569143099E+04 0.  0.
        2    1    3    3  502    0  0.33800782831E+03 -0.58826322727E+03  0.13465994592E+03  0.69169083961E+03  0.25500000920E-02 0.  1.
       -2    1    3    3    0  502 -0.33800782831E+03  0.58826322727E+03  0.13688917509E+03  0.69212828495E+03  0.25500000920E-02 0. -1.
</event>
<event>
 5   0  0.3299104E-03  0.1294808E+04  0.7818609E-02  0.9033693E-01
        2   -1    0    0  501    0  0.00000000000E+00  0.00000000000E+00  0.20145480273E+04  0.20145480273E+04  0.25500000920E-02 0. -1.
       -2   -1    0    0    0  501  0.00000000000E+00  0.00000000000E+00 -0.20805263489E+03  0.20805263491E+03  0.25500000920E-02 0.  1.
    10030    2    1    2    0    0  0.00000000000E+00  0.00000000000E+00  0.18064953924E+04  0.22226006622E+04  0.12948081328E+04 0.  0.
        2    1    3    3  502    0 -0.54357301723E+03 -0.34721209497E+03  0.80761020880E+03  0.10335676627E+04  0.25500000920E-02 0.  1.
       -2    1    3    3    0  502  0.54357301723E+03  0.34721209497E+03  0.99888518359E+03  0.11890329995E+04  0.25500000920E-02 0. -1.
</event>
<event>
 5   0  0.3262927E-03  0.1241584E+04  0.7818609E-02  0.9077217E-01
        2   -1    0    0  501    0  0.00000000000E+00  0.00000000000E+00  0.17730575965E+04  0.17730575965E+04  0.25500000920E-02 0. -1.
       -2   -1    0    0    0  501  0.00000000000E+00  0.00000000000E+00 -0.21735503005E+03  0.21735503006E+03  0.25500000920E-02 0.  1.
    10030    2    1    2    0    0  0.00000000000E+00  0.00000000000E+00  0.15557025665E+04  0.19904126266E+04  0.12415844509E+04 0.  0.
        3    1    3    3  502    0 -0.43483845464E+03 -0.15208413342E+03  0.14449679898E+04  0.15166234098E+04  0.10100000352E+00 0. -1.
       -3    1    3    3    0  502  0.43483845464E+03  0.15208413342E+03  0.11073457661E+03  0.47378921677E+03  0.10100000352E+00 0.  1.
</event>
<event>
 5   0  0.3299104E-03  0.1292376E+04  0.7818609E-02  0.9035633E-01
       -2   -1    0    0    0  501  0.00000000000E+00  0.00000000000E+00  0.27405144222E+03  0.27405144223E+03  0.25500000920E-02 0.  1.
        2   -1    0    0  501    0  0.00000000000E+00  0.00000000000E+00 -0.15236508797E+04  0.15236508797E+04  0.25500000920E-02 0. -1.
    10030    2    1    2    0    0  0.00000000000E+00  0.00000000000E+00 -0.12495994375E+04  0.17977023220E+04  0.12923756746E+04 0.  0.
        2    1    3    3  502    0  0.54581680253E+03 -0.21713885983E+03 -0.25027679714E+03  0.63851682951E+03  0.25500000920E-02 0.  1.
       -2    1    3    3    0  502 -0.54581680253E+03  0.21713885983E+03 -0.99932264039E+03  0.11591854925E+04  0.25500000920E-02 0. -1.
</event>
<event>
 5   0  0.3336609E-03  0.1274358E+04  0.7818609E-02  0.9050150E-01
       -2   -1    0    0    0  501  0.00000000000E+00  0.00000000000E+00  0.26901665247E+03  0.26901665248E+03  0.25500000920E-02 0.  1.
        2   -1    0    0  501    0  0.00000000000E+00  0.00000000000E+00 -0.15091900920E+04  0.15091900920E+04  0.25500000920E-02 0. -1.
    10030    2    1    2    0    0  0.00000000000E+00  0.00000000000E+00 -0.12401734395E+04  0.17782067444E+04  0.12743582958E+04 0.  0.
        1    1    3    3  502    0  0.12338343282E+03  0.67649912339E+02  0.24706544074E+03  0.28432607015E+03  0.50400001928E-02 0.  1.
       -1    1    3    3    0  502 -0.12338343282E+03 -0.67649912339E+02 -0.14872388802E+04  0.14938806743E+04  0.50400001928E-02 0. -1.
</event>
<event>
 5   0  0.1873488E-03  0.1261090E+04  0.7818609E-02  0.9061003E-01
        1   -1    0    0  501    0  0.00000000000E+00  0.00000000000E+00  0.50684280344E+03  0.50684280346E+03  0.50400001928E-02 0.  1.
       -1   -1    0    0    0  501  0.00000000000E+00  0.00000000000E+00 -0.78443901398E+03  0.78443901400E+03  0.50400001928E-02 0. -1.
    10030    2    1    2    0    0  0.00000000000E+00  0.00000000000E+00 -0.27759621055E+03  0.12912818175E+04  0.12610904313E+04 0.  0.
        3    1    3    3  502    0 -0.51705624999E+02 -0.32131579296E+03  0.41419618562E+03  0.52675971833E+03  0.10100000352E+00 0.  1.
       -3    1    3    3    0  502  0.51705624999E+02  0.32131579296E+03 -0.69179239617E+03  0.76452209913E+03  0.10100000352E+00 0. -1.
</event>
<event>
 5   0  0.3294720E-03  0.1319903E+04  0.7818609E-02  0.9013929E-01
       -2   -1    0    0    0  501  0.00000000000E+00  0.00000000000E+00  0.80310294882E+03  0.80310294883E+03  0.25500000920E-02 0.  1.
        2   -1    0    0  501    0  0.00000000000E+00  0.00000000000E+00 -0.54231671567E+03  0.54231671568E+03  0.25500000920E-02 0. -1.
    10030    2    1    2    0    0  0.00000000000E+00  0.00000000000E+00  0.26078623315E+03  0.13454196645E+04  0.13199032594E+04 0.  0.
        5    1    3    3  502    0 -0.43011837752E+03  0.12239696160E+03 -0.36430461449E+03  0.57682126957E+03  0.46999998093E+01 0. -1.
       -5    1    3    3    0  502  0.43011837752E+03 -0.12239696160E+03  0.62509084764E+03  0.76859839494E+03  0.46999998093E+01 0.  1.
</event>
<event>
 5   0  0.3259968E-03  0.1292700E+04  0.7818609E-02  0.9035374E-01
        2   -1    0    0  501    0  0.00000000000E+00  0.00000000000E+00  0.10989160241E+04  0.10989160241E+04  0.25500000920E-02 0. -1.
       -2   -1    0    0    0  501  0.00000000000E+00  0.00000000000E+00 -0.38016401881E+03  0.38016401882E+03  0.25500000920E-02 0.  1.
    10030    2    1    2    0    0  0.00000000000E+00  0.00000000000E+00  0.71875200530E+03  0.14790800429E+04  0.12927000148E+04 0.  0.
        4    1    3    3  502    0 -0.49486924991E+03  0.38933677573E+03  0.52631644324E+03  0.82066394509E+03  0.12699999809E+01 0. -1.
       -4    1    3    3    0  502  0.49486924991E+03 -0.38933677573E+03  0.19243556205E+03  0.65841609783E+03  0.12699999809E+01 0.  1.
</event>
<event>
 5   0  0.3299104E-03  0.1764042E+04  0.7818609E-02  0.8725659E-01
       -2   -1    0    0    0  501  0.00000000000E+00  0.00000000000E+00  0.65845971145E+03  0.65845971145E+03  0.25500000920E-02 0. -1.
        2   -1    0    0  501    0  0.00000000000E+00  0.00000000000E+00 -0.11814860148E+04  0.11814860148E+04  0.25500000920E-02 0.  1.
    10030    2    1    2    0    0  0.00000000000E+00  0.00000000000E+00 -0.52302630336E+03  0.18399457263E+04  0.17640418820E+04 0.  0.
        2    1    3    3  502    0 -0.46854124701E+03 -0.33100248418E+03 -0.96031677964E+03  0.11186160476E+04  0.25500000920E-02 0.  1.
       -2    1    3    3    0  502  0.46854124701E+03  0.33100248418E+03  0.43729047627E+03  0.72132967867E+03  0.25500000920E-02 0. -1.
</event>
<event>
 5   0  0.1873488E-03  0.1366365E+04  0.7818609E-02  0.8978532E-01
        1   -1    0    0  501    0  0.00000000000E+00  0.00000000000E+00  0.30536822230E+03  0.30536822234E+03  0.50400001928E-02 0. -1.
       -1   -1    0    0    0  501  0.00000000000E+00  0.00000000000E+00 -0.15284436471E+04  0.15284436471E+04  0.50400001928E-02 0.  1.
    10030    2    1    2    0    0  0.00000000000E+00  0.00000000000E+00 -0.12230754248E+04  0.18338118694E+04  0.13663646943E+04 0.  0.
        3    1    3    3  502    0 -0.55519321832E+02 -0.14357511074E+03  0.28178946996E+03  0.32109425891E+03  0.10100000352E+00 0. -1.
       -3    1    3    3    0  502  0.55519321832E+02  0.14357511074E+03 -0.15048648947E+04  0.15127176105E+04  0.10100000352E+00 0.  1.
</event>
<event>
 5   0  0.1814770E-03  0.1286039E+04  0.7818609E-02  0.9040710E-01
        1   -1    0    0  501    0  0.00000000000E+00  0.00000000000E+00  0.14543265693E+04  0.14543265693E+04  0.50400001928E-02 0. -1.
       -1   -1    0    0    0  501  0.00000000000E+00  0.00000000000E+00 -0.28430622899E+03  0.28430622903E+03  0.50400001928E-02 0.  1.
    10030    2    1    2    0    0  0.00000000000E+00  0.00000000000E+00  0.11700203403E+04  0.17386327983E+04  0.12860390393E+04 0.  0.
        5    1    3    3  502    0 -0.57489578067E+03 -0.52035886363E+02  0.96796433388E+03  0.11270270333E+04  0.46999998093E+01 0. -1.
       -5    1    3    3    0  502  0.57489578067E+03  0.52035886363E+02  0.20205600641E+03  0.61160576503E+03  0.46999998093E+01 0.  1.
</event>
<event>
 5   0  0.3336609E-03  0.9141459E+03  0.7818609E-02  0.9408069E-01
        2   -1    0    0  501    0  0.00000000000E+00  0.00000000000E+00  0.27784695130E+03  0.27784695131E+03  0.25500000920E-02 0. -1.
       -2   -1    0    0    0  501  0.00000000000E+00  0.00000000000E+00 -0.75190917823E+03  0.75190917823E+03  0.25500000920E-02 0.  1.
    10030    2    1    2    0    0  0.00000000000E+00  0.00000000000E+00 -0.47406222693E+03  0.10297561295E+04  0.91414588077E+03 0.  0.
        1    1    3    3  502    0  0.67163754820E+02  0.44654590646E+03 -0.15736619480E+03  0.47820323695E+03  0.50400001928E-02 0. -1.
       -1    1    3    3    0  502 -0.67163754820E+02 -0.44654590646E+03 -0.31669603213E+03  0.55155289259E+03  0.50400001928E-02 0.  1.
</event>
<event>
 5   0  0.3294720E-03  0.1301395E+04  0.7818609E-02  0.9028460E-01
        2   -1    0    0  501    0  0.00000000000E+00  0.00000000000E+00  0.86213844296E+03  0.86213844297E+03  0.25500000920E-02 0. -1.
       -2   -1    0    0    0  501  0.00000000000E+00  0.00000000000E+00 -0.49111248776E+03  0.49111248777E+03  0.25500000920E-02 0.  1.
    10030    2    1    2    0    0  0.00000000000E+00  0.00000000000E+00  0.37102595520E+03  0.13532509307E+04  0.13013945682E+04 0.  0.
        5    1    3    3  502    0  0.22508087630E+03 -0.25871193121E+03 -0.38950592477E+03  0.51897034564E+03  0.46999998093E+01 0.  1.
       -5    1    3    3    0  502 -0.22508087630E+03  0.25871193121E+03  0.76053187997E+03  0.83428058510E+03  0.46999998093E+01 0. -1.
</event>
<event>
 5   0  0.3294720E-03  0.1128366E+04  0.7818609E-02  0.9177977E-01
       -2   -1    0    0    0  501  0.00000000000E+00  0.00000000000E+00  0.54805262195E+03  0.54805262196E+03  0.25500000920E-02 0. -1.
        2   -1    0    0  501    0  0.00000000000E+00  0.00000000000E+00 -0.58078802142E+03  0.58078802143E+03  0.25500000920E-02 0.  1.
    10030    2    1    2    0    0  0.00000000000E+00  0.00000000000E+00 -0.32735399466E+02  0.11288406434E+04  0.11283658945E+04 0.  0.
        5    1    3    3  502    0 -0.11339798456E+03  0.31776150766E+03  0.43598272326E+03  0.55130255181E+03  0.46999998093E+01 0. -1.
       -5    1    3    3    0  502  0.11339798456E+03 -0.31776150766E+03 -0.46871812273E+03  0.57753809158E+03  0.46999998093E+01 0.  1.
</event>
<event>
 5   0  0.1803959E-03  0.1272238E+04  0.7818609E-02  0.9051875E-01
       -1   -1    0    0    0  501  0.00000000000E+00  0.00000000000E+00  0.68682829560E+03  0.68682829562E+03  0.50400001928E-02 0.  1.
        1   -1    0    0  501    0  0.00000000000E+00  0.00000000000E+00 -0.58915324867E+03  0.58915324869E+03  0.50400001928E-02 0. -1.
    10030    2    1    2    0    0  0.00000000000E+00  0.00000000000E+00  0.97675046935E+02  0.12759815443E+04  0.12722375905E+04 0.  0.
        4    1    3    3  502    0  0.31727308665E+03  0.14076695300E+02  0.60162657797E+03  0.68030619363E+03  0.12699999809E+01 0.  1.
       -4    1    3    3    0  502 -0.31727308665E+03 -0.14076695300E+02 -0.50395153104E+03  0.59567535068E+03  0.12699999809E+01 0. -1.
</event>
<event>
 5   0  0.1803959E-03  0.1290426E+04  0.7818609E-02  0.9037192E-01
        1   -1    0    0  501    0  0.00000000000E+00  0.00000000000E+00  0.11722808457E+04  0.11722808457E+04  0.50400001928E-02 0. -1.
       -1   -1    0    0    0  501  0.00000000000E+00  0.00000000000E+00 -0.35511958395E+03  0.35511958399E+03  0.50400001928E-02 0.  1.
    10030    2    1    2    0    0  0.00000000000E+00  0.00000000000E+00  0.81716126173E+03  0.15274004297E+04  0.12904261098E+04 0.  0.
        4    1    3    3  502    0  0.59837015883E+03 -0.79775241594E+02  0.13896165269E+03  0.61945370285E+03  0.12699999809E+01 0.  1.
       -4    1    3    3    0  502 -0.59837015883E+03  0.79775241594E+02  0.67819960905E+03  0.90794672683E+03  0.12699999809E+01 0. -1.
</event>
<event>
 5   0  0.1823154E-03  0.1306796E+04  0.7818609E-02  0.9024193E-01
       -1   -1    0    0    0  501  0.00000000000E+00  0.00000000000E+00  0.43094120060E+03  0.43094120063E+03  0.50400001928E-02 0.  1.
        1   -1    0    0  501    0  0.00000000000E+00  0.00000000000E+00 -0.99068979410E+03  0.99068979411E+03  0.50400001928E-02 0. -1.
    10030    2    1    2    0    0  0.00000000000E+00  0.00000000000E+00 -0.55974859349E+03  0.14216309947E+04  0.13067961575E+04 0.  0.
        2    1    3    3  502    0  0.35344431881E+03 -0.31013149649E+03 -0.77342036145E+03  0.90514279930E+03  0.25500000920E-02 0. -1.
       -2    1    3    3    0  502 -0.35344431881E+03  0.31013149649E+03  0.21367176795E+03  0.51648819545E+03  0.25500000920E-02 0.  1.
</event>
<event>
 5   0  0.3336609E-03  0.1375731E+04  0.7818609E-02  0.8971575E-01
        2   -1    0    0  501    0  0.00000000000E+00  0.00000000000E+00  0.39324857673E+03  0.39324857674E+03  0.25500000920E-02 0.  1.
       -2   -1    0    0    0  501  0.00000000000E+00  0.00000000000E+00 -0.12032059691E+04  0.12032059691E+04  0.25500000920E-02 0. -1.
    10030    2    1    2    0    0  0.00000000000E+00  0.00000000000E+00 -0.80995739234E+03  0.15964545458E+04  0.13757311291E+04 0.  0.
        1    1    3    3  502    0  0.14494987949E+03 -0.51093528709E+03  0.10229947899E+03  0.54086090503E+03  0.50400001928E-02 0.  1.
       -1    1    3    3    0  502 -0.14494987949E+03  0.51093528709E+03 -0.91225687133E+03  0.10555936408E+04  0.50400001928E-02 0. -1.
</event>
<event>
 5   0  0.3294720E-03  0.1292268E+04  0.7818609E-02  0.9035719E-01
       -2   -1    0    0    0  501  0.00000000000E+00  0.00000000000E+00  0.50384730376E+03  0.50384730377E+03  0.25500000920E-02 0. -1.
        2   -1    0    0  501    0  0.00000000000E+00  0.00000000000E+00 -0.82860256004E+03  0.82860256004E+03  0.25500000920E-02 0.  1.
    10030    2    1    2    0    0  0.00000000000E+00  0.00000000000E+00 -0.32475525628E+03  0.13324498638E+04  0.12922680307E+04 0.  0.
        5    1    3    3  502    0  0.29910573760E+03  0.53385320475E+03 -0.37619876239E+03  0.71833911581E+03  0.46999998093E+01 0. -1.
       -5    1    3    3    0  502 -0.29910573760E+03 -0.53385320475E+03  0.51443506110E+02  0.61411074800E+03  0.46999998093E+01 0.  1.
</event>
<event>
 5   0  0.3262927E-03  0.1313671E+04  0.7818609E-02  0.9018794E-01
       -2   -1    0    0    0  501  0.00000000000E+00  0.00000000000E+00  0.56855612879E+03  0.56855612880E+03  0.25500000920E-02 0.  1.
        2   -1    0    0  501    0  0.00000000000E+00  0.00000000000E+00 -0.75882178310E+03  0.75882178311E+03  0.25500000920E-02 0. -1.
    10030    2    1    2    0    0  0.00000000000E+00  0.00000000000E+00 -0.19026565431E+03  0.13273779119E+04  0.13136708499E+04 0.  0.
        3    1    3    3  502    0  0.33948317721E+03 -0.15835752300E+03 -0.64030568135E+03  0.74183374719E+03  0.10100000352E+00 0. -1.
       -3    1    3    3    0  502 -0.33948317721E+03  0.15835752300E+03  0.45004002704E+03  0.58554416472E+03  0.10100000352E+00 0.  1.
</event>
<event>
 5   0  0.1803959E-03  0.1297077E+04  0.7818609E-02  0.9031886E-01
       -1   -1    0    0    0  501  0.00000000000E+00  0.00000000000E+00  0.28018407387E+03  0.28018407392E+03  0.50400001928E-02 0.  1.
        1   -1    0    0  501    0  0.00000000000E+00  0.00000000000E+00 -0.15011648524E+04  0.15011648524E+04  0.50400001928E-02 0. -1.
    10030    2    1    2    0    0  0.00000000000E+00  0.00000000000E+00 -0.12209807786E+04  0.17813489264E+04  0.12970774595E+04 0.  0.
        4    1    3    3  502    0  0.24767998322E+03  0.28804617087E+03 -0.13323648204E+04  0.13854651198E+04  0.12699999809E+01 0. -1.
       -4    1    3    3    0  502 -0.24767998322E+03 -0.28804617087E+03  0.11138404182E+03  0.39588380658E+03  0.12699999809E+01 0.  1.
</event>
<event>
 5   0  0.3336609E-03  0.1305874E+04  0.7818609E-02  0.9024920E-01
        2   -1    0    0  501    0  0.00000000000E+00  0.00000000000E+00  0.15113125290E+04  0.15113125290E+04  0.25500000920E-02 0.  1.
       -2   -1    0    0    0  501  0.00000000000E+00  0.00000000000E+00 -0.28209038014E+03  0.28209038015E+03  0.25500000920E-02 0. -1.
    10030    2    1    2    0    0  0.00000000000E+00  0.00000000000E+00  0.12292221488E+04  0.17934029091E+04  0.13058739998E+04 0.  0.
        1    1    3    3  502    0  0.17616190066E+03 -0.49219708678E+03  0.11518568712E+04  0.12649368518E+04  0.50400001928E-02 0.  1.
       -1    1    3    3    0  502 -0.17616190066E+03  0.49219708678E+03  0.77365277667E+02  0.52846605727E+03  0.50400001928E-02 0. -1.
</event>
<event>
 5   0  0.1803959E-03  0.9491628E+03  0.7818609E-02  0.9366130E-01
        1   -1    0    0  501    0  0.00000000000E+00  0.00000000000E+00  0.78715442256E+03  0.78715442257E+03  0.50400001928E-02 0.  1.
       -1   -1    0    0    0  501  0.00000000000E+00  0.00000000000E+00 -0.28612876825E+03  0.28612876830E+03  0.50400001928E-02 0. -1.
    10030    2    1    2    0    0  0.00000000000E+00  0.00000000000E+00  0.50102565430E+03  0.10732831909E+04  0.94916284247E+03 0.  0.
        4    1    3    3  502    0  0.33749707512E+03  0.23969807498E+03 -0.11928881143E+02  0.41412963426E+03  0.12699999809E+01 0. -1.
       -4    1    3    3    0  502 -0.33749707512E+03 -0.23969807498E+03  0.51295453545E+03  0.65915355661E+03  0.12699999809E+01 0.  1.
</event>
<event>
 5   0  0.3262927E-03  0.1297025E+04  0.7818609E-02  0.9031928E-01
        2   -1    0    0  501    0  0.00000000000E+00  0.00000000000E+00  0.13268157639E+04  0.13268157639E+04  0.25500000920E-02 0. -1.
       -2   -1    0    0    0  501  0.00000000000E+00  0.00000000000E+00 -0.31697568942E+03  0.31697568943E+03  0.25500000920E-02 0.  1.
    10030    2    1    2    0    0  0.00000000000E+00  0.00000000000E+00  0.10098400744E+04  0.16437914533E+04  0.12970248132E+04 0.  0.
        3    1    3    3  502    0  0.21423552075E+03  0.67894827924E+02  0.12758865977E+04  0.12955281496E+04  0.10100000352E+00 0. -1.
       -3    1    3    3    0  502 -0.21423552075E+03 -0.67894827924E+02 -0.26604652322E+03  0.34826330374E+03  0.10100000352E+00 0.  1.
</event>
<event>
 5   0  0.3259968E-03  0.1315988E+04  0.7818609E-02  0.9016981E-01
        2   -1    0    0  501    0  0.00000000000E+00  0.00000000000E+00  0.77948035073E+03  0.77948035073E+03  0.25500000920E-02 0. -1.
       -2   -1    0    0    0  501  0.00000000000E+00  0.00000000000E+00 -0.55544231586E+03  0.55544231586E+03  0.25500000920E-02 0.  1.
    10030    2    1    2    0    0  0.00000000000E+00  0.00000000000E+00  0.22403803487E+03  0.13349226666E+04  0.13159884060E+04 0.  0.
        4    1    3    3  502    0 -0.59680856055E+03  0.11599199717E+02  0.39284100519E+03  0.71459125914E+03  0.12699999809E+01 0. -1.
       -4    1    3    3    0  502  0.59680856055E+03 -0.11599199717E+02 -0.16880297032E+03  0.62033140745E+03  0.12699999809E+01 0.  1.
</event>
<event>
 5   0  0.1857986E-03  0.1264507E+04  0.7818609E-02  0.9058194E-01
       -1   -1    0    0    0  501  0.00000000000E+00  0.00000000000E+00  0.45532892012E+03  0.45532892014E+03  0.50400001928E-02 0. -1.
        1   -1    0    0  501    0  0.00000000000E+00  0.00000000000E+00 -0.87792525002E+03  0.87792525003E+03  0.50400001928E-02 0.  1.
    10030    2    1    2    0    0  0.00000000000E+00  0.00000000000E+00 -0.42259632990E+03  0.13332541702E+04  0.12645074236E+04 0.  0.
        1    1    3    3  502    0 -0.45519499746E+03 -0.78410601761E+02  0.24390742583E+03  0.52234235955E+03  0.50400001928E-02 0. -1.
       -1    1    3    3    0  502  0.45519499746E+03  0.78410601761E+02 -0.66650375573E+03  0.81091181062E+03  0.50400001928E-02 0.  1.
</event>
<event>
 5   0  0.3336609E-03  0.1324166E+04  0.7818609E-02  0.9010618E-01
        2   -1    0    0  501    0  0.00000000000E+00  0.00000000000E+00  0.89068316223E+03  0.89068316223E+03  0.25500000920E-02 0. -1.
       -2   -1    0    0    0  501  0.00000000000E+00  0.00000000000E+00 -0.49215441571E+03  0.49215441571E+03  0.25500000920E-02 0.  1.
    10030    2    1    2    0    0  0.00000000000E+00  0.00000000000E+00  0.39852874652E+03  0.13828375779E+04  0.13241656260E+04 0.  0.
        1    1    3    3  502    0  0.44553828230E+02  0.65812036875E+03  0.13976454809E+03  0.67427115637E+03  0.50400001928E-02 0. -1.
       -1    1    3    3    0  502 -0.44553828230E+02 -0.65812036875E+03  0.25876419843E+03  0.70856642158E+03  0.50400001928E-02 0.  1.
</event>
<event>
 5   0  0.1814770E-03  0.1302279E+04  0.7818609E-02  0.9027760E-01
       -1   -1    0    0    0  501  0.00000000000E+00  0.00000000000E+00  0.25071261052E+03  0.25071261057E+03  0.50400001928E-02 0.  1.
        1   -1    0    0  501    0  0.00000000000E+00  0.00000000000E+00 -0.16911094234E+04  0.16911094234E+04  0.50400001928E-02 0. -1.
    10030    2    1    2    0    0  0.00000000000E+00  0.00000000000E+00 -0.14403968129E+04  0.19418220340E+04  0.13022787079E+04 0.  0.
        5    1    3    3  502    0  0.51482367072E+02 -0.31118971781E+03  0.12916463064E+03  0.34087397436E+03  0.46999998093E+01 0.  1.
       -5    1    3    3    0  502 -0.51482367072E+02  0.31118971781E+03 -0.15695614435E+04  0.16009480596E+04  0.46999998093E+01 0. -1.
</event>
<event>
 5   0  0.1814770E-03  0.1297144E+04  0.7818609E-02  0.9031833E-01
       -1   -1    0    0    0  501  0.00000000000E+00  0.00000000000E+00  0.36638382682E+03  0.36638382686E+03  0.50400001928E-02 0. -1.
        1   -1    0    0  501    0  0.00000000000E+00  0.00000000000E+00 -0.11481015603E+04  0.11481015603E+04  0.50400001928E-02 0.  1.
    10030    2    1    2    0    0  0.00000000000E+00  0.00000000000E+00 -0.78171773348E+03  0.15144853872E+04  0.12971443147E+04 0.  0.
        5    1    3    3  502    0  0.47690354536E+03  0.35036863435E+03 -0.70070869682E+03  0.91717497747E+03  0.46999998093E+01 0.  1.
       -5    1    3    3    0  502 -0.47690354536E+03 -0.35036863435E+03 -0.81009036661E+02  0.59731040969E+03  0.46999998093E+01 0. -1.
</event>
<event>
 5   0  0.1803959E-03  0.1280803E+04  0.7818609E-02  0.9044928E-01
       -1   -1    0    0    0  501  0.00000000000E+00  0.00000000000E+00  0.53650254419E+03  0.53650254422E+03  0.50400001928E-02 0. -1.
        1   -1    0    0  501    0  0.00000000000E+00  0.00000000000E+00 -0.76442191654E+03  0.76442191656E+03  0.50400001928E-02 0.  1.
    10030    2    1    2    0    0  0.00000000000E+00  0.00000000000E+00 -0.22791937235E+03  0.13009244608E+04  0.12808033465E+04 0.  0.
        4    1    3    3  502    0 -0.10444752278E+03 -0.39612461269E+03 -0.61392077204E+03  0.73805441604E+03  0.12699999809E+01 0.  1.
       -4    1    3    3    0  502  0.10444752278E+03  0.39612461269E+03  0.38600139969E+03  0.56287004473E+03  0.12699999809E+01 0. -1.
</event>
<event>
 5   0  0.1873488E-03  0.1295448E+04  0.7818609E-02  0.9033183E-01
       -1   -1    0    0    0  501  0.00000000000E+00  0.00000000000E+00  0.26561086216E+03  0.26561086221E+03  0.50400001928E-02 0.  1.
        1   -1    0    0  501    0  0.00000000000E+00  0.00000000000E+00 -0.15795518329E+04  0.15795518330E+04  0.50400001928E-02 0. -1.
    10030    2    1    2    0    0  0.00000000000E+00  0.00000000000E+00 -0.13139409708E+04  0.18451626952E+04  0.12954476048E+04 0.  0.
        3    1    3    3  502    0  0.66693087592E+02 -0.27452324863E+02  0.25987385993E+03  0.26969618341E+03  0.10100000352E+00 0.  1.
       -3    1    3    3    0  502 -0.66693087592E+02  0.27452324863E+02 -0.15738148307E+04  0.15754665118E+04  0.10100000352E+00 0. -1.
</event>
<event>
 5   0  0.1873488E-03  0.1304352E+04  0.7818609E-02  0.9026121E-01
        1   -1    0    0  501    0  0.00000000000E+00  0.00000000000E+00  0.42540954688E+03  0.42540954691E+03  0.50400001928E-02 0.  1.
       -1   -1    0    0    0  501  0.00000000000E+00  0.00000000000E+00 -0.99982129141E+03  0.99982129143E+03  0.50400001928E-02 0. -1.
    10030    2    1    2    0    0  0.00000000000E+00  0.00000000000E+00 -0.57441174453E+03  0.14252308383E+04  0.13043519810E+04 0.  0.
        3    1    3    3  502    0 -0.47296456785E+03 -0.41175737173E+03 -0.48295581075E+03  0.79150864869E+03  0.10100000352E+00 0. -1.
       -3    1    3    3    0  502  0.47296456785E+03  0.41175737173E+03 -0.91455933783E+02  0.63372218965E+03  0.10100000352E+00 0.  1.
</event>
<event>
 5   0  0.1803959E-03  0.1287522E+04  0.7818609E-02  0.9039519E-01
       -1   -1    0    0    0  501  0.00000000000E+00  0.00000000000E+00  0.29491462821E+03  0.29491462825E+03  0.50400001928E-02 0. -1.
        1   -1    0    0  501    0  0.00000000000E+00  0.00000000000E+00 -0.14052490618E+04  0.14052490618E+04  0.50400001928E-02 0.  1.
    10030    2    1    2    0    0  0.00000000000E+00  0.00000000000E+00 -0.11103344336E+04  0.17001636900E+04  0.12875224342E+04 0.  0.
        4    1    3    3  502    0 -0.39897944712E+03  0.46474610695E+03 -0.29354520117E+03  0.67922304229E+03  0.12699999809E+01 0. -1.
       -4    1    3    3    0  502  0.39897944712E+03 -0.46474610695E+03 -0.81678923239E+03  0.10209406477E+04  0.12699999809E+01 0.  1.
</event>
<event>
 5   0  0.1873488E-03  0.1318775E+04  0.7818609E-02  0.9014808E-01
       -1   -1    0    0    0  501  0.00000000000E+00  0.00000000000E+00  0.43906122846E+03  0.43906122849E+03  0.50400001928E-02 0.  1.
        1   -1    0    0  501    0  0.00000000000E+00  0.00000000000E+00 -0.99027561782E+03  0.99027561784E+03  0.50400001928E-02 0. -1.
    10030    2    1    2    0    0  0.00000000000E+00  0.00000000000E+00 -0.55121438936E+03  0.14293368463E+04  0.13187746272E+04 0.  0.
        3    1    3    3  502    0 -0.49367408806E+03 -0.22800306263E+03 -0.67982483790E+03  0.87055230872E+03  0.10100000352E+00 0. -1.
       -3    1    3    3    0  502  0.49367408806E+03  0.22800306263E+03  0.12861044854E+03  0.55878453761E+03  0.10100000352E+00 0.  1.
</event>
<event>
 5   0  0.1857986E-03  0.1285982E+04  0.7818609E-02  0.9040756E-01
       -1   -1    0    0    0  501  0.00000000000E+00  0.00000000000E+00  0.24932537976E+03  0.24932537981E+03  0.50400001928E-02 0.  1.
        1   -1    0    0  501    0  0.00000000000E+00  0.00000000000E+00 -0.16582250438E+04  0.16582250438E+04  0.50400001928E-02 0. -1.
    10030    2    1    2    0    0  0.00000000000E+00  0.00000000000E+00 -0.14088996640E+04  0.19075504236E+04  0.12859822531E+04 0.  0.
        1    1    3    3  502    0 -0.19189511347E+03  0.41408195142E+03 -0.32592898457E+02  0.45754769600E+03  0.50400001928E-02 0.  1.
       -1    1    3    3    0  502  0.19189511347E+03 -0.41408195142E+03 -0.13763067655E+04  0.14500027276E+04  0.50400001928E-02 0. -1.
</event>
<event>
 5   0  0.1814770E-03  0.1296021E+04  0.7818609E-02  0.9032727E-01
       -1   -1    0    0    0  501  0.00000000000E+00  0.00000000000E+00  0.39694147188E+03  0.39694147191E+03  0.50400001928E-02 0.  1.
        1   -1    0    0  501    0  0.00000000000E+00  0.00000000000E+00 -0.10578821684E+04  0.10578821684E+04  0.50400001928E-02 0. -1.
    10030    2    1    2    0    0  0.00000000000E+00  0.00000000000E+00 -0.66094069650E+03  0.14548236403E+04  0.12960205323E+04 0.  0.
        5    1    3    3  502    0 -0.57716592502E+03  0.36192691180E+02 -0.23054648805E+01  0.57832328422E+03  0.46999998093E+01 0.  1.
       -5    1    3    3    0  502  0.57716592502E+03 -0.36192691180E+02 -0.65863523162E+03  0.87650035609E+03  0.46999998093E+01 0. -1.
</event>
<event>
 5   0  0.3262927E-03  0.1277732E+04  0.7818609E-02  0.9047413E-01
       -2   -1    0    0    0  501  0.00000000000E+00  0.00000000000E+00  0.25041568584E+03  0.25041568585E+03  0.25500000920E-02 0. -1.
        2   -1    0    0  501    0  0.00000000000E+00  0.00000000000E+00 -0.16298889139E+04  0.16298889139E+04  0.25500000920E-02 0.  1.
    10030    2    1    2    0    0  0.00000000000E+00  0.00000000000E+00 -0.13794732281E+04  0.18803045998E+04  0.12777319754E+04 0.  0.
        3    1    3    3  502    0 -0.48011549117E+03  0.37863248959E+03 -0.96218570841E+03  0.11400328042E+04  0.10100000352E+00 0.  1.
       -3    1    3    3    0  502  0.48011549117E+03 -0.37863248959E+03 -0.41728751967E+03  0.74027179556E+03  0.10100000352E+00 0. -1.
</event>
<event>
 5   0  0.3299104E-03  0.1319591E+04  0.7818609E-02  0.9014172E-01
        2   -1    0    0  501    0  0.00000000000E+00  0.00000000000E+00  0.19424904299E+04  0.19424904299E+04  0.25500000920E-02 0.  1.
       -2   -1    0    0    0  501  0.00000000000E+00  0.00000000000E+00 -0.22410937228E+03  0.22410937229E+03  0.25500000920E-02 0. -1.
    10030    2    1    2    0    0  0.00000000000E+00  0.00000000000E+00  0.17183810576E+04  0.21665998022E+04  0.13195913169E+04 0.  0.
        2    1    3    3  502    0 -0.41381998783E+03 -0.35098342118E+02  0.17418624788E+02  0.41567088477E+03  0.25500000920E-02 0. -1.
       -2    1    3    3    0  502  0.41381998783E+03  0.35098342118E+02  0.17009624329E+04  0.17509289174E+04  0.25500000920E-02 0.  1.
</event>
<event>
 5   0  0.1814770E-03  0.1234705E+04  0.7818609E-02  0.9083010E-01
       -1   -1    0    0    0  501  0.00000000000E+00  0.00000000000E+00  0.50646042191E+03  0.50646042194E+03  0.50400001928E-02 0.  1.
        1   -1    0    0  501    0  0.00000000000E+00  0.00000000000E+00 -0.75252451532E+03  0.75252451533E+03  0.50400001928E-02 0. -1.
    10030    2    1    2    0    0  0.00000000000E+00  0.00000000000E+00 -0.24606409341E+03  0.12589849373E+04  0.12347046344E+04 0.  0.
        5    1    3    3  502    0  0.49538407215E+03  0.36155946807E+03 -0.19492504135E+03  0.64354369675E+03  0.46999998093E+01 0.  1.
       -5    1    3    3    0  502 -0.49538407215E+03 -0.36155946807E+03 -0.51139052060E+02  0.61544124052E+03  0.46999998093E+01 0. -1.
</event>
<event>
 5   0  0.3262927E-03  0.1294961E+04  0.7818609E-02  0.9033571E-01
        2   -1    0    0  501    0  0.00000000000E+00  0.00000000000E+00  0.10055565091E+04  0.10055565091E+04  0.25500000920E-02 0.  1.
       -2   -1    0    0    0  501  0.00000000000E+00  0.00000000000E+00 -0.41691431639E+03  0.41691431639E+03  0.25500000920E-02 0. -1.
    10030    2    1    2    0    0  0.00000000000E+00  0.00000000000E+00  0.58864219276E+03  0.14224708255E+04  0.12949608559E+04 0.  0.
        3    1    3    3  502    0  0.95596947344E+00 -0.62974593121E+03  0.12900267894E+03  0.64282388967E+03  0.10100000352E+00 0. -1.
       -3    1    3    3    0  502 -0.95596947344E+00  0.62974593121E+03  0.45963951381E+03  0.77964693587E+03  0.10100000352E+00 0.  1.
</event>
<event>
 5   0  0.3336609E-03  0.1363297E+04  0.7818609E-02  0.8980823E-01
        2   -1    0    0  501    0  0.00000000000E+00  0.00000000000E+00  0.10179369937E+04  0.10179369937E+04  0.25500000920E-02 0. -1.
       -2   -1    0    0    0  501  0.00000000000E+00  0.00000000000E+00 -0.45645737528E+03  0.45645737529E+03  0.25500000920E-02 0.  1.
    10030    2    1    2    0    0  0.00000000000E+00  0.00000000000E+00  0.56147961842E+03  0.14743943690E+04  0.13632972506E+04 0.  0.
        1    1    3    3  502    0 -0.21341814315E+03  0.44477508962E+03 -0.22798976702E+03  0.54346252683E+03  0.50400001928E-02 0.  1.
       -1    1    3    3    0  502  0.21341814315E+03 -0.44477508962E+03  0.78946938544E+03  0.93093184216E+03  0.50400001928E-02 0. -1.
</event>
<event>
 5   0  0.3259968E-03  0.1329908E+04  0.7818609E-02  0.9006178E-01
       -2   -1    0    0    0  501  0.00000000000E+00  0.00000000000E+00  0.44676671211E+03  0.44676671212E+03  0.25500000920E-02 0. -1.
        2   -1    0    0  501    0  0.00000000000E+00  0.00000000000E+00 -0.98969726211E+03  0.98969726211E+03  0.25500000920E-02 0.  1.
    10030    2    1    2    0    0  0.00000000000E+00  0.00000000000E+00 -0.54293055000E+03  0.14364639742E+04  0.13299079544E+04 0.  0.
        4    1    3    3  502    0  0.58568433082E+03  0.31438791898E+03 -0.29005719586E+03  0.72525904940E+03  0.12699999809E+01 0.  1.
       -4    1    3    3    0  502 -0.58568433082E+03 -0.31438791898E+03 -0.25287335413E+03  0.71120492483E+03  0.12699999809E+01 0. -1.
</event>
<event>
 5   0  0.3299104E-03  0.1289960E+04  0.7818609E-02  0.9037565E-01
        2   -1    0    0  501    0  0.00000000000E+00  0.00000000000E+00  0.15277921970E+04  0.15277921970E+04  0.25500000920E-02 0.  1.
       -2   -1    0    0    0  501  0.00000000000E+00  0.00000000000E+00 -0.27228792061E+03  0.27228792062E+03  0.25500000920E-02 0. -1.
    10030    2    1    2    0    0  0.00000000000E+00  0.00000000000E+00  0.12555042764E+04  0.18000801176E+04  0.12899602481E+04 0.  0.
        2    1    3    3  502    0 -0.13105198335E+03  0.28736749962E+03  0.14124945179E+04  0.14473753712E+04  0.25500000920E-02 0.  1.
       -2    1    3    3    0  502  0.13105198335E+03 -0.28736749962E+03 -0.15699024151E+03  0.35270474637E+03  0.25500000920E-02 0. -1.
</event>
<event>
 5   0  0.1814770E-03  0.1303092E+04  0.7818609E-02  0.9027117E-01
       -1   -1    0    0    0  501  0.00000000000E+00  0.00000000000E+00  0.31034202956E+03  0.31034202960E+03  0.50400001928E-02 0. -1.
        1   -1    0    0  501    0  0.00000000000E+00  0.00000000000E+00 -0.13678839314E+04  0.13678839314E+04  0.50400001928E-02 0.  1.
    10030    2    1    2    0    0  0.00000000000E+00  0.00000000000E+00 -0.10575419019E+04  0.16782259610E+04  0.13030915171E+04 0.  0.
        5    1    3    3  502    0  0.19737596370E+03  0.47603231332E+03 -0.10421907989E+04  0.11626468878E+04  0.46999998093E+01 0.  1.
       -5    1    3    3    0  502 -0.19737596370E+03 -0.47603231332E+03 -0.15351102925E+02  0.51557907320E+03  0.46999998093E+01 0. -1.
</event>
<event>
 5   0  0.3299104E-03  0.1386419E+04  0.7818609E-02  0.8963708E-01
       -2   -1    0    0    0  501  0.00000000000E+00  0.00000000000E+00  0.49439401780E+03  0.49439401781E+03  0.25500000920E-02 0.  1.
        2   -1    0    0  501    0  0.00000000000E+00  0.00000000000E+00 -0.97197656617E+03  0.97197656617E+03  0.25500000920E-02 0. -1.
    10030    2    1    2    0    0  0.00000000000E+00  0.00000000000E+00 -0.47758254837E+03  0.14663705840E+04  0.13864189840E+04 0.  0.
        2    1    3    3  502    0 -0.29357636064E+03 -0.62063896526E+03 -0.34001617966E+03  0.76615325305E+03  0.25500000920E-02 0. -1.
       -2    1    3    3    0  502  0.29357636064E+03  0.62063896526E+03 -0.13756636870E+03  0.70021733093E+03  0.25500000920E-02 0.  1.
</event>
<event>
 5   0  0.1814770E-03  0.1344707E+04  0.7818609E-02  0.8994844E-01
       -1   -1    0    0    0  501  0.00000000000E+00  0.00000000000E+00  0.11609952706E+04  0.11609952706E+04  0.50400001928E-02 0. -1.
        1   -1    0    0  501    0  0.00000000000E+00  0.00000000000E+00 -0.38937237055E+03  0.38937237058E+03  0.50400001928E-02 0.  1.
    10030    2    1    2    0    0  0.00000000000E+00  0.00000000000E+00  0.77162290001E+03  0.15503676411E+04  0.13447073745E+04 0.  0.
        5    1    3    3  502    0 -0.29109269358E+03  0.40690747053E+03 -0.13202283615E+03  0.51745605136E+03  0.46999998093E+01 0.  1.
       -5    1    3    3    0  502  0.29109269358E+03 -0.40690747053E+03  0.90364573616E+03  0.10329115898E+04  0.46999998093E+01 0. -1.
</event>
<event>
 5   0  0.1823154E-03  0.1281155E+04  0.7818609E-02  0.9044644E-01
        1   -1    0    0  501    0  0.00000000000E+00  0.00000000000E+00  0.13079554373E+04  0.13079554373E+04  0.50400001928E-02 0.  1.
       -1   -1    0    0    0  501  0.00000000000E+00  0.00000000000E+00 -0.31372604386E+03  0.31372604390E+03  0.50400001928E-02 0. -1.
    10030    2    1    2    0    0  0.00000000000E+00  0.00000000000E+00  0.99422939340E+03  0.16216814812E+04  0.12811552364E+04 0.  0.
        2    1    3    3  502    0  0.57806268240E+03 -0.17582299767E+03  0.76643346501E+03  0.97595617093E+03  0.25500000920E-02 0.  1.
       -2    1    3    3    0  502 -0.57806268240E+03  0.17582299767E+03  0.22779592839E+03  0.64572531024E+03  0.25500000920E-02 0. -1.
</event>
<event>
 5   0  0.1823154E-03  0.8690718E+03  0.7818609E-02  0.9465091E-01
       -1   -1    0    0    0  501  0.00000000000E+00  0.00000000000E+00  0.10512045578E+03  0.10512045590E+03  0.50400001928E-02 0.  1.
        1   -1    0    0  501    0  0.00000000000E+00  0.00000000000E+00 -0.17962387601E+04  0.17962387601E+04  0.50400001928E-02 0. -1.
    10030    2    1    2    0    0  0.00000000000E+00  0.00000000000E+00 -0.16911183043E+04  0.19013592160E+04  0.86907177442E+03 0.  0.
        2    1    3    3  502    0  0.11432949647E+03  0.41862673008E+03 -0.89457107142E+03  0.99427208284E+03  0.25500000920E-02 0.  1.
       -2    1    3    3    0  502 -0.11432949647E+03 -0.41862673008E+03 -0.79654723292E+03  0.90708713318E+03  0.25500000920E-02 0. -1.
</event>
<event>
 5   0  0.1823154E-03  0.1295424E+04  0.7818609E-02  0.9033202E-01
       -1   -1    0    0    0  501  0.00000000000E+00  0.00000000000E+00  0.30085446059E+03  0.30085446064E+03  0.50400001928E-02 0. -1.
        1   -1    0    0  501    0  0.00000000000E+00  0.00000000000E+00 -0.13944637903E+04  0.13944637903E+04  0.50400001928E-02 0.  1.
    10030    2    1    2    0    0  0.00000000000E+00  0.00000000000E+00 -0.10936093297E+04  0.16953182509E+04  0.12954237167E+04 0.  0.
        2    1    3    3  502    0 -0.58128339597E+02  0.11517901572E+03 -0.13774779331E+04  0.13835066194E+04  0.25500000920E-02 0.  1.
       -2    1    3    3    0  502  0.58128339597E+02 -0.11517901572E+03  0.28386860347E+03  0.31181163155E+03  0.25500000920E-02 0. -1.
</event>
<event>
 5   0  0.3336609E-03  0.1093269E+04  0.7818609E-02  0.9211777E-01
       -2   -1    0    0    0  501  0.00000000000E+00  0.00000000000E+00  0.24565768478E+03  0.24565768479E+03  0.25500000920E-02 0. -1.
        2   -1    0    0  501    0  0.00000000000E+00  0.00000000000E+00 -0.12163648065E+04  0.12163648065E+04  0.25500000920E-02 0.  1.
    10030    2    1    2    0    0  0.00000000000E+00  0.00000000000E+00 -0.97070712175E+03  0.14620224913E+04  0.10932691567E+04 0.  0.
        1    1    3    3  502    0  0.30396789372E+03  0.60409868020E+02  0.11682027137E+03  0.33119904649E+03  0.50400001928E-02 0. -1.
       -1    1    3    3    0  502 -0.30396789372E+03 -0.60409868020E+02 -0.10875273931E+04  0.11308234448E+04  0.50400001928E-02 0.  1.
</event>
<event>
 5   0  0.3259968E-03  0.1300798E+04  0.7818609E-02  0.9028933E-01
        2   -1    0    0  501    0  0.00000000000E+00  0.00000000000E+00  0.92071407384E+03  0.92071407385E+03  0.25500000920E-02 0.  1.
       -2   -1    0    0    0  501  0.00000000000E+00  0.00000000000E+00 -0.45944631768E+03  0.45944631768E+03  0.25500000920E-02 0. -1.
    10030    2    1    2    0    0  0.00000000000E+00  0.00000000000E+00  0.46126775617E+03  0.13801603915E+04  0.13007977412E+04 0.  0.
        4    1    3    3  502    0  0.37856263175E+03 -0.40217040428E+03 -0.13378335612E+03  0.56828716289E+03  0.12699999809E+01 0.  1.
       -4    1    3    3    0  502 -0.37856263175E+03  0.40217040428E+03  0.59505111229E+03  0.81187322863E+03  0.12699999809E+01 0. -1.
</event>
<event>
 5   0  0.1873488E-03  0.1265538E+04  0.7818609E-02  0.9057350E-01
       -1   -1    0    0    0  501  0.00000000000E+00  0.00000000000E+00  0.32138884860E+03  0.32138884864E+03  0.50400001928E-02 0. -1.
        1   -1    0    0  501    0  0.00000000000E+00  0.00000000000E+00 -0.12458314820E+04  0.12458314820E+04  0.50400001928E-02 0.  1.
    10030    2    1    2    0    0  0.00000000000E+00  0.00000000000E+00 -0.92444263338E+03  0.15672203306E+04  0.12655375863E+04 0.  0.
        3    1    3    3  502    0  0.61893874966E+03  0.10234860822E+03 -0.56461037677E+03  0.84400551017E+03  0.10100000352E+00 0.  1.
       -3    1    3    3    0  502 -0.61893874966E+03 -0.10234860822E+03 -0.35983225660E+03  0.72321482046E+03  0.10100000352E+00 0. -1.
</event>
<event>
 5   0  0.3262927E-03  0.1300759E+04  0.7818609E-02  0.9028963E-01
        2   -1    0    0  501    0  0.00000000000E+00  0.00000000000E+00  0.56546852152E+03  0.56546852153E+03  0.25500000920E-02 0. -1.
       -2   -1    0    0    0  501  0.00000000000E+00  0.00000000000E+00 -0.74804104686E+03  0.74804104686E+03  0.25500000920E-02 0.  1.
    10030    2    1    2    0    0  0.00000000000E+00  0.00000000000E+00 -0.18257252533E+03  0.13135095684E+04  0.13007592626E+04 0.  0.
        3    1    3    3  502    0 -0.11169547499E+03 -0.32914664130E+03 -0.64638387819E+03  0.73391111096E+03  0.10100000352E+00 0.  1.
       -3    1    3    3    0  502  0.11169547499E+03  0.32914664130E+03  0.46381135285E+03  0.57959845743E+03  0.10100000352E+00 0. -1.
</event>
<event>
 5   0  0.1873488E-03  0.1323768E+04  0.7818609E-02  0.9010926E-01
        1   -1    0    0  501    0  0.00000000000E+00  0.00000000000E+00  0.18782103838E+04  0.18782103838E+04  0.50400001928E-02 0. -1.
       -1   -1    0    0    0  501  0.00000000000E+00  0.00000000000E+00 -0.23324900842E+03  0.23324900847E+03  0.50400001928E-02 0.  1.
    10030    2    1    2    0    0  0.00000000000E+00  0.00000000000E+00  0.16449613754E+04  0.21114593923E+04  0.13237684234E+04 0.  0.
        3    1    3    3  502    0 -0.39399863302E+03  0.45476189411E+03  0.12623390884E+04  0.13984074111E+04  0.10100000352E+00 0. -1.
       -3    1    3    3    0  502  0.39399863302E+03 -0.45476189411E+03  0.38262228700E+03  0.71305198118E+03  0.10100000352E+00 0.  1.
</event>
<event>
 5   0  0.1823154E-03  0.1300596E+04  0.7818609E-02  0.9029093E-01
       -1   -1    0    0    0  501  0.00000000000E+00  0.00000000000E+00  0.10031618384E+04  0.10031618384E+04  0.50400001928E-02 0. -1.
        1   -1    0    0  501    0  0.00000000000E+00  0.00000000000E+00 -0.42155467317E+03  0.42155467320E+03  0.50400001928E-02 0.  1.
    10030    2    1    2    0    0  0.00000000000E+00  0.00000000000E+00  0.58160716526E+03  0.14247165116E+04  0.13005961110E+04 0.  0.
        2    1    3    3  502    0  0.89944211396E+02 -0.23711514251E+03 -0.36515347619E+03  0.44457914160E+03  0.25500000920E-02 0.  1.
       -2    1    3    3    0  502 -0.89944211396E+02  0.23711514251E+03  0.94676064144E+03  0.98013737005E+03  0.25500000920E-02 0. -1.
</event>
<event>
 5   0  0.3299104E-03  0.1285170E+04  0.7818609E-02  0.9041409E-01
       -2   -1    0    0    0  501  0.00000000000E+00  0.00000000000E+00  0.16202723043E+03  0.16202723045E+03  0.25500000920E-02 0.  1.
        2   -1    0    0  501    0  0.00000000000E+00  0.00000000000E+00 -0.25484313071E+04  0.25484313071E+04  0.25500000920E-02 0. -1.
    10030    2    1    2    0    0  0.00000000000E+00  0.00000000000E+00 -0.23864040767E+04  0.27104585375E+04  0.12851696645E+04 0.  0.
        2    1    3    3  502    0 -0.55696284156E+03  0.18009139623E+03 -0.63411174375E+03  0.86298216751E+03  0.25500000920E-02 0.  1.
       -2    1    3    3    0  502  0.55696284156E+03 -0.18009139623E+03 -0.17522923329E+04  0.18474763700E+04  0.25500000920E-02 0. -1.
</event>
<event>
 5   0  0.1814770E-03  0.1307433E+04  0.7818609E-02  0.9023691E-01
       -1   -1    0    0    0  501  0.00000000000E+00  0.00000000000E+00  0.52550181972E+03  0.52550181974E+03  0.50400001928E-02 0.  1.
        1   -1    0    0  501    0  0.00000000000E+00  0.00000000000E+00 -0.81321413978E+03  0.81321413980E+03  0.50400001928E-02 0. -1.
    10030    2    1    2    0    0  0.00000000000E+00  0.00000000000E+00 -0.28771232006E+03  0.13387159595E+04  0.13074333793E+04 0.  0.
        5    1    3    3  502    0 -0.46085553705E+03  0.14351599896E+03  0.30753035179E+03  0.57234751266E+03  0.46999998093E+01 0.  1.
       -5    1    3    3    0  502  0.46085553705E+03 -0.14351599896E+03 -0.59524267185E+03  0.76636844688E+03  0.46999998093E+01 0. -1.
</event>
<event>
 5   0  0.1857986E-03  0.1296624E+04  0.7818609E-02  0.9032247E-01
       -1   -1    0    0    0  501  0.00000000000E+00  0.00000000000E+00  0.29858956458E+03  0.29858956463E+03  0.50400001928E-02 0. -1.
        1   -1    0    0  501    0  0.00000000000E+00  0.00000000000E+00 -0.14076461171E+04  0.14076461172E+04  0.50400001928E-02 0.  1.
    10030    2    1    2    0    0  0.00000000000E+00  0.00000000000E+00 -0.11090565526E+04  0.17062356818E+04  0.12966239875E+04 0.  0.
        1    1    3    3  502    0 -0.28011193635E+03 -0.21163849165E+03  0.16267674829E+03  0.38693316282E+03  0.50400001928E-02 0. -1.
       -1    1    3    3    0  502  0.28011193635E+03  0.21163849165E+03 -0.12717333008E+04  0.13193025190E+04  0.50400001928E-02 0.  1.
</event>
<event>
 5   0  0.3259968E-03  0.1543478E+04  0.7818609E-02  0.8856045E-01
       -2   -1    0    0    0  501  0.00000000000E+00  0.00000000000E+00  0.75677826173E+03  0.75677826174E+03  0.25500000920E-02 0. -1.
        2   -1    0    0  501    0  0.00000000000E+00  0.00000000000E+00 -0.78699534569E+03  0.78699534569E+03  0.25500000920E-02 0.  1.
    10030    2    1    2    0    0  0.00000000000E+00  0.00000000000E+00 -0.30217083951E+02  0.15437736074E+04  0.15434778517E+04 0.  0.
        4    1    3    3  502    0  0.44030264336E+03  0.42877101843E+03 -0.48196168281E+03  0.78102476311E+03  0.12699999809E+01 0.  1.
       -4    1    3    3    0  502 -0.44030264336E+03 -0.42877101843E+03  0.45174459886E+03  0.76274884431E+03  0.12699999809E+01 0. -1.
</event>
<event>
 5   0  0.1857986E-03  0.1673897E+04  0.7818609E-02  0.8776394E-01
        1   -1    0    0  501    0  0.00000000000E+00  0.00000000000E+00  0.85777263573E+03  0.85777263574E+03  0.50400001928E-02 0.  1.
       -1   -1    0    0    0  501  0.00000000000E+00  0.00000000000E+00 -0.81662978114E+03  0.81662978116E+03  0.50400001928E-02 0. -1.
    10030    2    1    2    0    0  0.00000000000E+00  0.00000000000E+00  0.41142854587E+02  0.16744024169E+04  0.16738968664E+04 0.  0.
        1    1    3    3  502    0 -0.79420405105E+03 -0.23874278145E+03  0.13340837450E+03  0.83997380007E+03  0.50400001928E-02 0. -1.
       -1    1    3    3    0  502  0.79420405105E+03  0.23874278145E+03 -0.92265519916E+02  0.83442861683E+03  0.50400001928E-02 0.  1.
</event>
<event>
 5   0  0.3259968E-03  0.1375454E+04  0.7818609E-02  0.8971780E-01
       -2   -1    0    0    0  501  0.00000000000E+00  0.00000000000E+00  0.23184937993E+03  0.23184937994E+03  0.25500000920E-02 0. -1.
        2   -1    0    0  501    0  0.00000000000E+00  0.00000000000E+00 -0.20399826480E+04  0.20399826480E+04  0.25500000920E-02 0.  1.
    10030    2    1    2    0    0  0.00000000000E+00  0.00000000000E+00 -0.18081332681E+04  0.22718320280E+04  0.13754544151E+04 0.  0.
        4    1    3    3  502    0 -0.45462373014E+03 -0.45323016435E+03 -0.13115596635E+04  0.14602365157E+04  0.12699999809E+01 0.  1.
       -4    1    3    3    0  502  0.45462373014E+03  0.45323016435E+03 -0.49657360454E+03  0.81159551225E+03  0.12699999809E+01 0. -1.
</event>
<event>
 5   0  0.3294720E-03  0.1477406E+04  0.7818609E-02  0.8899618E-01
       -2   -1    0    0    0  501  0.00000000000E+00  0.00000000000E+00  0.24135284001E+03  0.24135284003E+03  0.25500000920E-02 0. -1.
        2   -1    0    0  501    0  0.00000000000E+00  0.00000000000E+00 -0.22609299391E+04  0.22609299391E+04  0.25500000920E-02 0.  1.
    10030    2    1    2    0    0  0.00000000000E+00  0.00000000000E+00 -0.20195770991E+04  0.25022827791E+04  0.14774056476E+04 0.  0.
        5    1    3    3  502    0  0.33675097667E+03  0.63913118541E+03 -0.74866254615E+03  0.10403881922E+04  0.46999998093E+01 0. -1.
       -5    1    3    3    0  502 -0.33675097667E+03 -0.63913118541E+03 -0.12709145530E+04  0.14618945870E+04  0.46999998093E+01 0.  1.
</event>
<event>
 5   0  0.1803959E-03  0.1308608E+04  0.7818609E-02  0.9022766E-01
        1   -1    0    0  501    0  0.00000000000E+00  0.00000000000E+00  0.18534704123E+04  0.18534704123E+04  0.50400001928E-02 0.  1.
       -1   -1    0    0    0  501  0.00000000000E+00  0.00000000000E+00 -0.23097961572E+03  0.23097961578E+03  0.50400001928E-02 0. -1.
    10030    2    1    2    0    0  0.00000000000E+00  0.00000000000E+00  0.16224907966E+04  0.20844500281E+04  0.13086082434E+04 0.  0.
        4    1    3    3  502    0 -0.22364597049E+03  0.34499162745E+03  0.48032446123E+00  0.41114302467E+03  0.12699999809E+01 0. -1.
       -4    1    3    3    0  502  0.22364597049E+03 -0.34499162745E+03  0.16220104721E+04  0.16733070034E+04  0.12699999809E+01 0.  1.
</event>
<event>
 5   0  0.3294720E-03  0.1299809E+04  0.7818609E-02  0.9029716E-01
        2   -1    0    0  501    0  0.00000000000E+00  0.00000000000E+00  0.12229496074E+04  0.12229496074E+04  0.25500000920E-02 0.  1.
       -2   -1    0    0    0  501  0.00000000000E+00  0.00000000000E+00 -0.34537487040E+03  0.34537487041E+03  0.25500000920E-02 0. -1.
    10030    2    1    2    0    0  0.00000000000E+00  0.00000000000E+00  0.87757473701E+03  0.15683244778E+04  0.12998093124E+04 0.  0.
        5    1    3    3  502    0 -0.13605567307E+03  0.61280084648E+03  0.64182997080E+03  0.89777715778E+03  0.46999998093E+01 0.  1.
       -5    1    3    3    0  502  0.13605567307E+03 -0.61280084648E+03  0.23574476621E+03  0.67054732004E+03  0.46999998093E+01 0. -1.
</event>
<event>
 5   0  0.1254125E-03  0.1298356E+04  0.7818609E-02  0.9030870E-01
        4   -1    0    0  501    0  0.00000000000E+00  0.00000000000E+00  0.66833031476E+03  0.66833152142E+03  0.12699999809E+01 0. -1.
       -4   -1    0    0    0  501  0.00000000000E+00  0.00000000000E+00 -0.63057180125E+03  0.63057308016E+03  0.12699999809E+01 0.  1.
    10030    2    1    2    0    0  0.00000000000E+00  0.00000000000E+00  0.37758513510E+02  0.12989046016E+04  0.12983556749E+04 0.  0.
        5    1    3    3  502    0  0.20787326551E+03  0.39918972522E+03  0.48688687704E+03  0.66305705054E+03  0.46999998093E+01 0. -1.
       -5    1    3    3    0  502 -0.20787326551E+03 -0.39918972522E+03 -0.44912836353E+03  0.63584755104E+03  0.46999998093E+01 0.  1.
</event>
<event>
 5   0  0.3299104E-03  0.1254321E+04  0.7818609E-02  0.9066595E-01
        2   -1    0    0  501    0  0.00000000000E+00  0.00000000000E+00  0.15104692477E+04  0.15104692477E+04  0.25500000920E-02 0.  1.
       -2   -1    0    0    0  501  0.00000000000E+00  0.00000000000E+00 -0.26040269918E+03  0.26040269920E+03  0.25500000920E-02 0. -1.
    10030    2    1    2    0    0  0.00000000000E+00  0.00000000000E+00  0.12500665485E+04  0.17708719469E+04  0.12543209624E+04 0.  0.
        2    1    3    3  502    0 -0.25880885885E+03  0.39712947823E+03  0.12048011747E+04  0.12946967670E+04  0.25500000920E-02 0.  1.
       -2    1    3    3    0  502  0.25880885885E+03 -0.39712947823E+03  0.45265373824E+02  0.47617517992E+03  0.25500000920E-02 0. -1.
</event>
<event>
 5   0  0.1814770E-03  0.1332039E+04  0.7818609E-02  0.9004537E-01
        1   -1    0    0  501    0  0.00000000000E+00  0.00000000000E+00  0.11750349909E+04  0.11750349909E+04  0.50400001928E-02 0.  1.
       -1   -1    0    0    0  501  0.00000000000E+00  0.00000000000E+00 -0.37750531371E+03  0.37750531375E+03  0.50400001928E-02 0. -1.
    10030    2    1    2    0    0  0.00000000000E+00  0.00000000000E+00  0.79752967718E+03  0.15525403046E+04  0.13320389677E+04 0.  0.
        5    1    3    3  502    0  0.44026378483E+03  0.27941390756E+03  0.88166222427E+03  0.10243313427E+04  0.46999998093E+01 0. -1.
       -5    1    3    3    0  502 -0.44026378483E+03 -0.27941390756E+03 -0.84132547096E+02  0.52820896192E+03  0.46999998093E+01 0.  1.
</event>
</LesHouchesEvents>
